/*--------------------------------*- C++ -*----------------------------------*\
| =========                 |                                                 |
| \\      /  F ield         | OpenFOAM: The Open Source CFD Toolbox           |
|  \\    /   O peration     | Version:  2306                                  |
|   \\  /    A nd           | Website:  www.openfoam.com                      |
|    \\/     M anipulation  |                                                 |
\*---------------------------------------------------------------------------*/
FoamFile
{
    version     2.0;
    format      ascii;
    arch        "LSB;label=32;scalar=64";
    class       volVectorField;
    location    "0.8";
    object      U;
}
// * * * * * * * * * * * * * * * * * * * * * * * * * * * * * * * * * * * * * //

dimensions      [0 1 -1 0 0 0 0];

internalField   nonuniform List<vector> 
5098
(
(2.57149 0.46895 0)
(2.08218 0.0296564 -3.3368e-20)
(2.15595 0.0450303 -3.20962e-21)
(1.76322 -0.783444 6.91907e-19)
(1.95349 -0.124115 0)
(1.24679 -0.601072 0)
(2.19601 -0.0608606 6.73817e-20)
(2.01328 0.0979863 1.63925e-22)
(1.95502 0.0420968 -7.22571e-20)
(2.2242 0.480121 1.33214e-19)
(1.33218 -0.598227 0)
(2.22598 -0.0236034 1.57676e-19)
(2.86784 0.113005 -1.50632e-21)
(1.21907 -0.592165 0)
(2.03076 -0.0938723 -1.4962e-20)
(1.91514 -0.0517332 5.52176e-21)
(1.29213 -0.739594 -1.22479e-19)
(1.48315 -0.660833 0)
(1.03106 0.125962 7.78631e-19)
(1.34339 -0.745652 1.38317e-19)
(1.89192 0.306416 -7.44882e-20)
(1.84465 0.0303375 1.64841e-20)
(2.43899 -0.868982 0)
(1.0292 -0.14547 2.75609e-20)
(1.18108 -0.587166 0)
(1.68521 -0.686143 0)
(2.09327 -0.0675973 1.25206e-19)
(2.10192 -0.863805 1.71409e-19)
(0.889813 0.663406 -2.27706e-18)
(2.4343 -1.03425 0)
(2.33574 0.122142 -1.109e-19)
(0.982986 -0.484932 0)
(1.89269 0.167104 -1.26806e-19)
(0.87492 -0.507972 0)
(2.29315 0.0140017 6.7008e-21)
(2.362 -0.447752 4.5001e-19)
(2.0273 -0.495468 1.27989e-19)
(2.15887 -0.0830078 -5.06719e-21)
(1.55482 -0.534803 5.09493e-19)
(1.96152 -0.893834 0)
(1.79197 -0.803956 -3.2456e-19)
(1.79489 -0.575109 -1.04814e-19)
(1.70645 -0.684704 0)
(2.00385 0.189121 1.20828e-19)
(2.38151 0.282256 -1.19289e-20)
(1.90119 -0.00531556 8.69111e-21)
(1.3483 -0.740971 3.70176e-20)
(1.3161 -0.485282 0)
(2.38538 0.0143421 0)
(1.74775 -0.734877 7.37397e-20)
(2.23233 0.243105 8.74163e-20)
(1.77913 0.198369 -4.2925e-19)
(1.15452 -0.556175 -9.02298e-22)
(2.09407 -0.0630255 1.64925e-19)
(1.31174 -0.644406 -3.11089e-19)
(1.72702 -0.120965 0)
(2.03573 0.125187 -2.28224e-19)
(1.85501 -0.747455 0)
(1.14748 -0.563137 0)
(2.07287 -0.11107 1.20548e-20)
(1.98524 0.0586698 -6.15518e-20)
(1.05696 -0.539082 -1.12453e-19)
(2.39349 0.195887 0)
(2.77419 0.170846 0)
(1.19851 -0.576438 2.98335e-19)
(1.10923 -0.55312 3.90482e-19)
(2.13282 0.0979535 2.4675e-21)
(2.2157 0.169899 2.18499e-20)
(2.15316 -0.233789 1.63432e-19)
(1.90313 -0.782404 2.13058e-19)
(1.92605 0.173684 1.37545e-21)
(1.8892 0.179959 2.38911e-20)
(2.21312 -0.877427 0)
(1.22785 0.921487 0)
(1.90637 -0.0174306 -2.91729e-20)
(1.53497 -0.747079 -3.55264e-19)
(2.06071 0.13506 0)
(1.63948 0.0162731 3.92351e-19)
(2.17149 0.220504 9.39255e-20)
(1.7505 0.0972968 0)
(1.97852 0.00960723 0)
(1.94883 -0.575526 8.01096e-20)
(1.84392 -0.348642 4.74177e-19)
(0.948653 -0.488027 -1.61343e-20)
(1.48974 -0.614163 4.19033e-20)
(2.18311 -0.934005 -1.06108e-21)
(0.371284 0.0707399 -2.69869e-19)
(2.01556 0.0650427 -1.15785e-20)
(2.00599 -0.0610585 6.21519e-21)
(1.99294 0.114078 -4.48616e-20)
(2.31983 -0.0424552 -7.1793e-21)
(1.31019 -0.667662 1.57199e-19)
(2.36175 -0.00608988 -2.3419e-19)
(1.7735 -0.759564 -3.68705e-19)
(1.54321 -0.562551 9.00188e-20)
(1.84645 0.302493 -8.1785e-20)
(1.48876 -0.734275 -2.90546e-19)
(1.59626 0.0572311 2.91715e-19)
(1.77671 0.190182 -3.35562e-20)
(2.2313 -0.426052 -1.02619e-19)
(1.60458 -0.249251 -5.7212e-21)
(1.37998 -0.668828 -3.69966e-19)
(1.60128 -1.74436 -3.98272e-19)
(2.04938 0.0285807 -2.67782e-20)
(1.72048 0.023268 -4.45989e-19)
(2.458 0.638368 0)
(1.80518 0.157682 2.4828e-19)
(2.34903 0.140584 7.04585e-20)
(1.28276 -0.53324 7.02424e-20)
(1.34839 -0.644308 0)
(1.4364 -0.690792 -7.85926e-19)
(3.55298 0.573211 1.08683e-18)
(2.00138 -0.0162701 -2.43821e-19)
(1.69404 -0.837663 3.25926e-20)
(1.87308 0.343439 1.07634e-19)
(-1.07038 -0.0271319 0)
(1.987 -0.510081 1.38321e-19)
(2.80221 0.804568 0)
(2.04276 0.0578937 3.42049e-20)
(1.05827 -0.177606 -4.21867e-19)
(1.81495 0.231807 3.526e-19)
(1.7174 1.52905 -2.44928e-19)
(2.22085 0.449136 -8.79212e-20)
(1.79919 -0.689218 -9.25535e-20)
(1.66201 -0.992216 -2.33385e-19)
(1.03941 -0.564875 1.95606e-20)
(2.16899 -0.0108853 1.38773e-19)
(2.41356 -0.836408 -1.6065e-19)
(1.50789 -0.255306 -1.06582e-19)
(1.66958 -0.83124 -6.48116e-20)
(1.66404 -0.717375 -8.84204e-20)
(1.37987 -0.61158 -5.15818e-19)
(1.39973 -0.610337 4.31385e-19)
(2.72787 0.910681 -1.10064e-19)
(1.64385 -0.126995 5.5598e-21)
(1.95809 -0.263063 4.20532e-20)
(2.19074 2.03071 3.2641e-19)
(1.87577 0.0948296 1.76346e-19)
(1.18029 -0.573445 0)
(1.96343 -0.0846413 -5.27113e-19)
(1.6451 0.309295 -2.87488e-19)
(2.68548 -0.385131 2.29819e-19)
(2.12055 -0.940195 3.17293e-19)
(2.22202 -0.0762944 -2.26831e-20)
(2.25827 0.17611 -6.01094e-20)
(1.95226 0.00336125 0)
(2.22431 -0.181907 1.7191e-19)
(1.83601 -0.0324602 0)
(2.28351 0.00385537 7.67158e-20)
(2.16788 -0.983108 1.06307e-19)
(1.82962 -0.497991 -5.06543e-20)
(3.11783 -1.17816 0)
(1.79043 -0.0572872 6.14697e-21)
(2.1032 -0.0875471 0)
(0.370248 -0.00926283 -3.28675e-19)
(1.08605 -0.462251 -1.73607e-19)
(1.85288 -0.730131 -3.83674e-19)
(1.63722 -0.184699 -7.58223e-21)
(1.80171 -0.831548 -2.66543e-19)
(-0.750885 0.919896 2.56417e-18)
(2.16772 -0.489298 -3.62398e-19)
(1.93993 0.0238448 2.46187e-20)
(3.50587 -1.32279 -5.30377e-19)
(1.89803 -0.216934 -2.88333e-19)
(1.525 -0.703204 -4.46751e-20)
(2.19108 0.171323 -1.30999e-19)
(1.69924 -0.118626 -2.9635e-21)
(2.72304 -0.392395 0)
(1.41656 -0.698653 6.21764e-20)
(1.8912 -0.599288 -4.23799e-19)
(1.8761 0.20369 5.82336e-20)
(1.75533 -0.704147 -2.51205e-19)
(2.26888 0.262382 1.11115e-19)
(2.09683 -0.834499 3.03409e-19)
(1.88916 0.019019 0)
(1.93619 -0.0599927 0)
(1.87981 -0.385045 -1.8272e-19)
(2.34447 -0.392819 -2.63992e-20)
(1.83013 -0.262565 3.98286e-19)
(0.558638 -0.108992 0)
(2.20094 2.43012 0)
(1.91234 -0.452645 -1.1147e-19)
(1.99346 -0.60146 5.05793e-19)
(1.52356 -0.716818 0)
(2.03658 -0.255209 0)
(2.61555 0.362986 2.99869e-19)
(1.69556 0.176446 0)
(2.05244 -0.470987 4.56694e-19)
(1.35275 -0.660172 6.88775e-19)
(1.86299 -0.841861 -6.65944e-20)
(4.20321 0.572223 0)
(2.66457 0.946095 -1.67515e-19)
(2.234 -0.898085 0)
(1.94336 0.0752331 -4.62266e-20)
(2.3443 0.0999849 1.41555e-20)
(1.33563 -0.645339 -1.61268e-19)
(2.12156 -0.471871 9.13192e-20)
(2.04254 -0.340764 0)
(1.98405 -0.04205 -2.95032e-20)
(1.92909 -0.554279 -7.26681e-20)
(1.67492 -0.756755 -1.71934e-19)
(1.66774 0.247204 5.3174e-21)
(2.27659 0.257462 -2.29062e-20)
(2.10918 -0.0213954 5.64289e-21)
(1.81261 -0.0751779 1.65994e-19)
(1.0577 -0.463514 -1.24089e-19)
(2.73781 -0.135511 -4.69824e-21)
(1.46567 -0.66629 0)
(2.12483 0.0626694 0)
(1.82831 -0.875668 -3.08668e-19)
(2.13037 -0.275449 -1.51429e-19)
(1.80566 0.0997469 2.83393e-19)
(2.86682 0.863102 1.42785e-19)
(2.10457 -0.156348 -2.00757e-19)
(2.03611 -0.119301 -4.17796e-20)
(3.27838 0.254792 -6.79369e-19)
(1.97196 0.0283423 0)
(1.38256 -0.626522 -8.83317e-20)
(1.51779 -0.867964 3.17902e-20)
(2.014 0.0301048 1.33283e-19)
(2.3304 0.0210826 -2.67793e-20)
(1.75426 -0.392251 0)
(1.86365 -0.0179769 2.05565e-20)
(2.29144 -0.0764827 1.35362e-19)
(1.20947 -0.580263 3.86343e-20)
(2.24813 -0.125081 0)
(0.67638 -0.246102 0)
(2.19414 0.070959 0)
(2.1937 -0.49025 0)
(2.50045 -0.911647 -1.28444e-20)
(1.75278 0.245176 0)
(0.878413 -0.404756 -4.57812e-19)
(2.03736 -0.508996 -8.50058e-20)
(2.1917 -0.0913039 2.87195e-20)
(2.33088 0.00506592 -6.94064e-20)
(2.1474 0.0258155 0)
(1.67149 1.10502 -1.98411e-19)
(1.79141 -0.781212 -2.52598e-19)
(2.10485 -0.151485 0)
(1.99921 -0.0595679 2.88862e-19)
(1.91302 -0.556987 -2.64089e-19)
(2.20564 0.306936 0)
(2.12799 0.0219341 0)
(1.27252 -0.372924 7.59058e-19)
(2.03407 0.206131 -3.66431e-19)
(2.16956 -0.015397 -2.01644e-19)
(1.35264 -0.639904 8.31158e-20)
(1.39553 -0.624852 -7.7458e-20)
(1.28433 -0.743985 0)
(2.33331 0.0400949 4.92544e-20)
(2.22051 0.44063 -1.00583e-19)
(2.12804 -0.869089 3.09469e-19)
(0.262916 -1.08541 4.33878e-19)
(1.74896 -0.756276 1.1159e-19)
(1.92043 0.0589332 -2.23153e-19)
(1.80328 -0.786268 2.35407e-19)
(1.66935 -0.132522 -6.10905e-21)
(2.00346 0.855583 -3.10442e-20)
(1.3477 -0.503798 -3.17065e-19)
(1.96995 0.0856791 -6.88339e-21)
(2.4859 0.17931 2.18246e-20)
(1.28011 -0.626196 1.44055e-19)
(1.11799 -0.54511 1.00528e-19)
(2.18609 -0.914546 0)
(2.05848 -0.0705729 -5.96637e-21)
(1.38027 -0.681518 3.61231e-20)
(-0.757675 0.851797 -3.05449e-18)
(1.3318 -0.564867 0)
(1.92989 0.354428 0)
(1.81356 -0.0192495 -2.65917e-20)
(1.85926 -0.827377 8.28823e-20)
(2.06971 0.160992 -6.52921e-20)
(0.0107834 0.265243 -1.24749e-18)
(1.96648 0.35101 0)
(1.36879 -0.558234 2.68423e-21)
(1.38397 -1.46772 -6.60305e-19)
(1.74066 -0.568258 -9.40526e-20)
(1.7003 -0.342887 0)
(2.63805 -0.683773 0)
(2.07861 -0.134773 0)
(1.65828 -0.727597 -5.62319e-20)
(2.14573 0.0593373 1.9866e-20)
(1.38608 -0.666604 -1.64287e-19)
(2.00979 -0.215673 -2.2055e-20)
(3.30886 -0.546152 -2.16414e-19)
(0.852782 -1.4813 0)
(1.84231 -0.0338186 0)
(2.07409 -0.0127421 -6.33098e-20)
(2.23905 0.115212 1.05785e-19)
(2.1242 0.133621 -2.47107e-19)
(1.80767 -0.640513 0)
(1.74133 -1.52251 2.31657e-19)
(1.26985 -0.178601 -2.22594e-19)
(2.38545 0.236691 -1.61238e-20)
(2.18324 -0.620947 3.29987e-19)
(2.11702 0.49609 -5.6349e-20)
(2.1183 0.0823743 0)
(2.3152 0.0140424 -1.04771e-19)
(2.00814 0.115385 0)
(2.1195 0.0915335 -1.39883e-19)
(2.03387 0.0345144 5.17728e-20)
(2.25535 -0.101215 -2.94219e-21)
(1.74543 -0.492429 4.9287e-19)
(1.942 0.19207 2.005e-19)
(1.26663 -0.638013 -5.73883e-20)
(2.02299 -0.792303 -1.98167e-19)
(2.84748 1.49956 -1.47444e-19)
(1.82926 0.0814511 0)
(2.01583 -0.462573 0)
(1.33943 -0.713826 0)
(2.35496 -0.107135 3.45611e-20)
(0.860871 -1.56664 4.42401e-20)
(1.17402 -0.574554 4.08646e-19)
(2.05006 -0.0260975 4.89714e-20)
(2.87668 0.153556 8.76194e-21)
(0.435608 -0.101845 6.48956e-19)
(1.99328 2.08717 -1.52272e-20)
(2.21813 0.17509 -1.6226e-20)
(2.30206 0.0045335 5.01725e-19)
(1.1363 -0.499439 0)
(2.21812 0.133575 -1.18828e-19)
(1.78431 -1.60967 -5.80566e-19)
(2.2653 0.124931 -1.05982e-19)
(1.10434 -0.902283 6.54137e-21)
(1.95892 -0.108237 -1.91614e-20)
(1.54078 -0.524291 3.44008e-19)
(2.12381 0.47965 0)
(1.91173 0.0860698 -9.27765e-20)
(1.29575 -0.541553 -7.42177e-19)
(1.98861 0.0200581 -3.25129e-20)
(1.70315 -0.812597 0)
(2.19195 -0.129748 -1.43595e-19)
(1.34255 -0.639165 2.31769e-19)
(2.6874 -0.68896 -2.70426e-20)
(1.93177 -0.789903 -2.86907e-19)
(2.12009 -0.164201 -8.41623e-20)
(2.55305 -0.043514 4.55049e-21)
(1.31735 -0.648366 4.48806e-19)
(2.2178 -0.170586 1.88332e-19)
(1.98244 -0.441773 0)
(2.13583 -0.947315 -3.00243e-19)
(1.88363 -0.786663 -8.70307e-19)
(2.23167 0.207123 3.04549e-20)
(1.98991 -0.0266058 3.62119e-20)
(3.88355 1.57043 0)
(1.82306 0.367133 0)
(2.18342 -0.135987 -1.7502e-19)
(2.35298 0.731891 5.77077e-19)
(2.90327 0.676218 0)
(2.04366 -0.0351092 1.71918e-19)
(2.29452 -0.996941 -4.66922e-21)
(1.14157 0.146561 -5.59518e-19)
(1.12738 -0.49673 -3.99486e-19)
(1.6641 -0.753133 6.21386e-20)
(1.95329 -0.0126292 -1.47379e-20)
(1.64721 -0.750627 2.11159e-19)
(1.9872 -0.26683 -2.86475e-20)
(2.28073 0.0846357 0)
(1.55139 -0.22576 -9.16446e-20)
(1.90241 0.138155 0)
(1.98508 0.0585307 -4.2167e-19)
(2.21728 -0.362731 0)
(2.3382 0.0196164 -1.40533e-19)
(2.01226 0.0191279 -2.66604e-20)
(2.15609 0.138418 -1.10256e-19)
(1.34464 -0.542956 4.18279e-19)
(2.07906 0.0135138 -3.38546e-19)
(2.02451 0.460597 -4.40973e-19)
(2.53979 -1.04184 0)
(1.82655 -0.768721 0)
(1.41195 -0.576226 -4.11804e-19)
(2.14927 0.252543 0)
(2.7872 -0.325795 -4.21488e-19)
(1.98961 -0.0127236 0)
(1.78267 0.202266 -3.19801e-20)
(1.2127 -0.614718 9.94256e-20)
(1.94897 -0.618169 6.05085e-19)
(2.46529 1.38541 5.99568e-20)
(2.69978 -0.359039 0)
(2.02352 0.0600562 3.45303e-20)
(2.18831 0.0870482 -2.04303e-19)
(1.12391 -0.618396 -1.87144e-20)
(1.89143 -0.00625502 -1.88425e-19)
(1.62721 0.10763 -5.68203e-21)
(2.10648 0.0586711 -6.15449e-20)
(3.07222 0.087121 2.75423e-19)
(2.28328 0.0892408 4.5947e-20)
(1.77377 -0.777711 -4.95153e-20)
(1.88359 -0.605308 0)
(1.04723 -1.64091 4.86712e-19)
(2.03839 0.212262 -1.45242e-19)
(2.13971 0.188758 0)
(2.04747 0.0126252 1.28313e-19)
(1.53659 -0.738829 -2.95618e-19)
(1.7938 0.885767 1.63304e-19)
(2.20592 -0.592936 0)
(1.67465 -0.782784 1.09603e-19)
(2.11702 -0.867884 0)
(2.2143 0.0257539 3.84333e-20)
(1.91683 -0.00901536 -2.50874e-21)
(3.23315 -1.63446 8.94622e-19)
(1.23975 -0.221763 0)
(1.73085 0.153892 1.97852e-19)
(1.93948 0.0401843 1.4334e-19)
(-1.22154 -0.0301373 0)
(1.99441 0.0493871 0)
(2.10193 -0.279881 0)
(0.326435 -0.156477 1.13788e-19)
(2.76388 1.30904 7.42868e-20)
(2.31026 0.0428892 0)
(1.86974 -0.0961686 0)
(1.76996 0.113445 -4.02942e-20)
(1.73727 -0.830563 0)
(2.30142 -0.0284242 2.93395e-20)
(2.92202 0.476642 1.39723e-19)
(2.02091 -0.00139281 1.8197e-20)
(1.96026 0.22765 -1.26137e-21)
(1.13237 0.214996 6.43076e-19)
(3.1237 0.58738 -1.87346e-19)
(2.364 0.0170695 6.61789e-21)
(2.05763 -0.228439 1.39499e-19)
(1.7765 -0.198671 -2.21265e-19)
(1.99867 0.15276 3.29782e-21)
(1.97512 0.165121 0)
(1.63444 -0.734411 -2.05799e-19)
(1.48974 -0.799192 0)
(1.35205 0.815621 3.67663e-20)
(1.8369 -0.0382672 0)
(2.11522 0.093325 0)
(1.76777 -0.839816 -2.31428e-19)
(2.08006 -0.0446814 -1.41561e-20)
(-0.187676 0.620909 -2.59304e-18)
(1.94927 0.0119366 3.78275e-20)
(2.02714 -0.761296 3.21171e-19)
(2.98865 0.341898 1.49628e-19)
(1.07377 -0.967068 3.4333e-19)
(2.02758 -0.0325611 3.95883e-20)
(2.38802 -0.905795 8.87173e-20)
(1.94035 0.0723916 -2.34673e-19)
(2.07424 -0.707348 0)
(1.93954 -0.17242 -4.15294e-19)
(2.00496 -0.490434 3.36981e-19)
(2.07783 0.191994 -5.12051e-19)
(1.24907 -0.800663 -1.28093e-19)
(1.69988 0.863553 -1.42525e-19)
(2.94775 0.613888 2.40814e-19)
(2.0544 -0.31018 0)
(1.9406 -0.0195841 0)
(4.01714 0.297592 -9.76987e-19)
(2.24593 -0.0966805 8.66488e-20)
(1.33291 -0.696072 0)
(2.24864 -0.0974136 -1.34852e-19)
(1.95882 0.132875 -3.00325e-19)
(1.21959 -0.796237 -7.1034e-20)
(1.28715 -0.643061 1.96111e-19)
(2.17744 0.125567 4.54193e-22)
(1.74563 -0.604539 2.10039e-21)
(2.56613 -0.121274 -2.43844e-19)
(2.1418 -0.489794 2.32094e-19)
(3.18807 -0.0355751 5.65518e-19)
(1.71602 -0.695917 3.18724e-19)
(1.99841 0.0296046 -3.23407e-21)
(1.19207 0.0978208 4.63856e-19)
(2.17864 2.13082 0)
(1.90173 -0.57373 1.98733e-19)
(1.4273 -0.62739 0)
(1.69716 -0.817898 -4.34115e-19)
(1.8492 -0.53463 0)
(1.0377 -0.510069 -2.33058e-19)
(1.82487 -0.767077 -4.44631e-19)
(4.32727 -0.22241 -5.47073e-19)
(2.55232 -0.999468 0)
(1.08802 0.109139 0)
(2.17468 -0.231977 0)
(1.90332 -0.0446373 1.21365e-19)
(2.0836 -0.769013 -3.70237e-19)
(3.43581 -0.135288 2.1231e-18)
(1.74743 -0.400155 -7.98724e-21)
(3.1512 -0.284896 -6.24836e-19)
(2.15645 0.307509 0)
(1.35436 1.53986 3.45646e-19)
(2.59953 0.820721 9.19277e-20)
(2.12115 -0.958531 -9.16985e-20)
(2.06499 -0.950097 2.35098e-19)
(2.11636 0.163771 1.1024e-20)
(1.59638 -0.762116 4.88922e-19)
(2.2978 0.263227 0)
(2.04096 -0.0406361 -6.61437e-21)
(1.95489 0.674688 6.19604e-20)
(2.04285 0.0439473 2.45266e-20)
(2.90063 -0.261829 -2.62155e-19)
(1.83762 -0.0513402 0)
(2.30012 0.160713 0)
(2.07281 -0.683059 0)
(1.17911 -0.650595 0)
(1.99416 0.0409021 0)
(1.60543 -0.614672 1.38115e-19)
(3.1244 -0.412404 3.97389e-19)
(1.64655 -0.691901 3.81382e-19)
(1.97363 0.0134512 2.36303e-19)
(1.48148 -0.647076 0)
(2.39065 -0.956754 2.71302e-21)
(1.14856 -0.0741884 0)
(1.47587 -0.600846 -8.07973e-20)
(-0.390497 0.945376 1.21077e-18)
(2.73625 -0.746984 -1.80204e-19)
(2.1112 0.0515166 2.50133e-19)
(2.07037 0.212487 -8.9093e-20)
(2.23568 -0.566026 -1.11588e-19)
(2.21069 -0.0448666 0)
(1.70408 -1.09081 2.21981e-19)
(2.05932 0.0782741 0)
(1.63995 0.644294 1.62809e-20)
(2.20611 0.0507208 0)
(2.27168 0.176902 -1.18794e-19)
(2.06217 -0.0463516 0)
(1.161 -0.472026 -2.81308e-19)
(1.51447 -0.727197 2.14355e-19)
(1.94361 -0.056686 -1.59198e-20)
(1.55648 0.214652 4.06297e-19)
(0.54452 -0.270592 -2.3264e-19)
(1.85263 -0.120318 0)
(1.23908 -0.356867 -1.0739e-18)
(2.024 0.0754627 1.41631e-20)
(2.54347 -0.564389 -4.71234e-19)
(2.03558 0.061485 -3.55121e-20)
(2.00303 -0.47264 1.98148e-19)
(3.29522 -0.694515 0)
(2.07528 -0.91518 -6.71106e-20)
(2.07372 -0.929037 0)
(2.32067 0.135649 1.71721e-20)
(0.740107 -0.285448 7.11502e-20)
(1.57022 -0.667235 0)
(2.24012 0.0177382 0)
(1.5527 -0.177428 -5.53157e-21)
(2.3425 0.224506 0)
(1.88947 1.38861 2.0831e-19)
(2.79884 0.126323 -2.56515e-19)
(1.34323 -0.645583 -1.42513e-19)
(1.26641 -0.746327 -9.34067e-20)
(2.21968 0.0457248 1.47118e-21)
(0.619894 -0.916188 -1.97998e-19)
(1.19573 -0.57521 -1.42348e-19)
(1.90462 -0.0867335 4.62678e-19)
(1.30642 -0.805771 8.06946e-20)
(0.851992 -0.430636 0)
(2.39882 0.103296 4.50662e-20)
(1.4981 -0.17883 8.34044e-21)
(0.669809 0.031886 7.81498e-20)
(2.66961 -0.486142 4.42669e-19)
(3.05407 1.0979 0)
(1.96996 -0.542215 -3.38525e-19)
(1.97626 0.0808693 4.11489e-21)
(3.94878 -0.679162 -1.00058e-19)
(2.12857 -0.0249525 -6.40302e-20)
(1.24712 -0.564786 4.18324e-20)
(1.65328 -0.690207 1.18614e-19)
(1.65775 -0.682379 -9.19488e-20)
(1.29913 -0.677351 -5.63912e-22)
(2.05971 -0.153753 -3.93768e-20)
(1.26355 -0.631366 -4.6882e-20)
(1.85851 -0.0410052 0)
(1.9366 -0.177734 -4.10518e-19)
(2.03627 -1.80678 0)
(0.138999 -0.763763 -1.64216e-19)
(2.51332 -1.62361 1.44438e-19)
(1.06235 -1.67495 5.68058e-19)
(2.03277 0.0275 -7.39715e-21)
(1.02537 -0.504106 1.21768e-20)
(1.06434 -1.83264 0)
(2.52512 -0.838033 2.02166e-19)
(2.66167 -0.979817 1.13225e-20)
(1.61369 -1.95941 -5.30327e-19)
(1.87192 0.416826 0)
(1.72729 0.325707 0)
(0.456203 0.163386 0)
(1.6453 0.0243511 3.0935e-20)
(1.93119 -0.0923967 -4.10469e-19)
(1.46967 0.0366343 0)
(1.63545 -0.279141 0)
(2.13185 -0.0524856 -2.54041e-20)
(1.79401 -0.495152 2.13412e-21)
(2.10151 0.153358 -3.35244e-19)
(2.54854 -0.232236 -1.87769e-19)
(1.98589 0.0377548 8.56415e-20)
(1.93985 -0.0380861 3.39354e-20)
(2.03459 0.0304797 -4.75326e-20)
(2.04074 0.389127 -2.48388e-20)
(2.00281 0.903059 0)
(1.21151 -0.580186 3.32604e-21)
(1.8946 -1.2603 0)
(1.21952 -0.00165228 0)
(2.47474 -0.05118 -1.69836e-19)
(1.52023 -0.672175 0)
(2.33005 0.304099 0)
(2.056 -0.154104 6.30054e-19)
(2.30704 -0.989457 0)
(2.04573 0.068302 4.35183e-19)
(2.71682 -0.3987 2.58353e-19)
(2.64469 -0.240556 7.10098e-20)
(1.9926 0.0407006 3.62873e-21)
(1.3969 0.857117 2.52894e-19)
(2.59632 -0.912099 1.15475e-21)
(2.7464 -1.00527 6.67836e-21)
(1.39507 -0.555378 4.02593e-19)
(0.90521 -1.20084 0)
(1.24617 -0.612282 0)
(1.50122 -0.723312 -1.52246e-19)
(1.50754 -0.729179 -2.81978e-19)
(0.909704 0.0758757 0)
(1.09423 -1.06297 2.46237e-19)
(1.12651 -0.549003 0)
(1.59129 -1.20699 2.97578e-19)
(1.37714 -0.637589 -5.21084e-19)
(2.6114 -0.341208 -8.98306e-21)
(2.85773 -0.0983104 2.46262e-19)
(1.42476 -0.520555 8.133e-20)
(2.03854 -0.0195642 2.77227e-20)
(2.30502 0.531464 0)
(2.46881 0.388029 0)
(1.26004 -0.133278 0)
(-0.671247 -0.332066 -7.4155e-19)
(1.61144 -0.61646 0)
(2.18759 0.31166 0)
(2.01719 -0.075801 0)
(2.72971 0.392386 -2.58761e-20)
(1.77635 -0.917076 6.68581e-20)
(2.29876 -0.835147 -1.50175e-19)
(1.60579 0.12199 -7.00152e-20)
(2.01362 0.102506 0)
(1.60469 -0.662519 0)
(2.2189 -0.587058 -3.00767e-19)
(1.63668 0.311645 6.13468e-19)
(1.37637 -0.678702 -8.7992e-20)
(2.02137 0.109435 -1.57268e-20)
(1.89264 -0.479548 3.60807e-19)
(1.19756 0.274143 -1.00997e-18)
(1.67195 -0.807522 0)
(1.41134 1.00463 -6.23259e-19)
(0.636725 0.142579 -6.52625e-19)
(2.55103 -0.294471 0)
(2.2297 0.0804613 0)
(1.93065 0.0446914 0)
(1.76334 0.00185277 -4.2917e-19)
(1.5563 0.17505 -4.17499e-19)
(1.78215 0.12148 0)
(4.37062 0.641748 1.98278e-18)
(2.06131 -0.900479 3.15395e-19)
(2.52918 0.12922 6.11867e-20)
(1.38429 -0.675421 6.77091e-20)
(2.30403 -0.230846 0)
(2.35281 -0.0270613 -3.27644e-20)
(1.92237 -0.478448 0)
(1.4931 -0.162227 -7.97008e-21)
(2.0114 -0.884667 0)
(2.4579 -0.80014 2.96831e-19)
(2.80946 -0.235112 1.43977e-20)
(2.00668 0.0206217 -2.10572e-20)
(2.60173 0.159612 0)
(2.04632 -0.848001 0)
(1.79133 -0.750194 -4.65555e-19)
(2.08157 0.319882 -3.23831e-20)
(1.43995 -0.58295 3.61469e-20)
(1.12146 -0.540128 4.10555e-19)
(2.02339 -0.200453 0)
(1.64753 0.0653732 -6.15593e-19)
(2.12209 -0.0113208 -8.65857e-20)
(1.64774 0.00157689 2.63067e-20)
(2.01153 -0.00762845 -2.73686e-20)
(2.01761 0.00321352 0)
(1.40275 -0.45027 5.70374e-19)
(1.21042 0.0146672 -6.39104e-19)
(2.9367 -0.500908 5.74148e-21)
(1.85845 0.0630812 -7.24833e-19)
(1.38187 -0.676205 6.26347e-20)
(2.83651 -1.68797 -1.28647e-18)
(3.37607 -0.442386 3.40589e-19)
(1.9592 -0.0359042 -3.44736e-20)
(4.066 -1.03902 1.83515e-18)
(-0.212387 0.86915 -2.41513e-20)
(1.47071 -0.699417 1.11806e-19)
(1.44554 -0.605305 8.11372e-20)
(1.94293 0.0199041 -4.09507e-20)
(2.25147 0.0651417 0)
(2.11182 -0.767464 3.9159e-19)
(1.60767 -0.773777 2.20642e-19)
(1.90291 -0.274361 2.17792e-19)
(0.741277 0.855245 0)
(1.79859 -0.442793 -5.91754e-20)
(2.08054 0.00369808 3.04191e-21)
(1.97465 0.0667788 0)
(1.66875 -0.819346 1.10802e-19)
(1.48321 -0.392917 1.46963e-20)
(1.91735 0.1474 0)
(1.27905 -0.500323 0)
(1.70159 8.81754e-05 3.89734e-20)
(1.6669 -0.0595392 1.56126e-21)
(2.36301 -0.124976 5.9072e-20)
(-1.31927 0.502814 0)
(2.21013 0.125537 -3.26698e-19)
(1.94367 -0.0457894 -8.86376e-21)
(2.54078 -0.745355 1.34843e-20)
(1.43242 -0.576228 5.05673e-19)
(1.50045 -0.692484 -8.28304e-20)
(1.52171 -0.621883 4.60639e-20)
(2.92742 -0.472033 -4.9684e-21)
(1.81819 -0.490499 0)
(4.08373 -0.374471 -1.57355e-18)
(1.78371 -0.700808 2.33681e-19)
(2.22375 1.5671 1.46978e-19)
(1.0598 0.356441 0)
(1.3651 -0.357691 -5.07795e-19)
(1.44623 -0.622401 -6.13896e-19)
(1.54884 -0.725084 1.01522e-19)
(1.73553 -0.971936 -2.22694e-19)
(3.1997 1.68413 0)
(3.25311 -0.287088 -1.34904e-18)
(2.16579 0.0737648 0)
(1.70363 -1.24846 -2.38526e-19)
(3.63244 -1.70306 1.78168e-18)
(1.86699 -0.823041 0)
(1.55053 -0.687167 3.51295e-20)
(1.69053 -0.174611 -9.09453e-20)
(1.57607 -0.796188 8.0062e-20)
(1.893 -0.732788 4.19851e-19)
(1.45565 -0.711356 -2.54496e-19)
(1.43934 -0.655739 0)
(1.82088 -0.00607211 1.37463e-19)
(2.62782 -1.31157 0)
(2.17246 0.0979394 -5.58598e-21)
(0.414013 -1.12722 -2.19496e-18)
(0.821941 -0.361113 2.73443e-19)
(2.03131 0.0237988 0)
(2.13958 -0.811135 -2.97432e-19)
(2.25233 -0.235907 3.85916e-20)
(1.56138 -0.649422 1.235e-19)
(1.45511 -0.357342 0)
(1.53548 -0.643269 -1.09942e-19)
(3.0089 -0.710835 -6.16021e-19)
(1.78714 0.059809 7.86605e-19)
(1.85688 -0.0685026 0)
(2.0652 -0.185832 2.06456e-20)
(2.62824 -2.05909 1.02632e-18)
(1.8006 -0.874759 -3.08366e-20)
(2.48894 -0.529673 1.02113e-19)
(1.40566 -0.695682 0)
(1.88446 0.00350009 2.13511e-20)
(2.00399 0.0157027 1.41145e-21)
(2.63439 0.251198 9.23328e-20)
(2.1294 0.024436 0)
(1.61688 -0.666583 5.40846e-20)
(1.83394 -0.505012 9.91929e-22)
(1.48614 -0.485643 6.26528e-20)
(2.92086 -1.22869 0)
(2.3375 -0.857434 -1.08521e-19)
(1.55589 -0.733971 1.75808e-19)
(1.93793 -0.504895 -4.53035e-19)
(1.26031 0.29763 0)
(2.00886 0.340308 -8.73067e-20)
(2.37641 -0.811895 9.34908e-20)
(1.46986 -0.708879 -1.1234e-19)
(1.91192 0.0661426 0)
(1.16546 -0.578828 2.91401e-19)
(1.71783 0.00524784 0)
(1.68755 -0.719042 1.17404e-19)
(1.68294 -0.119903 0)
(1.87071 -0.0683136 -2.3045e-19)
(2.28476 -0.216487 -2.5144e-19)
(3.93521 0.228477 -1.01665e-18)
(1.75671 0.0852437 0)
(2.36024 -0.977389 -1.59673e-19)
(1.95703 0.0511575 0)
(2.39312 0.17758 0)
(2.65658 -1.02077 1.61641e-21)
(1.64354 -0.691893 6.18393e-20)
(0.849597 -0.217164 1.73443e-19)
(2.38265 -0.522415 -6.32382e-20)
(1.74164 0.217801 2.71763e-19)
(0.107709 -0.583363 -3.71315e-19)
(2.06527 0.0513935 1.58572e-19)
(1.74467 -0.83723 -2.39499e-20)
(1.81818 -0.531871 0)
(2.21901 0.067889 0)
(1.58161 -0.762109 0)
(1.1303 -0.477574 1.54045e-19)
(1.4032 -0.515668 -3.55015e-19)
(1.62272 -0.072671 0)
(1.24806 -0.657824 2.4886e-19)
(2.07966 0.0276928 -1.75322e-19)
(1.37306 -0.692847 -7.72862e-20)
(1.59668 -0.595399 -1.14803e-19)
(2.58324 -0.939143 0)
(1.40466 -0.68692 2.46605e-19)
(1.54183 -0.753774 -2.62554e-19)
(1.87427 -0.841025 0)
(0.419949 0.457151 -2.08924e-18)
(2.05501 0.0899718 7.52854e-21)
(1.97527 0.150179 2.02278e-19)
(1.94413 0.0529484 2.41353e-19)
(2.71874 0.356629 -2.91513e-19)
(2.19109 0.144153 -7.73647e-21)
(2.35594 -1.56285 0)
(2.21053 -0.818762 0)
(1.13713 -0.623564 2.74689e-19)
(1.89156 -1.14677 0)
(1.76507 -0.417251 -5.95557e-20)
(2.49394 -0.813493 -1.32572e-19)
(1.25957 -0.592881 4.29951e-19)
(1.91104 0.0091993 1.62834e-20)
(1.76131 0.251615 -2.60133e-19)
(1.74334 -0.68619 -2.3028e-19)
(1.83718 -0.70606 -4.24545e-19)
(1.71936 0.0110246 0)
(1.94928 -0.744909 3.97133e-19)
(1.87026 0.00692054 0)
(2.77097 0.216014 -1.48357e-20)
(2.15111 0.871539 2.0994e-20)
(1.98014 0.3111 1.04196e-19)
(2.32687 -0.267599 -1.84528e-19)
(1.58703 -1.13077 -2.08094e-19)
(1.47026 -0.728451 0)
(1.60023 -0.273133 -7.37582e-21)
(1.71769 -0.592002 -8.68316e-20)
(2.14622 0.253466 -1.81828e-19)
(2.0672 -0.808353 3.54946e-19)
(2.08948 0.0584024 -5.23246e-21)
(1.70616 -0.920996 8.24901e-20)
(2.55435 -1.01547 3.72423e-20)
(0.629768 -0.0468968 0)
(1.38286 -0.698361 2.31875e-19)
(1.91361 -0.390359 2.43891e-19)
(2.03608 -0.00880387 6.61043e-23)
(1.42592 -0.627177 9.01231e-19)
(1.76777 -1.94929 4.33828e-20)
(1.82843 0.49471 0)
(1.13216 -0.539937 -7.04843e-20)
(1.58473 -0.656747 -8.40352e-21)
(1.3181 -0.448507 -6.79628e-19)
(0.973705 -0.383065 6.8119e-20)
(3.89344 -0.526264 -4.3861e-19)
(2.01626 0.267715 8.92528e-21)
(1.21802 -0.507238 3.10198e-19)
(1.96094 -0.373282 0)
(2.42595 0.0473669 6.03434e-21)
(2.08814 -0.0589481 -1.04142e-21)
(2.81526 0.0463834 -2.49071e-19)
(2.25109 -1.16453 0)
(3.12179 -0.239976 4.96427e-20)
(1.77923 -1.11157 2.27312e-19)
(1.83437 -0.781072 9.00869e-19)
(2.4839 -1.27871 6.21074e-21)
(2.09898 -0.828645 -1.52153e-19)
(1.53999 -0.745588 4.68112e-19)
(2.27609 -0.811529 3.22638e-19)
(2.03086 0.126395 -3.66865e-21)
(0.183643 -0.814849 -2.87261e-20)
(2.16771 -0.0437359 1.0069e-20)
(3.26617 -1.61841 0)
(1.95737 0.00587345 0)
(2.19869 0.265213 0)
(1.9995 -0.744359 -3.41466e-19)
(1.697 -0.168721 1.07838e-20)
(1.98568 -2.04023 0)
(1.44208 -0.486938 -1.46837e-19)
(1.85341 -0.777 0)
(2.11489 -0.505738 0)
(2.28646 -1.96011 0)
(1.84338 0.0228773 0)
(1.1644 -0.568271 -8.83735e-20)
(1.78095 -0.850359 0)
(1.95034 -0.435454 9.33542e-20)
(2.01312 -0.0931223 0)
(1.99774 0.0307499 0)
(1.78181 0.216155 -2.41351e-21)
(1.60838 -0.777607 0)
(1.75621 -0.265307 0)
(0.651667 -1.45756 0)
(2.06096 -0.0679523 1.97393e-20)
(2.04223 0.071668 0)
(2.76814 -0.969949 1.43857e-21)
(1.94444 0.156199 3.70786e-21)
(1.20006 -0.575057 -7.96863e-20)
(1.95487 0.135133 6.0465e-19)
(-0.131355 0.199993 -2.77637e-19)
(1.23619 0.530006 -5.43594e-19)
(1.51678 0.537742 0)
(2.56131 -0.0289169 8.72303e-21)
(1.82022 -0.25457 -2.12625e-19)
(1.74162 1.27438 1.49268e-19)
(1.86017 0.259032 3.7376e-19)
(1.04417 -0.425433 -6.58161e-19)
(1.73141 -0.743076 -3.55998e-19)
(1.89823 -0.495304 1.29703e-20)
(1.5624 -0.321111 0)
(3.37522 -0.261699 -9.45104e-20)
(1.57877 -0.300635 8.70345e-21)
(2.35856 -0.0346406 -1.4482e-20)
(1.43229 -0.705372 0)
(2.06552 -0.0542803 -2.67368e-19)
(3.37 -0.78025 -8.72633e-19)
(1.57953 -0.639718 4.64139e-19)
(1.49373 -0.666237 -5.61642e-19)
(1.9816 -0.891081 0)
(2.02582 -0.855011 0)
(1.94667 -0.46321 8.62651e-20)
(2.4654 -0.157274 -1.14602e-19)
(2.4546 -0.298516 -2.15189e-19)
(1.97046 0.0822453 -2.06339e-20)
(1.43334 -0.452577 -1.36447e-19)
(1.90115 -0.551548 3.87205e-19)
(2.23244 0.118024 0)
(2.2005 0.174635 -3.83214e-20)
(1.75014 -0.841514 -3.48855e-19)
(1.7073 -0.382182 8.01447e-20)
(2.23574 -0.219848 -2.1877e-19)
(1.07711 -1.78951 1.10996e-18)
(2.53194 -0.25902 1.79603e-19)
(2.40849 0.186641 1.88562e-20)
(2.38696 0.292107 0)
(1.39208 -0.546768 0)
(2.67103 -0.901492 7.27792e-21)
(1.38761 -0.381951 0)
(2.01793 -0.359079 1.58836e-19)
(1.8213 0.109136 4.48669e-19)
(1.79386 0.317396 -1.39266e-19)
(1.79332 -0.724857 9.20768e-19)
(1.99402 0.0205469 -7.37079e-22)
(1.94825 0.0488756 0)
(1.95754 0.0276667 1.03402e-21)
(2.327 -1.97802 -5.77165e-19)
(2.22387 0.287549 0)
(2.7136 0.396085 0)
(2.17233 -0.828943 1.23818e-19)
(2.0078 0.242672 2.13146e-19)
(1.31592 -0.308203 0)
(2.0335 -0.272749 -4.18419e-23)
(2.1449 -0.224261 4.53731e-20)
(2.18388 0.108807 5.09073e-20)
(1.96665 0.307287 3.83438e-19)
(1.22874 -0.702788 -1.03933e-19)
(1.83252 0.170627 0)
(1.44999 -1.27408 -6.45545e-19)
(0.766641 -0.360061 9.91095e-19)
(2.00258 0.0238785 1.59209e-20)
(1.82106 -1.36947 -2.53803e-19)
(2.03169 -0.818407 2.5433e-20)
(2.37638 0.000148898 2.05447e-20)
(1.80948 -0.516305 0)
(2.06539 0.0851362 2.78288e-21)
(1.7136 -0.0621483 8.47985e-20)
(2.19941 -0.024846 -1.51e-19)
(2.05146 0.261796 -1.23159e-19)
(2.58995 -0.826377 0)
(1.22536 -0.785404 0)
(2.31604 -0.0417402 0)
(2.40081 0.272863 -8.65466e-20)
(1.34021 -0.623473 6.73424e-19)
(2.6807 1.32888 -9.77202e-20)
(1.68788 -0.267524 0)
(1.51663 -0.728959 -4.64096e-20)
(1.25065 -0.528891 6.37247e-20)
(1.76338 -0.761899 0)
(1.9378 0.153669 -1.24923e-19)
(1.67845 0.120549 -1.44669e-19)
(2.10794 -0.248751 -1.0973e-20)
(2.02862 0.0110302 -1.93575e-20)
(0.95277 -0.389968 0)
(2.1081 0.102976 -2.07053e-19)
(2.24155 -0.467152 0)
(2.1099 -0.236664 9.62014e-21)
(1.19325 -0.0972298 0)
(2.23027 0.512851 1.12278e-19)
(1.90927 -0.746552 -4.06295e-19)
(2.39406 0.390404 0)
(1.89088 -0.144333 -4.07867e-19)
(2.03746 0.0244448 2.6864e-20)
(1.89103 0.0271185 0)
(1.45608 -0.680833 0)
(0.787936 0.0083383 -8.67387e-20)
(2.35164 0.10794 -1.52553e-20)
(1.52095 -0.261967 -8.50887e-21)
(2.16325 0.0761136 6.60378e-19)
(2.18746 -0.158668 -5.34246e-21)
(2.7711 -1.31402 4.58676e-19)
(1.7353 0.112239 -1.72521e-21)
(2.02883 0.344449 0)
(2.95253 -0.335565 3.36367e-19)
(2.03604 -0.906045 0)
(1.74814 -0.789603 -3.88759e-19)
(2.06306 -0.87201 -4.4934e-19)
(2.07264 -0.388498 -4.83465e-19)
(2.22483 0.0319919 -8.55511e-20)