/*--------------------------------*- C++ -*----------------------------------*\
| =========                 |                                                 |
| \\      /  F ield         | OpenFOAM: The Open Source CFD Toolbox           |
|  \\    /   O peration     | Version:  2306                                  |
|   \\  /    A nd           | Website:  www.openfoam.com                      |
|    \\/     M anipulation  |                                                 |
\*---------------------------------------------------------------------------*/
FoamFile
{
    version     2.0;
    format      ascii;
    arch        "LSB;label=32;scalar=64";
    class       volScalarField;
    location    "1.7";
    object      p;
}
// * * * * * * * * * * * * * * * * * * * * * * * * * * * * * * * * * * * * * //

dimensions      [0 2 -2 0 0 0 0];

internalField   nonuniform List<scalar> 
13486
(
21.3395
16.4892
0.891756
-1.98421
7.57743
-3.32979
3.39738
12.4542
14.6135
7.20683
-123.068
3.13627
22.5619
-3.50351
5.52611
7.60236
-49.372
0.0175258
4.39511
19.035
-2.0524
22.351
16.1475
-17.0367
6.1292
-15.5029
-75.6169
-8.67317
0.00851434
-7.38988
-1.82968
3.90597
-17.4536
-5.44436
12.46
0.0520646
-0.0919485
17.7485
-1.18595
14.3157
3.08617
23.4739
0.212425
6.33921
6.18277
2.9155
-58.0476
0.00770702
-0.112718
-9.47706
11.8605
-1.42027
2.13474
18.0081
-0.395837
7.90632
0.365004
-1.37649
-16.1342
0.0380488
-102.203
0.0521906
-36.9639
-1.98096
-7.36991
-0.0298304
-2.40445
21.1775
14.547
-0.425611
-2.35622
-0.794415
14.5162
-50.71
0.0591706
0.363733
0.0408306
5.41586
-76.3152
-2.53112
0.0601086
16.6041
-39.5419
0.757519
21.4197
4.65319
-4.78693
11.0009
13.7526
8.39596
2.5382
10.9097
20.517
17.933
15.3189
0.0202435
-75.3068
-2.92551
14.3268
-54.0894
0.0978036
-2.86515
-3.03752
-1.36093
8.05867
-55.8997
13.7108
-1.32667
-73.6505
10.3487
14.6598
3.36625
17.9701
0.328564
25.0911
14.8782
6.31008
-5.01623
14.6548
-0.00989771
0.125213
-99.2741
15.9903
-1.29861
14.2497
-1.29976
10.2969
2.2362
-4.35758
-6.46766
-1.23167
-58.3501
-55.1864
-42.2976
12.3412
10.8552
22.9556
10.5659
-0.0254748
12.7042
-14.1101
1.98205
3.8319
-2.53788
0.318353
-50.2495
-3.34501
17.9166
-10.18
0.0211309
7.15535
5.38525
-0.00249945
17.0828
2.93972
0.782004
8.67553
0.196577
16.1638
-0.118098
-7.81405
16.1411
1.92651
23.3181
-1.41715
-6.35693
-1.15903
28.8741
-4.22783
-41.1513
-52.4222
3.02801
8.87943
7.64712
0.00343359
-13.2679
-5.60143
-16.8283
13.8058
3.84346
13.6809
0.357032
6.00455
-34.732
0.477816
-8.72006
0.00436295
-6.80112
3.4872
15.8109
-0.0494291
0.542036
-1.686
18.2039
-1.88903
-117.146
-6.54021
-7.67519
19.6716
-5.26483
-1.89165
2.09805
17.7353
7.16215
-0.0296101
-1.96097
-0.311706
15.3902
-1.61068
0.601433
-7.64289
-11.1912
18.7844
13.6458
-3.34364
-3.95864
-7.91807
8.59592
19.5031
-20.895
-52.0673
-10.2262
12.9522
-7.99037
1.16731
20.9962
-5.90019
-3.91761
-3.48029
-4.02841
13.5039
-4.18788
-14.6778
23.9789
-2.86771
20.28
-5.87725
0.619545
20.5063
6.22483
-16.9937
8.79254
0.338907
19.3709
-1.1301
15.9089
6.3949
-11.0527
-47.7859
7.31265
-9.52739
25.291
14.2246
-1.4232
-2.80195
-18.5223
3.77506
-3.85597
-0.144583
-17.1216
15.1371
-0.98996
5.44651
-16.6534
8.43756
-35.5305
-3.46969
-2.09799
13.4456
-0.512957
14.034
13.3715
-8.12377
2.15002
21.0722
-10.5179
-2.77269
-2.25843
-1.501
-2.78356
-2.48425
11.8701
13.9576
-33.5396
-85.933
-71.1128
-14.7982
-4.62159
1.3168
13.5683
-2.53027
-0.261491
15.6131
12.4033
-5.56742
-6.32092
-7.82491
1.88297
14.2554
3.34571
1.53091
-0.238941
-3.34839
4.14885
-0.166333
6.58647
-0.934168
6.63264
-3.66126
-0.0882387
-33.3843
-2.07844
-2.88861
3.42632
-102.148
11.0402
-0.240898
13.7517
15.4508
-3.80263
-0.0394798
-0.403658
13.6573
18.0418
23.9072
2.75244
9.21831
11.6806
0.749974
8.64336
11.1482
10.5111
2.16449
19.3142
3.18577
14.5066
26.1537
5.6852
7.91338
-1.01795
-3.64083
17.7764
8.41249
6.17119
-35.5628
0.0325671
9.57025
25.1868
-20.9149
-0.349171
9.3124
1.19722
2.01263
-73.6775
14.1865
-0.0103163
-54.7513
10.2769
-2.71776
-11.0358
4.7538
2.14647
15.4675
13.4162
-7.75671
0.0148452
-5.99191
-41.3347
19.3047
10.3557
0.241645
9.69428
0.493701
-12.9584
-2.50155
11.8898
13.567
-0.596821
-97.9434
-32.3162
13.2641
10.1941
22.4076
14.6008
-44.7081
-2.88493
-0.14081
7.7387
-50.7587
-1.28482
18.4514
-8.64362
4.93499
20.5132
20.6614
-0.0822155
-2.26607
-11.7761
-51.2855
-15.0806
-50.4272
2.18198
12.6191
-1.51568
3.51148
-2.55227
17.7303
-16.3402
10.1715
15.5904
7.23362
-10.7729
-9.6076
14.3295
13.516
17.0666
-29.4629
8.70015
-43.9219
6.41507
13.7417
1.89175
25.2249
8.4676
-6.86645
-6.51725
1.9349
13.9226
-76.5767
-0.537346
22.1716
12.5826
4.75367
1.05243
7.22835
-11.9
22.2396
-0.387108
7.88477
20.7847
-49.6121
-8.37619
-44.3821
-9.65818
-7.92499
16.9517
16.4
22.2219
-32.2159
-0.0645244
-38.9526
8.1859
13.9819
-9.47478
-12.4946
13.2581
-8.28605
-13.1034
-33.8165
-45.55
-1.97035
17.895
0.0220569
-0.131765
-2.02586
13.0472
0.0158194
27.3031
20.8114
14.4491
12.0433
0.112139
-0.00376538
26.037
-2.76891
-0.05663
-7.03734
14.5987
-70.793
1.65227
9.20306
-0.0478599
-7.60742
15.911
-18.5793
-52.1963
8.42061
-1.32667
28.5905
8.50958
11.8986
15.1816
-14.4245
1.05485
22.5818
7.68226
18.1753
3.66723
2.94078
-2.28826
-2.48423
0.220065
-64.73
14.2026
14.6856
-9.77851
0.00456058
-3.83725
20.8857
17.0258
-2.86427
14.9309
10.531
-7.32749
8.68897
11.9659
-51.845
21.9841
0.025025
-0.405451
23.2648
10.4103
0.0215411
9.45735
-2.63563
-5.81518
5.36285
9.80946
16.1263
20.6244
-55.9367
7.08638
-57.3894
0.00647861
20.1555
2.80413
-30.1858
-3.49501
1.68626
-0.0130188
11.8164
-7.0866
-12.3112
14.9686
19.0784
-2.29143
15.1978
-50.7273
-17.1758
-17.2059
4.55795
-46.4069
15.5429
0.920512
-95.1402
12.3457
16.9574
-17.2943
-51.6858
11.9435
20.0601
3.56928
21.4753
0.975607
8.60382
2.05622
15.5207
0.272592
19.5524
-73.6899
2.80384
14.2425
-4.11831
-9.71881
13.6167
-48.0229
2.13505
16.663
22.3628
-3.53235
-1.27031
2.99116
1.65209
12.6534
9.32232
5.63858
-82.6416
-0.929746
21.2993
1.24199
0.0548201
-15.9334
22.4394
-4.69187
0.337424
13.0162
11.6585
-2.44421
-5.78642
12.8663
0.587967
-5.4847
4.24208
-14.7894
21.7421
14.5474
9.82244
10.3419
0.156029
-15.0373
24.3159
3.26003
24.402
-3.50992
13.729
-0.00212376
-53.4583
9.62856
7.21662
25.4855
-10.6243
9.85464
8.97349
-21.8059
7.06712
0.0441556
-6.32127
14.0362
-50.248
-9.24103
-12.2408
-2.47372
-4.47893
15.0672
0.0226308
23.7832
14.2451
0.0269235
-15.4714
-7.3661
3.52478
-92.2581
-4.07801
-60.4794
20.1611
0.000265287
0.399893
-47.3552
22.5549
0.0307133
1.34074
23.305
11.9435
-22.4968
-2.35923
10.0068
0.0646417
14.2725
0.306114
-4.41499
4.13311
12.813
3.0865
11.6827
23.6083
0.376662
-7.1511
13.5627
1.16768
-3.76113
9.98035
9.74617
5.23151
-26.136
0.992325
-0.627074
1.09934
20.1057
3.25263
0.627905
0.80362
2.18275
-2.12875
14.1326
0.205873
13.8734
13.4559
19.4949
0.0622828
-11.4782
24.1726
0.116386
-7.30323
14.7154
-12.4303
15.7662
0.348912
13.0263
-2.88027
-46.2595
-13.584
0.0182424
-51.7874
6.70048
24.8511
-4.38664
-39.5208
-6.53617
14.3121
-1.03116
5.25547
-60.7524
24.392
-24.7075
7.23406
-9.77794
7.39855
13.6761
4.72227
-29.5588
-1.78211
23.038
13.4001
6.83377
12.7229
2.15416
11.2631
11.6636
7.60377
-37.5704
-2.6856
17.5298
3.23377
-1.58292
12.5072
-5.89278
-4.31904
-0.907387
15.1545
14.6443
-4.63801
0.593587
-19.927
-1.82119
0.725564
-4.40545
2.17354
12.9463
-1.43581
-14.3346
16.9352
-0.798925
-5.21257
-1.80495
-7.91533
-4.70809
-12.7302
-0.76549
-25.7389
14.2569
22.5633
-0.0503507
-5.22481
23.342
21.8858
-3.33685
-6.87916
15.0751
-39.3915
0.363833
-0.382699
-0.651152
8.19919
-48.5591
5.11239
8.73124
-7.15554
-3.0543
-17.8363
-3.01132
12.4083
5.43261
9.16259
-5.74156
11.7544
21.365
-139.387
-22.6706
16.3846
6.11928
9.02029
-1.15826
-7.14015
-6.13216
-2.79271
14.201
24.4696
15.4464
-0.795825
-2.63596
13.6628
20.7607
-5.76116
15.5123
13.8569
21.5452
3.47875
-0.639235
0.988328
-3.47314
21.2313
0.650024
0.115627
9.78161
-2.71423
3.17449
-2.37351
-14.9321
13.0567
11.5121
9.1225
5.89596
-80.6819
-4.70088
-4.08615
8.18385
-15.5922
-8.5237
0.408788
-28.0328
-95.3929
6.59955
-7.20724
-45.6185
-50.1006
-4.72545
11.1133
-119.603
-11.5239
15.6498
-2.77062
22.4543
-3.92694
-49.0965
17.2436
20.2559
0.0777282
-0.319154
4.4019
14.2043
8.72478
-26.1783
-2.34269
-0.158954
-2.9255
13.005
0.390668
7.48595
-0.486798
14.6056
-79.2642
0.387059
-0.0168649
17.4453
-11.9803
-120.187
-16.6727
22.2194
-1.30268
-7.11708
-149.035
13.8173
-8.75127
-0.367635
2.80981
6.73707
-1.79798
10.0368
-7.40496
11.3408
13.1652
16.7139
5.44737
-0.547364
-4.86553
10.0766
-5.87639
17.485
9.23652
-2.5864
-1.4376
-3.01643
-2.08123
-0.144468
15.7589
4.57539
2.87767
13.555
-0.383223
11.4258
25.2239
-2.44729
-19.0195
8.89631
-4.18369
-0.843023
-3.16911
-2.02746
13.9013
0.394075
0.121307
0.307548
0.22764
18.6828
-20.1356
-0.0427756
13.6505
-3.57487
19.8521
15.8583
19.1461
2.96074
8.66047
4.08193
0.770721
11.0242
13.9226
-2.0917
-4.23879
-52.1682
-6.64894
-41.411
14.0048
-37.1776
-19.4644
-26.5446
-2.12112
0.0102131
13.7752
0.0341068
2.48836
-38.3127
13.583
24.9702
-2.87383
-80.934
7.21453
-0.625785
13.8226
-0.12233
-1.17314
17.2272
-1.50001
23.6852
9.68241
13.6182
-6.96082
18.4017
0.4167
15.9384
0.0333265
-17.6449
-5.60109
-11.939
9.23671
-2.64208
-0.50072
22.3555
13.5743
14.9201
20.2757
15.3804
17.3416
-4.09823
15.0449
13.5499
14.1885
-3.59382
-5.9979
-9.90698
-12.7197
3.45804
16.3594
-50.4882
22.5857
-14.5836
0.352225
24.206
20.3151
-4.18715
-13.9318
14.3126
6.65713
1.3866
13.5014
-50.2223
-6.99151
13.5224
19.8524
-1.14861
16.0684
18.2046
0.0556243
-7.43111
18.1917
5.9779
-0.0954201
-73.5545
0.74982
-14.5277
12.6181
9.73266
-0.101457
-1.15187
-8.33658
3.55288
-0.764644
2.93003
20.5492
-1.1116
27.0319
14.0575
4.36242
15.8395
-23.3989
-52.3644
-7.51415
13.8973
-1.15552
-38.5843
-1.8966
5.93782
7.54646
-0.854107
10.874
-28.0054
7.52952
-0.895083
-0.51348
11.4341
4.11328
18.6224
14.1003
14.5336
13.6469
-4.10306
-14.2944
-11.9989
1.00196
-3.98479
-4.71995
11.2879
-2.51509
-0.389692
-0.0534142
0.894493
-58.6376
10.0144
5.84812
-0.462797
-8.67806
6.6497
-10.0363
-12.6918
1.42928
-2.89712
16.0335
9.76541
18.6503
-43.7936
12.1717
0.318847
19.829
-1.85253
6.59197
-0.56483
-3.19618
23.1287
23.301
11.4126
8.4481
8.94397
13.2916
23.4494
10.022
-16.174
-52.9133
2.41559
-13.544
-73.3831
13.5543
13.5885
-1.41737
4.74504
12.4664
12.7455
25.5409
-45.061
10.4938
-48.9015
-12.8082
20.1773
-2.79327
11.9067
-2.7688
2.74134
5.28566
26.5071
-10.2549
-9.85749
6.06546
1.62352
-43.6986
-48.1473
0.0706347
15.4042
-1.75299
8.44167
21.8003
19.8693
-2.10342
-27.8998
-6.85544
1.30185
17.0478
13.2824
19.9816
8.32325
-150.769
20.9912
13.3217
-23.701
11.2206
14.1708
18.1655
-77.6958
-2.0002
0.0345925
11.4226
23.0226
7.23968
0.505345
-14.6379
25.5966
-147.431
-13.9916
23.9182
11.8521
-0.226264
11.2668
-2.24566
8.11989
-5.89664
-144.889
-0.837793
-9.80541
-0.569525
-4.74884
-45.6164
-48.6421
-57.5287
2.7444
-51.0254
-10.4728
10.9522
12.6137
8.37875
-33.5723
3.56955
1.02107
-4.34088
26.8215
9.70164
-10.7023
11.7547
-5.80286
-11.5685
12.2238
12.1884
13.5934
27.1211
0.0361312
-2.80167
-17.0512
0.473317
9.96928
14.4843
-6.7791
21.2303
9.13323
14.6672
-2.33857
-2.34725
0.526271
14.9597
13.764
15.721
13.7198
24.7002
24.5814
-5.94179
11.8769
17.9393
-10.3113
20.0545
-0.887723
24.2575
19.9417
-0.666211
15.6617
6.08979
11.0966
0.316563
14.0044
-13.9709
12.3407
5.38902
10.131
-3.30014
13.6622
-0.719213
3.29279
23.4459
23.389
9.55694
-45.4163
2.93868
2.39818
-2.70721
10.7781
20.9613
-48.4884
14.2798
13.7872
6.73065
14.8314
-28.4729
-2.82334
-0.124398
25.0303
4.06927
-6.11217
15.9791
-3.39837
0.392471
5.95636
2.31448
10.118
6.7269
-7.03801
8.33477
11.7625
9.8437
10.9864
24.6335
20.083
18.0275
18.5767
23.1349
6.76277
-1.02036
-0.429844
-16.3559
23.0938
-2.60397
14.0873
12.9005
-21.5957
7.58656
15.528
-12.2941
6.83994
8.3169
27.4404
-72.4419
6.03054
-1.96557
16.6274
0.742619
-2.83017
22.7575
19.5165
13.8908
13.7647
-6.42087
7.21966
-64.7726
24.5085
0.133191
26.3286
-0.289037
0.202626
-54.0615
8.51637
-49.7184
1.96118
-1.59011
3.85219
-3.48469
3.62217
-3.30781
-0.0301374
-3.70288
-41.7238
-8.56886
-27.3902
-9.73642
-2.07736
-2.07983
-88.2083
14.8998
15.1525
17.9489
13.3104
5.56882
5.22258
28.4793
13.7429
-82.0225
-0.00644298
-2.67218
10.1822
12.4169
21.2473
-13.8646
-13.912
12.193
-0.00209708
3.02649
17.4843
-46.0165
-30.9515
-58.5808
24.8111
-2.89167
9.88608
18.1109
-0.267748
11.2751
-0.589143
-79.5346
-65.7054
0.0681129
8.82386
17.0585
17.7336
-29.1182
-40.5754
10.0271
-93.732
-7.48946
-4.13623
2.51035
-5.31186
-2.87309
-3.48358
-71.447
-16.5865
21.9151
-2.09983
23.8344
-48.0346
-3.10762
5.2474
-0.838802
20.3604
14.5072
16.5306
-6.47171
-5.93179
-87.3035
19.8164
-39.6218
9.70909
-0.599632
16.7824
20.1895
-0.757033
13.6979
22.9264
15.7917
15.0168
-29.9758
-1.17343
5.74819
-11.7701
-1.6402
8.85866
10.8676
0.795926
-110.75
2.96005
0.243931
12.7701
11.035
-7.877
24.1701
0.56669
0.0109517
1.28856
13.1572
-6.8745
0.0318594
15.5353
-8.91782
0.713144
-4.35096
15.4907
13.2415
12.5749
-2.5559
12.783
16.0488
16.0968
-5.71839
0.390965
2.18723
12.2235
-14.316
-35.4472
-6.61384
-20.1817
-2.27664
0.110726
-1.48818
0.3027
-51.0254
-10.3699
-68.0443
0.218529
-5.79859
4.14777
-48.6224
14.7156
28.8884
3.93434
-3.58544
5.49621
0.42886
2.85132
0.152651
-7.05408
-22.3898
1.11729
18.901
0.0313252
22.5831
0.113239
12.5949
11.9017
6.08879
-49.8467
9.19753
24.5022
-2.04695
13.2884
13.0743
21.1566
1.17005
19.4433
15.6951
-53.3993
16.595
-76.425
-104.748
19.9216
11.8756
-25.1764
-0.128644
18.2149
2.47331
-10.1553
0.295906
0.364662
10.4671
6.7892
13.9028
13.607
11.9149
-30.7301
-8.78056
-5.3819
13.492
26.4067
-7.79545
-145.169
-51.2667
14.7565
1.00249
0.989277
6.97212
0.214963
11.1513
-1.70469
3.19918
21.566
5.02543
-0.596788
-1.9918
-4.22073
-11.7208
-51.3817
-16.3447
-31.2861
16.4544
6.6122
-9.73183
22.2131
-0.00639088
-78.3088
-3.99476
-113.113
15.4818
-37.4703
3.59715
14.283
-5.04524
-5.88924
-2.36415
-84.6167
-3.32063
14.9687
-69.0248
-0.672545
-59.6941
13.1061
14.9848
-2.96646
17.8697
16.6312
21.7603
22.2082
15.9802
1.83991
24.7745
-62.8943
13.9804
3.26793
-44.9346
16.8266
-5.71208
21.4483
5.86798
-17.4561
-21.4753
-40.4224
14.8076
-6.55352
-5.76958
-4.175
-11.976
-0.28533
7.89263
1.69845
10.6091
24.7803
-45.5836
-15.2759
-9.20703
15.2216
10.1865
-10.4908
28.6217
-0.925635
0.222075
8.45429
-15.5233
12.8684
14.7058
16.376
16.7953
0.0176123
7.87947
13.4786
2.61845
-6.61976
0.00378225
15.7072
15.7195
19.7869
-1.92929
0.976803
8.20195
7.66562
1.84799
-30.5903
11.052
-3.30983
11.7759
14.2134
-50.4023
22.6134
-11.7543
23.8943
16.4533
-51.9431
0.0294982
0.00447764
5.00852
14.5538
-34.7688
19.378
12.8817
7.93341
0.350839
2.54466
-4.47187
7.95068
-52.3148
9.23665
-3.10703
13.2704
-27.4996
-0.333068
-5.2403
17.216
20.5067
6.36437
-30.0849
6.04447
-2.3149
0.526542
7.03074
-2.03203
-1.7451
23.8819
-8.69102
-1.86318
-13.3407
-115.515
-1.58097
13.4188
-50.6445
-4.53445
14.4931
9.1809
14.9817
-8.91345
6.26847
23.9736
-28.1003
13.273
4.20791
-2.71279
3.70078
2.65274
-7.73035
24.4771
16.371
-3.14863
23.3717
18.5863
17.0819
-85.058
-33.7499
10.1637
-18.8617
-1.53592
-41.2991
-16.9667
-36.4144
11.1951
5.14396
8.82013
9.63781
-1.84131
11.2211
13.3939
-155.465
15.3817
7.98244
13.4412
-2.35008
-0.0583008
-3.20203
-49.4446
-6.67895
-5.15009
13.2225
-44.9299
22.0813
-21.4165
12.9713
9.43436
-0.0437749
2.83776
14.4248
5.77988
2.468
12.8055
0.551193
-0.347236
20.7977
16.3045
-10.8935
-40.8192
-0.406917
11.9474
-0.974157
7.13666
-28.2618
-1.09802
-2.32108
-3.76062
12.2595
12.5101
0.440857
5.65381
-1.36455
-0.620424
-40.1193
17.0782
-3.75094
13.7503
0.0209642
11.5103
14.8901
7.2724
13.2286
-0.245864
-3.28316
-0.148955
-49.471
-5.91563
-11.3841
-1.22393
-1.56252
10.5826
-1.98004
13.1397
-0.89438
0.134822
-23.6605
-0.886254
14.6734
-67.9327
13.7219
3.29592
-22.1593
0.0728268
-4.21185
9.82281
13.7123
-0.576126
2.24544
-54.3261
16.9945
0.0104474
4.12929
-33.5981
17.6815
6.67438
0.0124985
14.8514
14.785
17.1863
3.55583
17.0777
-31.5053
0.0914301
-2.51819
14.2281
8.31342
3.46223
1.64685
-24.6648
-31.2263
7.94923
0.601621
-35.5651
22.2795
-34.2107
17.0615
10.0583
-5.70194
-1.111
-0.585928
-2.25687
0.423516
1.46628
12.6989
-0.0961707
13.644
-24.3841
7.02132
-1.61252
3.54426
-27.4521
17.9686
24.0887
15.2145
8.69952
3.84526
8.66694
-76.008
0.00340491
-2.77959
-2.61792
-12.1982
-59.9512
-27.7144
-9.29726
12.6378
14.4086
-44.2255
3.14978
15.6422
-9.41569
-22.8578
14.8324
-1.07339
-102.254
0.336342
-4.16599
0.0209688
22.2462
-2.75476
13.832
-15.997
-10.6822
-9.26579
13.9268
3.76166
11.7615
-12.8046
-11.7692
-0.439167
2.41159
15.9863
12.3133
1.61228
-1.94626
-5.54017
25.1279
-1.94632
16.1295
17.9881
-1.74664
-1.44625
6.28659
-44.9782
-19.9442
11.7462
7.43045
13.5705
-7.64904
15.1098
0.609193
19.8944
2.79855
11.916
17.6842
11.1383
2.26839
-24.8485
3.52552
-94.6565
12.751
5.63106
17.0747
0.280581
21.6114
2.02654
23.1441
-1.26923
18.1118
-3.17684
10.4785
-93.9415
12.9634
6.63716
5.24283
20.7877
13.5421
3.14021
-8.69561
7.85375
12.6873
-0.847852
-50.1091
10.026
-1.39676
18.2848
-2.98662
22.0878
2.47651
28.5617
21.9704
10.92
10.1419
-100.569
-0.173654
23.6203
-3.02974
-1.87284
-2.39207
22.7449
6.31538
12.1475
18.4944
-11.2256
15.1037
-4.36655
17.0497
0.396853
16.2745
14.2368
19.9685
-1.11112
-77.228
3.80053
-4.70764
6.43118
3.45397
-8.10435
17.8035
20.6606
0.151743
5.35647
-3.94354
18.8433
11.4651
13.0237
7.82385
-2.47979
-33.221
-2.23486
14.0796
-24.1692
-1.01529
-0.561242
10.2498
6.51961
-9.1668
24.6964
-1.20181
22.018
5.12781
22.0147
-6.93991
3.27595
0.000510004
0.520677
11.7759
13.3623
0.986555
-0.991125
-1.68181
-1.02017
20.771
-5.62162
-0.985729
-1.59169
-1.16312
5.82104
17.6093
7.29121
0.00474979
0.14415
13.5378
26.43
-5.2
-0.511311
13.9611
0.00813246
6.03947
-0.702663
10.7274
-1.00119
-20.3327
-2.93174
-3.21755
-3.01515
-7.34844
-35.6188
-10.3143
-1.13907
10.4125
14.8359
11.7138
25.7202
-114.957
22.5456
-46.7724
21.6935
-33.7834
-12.2395
24.9005
4.97302
-5.00938
14.6623
-1.13264
15.818
-3.22779
-55.2534
1.89595
-8.57552
-10.4944
0.019205
-2.95707
4.61946
17.9338
-33.2296
5.18576
-24.3579
3.38498
-1.68616
-0.801352
2.38236
-1.36196
-20.1161
17.7216
-0.543407
20.006
5.20616
-69.5608
3.95382
-13.9434
0.0148046
11.5671
17.6345
25.3259
9.99755
11.5546
7.10593
-44.1914
24.4822
26.5934
15.0509
-10.1819
-7.7245
-99.7889
13.1068
9.56811
5.04437
11.2056
-2.07282
-0.538283
-158.289
20.6146
0.325594
0.583812
-3.30149
13.8618
2.37953
28.1506
26.386
12.4683
0.0105338
3.88601
-35.3672
4.98393
26.9886
1.8741
0.0143258
10.7085
0.0833946
2.38783
-3.45465
-5.53566
2.56084
1.39596
6.25469
0.0531756
3.55565
19.8594
5.51518
14.7729
-3.83943
-6.27026
24.0814
-35.4059
2.78311
4.47875
5.24618
1.49465
-3.27498
3.75333
0.0572862
1.76141
28.1022
-53.4904
-39.8428
-15.6368
-10.2722
1.12492
4.60868
-2.73975
-33.0516
0.0180426
-35.377
-12.7616
-11.6051
1.78414
-0.514956
0.344168
27.7997
0.291728
3.73074
-3.07252
1.83429
-45.4307
-5.29542
19.2976
13.8143
3.85453
-1.14677
13.3151
14.8149
0.0168768
-53.8968
-2.4419
19.0921
-9.60143
12.5175
-0.701651
21.8219
0.693085
-4.52332
0.03604
15.119
-7.64166
12.0584
-11.3824
27.0199
-2.66905
-4.72705
-125.098
5.75212
-3.55818
-12.8965
-2.95157
1.14625
7.44505
-9.33279
-1.59568
-1.89055
2.20864
-9.59919
-12.7413
11.207
-101.616
12.3494
-3.33328
15.342
24.4107
13.5133
-48.9771
14.5123
1.01534
2.5269
-2.10402
-6.75874
-61.7727
-11.964
-5.87409
7.29779
-1.18411
-10.5931
-0.200294
-82.1337
7.03664
13.4799
-13.5006
-3.88217
-6.10697
-0.0188878
-1.14382
8.41217
-29.4035
-4.4952
13.876
-0.97221
9.00742
-15.264
-111.033
-52.1117
-114.612
26.9237
4.34429
-11.3059
3.44508
22.9151
24.1395
-5.2339
-4.49109
13.4445
-0.522554
-16.4773
23.4458
7.69154
13.0716
28.3322
-5.53372
5.12856
1.20277
20.9983
14.2382
14.9181
17.4769
9.34556
0.260666
0.476865
5.62597
2.90797
-50.7957
24.3016
-7.01926
-8.58961
0.0759366
-9.55808
6.90285
-3.306
-4.87754
3.10593
14.915
14.8724
16.5618
-73.5986
20.6566
23.702
-41.8715
8.85
-2.50661
-2.11087
2.59234
7.47336
-1.56922
-9.57463
-15.383
26.3739
-78.7004
16.546
13.9751
19.1067
11.1022
11.0214
-1.20696
0.195384
9.20516
-1.36308
-141.955
-23.1753
0.675029
-2.38841
17.3885
-8.70176
-0.329154
1.88136
-39.837
-3.84501
-54.7427
12.3837
-4.45688
-4.14258
5.12899
-18.8155
4.88333
-48.7334
-2.45332
14.9951
-75.5954
24.1183
0.00642334
25.2582
0.0211205
-3.29054
1.86831
11.7753
12.1898
-27.9608
-2.54426
-4.00954
1.46828
10.1517
28.5875
19.0975
4.87765
-9.11418
7.67363
-0.697676
16.5745
-1.56026
7.56641
-2.49159
-2.89461
-40.9471
6.2276
0.214847
-39.5739
8.52665
9.05388
23.5159
24.9381
-48.6347
-61.6033
0.738756
-14.8747
24.6863
2.03337
-6.81836
5.11445
9.54224
-3.03594
1.01891
0.689628
-1.03897
13.3959
-2.44364
4.77048
-3.57361
-11.6485
-26.7433
-5.04713
-26.6296
-24.8694
15.8535
-6.09699
-3.82863
-4.79149
0.199254
26.6647
11.2545
12.6395
-4.9688
7.20113
-1.95678
5.94
3.23362
-2.61655
-27.9066
24.6084
14.7731
-1.39179
-52.5646
27.7293
-3.91954
-32.84
-2.23464
7.73814
-4.22519
-2.67608
21.1013
-2.19439
13.2027
4.72387
-2.18214
1.1451
-14.1291
6.76847
-26.9465
-0.968043
3.72817
13.8768
-4.77852
-51.8634
1.432
-6.48698
-16.4352
-15.6826
25.9797
8.57937
-40.4026
7.41182
2.63326
22.9355
8.19563
-35.363
8.93588
17.7089
15.8635
-8.95699
11.9832
-1.10119
24.4418
0.214113
14.0501
-58.0503
-8.4059
0.024093
-2.79243
9.20594
3.91841
-44.1739
-5.25094
16.8683
-0.778061
-2.43524
19.7482
10.5314
19.1902
12.4854
-12.3029
0.134161
-0.73435
14.1946
0.0177729
17.7712
11.6766
24.0924
-2.46477
18.6453
8.04133
23.9853
-2.1764
-10.7476
24.8226
-2.65557
11.5535
-84.9551
21.6227
23.7743
14.9997
-23.4849
13.3578
18.445
-9.36845
5.2361
-4.23594
19.6915
-2.91536
-1.59763
-65.3893
-69.7767
18.0636
7.63647
-107.002
7.43639
23.7881
-8.11973
-3.30139
-74.6709
-13.0655
12.5944
-3.20442
12.8931
13.2681
-109.847
26.719
-1.3479
20.109
20.4241
-0.176518
-0.0916245
12.8136
-22.8167
-3.84635
12.7962
10.8909
-6.65609
13.4004
-2.1096
20.5069
14.9928
5.48771
1.76408
16.1946
-1.89018
8.02197
19.0413
2.64423
0.0198573
18.3289
15.2409
-10.0784
-43.2934
11.4239
16.0232
24.3009
-52.8259
25.7171
24.3073
26.0175
-1.86154
17.7023
-51.1375
13.6576
19.3942
18.4037
15.8236
21.008
28.2056
11.8028
-50.6008
2.68937
-21.0286
27.9223
7.66626
-1.10653
-3.48115
12.9317
20.8083
13.298
4.8113
-2.38365
20.6984
-36.7603
15.4481
-3.93387
5.43157
-0.597338
5.65647
9.23487
-28.3424
-24.7124
-2.40433
-6.27925
-1.83037
17.3051
-4.08924
0.854136
13.1438
-76.0386
9.80004
0.0110115
-61.0773
-59.7603
-45.0673
20.0121
21.3995
-3.38512
4.9394
18.1329
16.0424
0.134935
-16.7661
15.5808
-50.2827
19.5334
-48.6599
18.9255
8.30867
0.872078
17.5442
9.73847
18.7461
5.09405
5.81412
-7.73184
-48.9289
-139.112
-2.16787
18.365
-27.8387
-3.61162
-24.8996
20.06
18.5997
4.32509
10.8138
20.4914
-24.5932
13.5989
-2.09292
-8.94607
13.4528
-4.4344
-79.4878
-14.6761
-51.5737
-4.85869
-46.6823
-2.46744
-117.892
-48.0912
11.6253
24.4549
26.8054
23.23
-28.5602
15.5875
-65.8004
13.0159
20.2851
1.02897
17.9859
-22.9559
4.97456
-8.48889
-2.26121
19.6117
-10.4989
16.246
-78.666
-4.98941
-55.2562
16.056
16.0777
13.4395
-84.6312
13.3456
-2.2048
-92.3363
-79.3101
4.61319
24.7753
-28.0898
-4.92813
-4.47253
13.6241
12.9503
-1.36705
8.05686
-92.9189
20.8
18.7268
-3.165
-4.2251
20.3839
-4.84395
-104.167
-1.19456
18.4308
20.9161
-45.1703
10.6748
-2.90175
23.9988
-130.064
-9.49083
-2.3432
22.6047
-1.26069
-7.18172
-1.13134
19.6179
10.5196
19.3551
-2.8295
-26.1868
15.8373
27.4697
-52.2549
13.3639
-1.61187
-108.02
-1.46447
5.11161
-4.71151
10.5013
-2.17656
8.4951
-2.11905
-11.2003
17.6052
21.3274
13.2115
-21.3506
-9.49877
16.8284
-86.5144
5.68623
-9.43844
6.91619
-151.982
14.8234
16.7892
-1.77542
15.9143
23.8839
-3.72793
12.053
15.8515
-68.2394
8.01932
-7.0664
6.9148
5.81322
10.5647
0.0241742
4.79493
-3.66192
-27.8368
20.1439
6.31372
2.03179
-5.59302
-3.66188
14.3026
-116.579
25.9499
-75.1401
-55.8179
-0.868637
17.867
16.4137
19.342
-25.2364
23.0211
-46.3377
11.8929
-0.57388
-71.1941
12.546
6.39611
-4.32403
9.8208
-28.1254
10.8002
-48.9447
-5.20947
0.0274922
-39.407
-49.5222
12.935
23.5072
-16.0347
-55.6151
18.3125
-32.1077
21.399
7.48722
-0.784927
7.53064
13.8497
7.47589
-1.55884
1.84847
-1.48247
2.79932
4.46406
-88.2092
-5.01416
0.468631
9.37405
-1.72633
28.0742
15.5085
13.7044
21.7491
1.41427
15.4553
-22.1185
-35.6283
-7.74784
13.493
27.5453
13.0597
-11.7615
20.0515
13.9234
14.0494
-3.74747
-1.7073
7.40882
26.1284
1.89774
-11.1778
16.8796
20.5713
15.4461
13.9117
17.2093
9.93218
-2.00527
-15.3507
15.6094
-52.4646
-45.8325
13.7394
-10.0858
1.79438
5.5101
15.711
16.3583
16.5066
-2.33804
19.1756
19.6913
2.92675
17.2951
14.9473
11.7543
10.4441
10.5005
7.2033
-1.48057
17.9122
17.2644
0.0172025
13.3643
-2.50321
-0.143921
23.2765
17.813
0.0543676
-36.3443
0.337454
18.4248
10.5873
2.56733
-0.622194
1.14727
-4.54787
2.1289
-8.33919
-3.73264
11.2206
-3.15732
-36.092
-88.7427
22.1887
-4.44578
-37.3405
-11.5016
23.5607
-2.69006
3.07535
1.91912
-87.1529
10.9648
12.6784
9.29324
20.9447
11.0851
-0.938472
-26.9946
-28.2959
0.0794259
16.0781
0.00369079
-53.6617
-126.258
-5.13661
-31.1048
-8.70808
-37.8991
-3.425
4.29503
13.3026
18.8146
-4.37389
-2.15268
20.9526
15.5389
-41.7547
-2.64529
-23.0124
8.8384
-0.480863
7.56905
11.3041
-0.611995
-3.04846
-3.77346
3.03423
-38.3181
-37.9627
0.511888
-17.4951
-51.1014
-100.884
-20.2973
0.869604
-17.8568
7.16772
-55.5156
13.4709
11.9128
3.92561
18.0694
-40.1497
23.7187
-9.35458
-0.453977
-13.8742
13.9241
8.40204
-43.3757
-23.1341
13.9709
16.7315
24.5726
-43.8907
-50.3668
-29.2036
-2.88416
0.0548127
-82.0245
5.76773
-66.7476
8.09807
-59.77
11.5638
2.01954
-1.89429
21.3185
12.5371
-10.7135
-0.385908
-19.1596
-49.09
18.1538
26.8467
-56.3019
17.6953
13.0554
0.0163733
-1.28335
17.5718
16.7634
-42.2012
-2.48705
-8.60905
-39.0458
-12.9789
-86.9415
-11.4484
8.86397
-1.67798
15.2777
-82.9276
-108.724
12.6785
-11.7961
-69.6715
-0.392134
10.5312
-75.0732
-7.65595
-113.911
-72.5521
-65.6556
24.9711
-27.7553
-3.77583
-63.2478
15.2078
-62.2282
-1.66317
-35.356
-126.309
-8.19941
16.1197
0.0261956
-79.6354
12.1291
0.0388625
-8.5025
-71.2076
-99.2991
10.4203
11.7191
13.7293
-51.0505
21.4728
-6.16315
0.0353081
-0.153626
-24.3928
-18.2118
-89.3949
-24.3303
2.91993
4.95504
-3.64711
-4.29258
-15.352
13.4296
-93.0289
13.6064
-77.9591
8.06331
-4.74148
-1.23535
-0.847112
28.5016
-1.00939
-80.1414
-40.192
-14.1285
13.4435
-2.04167
-0.533963
0.289053
-122.168
-38.2507
-46.2553
-78.889
15.9244
-153.969
1.04267
-114.435
-2.0033
12.2277
-0.0208598
6.67503
-7.08105
18.867
-51.1339
-13.0795
20.2634
5.66163
-55.1775
-4.25588
-66.2767
-14.1216
-5.39916
18.2785
-5.55829
5.33867
-49.8442
-52.7552
-154.048
-155.855
-30.1773
9.21732
-3.44533
13.6281
4.52017
-64.8133
21.9378
-25.0279
17.195
21.1687
-87.5425
-0.0197874
14.917
13.1544
11.759
-17.695
-34.1995
-33.816
13.6668
3.04763
-15.8393
-96.5979
8.43557
16.458
-3.68936
0.0264245
-0.443137
19.8954
-17.7338
-19.4234
-0.315188
11.5262
0.389242
-0.782439
21.5516
17.3836
-2.88066
-25.8444
18.0678
6.31462
-2.06542
13.6583
-6.58871
-26.9426
-41.9936
-23.9142
16.8987
15.4769
-2.44347
-9.41263
-1.67299
-0.468428
15.6677
-27.654
11.6855
18.9824
20.4073
-4.04807
13.8926
12.7362
16.1272
17.0538
-2.89673
17.0635
0.00516528
13.6781
7.55117
15.0558
-25.9156
17.6296
16.939
12.0635
8.76011
-11.7168
10.3245
0.145898
-11.4208
19.4863
18.6469
-16.499
16.4045
-22.4808
-52.3024
15.365
15.1047
-31.2843
-2.48145
-48.8779
-21.3017
-12.6696
-3.94761
-33.9044
-4.74907
12.9073
25.6086
18.2139
-4.77948
-2.50951
15.2649
6.46235
-1.67601
-27.4051
-9.26612
-18.7641
-48.4749
-49.5374
12.8955
-1.81267
5.49803
0.183104
0.144476
-0.701283
0.234493
3.03129
7.76412
9.16359
-8.91749
7.8581
-40.7777
-74.7099
9.73425
6.9169
-1.93197
0.198229
8.90819
-1.0311
4.94386
-9.03459
13.7887
11.5338
22.7251
13.6349
-17.9829
-4.98617
-9.19217
-8.39385
-0.58108
-0.244981
-3.2803
-17.0439
25.9134
0.693066
-0.258511
21.1659
-4.7917
-9.92963
-2.93469
-27.7353
-37.4857
4.83432
-15.3001
14.0975
-3.88647
-15.9547
-0.149359
-5.0087
-12.853
-1.58556
-6.64215
10.4968
-2.71828
-4.0448
-16.5336
5.39957
-15.2625
14.9992
21.8003
-7.88928
15.2703
8.24304
9.55344
23.8264
-6.52275
7.9006
7.20344
5.16142
20.5354
-4.61666
-2.82692
-1.5692
14.823
21.8319
-6.11805
-2.14321
-17.045
-13.2568
6.52637
-12.7385
-26.5117
-9.23565
4.98754
-50.69
2.90069
4.45433
11.854
1.95771
-48.6811
-3.13853
-0.922491
-2.74163
23.1905
25.9549
19.3299
26.7496
12.0249
13.5204
16.4095
14.2784
12.8563
-14.0969
14.4844
-4.84222
-47.4786
20.9897
-3.79382
-14.6552
24.6091
-0.767399
-47.0779
6.68517
5.4478
17.0507
-54.1245
12.5956
22.4236
-5.25617
-49.5218
-21.4485
9.83708
-61.2526
18.5164
-2.81351
17.0633
13.5394
-4.05024
16.594
-8.85696
-35.299
-45.4937
-11.4996
17.4207
-14.4976
13.5568
-1.24604
-83.8693
-1.79486
-1.19086
-14.5772
-10.8006
-45.6965
17.5174
1.96861
-60.7077
-7.0093
8.60371
3.35789
-21.1901
6.17844
-1.53448
6.21747
-69.0815
7.82883
3.04122
9.63151
-2.31984
13.2689
8.64812
3.45816
-52.5826
26.9811
-12.5149
-97.6452
13.2045
11.4803
-75.2331
-13.8642
-21.6579
9.26723
7.67697
-12.9425
-2.43941
-4.1765
26.8099
-1.80249
-5.2588
-2.96808
-7.98507
10.3076
-4.36297
12.9032
8.57597
-62.7181
9.0514
-48.4278
11.812
5.35865
14.3945
9.36244
0.0164919
0.0967744
7.12376
15.1105
2.9181
0.460687
-72.6431
-8.21611
-7.39841
11.6081
-84.5937
7.13038
-58.0754
17.4749
-91.8256
-4.33765
18.8222
16.8232
6.07267
-9.50538
-19.1826
15.4253
0.220988
17.4399
6.99115
-0.479384
14.0027
4.05364
3.36934
2.42327
-7.65164
-12.1564
9.013
-1.02007
19.2754
4.08121
27.0894
-1.51492
3.10985
16.9949
0.993687
3.58608
14.8818
12.2697
8.67025
-16.2103
-1.07312
13.3828
9.24477
5.10487
-35.8063
-3.18337
-22.8129
-83.8273
-8.60355
12.2097
-0.0869758
10.9864
-1.85438
23.0173
17.4135
4.59609
11.7321
4.24134
-57.8845
12.7872
10.1478
-0.121424
5.87915
17.397
15.627
-1.71358
-30.8618
-22.8303
12.731
6.57346
0.175008
14.8135
-45.8762
13.3009
-31.0046
13.7535
6.09172
-1.78117
5.48846
16.3213
-2.30534
14.5464
18.6932
2.09618
-5.70892
7.47624
1.2412
21.7964
-77.9982
19.7614
16.5713
-98.7726
-9.46641
0.0170487
-7.61172
-66.8565
-4.56538
13.0535
19.9247
15.5152
20.2609
9.19308
18.3399
5.34018
0.798317
5.91455
-0.61233
0.598156
11.6459
0.240777
20.9642
3.56364
-111.284
9.6457
20.7932