/*--------------------------------*- C++ -*----------------------------------*\
| =========                 |                                                 |
| \\      /  F ield         | OpenFOAM: The Open Source CFD Toolbox           |
|  \\    /   O peration     | Version:  2306                                  |
|   \\  /    A nd           | Website:  www.openfoam.com                      |
|    \\/     M anipulation  |                                                 |
\*---------------------------------------------------------------------------*/
FoamFile
{
    version     2.0;
    format      ascii;
    arch        "LSB;label=32;scalar=64";
    class       volScalarField;
    location    "3.4";
    object      p;
}
// * * * * * * * * * * * * * * * * * * * * * * * * * * * * * * * * * * * * * //

dimensions      [0 2 -2 0 0 0 0];

internalField   nonuniform List<scalar> 
13486
(
68.1612
55.2197
14.8648
-73.7406
34.4996
0.188509
27.2026
46.2025
51.8635
29.7595
-169.594
22.0269
71.3416
0.933319
30.6895
30.9567
-150.703
-0.11343
26.3014
62.3395
-48.1637
70.8053
54.021
-57.9994
26.3519
-52.228
-139.293
-12.8047
0.271972
-12.7306
-35.5558
26.6862
-42.4285
6.16029
46.1981
-1.01876
-9.42653
59.4943
-158.028
51.2331
21.5814
73.7363
4.00832
27.0829
26.5864
21.4555
-143.493
0.105316
-9.30813
-16.8047
42.3085
-61.8605
16.0406
60.041
-8.93538
35.3419
10.2721
-110.817
-37.7223
-2.50726
-191.961
-0.655742
-90.8911
-44.1231
-75.4387
-7.8031
-94.1822
67.5427
51.6914
-43.8332
-93.808
-4.05244
51.4039
-103.721
-2.61468
9.89613
0.872661
30.4774
-136.1
-124.442
-0.471011
54.8833
-94.9095
15.8166
68.4224
22.9896
-56.865
40.3463
47.5398
33.633
22.0605
42.441
66.203
59.2152
53.4271
0.137395
-141.391
-125.153
51.1213
-153.344
-0.728251
2.84134
-126.863
-74.9499
34.7699
-155.265
48.1326
-110.602
-146.483
40.9322
51.8246
26.7913
59.9795
8.48125
77.3792
51.9725
27.1523
7.62223
51.6958
-5.58958
-1.59747
-192.156
55.0763
-114.833
50.7092
-74.0752
41.7182
15.7194
11.7383
-61.1772
-60.0753
-146.493
-95.0992
-99.2543
43.9926
39.5633
72.0132
41.4952
-5.81048
46.9519
-30.843
16.4956
24.9159
-93.4499
8.34707
-87.4172
7.1605
63.688
-18.6831
0.314382
29.2238
30.0075
-0.453375
56.5659
17.6608
15.0088
36.2983
17.8634
55.4598
14.1246
-12.0865
55.4295
22.3631
73.1182
-47.3012
-6.78534
6.96591
87.2909
8.72711
-99.2052
-109.047
17.842
34.3069
35.466
-0.466676
-219.49
-3.53523
-38.1508
48.4303
24.9598
49.6754
7.20127
31.3201
-164.537
16.3726
-12.4954
-0.0174881
-4.88669
23.1424
54.6329
-5.91187
13.0241
-42.2304
60.6427
6.50896
-168.394
-63.3023
-11.265
64.0616
-3.69568
-40.1782
15.2249
59.4753
32.9265
13.0995
3.78607
3.92968
53.3531
-40.425
16.4934
-8.34928
-53.4182
61.6249
48.0335
0.345388
-23.6411
-13.0168
34.357
63.7445
-48.7009
-153.801
-19.0234
47.6272
-12.5344
10.3865
67.506
-6.58501
-105.79
-9.52696
-46.0644
49.2349
-8.83313
-32.8554
75.0683
-102.365
65.6626
1.0004
13.5992
66.1892
31.4846
-41.4398
33.9362
8.84943
63.5789
-112.31
54.0347
31.9158
-34.9792
-102.113
29.8454
-190.578
77.8937
50.1422
-89.9361
-24.8511
-238.401
26.3216
-27.7037
20.4733
-41.6943
51.45
-121.042
30.5592
-235.831
36.0978
-167.402
-8.34522
-47.045
48.7113
-14.3062
48.2259
47.0129
-13.6579
18.0146
67.6837
-31.6479
-19.4921
-35.1845
-65.8788
7.69874
-31.8355
45.3813
48.641
-86.6709
-195.306
-145.913
-31.8707
10.9688
10.9123
48.8647
-93.1224
-35.1943
54.1029
44.0539
2.38203
-1.85153
-11.697
17.6481
49.7301
23.6791
21.329
2.35347
8.47068
27.43
-13.604
30.9764
-3.87297
32.5375
-71.2919
-6.18944
-71.716
-65.4287
3.51004
26.4353
-135.209
40.1364
-20.8223
47.4916
53.4037
-0.543962
-6.02058
-96.2376
47.9092
59.4016
75.5374
23.63
39.0104
44.8797
15.6513
37.6214
40.7081
41.4394
21.4034
62.5192
25.4881
51.4105
80.5122
30.6389
31.4567
-106.101
-0.81268
58.6715
37.0471
31.7674
-194.342
0.255422
39.9976
77.9274
-49.501
-43.3893
39.3081
15.747
17.6866
-140.117
49.401
-6.45207
-103.134
41.568
-86.1479
-47.4801
26.9088
21.1773
52.483
47.144
-14.5068
-0.116863
-0.236796
-170.57
62.8321
41.901
3.55605
40.3653
8.88801
-203.563
3.03383
42.6548
47.6145
-102.409
-131.374
-68.8447
48.443
40.5318
70.7454
48.952
-166.365
-5.65036
8.99466
30.8806
-126.143
-11.8443
60.7614
-13.9378
23.2562
66.2475
65.9688
-2.33777
-81.5043
-199.613
-139.341
-32.864
-130.983
17.55
47.1898
10.3981
27.1462
-11.8247
58.7564
-36.809
41.4418
52.9689
29.5179
-13.9909
-18.277
49.7603
47.434
55.7719
-171.379
36.7213
-114.083
32.0649
48.3622
28.4069
78.0528
32.73
-9.2478
-4.04337
14.8335
48.5378
-139.706
8.86933
70.3113
47.1774
22.714
8.85923
32.9719
-32.0244
70.2858
-56.2856
36.0343
66.5336
-142.608
-13.669
-93.7544
-19.0788
-7.45058
57.4547
54.7454
70.4372
-69.7233
-7.92572
-196.144
32.1206
48.1134
-16.3193
-21.2487
46.4188
-177.846
-217.377
-91.1242
-85.1408
5.55438
59.6521
-0.551545
9.59146
-53.49
45.9163
0.432591
83.334
66.994
51.452
44.8586
-1.44674
0.051369
80.1913
30.1275
-4.58227
-9.88105
51.6483
-146.489
16.8017
35.0893
-10.6358
-10.0268
53.5272
-42.9086
-146.223
32.9209
-12.7897
86.5997
33.305
42.6021
52.1335
-227.441
16.2422
70.9207
34.1377
59.8399
24.7384
17.4329
-57.2551
-119.627
4.3861
-155.036
48.872
51.643
-196.016
0.0996657
-1.12316
66.5279
57.6609
-0.672978
52.2633
42.325
-9.25401
36.4513
42.8501
-103.353
69.665
1.38335
-46.4654
73.0409
41.0063
-1.65483
39.6458
-71.4705
-166.972
29.1483
39.2721
55.4412
66.5214
-139.403
32.73
-140.894
-0.0348361
65.3758
17.6024
-172.791
-135.105
28.0302
19.8084
44.8974
-75.2287
-21.1376
52.2529
61.9531
-109.507
51.5698
-88.5453
-210.182
-31.6585
21.9573
-191.784
53.8698
16.3416
-200.892
46.4141
57.5021
-43.6588
-142.857
42.7572
65.0912
19.452
68.5138
15.9385
33.4397
15.2276
53.4296
6.96685
63.8632
-137.732
18.7853
50.6635
15.8767
-29.1134
47.9301
-141.269
18.303
55.2605
70.834
-64.5167
21.942
17.9672
11.0311
47.1127
35.4403
28.7425
-146.529
6.71396
68.2247
12.9234
10.1526
-95.9167
71.0398
-36.3759
8.45992
45.8491
43.4621
-96.0544
-0.305121
47.1837
15.7694
-20.4769
21.1266
-30.1547
69.3203
51.468
40.5358
41.1626
-8.62883
-32.4973
75.4958
18.7118
75.7448
-98.0754
48.9765
-1.40784
-101.352
39.1541
29.5519
78.4675
-114.202
39.6683
38.3758
-52.8498
29.0865
3.76603
-5.99773
50.4943
-142.092
-25.2074
-34.5492
5.03869
1.01682
51.9528
-0.567843
74.5638
51.0142
12.5587
-206.405
-6.03252
19.2325
-189.995
0.170786
-153.593
65.4299
-0.123835
8.89414
-248.095
71.1161
0.587459
18.7434
73.2479
42.5643
-188.075
-131.194
41.0552
9.72937
50.6252
8.04012
-76.8026
20.8835
47.5301
18.0813
44.5473
74.047
8.41335
-174.112
47.8047
23.4115
-1.1072
40.7268
36.4849
24.1164
-173.581
16.312
-109.75
15.1542
65.2428
18.443
15.2314
15.8213
18.78
16.9
49.2312
12.5994
49.3981
49.1102
62.7839
0.843142
-17.5441
75.1581
2.89244
-174.753
51.8803
-31.8549
53.1942
8.21093
45.9984
4.30663
-98.8423
-54.864
-0.416964
-149.963
28.1549
76.8322
-19.7877
-80.2779
-8.36412
48.9015
-20.0921
23.9785
-238.229
75.568
-176.752
34.1264
-17.4122
29.8852
47.5967
23.8604
-60.4333
-30.4577
72.4461
47.0057
32.1183
47.0913
19.2568
43.9395
44.4997
30.4467
-91.03
3.53318
58.1046
26.1392
-51.6561
46.1944
-168.471
-23.7188
-124.053
52.6357
50.0777
-141.209
16.3733
-184.147
-34.4431
15.9928
0.0404005
18.8997
45.858
6.43529
-25.5414
57.381
-2.10671
-57.3377
-39.6452
-12.0322
-143.764
-54.1237
-136.569
-251.858
50.7612
71.296
-3.0717
-57.0893
73.3288
69.6128
-64.2253
-60.0071
52.8417
-156.99
9.99222
-25.2819
8.07882
35.9716
-146.427
23.3517
33.7281
-9.98441
-35.9029
-48.8993
1.22523
46.6069
25.7012
38.4004
-161.02
42.0243
68.3523
-111.688
-248.412
55.9993
30.0613
38.9223
-150.465
-10.1902
-167.776
1.85984
49.4551
75.9258
53.6321
-4.6094
2.58153
48.0447
66.8145
0.575935
53.9252
49.0979
68.3667
26.5062
-174.735
12.2205
20.0004
67.6909
16.4387
16.3202
39.9323
-1.01747
22.4112
2.89207
-31.6864
45.7893
44.3894
34.7695
25.8344
-116.064
-3.71324
1.48419
35.9603
-32.389
-8.85165
8.45774
-178.209
-199.165
27.7514
-9.02199
-101.821
-111.559
-41.4932
42.7375
-156.122
-200.504
53.9093
-76.8724
71.0559
-103.334
-102.36
58.1673
65.6271
2.55192
8.99874
25.6374
49.0297
36.8578
-63.8373
-97.0061
-13.8269
-33.501
45.9198
9.11634
30.2354
-119.14
51.6829
-138.271
8.40772
-6.0986
58.6258
-24.153
-172.634
-92.5248
70.4613
-15.9075
-170.725
-139.062
49.0431
-194.27
-77.027
21.5684
33.3061
-38.8033
40.811
-70.5457
40.6806
46.2767
56.8598
24.5048
-5.5245
-18.8987
37.3547
-4.92382
58.7772
35.1892
-91.3814
-92.9638
-11.336
3.8249
-9.75481
53.6233
21.8689
29.9311
47.6818
-0.0138697
44.4032
77.8337
2.74412
-43.5651
34.0765
-14.2844
-237.226
-10.3653
-55.3193
49.2689
8.55224
3.14332
6.31653
-1.07688
61.7205
-186.718
-0.140044
47.8444
-11.4723
63.8705
53.8657
62.8156
22.3502
33.7449
25.7334
14.3377
42.7461
50.1164
-18.9282
16.1594
-128.905
-21.7046
-250.462
49.9426
-76.1265
-52.8994
-166.593
-7.16517
-9.83606
48.0797
-3.34367
23.4671
-93.9226
47.6711
77.4049
-16.2822
-136.153
29.3641
-0.646482
49.1351
11.5245
-121.801
58.1237
-4.51653
74.1706
40.1926
47.6703
-6.58839
60.8501
10.2651
54.0556
1.16157
-44.308
-3.71088
-114.097
39.3202
-62.1359
-1.01022
70.754
47.5236
50.6782
65.6389
52.0663
58.4298
-3.77632
52.8245
47.5211
49.7021
18.0447
-6.99514
-17.1949
-16.9613
24.8
55.9335
-98.9229
74.9003
-26.003
8.78487
75.2208
65.502
16.5752
-83.7907
51.0867
27.7178
17.7389
49.1749
-95.7429
-9.30706
47.5688
64.5511
-124.182
55.2464
60.3564
-0.136741
-11.2056
60.1378
30.7645
-8.21399
-158.082
15.7953
-30.713
44.7932
37.4572
-28.472
-11.2593
-21.4269
25.4465
-5.61369
21.9782
65.9182
-75.6788
82.6404
50.0582
25.7385
54.4678
-192.82
-98.4694
-183.194
49.2264
-134.435
-100.048
-36.2785
25.755
30.3702
-102.635
41.9634
-171.133
35.0023
-13.113
-81.06
44.4397
25.5734
61.5173
49.0894
49.7667
49.5722
16.2954
-33.1824
-23.958
15.9941
-75.2594
-0.0503664
43.9931
-59.5118
-41.4028
-15.2807
20.5558
-240.089
40.928
25.83
16.0024
-23.6593
32.8697
-18.3901
-33.3638
15.5932
-69.5172
55.1674
36.6752
61.6887
-99.7623
43.4812
7.50217
64.3252
6.67771
27.6832
-1.85458
0.957139
72.635
73.1937
44.5262
35.9905
34.3997
48.6082
73.5018
40.5283
-37.3232
-240.783
19.4659
-22.2363
-128.444
47.5907
48.9422
-48.9668
26.3879
45.845
47.5444
78.8302
-84.5658
38.5916
-141.07
-14.2116
64.931
30.5491
45.3425
-45.3237
20.9234
28.6686
81.2768
-13.0463
-17.0161
26.2535
16.2474
-190.416
-96.9074
4.184
52.2606
12.4743
36.1913
69.4447
64.4425
19.0653
-62.0624
-6.95851
13.3343
57.6916
48.5879
64.9616
37.1109
-141.828
67.4071
48.4374
-56.8974
43.4088
48.8257
60.4606
-131.657
-8.86918
0.0346794
41.284
72.5732
34.1037
13.1885
-31.201
78.9474
-117.902
-30.2264
74.7797
42.4446
-18.4019
43.9979
-86.7069
36.3508
-31.7555
-122.555
-147.071
-200.293
7.94219
-24.8671
-143.435
-148.831
-111.758
32.7132
-134.683
-193.365
43.6765
44.5059
35.8739
-172.615
25.7864
12.5653
14.6591
82.1003
39.7238
-20.1837
42.4827
-16.8036
-210.308
45.5591
45.3993
48.905
82.7048
0.486751
29.9489
-58.8896
16.4309
40.4253
51.1984
-8.82577
68.0151
34.7987
50.7353
-58.3366
-121.065
11.0435
52.5932
48.2939
54.1721
47.8624
76.3371
76.5291
-15.0988
42.5872
59.3973
-19.5341
65.1327
-158.65
75.6266
64.8383
7.74315
53.2997
26.4908
43.1656
13.4225
48.1878
-31.8691
46.5302
30.1553
40.3156
0.393266
48.764
-9.76176
24.114
73.5723
73.3543
39.7828
-97.9807
22.3973
20.642
25.4707
39.1633
67.3517
-100.139
49.7447
49.8907
32.8719
52.2956
-244.128
-45.6383
-28.0307
77.3902
28.0276
2.06026
53.7717
0.226234
9.59752
25.7865
19.0553
37.4891
31.3809
-6.69936
36.9006
44.7223
40
42.7528
76.2814
64.9039
60.1655
61.9695
72.9659
33.3868
-118.713
-0.14086
-30.8616
72.5679
-61.8218
50.569
47.7133
-201.367
35.1534
53.7125
-83.6335
33.2187
32.5569
83.6198
-135.662
30.8998
-19.6399
56.6265
15.3569
-100.132
71.7554
63.8058
50.1072
49.1229
-26.3582
31.8583
-155.923
76.2802
2.92366
80.7909
10.7954
11.2465
-114.919
36.2036
-95.8128
21.0061
-59.0513
20.0628
-43.4973
19.6562
-119.336
-0.177638
-42.2182
-99.2287
-11.4886
-65.6598
-19.8082
19.8072
-37.4804
-199.319
52.3334
52.9749
59.2672
46.7072
30.1584
28.6621
86.0736
49.7463
-142.756
-0.563669
2.33707
37.7161
46.708
67.9511
-29.4993
-29.7442
45.3317
-0.176688
22.5098
57.7525
-98.7358
-203.147
-155.994
77.1283
-121.574
40.5261
60.115
13.0431
43.8959
-7.22648
-148.282
-137.987
13.1003
33.8647
57.778
59.2231
-69.0699
-99.9012
40.0022
-126.612
-17.4216
14.0965
23.3163
-37.9604
-100.148
-135.7
-136.616
-52.2461
69.7379
-55.9026
74.2016
-199.417
-43.7793
29.813
-19.5459
65.892
51.2273
55.6861
-17.376
-34.7839
-155.368
64.4554
-104.858
36.4103
-161.032
55.7034
65.4264
-182.868
48.9512
72.1052
54.6411
52.3698
-61.543
-11.4057
30.6487
-28.764
-64.6665
37.7587
42.1233
15.5016
-160.069
21.9033
11.9442
46.9977
42.6486
-8.4471
75.4206
16.4854
0.00914758
15.9487
46.3944
-58.4079
0.482963
54.0701
-13.9583
14.6549
-2.57714
53.5467
46.579
44.6675
-115.665
45.1342
54.1624
55.4257
-13.2515
9.18416
15.733
46.2266
-30.4076
-123.786
-161.579
-47.5787
-87.2048
-0.158978
-81.8172
8.11983
-97.9381
-19.3161
-228.821
12.2537
-39.9049
21
-159.749
50.859
87.452
20.3602
-50.4651
24.7145
10.9652
22.1876
2.31664
-16.9461
-161.068
16.8466
62.2243
0.379016
71.2695
1.94374
44.5894
45.124
31.463
-119.096
38.1581
75.9961
-37.2213
46.5195
46.1097
67.8376
16.3831
63.6379
54.166
-109.96
56.5188
-135.193
-147.85
64.8735
42.5195
-60.9641
11.0378
60.1099
20.5513
-87.8278
7.12992
7.63708
38.3666
28.2446
47.822
49.1083
45.4641
-69.7192
-13.2589
-18.1378
47.0733
81.1205
-19.6205
-99.7939
-119.819
51.8791
16.182
15.7179
32.3632
9.95839
43.5794
9.56596
26.1746
69.9645
23.1106
-5.19461
-41.8903
-152.325
-34.4742
-145.88
-49.9053
-207.691
55.0297
27.8143
-17.1102
69.9139
-0.483643
-160.056
-49.1945
-147.25
53.9315
-89.3453
19.4198
51.0708
-28.2179
-13.0124
-32.8298
-138.432
-89.2724
51.249
-230.897
-141.265
-156.865
46.1532
52.1659
-126.757
59.5348
56.6948
69.314
70.1609
55.1263
17.9429
76.7522
-155
50.1789
25.6236
-151.471
56.1273
-154.629
67.9749
25.8087
-39.3513
-148.597
-167.647
50.6709
-157.277
-53.8242
11.3985
-18.6765
-4.67367
31.3467
14.2512
42.1546
77.0651
-99.17
-50.9779
-6.49374
53.0441
37.6178
-44.9654
86.7044
-215.08
11.1856
33.011
-32.2498
45.4388
52.0835
56.0638
57.1424
-3.44358
35.8525
49.1868
20.9954
-8.33342
-3.71182
54.3946
54.1487
64.4709
-26.2913
14.8441
34.8586
30.702
16.0454
-110.25
40.2108
-51.8632
42.273
49.2054
-150.309
71.4623
-75.1906
74.5847
56.1971
-245.123
0.458056
-2.41912
24.9277
50.0323
-254.764
63.429
45.3521
34.8938
5.76954
21.0996
-1.50448
34.7852
-155.977
38.4118
-82.6586
46.7001
-126.04
16.5384
-18.2999
57.3433
66.3533
28.2129
-120.391
26.1762
-1.73109
16.4511
28.9889
6.27933
-15.1763
74.4401
-13.1573
-32.8388
-29.6713
-144.48
15.2324
47.0157
-153.871
4.07259
49.8169
38.9243
51.9026
-181.636
31.6114
74.4328
-70.5979
46.0209
26.9102
-0.38406
19.8325
21.5267
0.290665
75.8221
56.0638
-23.5116
73.1009
61.4035
56.816
-131.711
-125.272
40.1622
-43.0968
12.8582
-80.0822
-37.631
-75.5245
43.8108
28.3889
37.6983
39.9213
2.82725
43.0696
46.2527
-126.236
53.4719
31.5654
46.997
-7.3126
-10.4587
-130.501
-147.532
-170.402
1.43684
45.2433
-157.373
70.0551
-196.81
45.6491
38.5438
-17.5199
24.5453
51.1808
25.5259
16.2239
47.5909
12.6669
1.63029
66.9598
54.2687
-47.7411
-85.6905
17.1035
42.5692
7.06215
32.0847
-65.6775
6.69065
30.3216
4.3257
46.303
46.1671
10.5915
25.2299
5.90867
-87.1259
-174.492
56.7594
-144.23
48.8447
0.286814
41.5619
52.2461
29.6141
48.6109
22.4399
-121.086
-20.8908
-96.2661
-163.087
-68.5119
-19.9881
1.8871
38.738
4.16056
46.2363
-4.55733
8.05037
-60.1555
-190.2
51.777
-139.206
49.7019
22.5483
-145.93
12.2236
-153.34
40.7819
47.3933
-137.9
19.0243
-87.4035
57.5348
21.0164
27.1501
-195.924
59.046
32.7336
-1.13347
51.716
52.2553
58.0023
24.0535
56.6013
-70.6515
12.1899
-38.6942
50.4221
32.4951
23.1294
19.0481
-87.3949
-242.14
36.0475
15.1847
-255.018
72.2832
-68.554
57.71
41.1388
-54.0331
-20.8502
14.8591
-112.053
10.8162
16.5195
45.032
-17.9602
47.9565
-63.2263
32.4011
-14.6543
26.9817
-95.8149
60.0531
74.8141
52.5429
36.5351
24.2739
33.5138
-141.162
13.1902
-57.2195
23.6607
-55.3421
-236.513
-102.845
-15.7737
47.1899
51.0706
-88.4618
22.7175
53.336
-16.0488
-54.0122
50.8483
-104.673
-182.895
5.39629
-2.28834
0.462074
70.7371
-31.4632
49.8469
-34.6106
-19.7411
-15.5369
50.2468
27.2285
44.9789
-23.538
-23.697
15.9547
25.6924
53.8939
46.5123
14.0873
-25.6162
4.11915
77.5286
-16.6184
55.5027
60.0695
6.21757
-12.288
31.4808
-119.461
-30.5436
42.111
29.9932
49.3046
-181.035
51.6229
11.0872
64.2023
25.9177
42.6336
58.7641
40.4025
17.6069
-185.765
19.2666
-148.911
46.5183
24.9445
57.7707
10.313
68.9861
18.2472
72.8747
-28.4184
60.3506
1.07114
42.1957
-113.834
45.7889
32.8078
24.0446
67.0073
47.3773
21.7559
-12.4765
35.7824
44.913
-130.932
-142.181
41.1707
12.1551
60.4849
-131.598
70.1509
16.3238
86.565
69.5075
42.3261
40.189
-119.493
9.0423
73.7967
9.82767
4.26678
6.44697
72.7516
26.9207
46.0258
62.1941
-21.3258
52.4771
5.1264
57.6954
10.5446
55.7704
50.755
64.943
-20.9631
-129.674
24.1217
-158.334
32.3993
22.9582
-3.462
58.5988
66.5447
2.36537
28.5311
19.131
62.1726
44.4422
48.1279
31.2455
-37.5861
-104.775
-65.4783
48.8407
-61.3691
-7.70853
11.1964
41.4038
32.3115
-14.7036
76.4216
3.90074
70.0046
27.8053
70.8653
-19.4662
25.8808
-4.49298
10.7932
45.1753
46.9664
-1.70467
-8.10039
-24.6736
-8.93717
66.9278
-5.00127
6.69343
-1.17523
-10.2661
29.0574
59.0606
34.0076
11.1336
2.91172
47.4422
81.1149
-163.182
14.9066
50.2661
13.508
26.107
-123.356
41.7503
-11.2197
-158.728
7.70969
-51.9481
-50.5351
0.0386398
-76.0715
-95.4229
6.89816
38.7754
52.1606
41.9281
79.4754
-181.424
71.5695
-97.6274
69.5148
-250.016
-24.5378
77.2863
23.2284
-74.9463
51.2102
-9.62816
54.6289
0.611434
-156.072
18.2994
-13.1362
-25.5728
-0.440044
-24.659
22.2017
59.929
-185.572
23.7653
-61.4313
24.5765
3.03348
-153.498
24.9594
-9.72502
-47.3834
58.0162
-18.4214
64.6841
28.2801
-135.613
20.5789
-27.2354
-4.91321
41.755
59.0563
77.9932
37.1996
41.5984
33.6426
-98.9122
75.8332
81.549
51.5107
-18.1716
-181.113
-148.309
48.3117
39.4666
29.2904
40.4516
-42.8744
-77.5152
-117.821
65.998
7.52008
11.0012
-113.387
49.8926
20.2128
85.496
80.8866
46.8147
11.0373
27.7359
-82.5491
23.7925
82.4036
25.9324
-2.63713
42.226
0.850924
18.377
0.0259516
-5.98711
21.2643
12.1986
30.9129
0.958843
19.2789
64.5369
28.3175
51.9215
-123.198
-7.98223
75.1798
-81.3392
25.2009
26.0717
24.0001
15.0492
-135.15
23.7243
12.9805
13.6991
85.2129
-118.989
-82.6293
-78.9513
-16.0161
26.069
26.6535
-114.501
-71.7885
-0.597106
-88.2737
-24.0644
-27.6688
15.7008
15.9999
10.4189
84.7089
10.4914
24.0565
-54.5868
14.8003
-98.3357
-0.684256
62.5225
49.0137
24.3134
-12.024
48.5417
51.7748
14.6971
-248.394
-50.5872
61.8785
-16.1738
44.3067
7.91477
69.4323
11.628
-132.761
2.3266
52.0787
-8.14332
42.884
-21.791
82.5618
-110.495
-3.48645
-157.52
25.7274
-142.578
-26.5573
-118.085
16.8694
33.2059
-191.039
-8.73458
21.1337
18.3263
-44.5809
-24.2554
43.5878
-148.363
46.5301
-127.9
52.6955
75.6541
49.0082
-98.1313
51.5109
15.6585
25.063
25.588
-9.39094
-147.041
4.99052
-20.069
33.0093
6.4366
-15.2015
14.5927
-112.409
33.2741
47.3495
-20.719
-147.436
-7.02977
-1.28828
-16.5187
37.2458
-63.58
-155.885
47.1317
-6.83982
37.4858
-35.1916
-119.732
-162.113
-178.882
82.3347
27.5558
-22.7915
20.4581
72.0102
75.3894
-141.228
6.69169
47.356
-66.6957
1.82265
73.1631
35.3765
47.4593
86.1332
-4.7235
27.8354
12.7749
67.19
49.4477
52.4407
58.0832
35.5342
5.90487
12.4751
25.292
21.182
-138.181
75.4334
-4.11775
-12.1128
1.16605
-40.4727
33.7182
-112.861
-0.300125
21.5789
52.5828
51.1256
56.4836
-142.382
66.085
73.9034
-83.9989
38.2533
-116.624
-110.405
25.3382
30.1087
-0.305055
-16.5515
-24.7893
80.8678
-138.803
56.4737
49.5426
62.841
43.0442
43.3182
-13.1479
4.55605
37.7225
-81.4557
-111.391
-57.4118
14.6039
-94.3456
58.4144
-183.625
-127.451
14.8902
-93.5741
-131.168
-154.841
46.3705
8.10315
-52.8683
23.3194
-90.074
28.6088
-93.0409
-118.727
51.9539
-146.819
74.939
-0.287964
78.003
-0.363678
-45.9457
19.8356
42.2866
46.1177
-82.4259
3.59443
-0.757413
18.5136
41.2188
86.3567
62.9003
29.542
-14.3502
35.4608
-6.7427
56.5067
-20.5507
30.3881
-75.7015
-112.573
-111.335
30.1529
5.48826
-104.376
33.0174
38.7147
73.5771
77.0168
-147.821
-146.693
-0.611629
-31.2158
76.7149
29.3169
-7.3004
23.5491
36.1216
-71.7228
20.932
10.473
-14.8304
48.5887
-52.5741
26.8747
-23.5068
-22.3868
-72.4906
-3.7133
-71.7894
-63.8885
54.7777
-148.027
-121.984
-14.8644
7.38512
81.5898
43.1095
44.9083
-41.039
34.3569
4.10392
31.6435
18.4515
-115.44
-135.569
76.6276
51.3815
5.77743
-108.561
84.4306
-136.893
-113.356
-61.7267
35.0757
-150.98
-69.0806
67.4084
3.77222
48.4751
22.4978
-81.2242
24.6622
-11.8297
32.571
-75.7309
6.78726
19.8913
50.0879
-159.879
-104.202
25.3227
-16.0065
-35.3062
-33.9249
79.7141
33.147
-254.948
34.3114
16.7727
72.1569
36.6498
-135.46
37.7442
58.6928
54.9169
-15.4719
42.8833
-11.673
76.178
4.91456
48.638
-168.896
-13.4996
-0.0242947
-91.8741
38.0944
20.1867
-125.308
-165.182
57.2727
-2.91639
2.95632
64.1041
38.7656
62.676
44.3048
-25.3059
1.5107
7.5154
50.8372
0.147404
59.461
44.1901
74.9972
-102.851
61.3341
34.7518
74.6122
-72.7587
-19.9481
76.7495
-110.162
43.6936
-141.002
69.0815
74.0557
51.8301
-49.6884
46.8967
61.0614
-44.1653
24.1708
-117.369
64.1824
-119.761
-16.4325
-149.507
-152.178
60.1047
34.2235
-135.914
34.9056
74.0578
-10.516
1.15228
-154.34
-26.59
46.4831
-41.9885
45.4956
48.7245
-121.436
81.6759
-5.36845
64.6799
66.0136
15.7516
-7.21205
47.4335
-54.6651
-23.2845
47.2121
42.9009
-8.16756
48.9745
-59.2975
67.6044
51.1658
30.2964
18.1595
55.5503
-34.545
31.7358
62.6259
21.4114
0.632574
60.8335
53.3867
-18.638
-98.7003
43.6028
55.2309
75.7329
-108.943
79.3705
75.814
79.9755
-23.7233
59.2418
-182.707
47.9976
63.5649
60.568
54.7662
67.5188
85.5945
42.1743
-112.124
20.4982
-132.304
84.7471
35.3569
-11.1043
-141.084
45.4802
66.3709
48.4158
28.8077
11.86
66.3637
-78.7246
53.7844
-148.765
24.3418
-102.868
28.6886
39.1596
-188.423
-204.813
0.793919
-12.227
-39.5894
58.2737
-0.834582
15.7357
48.4218
-106.795
39.4903
-1.05093
-98.5462
-155.973
-121.404
64.9819
68.1738
-127.829
26.4701
60.0612
52.9334
2.44254
-158.532
54.1909
-129.02
63.5017
-89.326
61.9962
32.5123
11.9197
58.2874
39.2966
61.7863
29.2361
25.4186
-8.22071
-96.7721
-109.858
-203.727
60.8292
-136.074
-88.2216
-114.15
64.8428
61.5284
21.7073
42.7428
65.9059
-61.1915
49.4546
-136.202
-13.5276
49.1221
-130.329
-140.757
-31.0487
-150.55
3.67605
-248.766
-153.315
-138.856
-100.709
44.8203
75.8293
82.0074
72.8264
-155.13
54.0881
-176.142
48.095
65.0079
12.4925
59.9305
-102.985
28.8062
-11.6902
3.23425
63.9655
-16.9671
55.7611
-143.307
-3.84185
-152.774
54.8167
55.4066
47.178
-142.484
48.8958
-7.72143
-149.344
-153.514
28.3185
76.858
-78.435
-36.0473
-157.568
48.96
45.8066
-11.9733
31.6834
-143.364
66.6173
61.8459
-81.0792
-1.83268
65.8592
-125.363
-190.279
6.37024
60.7854
67.2411
-167.761
41.7952
2.631
74.6259
-111.435
-73.7487
3.04904
71.3596
5.94187
-5.43568
-10.216
64.0486
38.7332
63.2893
1.91575
-69.1794
54.7882
83.6166
-95.5085
48.2252
5.10397
-112.149
5.58199
28.9415
-157.819
41.2076
-59.8584
32.9684
-45.668
-30.3476
58.989
68.2516
48.5344
-50.2131
-67.1787
57.1278
-141.947
30.5224
-15.6105
33.6217
-106.135
50.3462
57.0517
4.75517
54.7443
74.704
-42.7714
45.1702
54.3501
-154.895
31.6286
-10.0204
33.7258
29.7762
38.8036
0.437289
28.1989
22.1518
-54.8372
65.358
31.0182
24.3728
-130.986
-28.3103
49.925
-142.776
79.8498
-137.37
-144.921
10.2676
59.168
56.1227
63.3422
-160.571
72.5454
-122.42
44.7031
10.2623
-100.65
44.4318
32.1088
13.3855
40.4347
-120.922
40.0587
-152.724
-137.085
-0.579158
-80.7359
-89.7108
47.6086
73.5606
-5.62661
-184.114
60.7848
-70.997
68.4521
33.079
7.28543
31.045
48.1191
34.9608
-22.5823
29.5128
5.38951
17.2949
21.8841
-105.68
-160.119
11.9256
38.627
6.98379
85.0262
53.9416
48.0855
69.3285
13.5781
52.9081
-86.3214
-167.127
-167.821
47.4671
83.9199
48.2194
-22.4959
65.1355
49.7035
50.2181
-44.6542
5.02661
34.4722
80.4016
30.0055
-27.7336
54.1
66.4158
53.6134
50.154
58.0128
40.8837
-19.8996
-222.691
54.2468
-97.9504
-92.8373
48.6478
-185.258
18.6739
28.7217
54.3855
55.8908
56.2927
3.96263
62.9786
64.2625
25.6255
58.3092
52.6619
42.4405
38.4393
41.0597
34.3596
-4.61916
59.4682
58.2365
-4.77601
48.5682
3.29977
-45.0645
72.9604
59.5899
1.23793
-210.534
5.61522
61.1562
41.8224
17.7368
-156.246
17.021
-66.5119
19.2456
-180.857
-0.787232
42.9018
-38.4785
-86.4479
-143.429
70.4324
-155.322
-94.7875
-203.351
73.5956
-38.8253
23.7542
15.0095
-150.474
39.6173
44.9341
38.6848
67.3325
43.5284
6.88905
-127.276
-214.107
3.22451
54.2104
3.41578
-168.589
-110.424
-49.1751
-117.383
-191.471
-85.0971
21.3798
21.3644
46.8693
62.137
-47.2189
-123.58
67.3491
53.7808
-166.99
3.71116
-134.974
38.1493
9.95249
35.0376
40.9136
-0.323371
-42.4652
-57.3438
18.0252
-129.873
-130.515
16.457
-138.388
-143.479
-148.389
-221.174
15.8279
-146.96
34.1784
-153.742
47.1796
42.6614
27.795
59.655
-254.809
74.2984
-22.799
8.19499
-28.2362
50.1356
37.0871
-98.3698
-161.086
48.5666
55.8424
76.4106
-206.197
-135.161
-244.612
29.3973
0.956993
-136.899
29.7852
-146.35
36.2901
-176.471
43.9071
23.0866
14.7646
68.0512
46.9763
-16.1473
-43.6699
-44.1055
-112.209
59.3714
82.2458
-107.86
59.3283
48.0781
0.0186099
6.60625
58.4146
55.9887
-90.0855
-32.63
-179.99
-241.761
-25.5977
-144.09
-20.0957
34.0146
-39.392
51.9549
-160.601
-141.643
44.8628
-21.9732
-150.594
8.683
38.6351
-153.137
-11.2683
-126.918
-137.364
-148.396
77.5493
-169.746
-0.724071
-190.774
52.9587
-153.652
-23.4715
-75.1661
-167.31
-9.57816
55.4767
-0.427415
-134.672
46.0137
-0.545552
-56.9368
-100.594
-146.347
41.489
44.9309
48.2652
-157.419
68.6871
-52.7664
0.930351
15.9165
-54.8981
-237.596
-140.812
-82.8751
22.9559
22.7328
-51.4043
-1.71517
-34.9564
49.0324
-195.777
47.3691
-114.494
31.7187
-1.29763
-11.6662
-6.8691
87.0496
10.7002
-152.609
-132.327
-35.3702
47.2574
-37.1332
-9.09808
9.71855
-101.193
-204.315
-101.172
-142.845
54.8575
-110.769
12.273
-115.632
4.22369
46.1845
16.1199
32.5898
-10.23
62.2014
-152.746
-70.0103
65.6308
30.7499
-155.673
-1.76033
-103.706
-31.8947
-5.32614
60.668
-151.666
24.3277
-131.95
-94.581
-130.656
-106.062
-120.687
37.982
-46.5304
48.5359
22.3835
-135.119
75.8921
-248.367
57.2348
67.8096
-151.737
10.4069
52.189
46.1634
44.3738
-77.8008
-81.6681
-76.8569
47.6212
18.0453
-40.8461
-110.619
36.7929
55.1075
-0.0326418
4.37129
8.48795
64.734
-39.5977
-44.7789
-131.026
41.4986
11.9388
-12.8059
68.8864
57.9278
-65.2875
-123.128
60.1649
26.9
4.21724
48.9766
-30.0268
-80.987
-85.3285
-105.227
56.3938
53.7774
30.7959
-15.5785
-25.3914
5.13286
54.3236
-143.408
44.2964
62.4937
66.004
-62.4022
49.4195
47.1493
55.2668
57.7124
2.3211
57.7354
-0.63619
47.8724
30.6298
52.0589
-191.988
58.8443
57.3777
43.095
33.6735
-66.3659
41.4651
13.1382
-23.269
63.8103
60.641
-164.554
56.9783
-91.4681
-94.9973
53.6636
52.6519
-68.2317
2.81633
-138.813
-138.264
-21.199
-131.076
-72.0961
-2.62099
47.8746
78.8577
60.6772
-52.5829
-83.8981
53.366
27.0956
-21.1336
-85.5019
-68.8949
-42.1708
-98.2401
-85.8883
45.4993
-39.6846
24.1731
3.80524
3.50443
-15.6911
5.33904
22.6199
35.293
35.1973
-20.8513
35.1437
-76.6753
-217.717
40.3719
28.5908
23.8475
24.5054
34.1832
-16.8278
23.2549
-14.6106
48.6022
44.6255
71.7277
48.1467
-81.1447
-3.63076
-14.712
-64.3026
-116.536
-79.775
-48.6066
-145.4
79.5316
15.7283
7.92303
67.8697
-161.492
-15.8735
-5.03423
-201.374
-166.109
27.4434
-32.7841
50.4664
-41.2808
-77.342
-6.69425
-79.9926
-26.2944
-26.0264
-1.68901
38.5763
-116.908
-140.232
-36.8914
29.5848
-35.4554
52.1704
69.4533
-66.4063
52.8522
36.7879
36.1529
74.3279
-173.687
31.3342
34.0664
23.6573
66.3941
-1.69492
29.6412
-26.773
51.9426
69.5851
-142.775
-115.102
-47.3356
-32.5932
27.5767
-73.9363
-62.2483
-76.3628
23.3329
-122.807
21.8989
27.4891
42.4094
18.8793
-108.237
-23.9279
-204.935
-38.7662
73.0215
79.9951
63.3271
81.7178
42.5962
48.4934
56.1249
50.746
44.4373
-50.7329
51.5467
-3.52811
-98.7194
67.3946
20.7905
-32.9279
76.1562
7.56938
-252.213
28.009
24.4801
57.0243
-128.567
44.479
70.6594
-164.855
-96.4939
-50.1558
40.6108
-162.039
61.3099
1.80379
56.9191
47.6702
-145.621
56.5894
-14.6165
-116.019
-112.338
-200.46
58.6281
-36.2477
47.215
-14.4841
-137.562
12.3254
-18.4571
-25.525
-82.7274
-168.45
58.8187
14.9048
-152.054
-8.64666
33.303
23.3628
-171.727
26.6162
-38.5092
26.4835
-155.032
31.364
17.7069
38.9199
26.0007
48.4045
37.5881
18.9873
-150.946
82.474
-25.3176
-143.571
48.4667
44.4887
-144.786
-30.4919
-178.764
38.6945
35.5037
-30.6401
2.76367
-2.31594
82.1179
-34.0837
-166.885
13.4141
-8.8453
41.0869
3.32713
47.796
33.2643
-148.224
38.6692
-129.854
44.4258
29.3423
51.3201
35.4724
0.37049
0.868624
34.2404
52.4148
25.6998
16.4541
-154.006
-11.3033
-11.1104
41.6034
-150.709
34.2562
-151.731
58.7859
-141.145
-2.21261
61.9714
57.1462
27.1594
-183.793
-142.959
53.2056
14.4144
58.2802
28.8438
-2.51545
49.4095
26.4702
18.7107
17.9794
-10.5431
-49.1036
34.3897
-6.0698
63.0782
25.5295
82.699
5.3976
17.953
57.4621
12.3246
23.7052
51.8086
46.018
37.8569
-42.2891
-189.925
48.8179
39.136
29.9539
-161.33
-32.6527
-219.948
-143.668
-16.1755
43.5999
14.6449
39.7756
4.99716
72.0565
57.682
22.2082
44.9796
21.3088
-153.674
44.5637
41.4839
9.36744
30.8804
58.3653
54.2765
-80.1284
-117.76
-56.8227
47.3527
33.0041
-0.565338
51.3663
-245.135
48.5765
-81.9111
49.7222
26.1205
-86.4192
24.5125
55.9385
24.2025
51.6844
61.7745
18.9547
-22.2758
30.4232
11.1678
69.3576
-105.604
64.2861
56.5514
-146.147
-62.2389
0.136933
-11.0523
-182.647
-112.005
45.9476
64.3895
52.8033
65.5398
34.9872
60.7313
24.1683
16.3809
25.7494
15.8653
11.2946
44.7144
10.9295
66.809
23.9381
-119.635
36.2551
66.913
69.1325
-188.203
36.6675
-71.3926
-101.073
27.3389
22.7902
-144.4
28.5914
68.7417
-149.069
-97.9254
-199.513
24.6566
16.5829
13.6411
49.5111
51.061
-4.29215
10.6626
-95.6249
-150.455
45.3559
44.9628
47.5745
36.9769
20.9472
39.4659
15.0968
-76.8547
31.8207
45.6872
36.5846
43.3741
-15.764
2.01176
-12.0057
50.4396
-101.951
23.5409
59.5349
45.8715
-59.0229
-153.141
-216.248
-29.0414
34.3426
20.4019
6.89883
48.5783
36.2497
-35.2861
-11.2551
-0.887056
30.8218
-142.22
48.9967
35.3177
-17.6235
26.9647
-79.955
31.7618
0.766867
22.686
40.4853
45.7204
56.1177
15.7105
29.0698
-100.139
47.1853
-23.8289
42.0591
52.9531
-81.7236
-94.5974