/*--------------------------------*- C++ -*----------------------------------*\
| =========                 |                                                 |
| \\      /  F ield         | OpenFOAM: The Open Source CFD Toolbox           |
|  \\    /   O peration     | Version:  2306                                  |
|   \\  /    A nd           | Website:  www.openfoam.com                      |
|    \\/     M anipulation  |                                                 |
\*---------------------------------------------------------------------------*/
FoamFile
{
    version     2.0;
    format      ascii;
    arch        "LSB;label=32;scalar=64";
    class       surfaceScalarField;
    location    "3.4";
    object      phi;
}
// * * * * * * * * * * * * * * * * * * * * * * * * * * * * * * * * * * * * * //

dimensions      [0 3 -1 0 0 0 0];

oriented        oriented;

internalField   nonuniform List<scalar> 
20045
(
1.24859
-1.36702
0.118429
-2.65525
0.965596
1.68965
0.710895
4.61606
-5.32696
-0.923099
1.4159
-0.492805
-2.03159
2.02264
0.00895168
-1.42625
5.43378
-4.00753
-2.46269
1.14196
1.32074
0.168914
1.0536
-1.22252
1.15813
1.05917
-2.2173
-2.0233
-0.310461
2.33376
-1.11975
-0.141324
1.26107
5.84706
-2.86516
-2.98191
0.901781
-0.915165
0.0133839
-3.17349
2.65558
0.517908
-0.882813
2.66247
-1.77966
-2.70764
0.684335
0.131242
-0.564176
0.432935
2.78017
-2.86626
0.0860947
-4.43105
6.47102
-2.03997
-1.87152
0.0959401
1.77558
-0.889381
0.400212
0.489169
0.30225
0.599531
-0.339128
-2.31612
1.37157
2.66247
-4.03404
2.1013
0.481806
-2.58311
-2.89365
4.26522
0.205246
-0.159428
-0.0458183
-2.85529
5.25298
-2.39769
4.19942
0.107829
-4.30725
-5.10025
2.33393
2.76632
-1.80722
0.563277
1.24394
3.60359
-2.39845
-1.20514
-2.21596
3.97254
-1.75658
4.86376
-2.63657
-2.22719
-1.3657
1.53462
4.56301
-2.19448
-2.36853
1.0067
3.28487
-4.29157
-0.161977
0.979919
-0.817941
-0.653098
-6.71139
7.36449
1.54222
1.25533
-2.79755
0.148304
0.995397
-1.1437
0.450882
-0.61423
0.163348
7.0133
-7.00006
-0.0132433
3.72159
-1.36531
-2.35628
1.70428
2.01731
2.74716
3.0999
-1.07352
0.0215386
1.05199
2.4122
1.64021
-4.05241
4.85987
-3.85317
0.3282
4.45404
-4.78224
3.23182
-5.48469
2.25287
9.97487
-10.1425
0.167609
-3.16614
-2.38391
5.55005
-0.224759
-0.744364
0.969123
3.5028
-1.63974
-1.86306
-1.70943
-0.322163
0.900535
2.869
-3.76953
12.2561
-4.88604
-7.37007
2.07188
-4.28784
2.48585
-2.80708
0.321233
-1.06452
0.241745
0.822779
-0.43364
2.91949
2.06045
-4.76987
2.70942
-0.115744
-0.773637
3.76401
-0.385399
-3.37861
0.911647
3.12738
-4.03903
0.599374
-1.34534
0.745965
-1.67051
0.368661
1.30185
2.10355
-0.945421
3.57573
-3.40407
-0.171661
1.31347
-0.714096
0.603455
2.89934
-0.670486
-2.53177
3.20226
0.530787
-0.452549
-0.0782376
2.11637
1.24299
-3.35936
3.27623
-2.3757
-2.27032
4.38669
0.988805
-1.87162
1.63071
-0.971906
-0.658799
-3.01851
0.496838
2.52167
2.24695
2.63339
-4.88034
2.23468
-1.7555
-0.47918
4.12945
-2.069
-6.00572
1.09625
4.90947
0.0395662
1.20902
-1.39063
1.64822
-0.257591
6.55876
-6.04465
-0.514104
-4.02101
0.172604
3.84841
2.57554
0.38509
-2.96063
-2.12492
1.90734
0.217583
-3.53682
-0.912551
4.44937
1.77375
-0.293719
-1.48003
1.00789
-1.4596
0.451711
-0.432874
-2.00309
2.43597
1.47065
-1.56203
0.0913813
3.03885
1.26198
-4.30082
0.208202
-0.00295629
-0.398688
1.29938
-0.900689
3.0353
-1.49308
0.230806
-0.467696
0.23689
3.12845
1.43456
-1.1935
-1.97999
0.849558
-1.24825
2.57728
9.67884
-0.0694965
-1.32113
0.338142
-0.107336
1.11418
2.98789
-4.10207
6.44698
0.0990219
-6.546
0.557182
-1.15647
0.997712
0.158754
-0.710157
0.878348
-0.168191
3.0337
-2.12785
-0.905854
-1.22066
0.995904
3.87827
-4.9651
1.08683
-0.460397
0.838971
-0.378575
0.135749
-0.852918
0.717169
2.88316
-0.781863
3.50212
1.36163
-2.90893
2.23844
2.23557
-6.03379
3.79822
2.6102
0.169969
-1.09276
0.0282375
-1.94209
1.5801
0.361994
5.79388
0.236208
-1.43908
1.20288
9.4289
0.545971
2.83208
-3.54921
0.717125
3.96562
0.49548
-4.4611
-4.48742
3.55423
0.933183
-0.147312
-3.35487
3.50218
11.3834
-1.95446
0.963496
-0.941957
0.62209
-0.293852
-0.328237
-0.108344
0.0770011
0.031343
2.84818
2.00827
-4.85645
2.98667
-2.8703
-0.116371
-0.88356
0.303566
0.579994
-0.81157
-0.344896
6.74474
-4.50917
-1.59578
1.71565
-0.11987
3.16249
-5.26348
2.101
1.06766
-4.23379
3.07268
1.02233
-4.09502
-0.152112
-2.86639
6.06018
-0.939682
-5.1205
1.48267
-4.1306
2.64793
5.84502
-4.86324
-0.98178
-0.423899
1.00078
-0.576885
0.0379756
4.97402
-5.01199
4.56437
-0.364944
-4.11788
0.146539
3.97134
-2.29974
2.06526
0.234489
4.31406
-2.06711
0.808887
1.42579
-3.15309
3.85336
-0.70027
-3.81032
4.52121
0.0650672
-1.00304
0.93797
-0.11064
0.328566
-0.217926
-0.0842069
-0.914913
0.999119
3.6625
-0.658752
-3.00375
6.69631
-3.17272
-3.52359
-1.08611
1.00191
1.43447
-3.08535
1.65087
0.557301
-0.106419
-7.5652
-2.3823
3.35059
-0.968289
-3.3089
2.46047
0.848429
-0.0803664
-0.137062
0.217429
1.27707
4.56796
-0.073158
-0.0351861
-0.0615255
0.683615
-3.51795
0.364852
-3.64991
4.6512
-1.00129
-3.23812
3.82145
-0.583329
-2.81797
-1.75521
4.57319
-1.00795
0.293393
0.714553
2.16237
-2.33726
0.17489
4.20493
0.550529
-4.75545
0.0546003
-3.71992
3.66532
-1.74325
4.81593
1.01234
-2.72729
1.71495
-1.18276
5.06104
-4.24085
2.6754
1.56546
1.47225
-1.50812
0.0358656
1.92157
-5.72764
3.80606
-4.33489
1.4796
-3.28546
-1.13745
4.50978
-2.47507
-2.03471
-1.27883
1.42713
0.843901
-0.898939
0.0550386
-1.70854
-3.52955
5.23809
-4.12336
6.04706
-1.9237
7.32809
-0.575119
-6.75297
0.425104
-1.39061
0.965503
3.67318
-5.51782
1.84465
0.579128
-1.69887
-3.42658
3.27927
-3.43827
-1.14043
4.5787
0.597121
0.145432
-0.742553
0.578813
-2.96111
-0.467276
-1.33994
4.28409
-0.318469
-0.819386
0.657409
-0.879268
1.04307
-0.163804
-0.0308016
3.6933
-2.30138
5.97456
1.1551
0.680515
-1.83561
-3.45752
0.690117
2.76741
6.93742
0.390673
6.02375
-4.10217
3.02055
-5.33153
2.31098
0.724952
-4.02626
3.3013
0.17632
-2.04784
-2.4092
3.52338
3.24281
-4.66906
3.40037
-3.43687
0.0364986
-5.54516
3.52351
2.02165
-0.159647
-1.96527
0.899523
0.713702
-1.61322
3.51051
-1.04118
-2.46933
-0.336454
-3.42089
3.45886
-1.25768
-0.338099
3.25803
5.72994
-4.96647
-0.763465
-0.0504256
-0.68112
0.731546
3.33872
0.506715
-3.84543
1.93554
-0.9888
-0.946736
-2.14343
2.50891
-0.365474
1.54861
5.01015
2.83358
-1.82124
-0.50736
1.19178
-0.684424
4.40827
-1.24579
0.585626
-0.0568668
-0.528759
0.090964
-0.933879
0.842915
-0.689771
0.719406
-0.0296349
4.27308
-2.49002
-1.78306
1.41623
-5.53959
-0.766736
0.0769657
-4.46889
1.5205
2.94839
5.52124
-1.5487
1.24946
-4.89937
7.00541
-4.058
-2.94741
-0.0915064
0.688628
-2.63756
7.45698
-4.81942
-3.01974
0.673863
2.34588
-4.96065
5.00183
-0.0411825
1.05285
-4.11254
3.05969
0.113313
-0.0159324
-0.0973808
-2.3587
3.14212
-0.783417
-0.387852
1.61286
-1.22501
-0.769773
0.309376
-0.856386
0.146229
-5.60614
5.70516
-0.49642
-0.878188
1.37461
0.698157
-0.33417
-0.363987
1.87014
1.73345
3.61115
-0.210782
0.00403369
-0.114673
3.41577
2.10547
-2.48414
0.079377
2.40476
-6.48705
3.84949
1.83731
0.825167
0.311494
0.386663
-1.38862
-0.0830885
1.47171
0.05936
1.41289
-2.79907
0.655643
-1.19753
0.423317
0.774209
-4.39147
4.22607
0.165402
-3.63291
4.65716
-1.02425
-0.94767
-0.564838
1.51251
3.78344
-4.11409
0.330654
-3.66756
-1.8776
6.73567
-4.43771
-2.29797
-0.544507
0.494082
4.61562
-3.56277
-0.86275
0.366331
-2.43479
-0.633052
3.06784
-1.59699
6.55737
-4.96038
6.09555
-0.70438
-5.39117
-3.09679
0.662004
4.12754
-2.38295
-1.74459
-0.794882
3.88495
-3.09007
2.87125
-4.38745
1.5162
0.443612
0.873583
-1.31719
-0.172367
-0.171225
0.343592
5.94818
-4.69563
-1.25255
-2.44997
-2.03744
4.19438
1.53556
-3.99069
-0.400776
0.672431
-0.581467
-0.831485
1.44585
-0.614362
0.021815
0.822086
-2.69824
5.54642
1.83938
2.4337
4.76746
-2.66594
-2.10152
-4.9011
3.76067
4.01134
-6.25356
2.24222
-3.09176
-0.199381
3.29114
-1.0837
-0.88518
1.96888
2.84465
-1.41017
-0.70951
1.86461
1.23231
0.0100434
-2.40849
-1.74762
6.38211
-4.63449
-1.03713
0.157858
-0.492637
-0.0147224
0.617095
-5.57774
7.92995
-6.38135
3.15132
-1.31855
1.69567
-0.377121
0.20988
-1.13298
-2.50804
1.79268
0.715359
1.60055
1.43315
0.237734
1.97786
-2.21559
2.42172
0.564946
-0.405398
-0.426087
2.85367
-0.278136
-1.03031
-2.42722
2.70134
-2.99811
0.296764
4.19651
2.89257
-1.50656
-1.38601
3.9199
-4.27502
0.355124
-2.18793
1.75506
-0.616337
-0.267223
-0.349766
-3.18705
1.35456
-2.68213
1.32758
2.12081
2.00673
4.0953
-5.74872
1.65342
1.05231
-2.64217
1.58986
-4.85349
0.832477
0.0332265
1.74052
-2.44187
4.25903
-1.81717
-1.21944
1.54218
-0.322735
-1.8989
-0.563797
-0.648945
-1.09099
1.73994
0.502474
0.00935647
-0.511831
-1.64393
-0.655814
1.89119
2.22091
-4.1121
-2.27883
-4.20821
-0.0977305
-2.23682
0.0488886
2.26095
-1.20864
-3.32132
-0.919531
1.50174
-1.68096
0.179217
4.20731
-1.79511
-2.21299
3.73168
-1.51868
-0.614331
0.701026
-0.0866946
3.6806
-0.170088
1.97662
-0.53077
-2.43055
4.56873
-2.13817
3.60497
-5.83652
2.23156
2.85188
3.8838
-0.194703
0.108114
0.0865891
0.445025
-3.53678
2.98803
-4.39022
1.40219
0.335476
0.195311
-0.3092
3.14128
3.5422
4.38775
-3.33883
4.06378
0.997208
-5.42826
-4.78294
2.2083
2.57464
3.16991
-0.506657
-2.66325
4.63062
-0.847181
-1.57674
-2.28031
-1.97959
2.27744
-0.291142
0.462698
-0.171557
1.58501
-1.48907
-3.50089
3.19169
5.55279
1.46051
-3.91002
1.69703
5.63487
-1.44049
-1.14242
1.61186
-0.469443
0.0189145
-3.0341
3.01518
-4.51243
0.853045
3.65938
4.23426
-4.23426
4.40803
-3.0038
-1.40424
2.72564
-2.4879
3.24879
-1.89446
-1.35432
-4.53142
4.70748
-0.176053
1.64861
-0.233941
-1.41467
1.31707
-0.530565
-0.786508
0.572491
-1.52016
0.672354
0.301477
-1.16423
-4.12535
4.85465
-0.729292
-1.40168
3.29287
0.181674
0.112889
-0.294563
-0.958096
0.351058
0.607038
-1.86225
2.03857
4.94783
-4.27464
-0.673189
-0.390545
-2.62475
3.01529
-1.14344
1.23907
-0.095625
0.657399
-1.39839
0.740993
-6.09009
3.85195
2.23814
0.814398
0.601506
-1.62736
0.484943
-0.144961
-0.345957
0.490918
2.52325
3.42493
0.403265
-0.221591
-0.329608
-1.37769
1.70729
-2.44458
3.93371
-1.48913
-0.155338
0.588734
-0.433396
2.08512
-0.943166
5.65117
-0.722028
-4.92914
0.0735868
-2.07668
0.228859
3.97607
2.0649
1.55194
-3.61684
2.29913
-2.01371
-0.28542
-5.04395
0.926068
-2.02576
0.893161
1.1326
2.34229
2.39215
-4.73444
-3.10467
2.90529
0.334387
-4.53757
4.20318
-0.681271
1.10637
1.54451
-1.65499
0.110487
0.0880042
-1.47663
-0.232379
0.696638
-0.464259
-3.37149
-1.0974
3.04249
0.304223
0.277509
-0.581732
-0.630334
0.0160027
0.866867
-3.55476
2.68789
1.02173
2.69303
-3.71477
1.84384
-3.52819
4.30047
-0.77228
-3.55899
2.76411
-0.150021
-0.00940696
-1.98935
-1.31955
-1.27687
0.331098
0.945773
-4.25524
1.81066
3.3349
-3.72545
1.80055
3.83433
-1.43102
1.46872
-0.0376963
2.23565
-4.59326
2.3576
0.761701
-1.33937
0.577672
-0.367778
2.3444
-3.21851
-0.01961
-1.56755
-0.102958
1.1489
-0.452752
-0.696145
1.28027
0.0384001
-0.119849
0.0814485
4.4815
-2.13921
-5.73833
3.51875
2.21957
1.27417
0.916169
-2.19033
-1.83565
1.15438
-1.07163
-0.205237
1.9775
1.27128
-4.09019
-1.94359
1.57534
-0.0736008
3.08777
2.03344
0.820234
-4.42464
4.75284
0.460801
-2.20257
1.74177
-0.444247
-4.1277
4.57194
-1.66806
1.76384
-0.0957807
0.460208
-1.46815
-1.66771
4.53896
4.35226
-2.86959
-2.07104
-0.437007
0.0211151
-2.02436
2.00325
1.71211
-4.53008
-0.538637
-2.36094
2.89957
-0.620785
1.10116
-0.480372
-3.2526
0.274861
2.97773
4.25725
-2.61704
-0.100568
0.453084
-0.352515
-1.05615
-0.087293
0.929322
1.72978
-2.6591
0.690667
-0.846676
0.156009
2.69512
1.49123
-4.18635
-2.04196
5.08081
0.501372
0.00110236
-0.176446
-3.59702
3.77346
3.93507
2.80967
4.47914
-3.45741
-1.73468
1.08574
-0.4229
0.250533
-2.03425
6.0456
0.694249
-3.85675
3.1625
4.30753
-0.828367
-3.47917
-2.23405
3.47884
-1.24478
1.96
-1.85762
-2.36378
4.2214
0.551696
-0.47959
-0.0721056
-1.44449
-2.41215
3.85665
-0.681637
-0.276459
0.16116
-0.241527
2.53114
-3.97563
-3.53189
-1.04169
4.57357
-0.304082
-2.37053
2.67462
0.604887
5.99569
-6.1306
0.134911
1.05161
-0.699942
-0.35167
0.0583359
-1.48936
1.27376
1.1622
-1.5108
0.427103
-3.93585
5.01534
-1.07949
-1.24613
0.0486079
-2.15375
2.00163
-5.39606
-1.604
-0.27174
0.0898892
0.181851
2.67198
-0.638543
-1.00454
1.10802
-0.10348
1.0391
-1.42695
-5.1485
1.86304
4.54752
0.886258
-0.607331
1.26473
-1.01239
2.28656
0.890007
-0.58853
-1.03759
0.0330484
-0.432807
-3.06808
1.11654
1.12419
-1.05912
-4.58784
0.0754123
-0.293904
1.04737
-0.285673
-4.9157
1.92736
2.98834
2.12768
1.44805
0.934728
-0.3041
-0.630628
1.32972
-1.25139
-0.0783302
-3.45708
1.2626
-5.10985
2.6793
-0.209844
1.43071
-1.22086
-0.236404
1.61479
-1.37839
5.43035
-0.00356546
-5.42678
0.929218
0.0628056
-0.992024
-0.660488
-1.2816
1.11913
-0.111236
0.776248
-0.644869
-0.131378
1.87247
-0.312134
-1.56034
0.304138
0.47211
3.94002
-2.67805
-0.145087
-0.694884
0.839971
-5.11378
1.17793
0.0363857
-0.640655
1.49021
-0.746337
1.05056
-0.198409
0.202443
1.21939
0.735053
-1.95444
3.261
0.503015
2.10076
-1.63996
1.0772
-0.941451
0.361824
-1.58127
2.6069
2.17478
-4.78168
2.66257
-0.179227
-2.48334
-2.98283
-1.14777
-1.31839
-0.194261
1.51265
1.89504
-2.12334
0.228296
5.41608
-0.110786
-5.30529
-1.73321
0.334955
1.39825
-2.42601
3.26192
-0.835911
2.54041
3.15263
-5.69303
1.03994
-0.798193
-1.26383
2.11352
-0.84969
1.06678
0.449785
-1.51657
-4.93356
2.3695
2.56406
-0.458
-0.18687
-4.21129
0.6794
1.4981
-0.917042
-0.581061
2.37839
-3.0516
0.673209
-0.4185
-0.94852
0.879159
5.11653
4.09084
-0.654148
-3.43669
-4.19568
0.667492
1.65102
-2.68133
3.60907
-6.67583
3.06676
-0.496245
1.39577
0.013499
-1.913
1.58339
-0.777848
1.01406
-0.35252
-2.9921
3.34462
1.53812
3.0775
-3.60162
3.83527
-0.233649
0.48301
0.665887
-3.40168
-1.26316
-0.588232
0.653354
-0.0651222
3.51711
-2.95121
-0.565895
0.168991
-0.302501
0.13351
-0.387808
2.7662
-4.3926
-0.801616
5.19421
-3.84548
-1.16495
5.01043
2.34855
-1.78089
-0.567664
-1.10477
0.131864
0.972905
-1.73716
0.723041
1.01412
-4.87398
0.238335
4.63564
0.127652
0.90885
-1.0365
3.91656
-4.43051
0.513955
-2.52799
3.86639
0.720083
-4.58647
0.0427919
-0.631024
0.238495
-3.58835
3.34985
3.9387
-5.12146
-4.73408
4.11749
0.616589
0.83397
-0.143303
-0.671517
-1.48223
-0.30726
-1.29606
1.60332
-0.0505323
0.843008
-0.792476
-1.63041
4.91479
-3.28438
5.61293
-5.49568
-0.117251
5.04104
-4.85023
-0.190813
3.9404
-1.61825
-2.32216
0.214788
-1.09652
0.881729
-1.39654
-0.0425426
-4.98517
4.41131
0.573863
0.294489
-5.27966
-2.1815
4.57998
-2.39848
-2.90478
-1.79085
0.938119
-0.814719
-0.1234
-4.01483
-1.09895
-0.896144
0.587318
0.308826
1.31675
0.618791
-4.58313
4.36158
0.221547
-0.761956
-0.276816
-0.175733
0.989726
-0.0605075
-2.9999
0.641204
0.666973
-0.814556
0.147583
-4.347
3.07809
1.26891
1.71245
-0.063841
-1.28762
3.22173
0.458872
1.77681
-0.376219
2.21362
-1.83741
-0.547406
2.70978
-3.04866
1.91638
1.13229
-0.860873
0.402873
4.42491
-2.88679
4.05286
-1.81721
-1.09568
-0.843269
1.93895
2.13259
-3.05871
0.926117
2.70411
-3.00819
4.32534
-1.85921
-2.46613
-0.0286035
-2.53301
-0.515657
-2.89923
3.46902
-0.569787
0.293474
-1.47971
4.50026
-5.23373
1.2189
1.25027
-0.806657
-0.544577
0.0664015
0.742981
-0.0235756
-2.07478
-2.27253
4.92533
-1.6491
-0.787171
0.432816
0.354355
0.30791
1.00916
-3.69157
-1.75228
5.44385
0.743345
2.1013
-0.00562214
-0.695998
0.70162
4.08487
-1.51234
0.058505
1.45383
5.34127
-2.73437
-1.84513
-4.93594
0.810581
-1.04807
0.0514085
0.996666
3.98396
3.02145
3.77716
-1.2484
-2.52876
4.86236
0.178678
2.91244
-4.14091
1.22847
-4.0695
-0.0905908
4.16009
-3.92796
5.09986
-1.1719
0.663019
-0.0116353
-0.651383
-1.07633
5.01503
-0.867572
0.735704
0.131868
0.220474
-3.8221
0.659993
-0.0715659
-0.588427
-4.70411
6.11121
-1.4071
-1.22674
2.63938
-1.41264
5.81361
-2.55696
-3.25666
-0.0280991
-2.95919
2.98729
-1.40129
-0.253708
-2.47098
5.01138
1.3015
3.10654
5.65585
-2.05088
-0.871635
0.726547
-4.29838
0.228886
6.17313
-2.07783
-0.0976134
-5.90811
1.12264
-0.127242
-2.60621
5.34285
-2.73664
2.66335
-0.636307
-2.02704
2.32924
-3.73201
1.40277
-0.850818
0.0536377
0.797181
-1.01199
-2.29701
3.309
1.73298
-1.37115
-2.98456
0.413447
2.57112
0.651019
1.33506
-1.98608
0.392976
0.545143
-5.67831
6.68133
-1.00302
-1.5294
-0.138663
2.16675
1.00295
-3.1697
2.91688
1.76596
-4.68284
0.75448
2.41543
-0.0747356
6.13492
-0.00343256
3.91314
-3.90971
-0.150659
-0.00467918
0.28604
-0.0230779
-0.262962
3.8714
-3.77153
-0.0998738
1.91085
2.41449
-0.554945
0.43862
0.116325
-1.42627
4.00558
-2.57931
0.066832
0.765213
-0.832045
3.40004
-3.6552
0.255164
-2.67706
-1.71103
4.38809
4.03963
-0.700909
1.43657
1.22678
-4.26734
-0.147163
4.4145
1.38339
-4.00814
0.70213
-0.878332
0.176202
0.935023
-0.365962
-0.569061
0.138258
-1.53954
-0.382904
4.31663
-3.93372
-0.592536
5.04657
3.83578
-3.08005
-0.755732
3.10396
-2.71887
-2.5992
0.854509
1.74469
0.378132
-2.2726
0.587162
0.0694372
-0.6566
0.281014
0.653714
0.742034
3.62696
-4.369
0.968808
0.903665
0.659953
-4.50543
-2.05046
0.872047
1.17841
-1.51316
-1.21586
2.72902
2.2928
-1.07341
-4.17948
2.7778
1.73121
-1.28998
-0.44123
-1.11751
0.758146
0.359369
-2.13236
2.20594
-1.96967
2.64576
-0.676093
-7.03546
1.43858
5.59688
-0.109027
1.00652
-0.897492
-1.58102
1.34461
-0.0368253
-6.93555
12.1655
-5.22995
-2.64368
3.33379
2.50259
-2.5305
0.0279128
0.930544
-0.851926
-0.0786178
-5.70118
4.18732
1.51386
0.0541286
1.43454
-1.48867
0.471419
2.91906
-4.54947
2.87129
-0.738699
-2.29315
-2.48979
-3.49415
3.49072
2.44158
0.0188967
1.81681
0.682002
-2.49881
-1.58136
1.47212
0.109248
0.925417
-1.83438
0.908962
-0.748623
-2.51019
3.25882
-0.190302
3.84361
-3.65331
-3.74395
-1.09248
4.83643
0.450171
0.480373
3.47258
0.398819
3.3505
1.73715
-5.08764
0.627264
-0.137532
-0.489732
0.0275298
0.836792
-1.09312
0.256332
-2.15502
-3.57221
2.82359
0.657397
0.944757
-0.729969
3.05201
0.465094
0.0746172
-3.42948
0.157347
1.3133
0.313359
1.05757
-1.37092
-3.19253
-2.79246
5.98499
-1.54177
-2.72557
-2.51603
-0.424238
2.94026
0.660508
0.813506
-1.47401
-0.00324912
5.53256
-3.52968
-2.00288
0.827686
3.26315
0.295676
1.79992
-3.21589
1.41597
-1.65245
4.32242
-2.66997
-2.81525
-1.16667
3.98192
-2.17212
0.908292
-1.98187
-0.617336
5.70302
-2.4661
-3.23692
0.696627
-0.899933
0.203306
1.88317
0.287564
-2.17073
-0.781308
0.90896
0.552732
-1.26316
0.710427
0.293095
-0.111514
-0.9746
-0.061698
3.44911
2.25391
-6.35398
-0.357413
-2.03574
4.36967
0.167345
0.529282
-4.19408
1.37883
3.51941
-3.07438
-0.503167
-3.05327
0.62726
1.80721
-3.98871
3.48971
-3.4708
4.02522
-0.105327
-0.928485
-0.531116
-1.20523
-0.464454
1.66968
-1.41363
-0.148394
3.6178
0.642861
-4.26066
0.0980627
-1.22578
1.12772
0.115452
-4.38337
3.1465
1.23687
4.25247
-0.335912
-3.9369
3.73884
0.19806
1.02666
-0.658003
-5.2716
-0.429574
-1.51249
4.57444
-0.163136
-0.227508
5.75063
-2.17922
-3.57141
-3.05725
-0.232983
3.29023
0.687296
2.55969
-3.24698
-3.40216
0.149562
-0.849835
-0.58902
1.43886
-2.29196
2.9862
0.646441
2.55158
-3.19802
-1.77028
0.644289
1.12599
-4.59467
0.48196
4.11271
1.99962
0.871674
-1.04892
2.69483
1.24557
-1.34487
-0.680893
4.32958
-5.26927
0.548294
-3.20762
2.65933
0.444613
0.595325
3.30826
0.24519
-3.55345
2.41677
-4.45251
-0.0228191
0.136132
-2.41758
3.94752
-1.52994
-3.3905
3.629
-0.0628731
1.26844
-1.20556
-1.70913
1.05603
0.653099
1.19213
-0.731923
-1.21835
2.86937
1.03511
-1.24496
-0.724744
0.767536
1.4173
-2.4061
0.170492
-0.186424
-0.919099
0.880658
0.0384405
0.934893
-1.05619
0.121294
-2.18934
3.43233
0.595577
-3.1116
-0.0292571
-1.24957
0.11942
2.68015
-2.79957
1.49568
-1.57877
1.2516
-3.97529
2.72368
0.82058
-1.18392
0.363336
4.29994
-6.04755
-1.29687
-0.122003
-4.61207
1.48462
3.44071
-3.68894
-0.490547
0.111132
2.78143
-1.93852
0.847524
-0.173453
0.0513909
0.122062
6.59702
-2.61306
3.68583
-0.697798
-1.09074
-0.726004
1.81675
-5.21717
2.05696
3.16021
-1.17997
1.03865
-0.724322
4.59071
0.74017
-0.43792
-3.78007
0.391035
-1.25861
1.23651
-0.790266
-0.446248
-0.617942
4.23574
0.0566379
0.715509
-0.772147
-1.87434
-6.5579
3.05249
3.50541
1.18604
0.865901
-2.05194
6.15352
-2.55769
-3.59582
-2.47295
1.24621
-3.81198
0.00310269
1.88007
4.41937
-4.86362
1.90149
-0.834711
-1.96224
3.34563
-7.17083
2.27635
4.89448
3.59868
-3.77692
0.178233
-3.43068
3.58754
-0.156868
1.98639
-2.5338
0.0608197
1.10101
1.24754
2.96791
-2.47107
-7.20313
-1.69837
2.00311
-0.304742
1.16366
-4.22091
2.29192
-0.208265
-2.81148
0.56585
0.937502
5.00881
-1.65477
-3.35404
-2.26281
1.29133
-2.80448
0.733805
-4.66011
4.42713
-3.66055
1.80293
2.35925
-5.44651
4.2146
1.23191
-10.4198
6.02325
4.39655
0.810539
0.053751
-0.674536
-4.72717
3.33045
1.39671
4.12093
-5.19726
-5.55403
-0.124287
6.65145
-3.04239
1.68752
1.37626
-3.06378
-0.113436
-0.713227
0.826664
-1.45821
2.03375
2.59961
-4.50148
-0.945025
0.806904
0.926071
1.08766
1.67099
-2.75866
1.76956
-1.05586
-0.272974
-5.40872
5.6817
-1.60663
2.22585
-3.9691
-2.93587
-2.15067
5.08654
1.16358
-1.4573
-3.21378
1.03778
2.176
-0.497652
-0.0484556
0.546108
3.72643
-4.07895
1.27866
-3.69624
1.23393
2.67776
-3.91169
-0.684179
-0.102992
-3.84734
1.09757
2.74977
-4.40735
1.73029
2.60698
-4.25942
3.80761
-3.25932
-0.32561
-0.172042
0.0446041
4.26293
-2.91658
3.60071
-0.684133
3.69667
0.0404027
-3.73708
-3.35442
-0.0802587
-1.23829
0.22508
4.00918
0.546405
0.154621
1.14969
0.61041
2.11523
2.40951
-0.79716
1.72258
-4.30156
-0.281568
-2.93003
6.01718
1.4398
0.810561
0.864303
-1.67486
7.15359
1.21739
-8.37098
-0.496982
0.485347
-1.56265
-3.5472
-3.72051
-0.554506
-1.97974
4.39651
-1.56148
2.14501
-0.583527
-4.89727
1.70474
-1.29832
2.38598
-3.28394
-1.63176
-1.51779
-1.44178
1.61667
-3.94093
-0.406066
5.2856
-0.71116
6.18309
-4.00917
-2.17392
0.462409
0.729374
1.16789
4.78037
-4.44598
0.0184473
-1.03239
1.4841
-2.35685
2.43623
-2.10314
-0.998493
0.967627
0.812962
-1.78059
-4.31108
0.0768262
-0.548542
3.59708
-3.04854
-0.672936
-3.26396
-3.35332
3.86004
6.00577
-2.55564
-3.45013
-0.526483
1.41964
4.00017
-2.30797
-1.69221
1.17775
-1.28927
0.250152
0.0358879
-0.747326
0.0302064
0.717119
-0.627319
2.44413
-1.21432
5.33525
-0.149166
-0.665553
-1.27794
-0.369877
1.64782
0.0628494
3.66358
0.756556
1.8264
-2.58295
-1.72784
2.65716
2.03505
1.97053
-1.53116
-0.5193
2.37265
-0.838066
-1.53459
-0.215447
0.0735826
0.141864
0.549372
-3.75244
3.20307
-4.3572
0.63669
1.00186
7.11382
-1.09664
-0.0273595
1.20511
0.571292
-2.13277
-4.08069
2.10111
-4.70933
1.53661
-2.08327
0.221018
-2.08994
-2.73459
4.82453
-5.47314
0.980595
0.676443
-1.65704
4.46844
-3.37219
3.55693
-2.86964
0.749297
2.47338
-3.22267
0.94669
-1.79653
1.31714
-3.34575
2.02861
0.875927
1.05056
-1.92649
-1.46711
4.23923
-2.77211
3.8909
-2.27998
-1.61092
7.09567
-0.476831
-6.61884
-2.64245
-3.91545
-1.49987
-0.0676752
3.25769
8.12566
-0.0858957
0.418294
-0.332399
-3.08692
-0.760412
3.50392
2.96711
-2.46968
2.97199
-0.502309
-1.48783
1.54634
0.0391983
1.95379
-1.99298
0.636827
-0.580189
-0.500085
-4.22708
0.759844
1.69021
0.0410046
-1.76495
1.29767
0.309443
3.49734
-3.80679
-2.40144
-0.598466
3.2376
-5.51644
0.329945
-1.14151
-0.377582
-0.116296
0.493878
0.511373
-1.69182
1.18045
1.94314
2.71403
-2.89266
3.83583
-1.71501
4.39195
-2.1661
-0.507444
-1.14323
1.65067
3.52134
0.363607
0.141485
-3.10253
2.09054
2.8838
-2.82095
-2.53724
-2.14966
4.6869
-2.96547
-2.25171
-4.86977
5.04278
-0.173008
0.825951
-1.7522
1.28774
2.62211
1.21372
-1.18348
-0.603874
1.78735
-0.0717049
-3.33237
-2.24064
0.610731
1.62991
2.52096
-1.77762
0.36679
0.33534
2.77265
-4.33529
2.16753
-1.68572
-1.21689
4.28533
-3.06844
2.9578
2.488
1.28499
-3.77299
5.01441
-3.0441
-1.97031
-1.67638
-3.72233
5.67449
-1.95216
4.94798
1.23511
-1.26408
1.23672
1.97605
3.83757
-0.967141
0.853705
0.0967171
-0.058317
4.51547
-2.5072
3.24879
3.34822
-1.86091
0.971046
0.889865
1.05563
-2.1513
3.55428
-0.246018
3.83753
-2.15002
-3.20294
-0.491549
3.69449
0.834936
-0.156217
-0.67872
0.654624
0.396989
0.657323
-4.58528
-1.23159
1.31959
3.29337
-2.86057
-0.432791
0.684427
1.68823
-0.657924
0.353825
1.03777
1.10616
-2.14394
-2.44411
4.51599
-0.445516
-2.60621
5.68039
-3.07418
-1.26063
1.91165
-0.485599
-1.28468
5.00545
-2.42971
-1.56099
3.44586
2.70766
1.30826
-1.33752
-0.796522
0.687495
-1.34281
-0.63301
0.00267619
2.64123
-0.660812
3.7845
-3.12369
0.137276
-0.282236
-1.80502
0.508961
-1.47427
-0.0256043
-3.77798
3.60154
1.00491
1.10861
-1.34048
-1.54011
2.88059
1.18286
0.46536
4.01017
2.2053
-6.21547
-0.420504
-0.113805
0.534309
-3.06202
-2.67631
3.86742
2.13835
3.64004
-3.3306
-5.75658
-0.157867
0.0347054
-0.374363
2.15591
3.44669
0.134065
-3.58076
1.60417
-0.108491
-0.150744
-1.46034
-0.400573
-4.90759
-2.14357
2.52171
-1.59088
5.10963
2.65185
-2.67958
0.0277243
0.849073
0.0315857
-0.305354
1.0915
-0.15661
3.58605
0.980344
-4.56639
0.60703
0.629484
-0.991384
0.597366
0.394018
-1.51941
0.023442
1.49597
1.80537
2.3441
-4.14947
1.0541
1.23869
3.22338
-0.0768688
-1.14379
3.20289
-2.59248
0.403025
-0.541228
0.138203
-3.61181
2.47437
3.86371
-3.10305
-0.760664
0.0751271
-0.65229
0.577163
4.02301
-4.40592
3.75744
-1.23648
1.31672
2.24021
-0.553612
-0.0793975
-1.54295
0.649243
0.893707
-2.74024
-0.553849
4.98748
-2.54755
-2.43994
4.91136
-1.13219
-3.77917
1.7928
-3.16943
1.37663
-0.530941
2.34227
-0.0813252
-2.27077
3.38671
-1.11594
-1.02646
-0.516489
6.5881
0.137275
0.578234
4.45877
0.000836192
-4.45961
-0.0565198
-0.967484
1.28084
0.597027
-0.158407
1.62741
2.3201
-0.675426
0.844417
0.0573079
-0.0145011
-0.688731
0.619235
-1.73029
2.47958
0.0776702
1.04652
0.0851163
-1.62264
3.49278
-0.18215
2.834
-0.52472
-0.5064
-1.09235
2.13012
-0.983248
3.93623
-2.95298
-3.7111
-0.500187
-3.14803
3.78071
-0.632686
-0.682383
0.819658
1.33348
-0.279872
-0.0921523
-1.02249
1.11464
-3.62578
1.19608
0.476211
-0.576779
1.81312
-5.50469
0.301085
-3.8981
-1.22636
3.88883
-1.54032
2.20529
-1.09912
0.0599431
-2.91523
3.4646
-0.00768608
-0.673434
0.635865
-2.41675
-0.41881
-2.71706
3.13587
0.184572
0.149063
6.46871
-4.00312
-2.46558
-0.970891
0.305306
1.00111
0.0966304
-1.09774
-3.57135
0.654778
0.81301
0.122013
-0.0449676
-0.538824
0.583792
0.790172
-3.9382
0.373768
1.97675
0.147798
-2.12454
-4.38148
3.39824
0.658933
0.16202
-0.820953
5.16046
-12.096
-0.595463
-0.0256255
0.621088
0.858296
-0.199363
-0.0193319
3.20345
-2.44897
2.68149
2.14492
-1.09082
-4.34335
1.40748
-2.99482
2.40203
0.592782
2.06168
-4.59892
-2.13764
-1.37826
3.5159
0.420313
1.64494
-1.26066
1.02671
4.99799
-0.704056
-4.29393
-0.0103358
-4.29122
5.09727
1.9984
1.72765
2.27252
-0.666466
-0.0295321
0.648694
-1.29225
-1.38988
0.244698
-0.257
0.0123016
0.117402
-4.54648
4.42908
-0.160783
1.18261
-1.02183
-0.840267
-2.24866
3.08893
-0.476411
-2.39389
-0.147301
0.124849
2.97086
-1.4262
-0.868246
2.29445
-1.49339
-1.8781
1.89932
-1.08636
0.812308
0.0156286
-0.827936
-3.3521
2.01161
-0.9235
-0.575276
-0.157397
0.732673
0.407031
1.40472
-1.81175
4.47886
-3.5903
-0.88856
0.0932327
-2.40936
0.741067
-5.44518
-2.48666
-2.32193
4.80859
-4.24944
0.213291
4.03615
-6.0079
-3.49728
0.0665994
-1.15397
1.20508
-0.0511043
-4.45481
-1.59713
5.18318
1.5785
-0.843446
0.319459
-1.4118
-0.751667
1.99036
0.641813
0.381188
-1.65913
0.0795948
-0.68964
0.610045
-0.681554
0.257656
-0.461742
0.536869
-1.05469
2.24073
-11.6814
7.47255
4.20889
-2.67435
1.96484
2.57705
0.835428
-0.000491724
-2.22715
1.04367
-2.05176
-1.16202
-2.32378
0.869198
1.45458
0.0365037
1.51204
-1.54855
-1.6472
2.15857
-0.353617
3.12103
4.33923
-3.58267
2.54591
-4.0393
1.93263
-2.55679
0.624158
0.440624
0.0124596
0.0414278
0.0666864
-4.78276
2.69281
1.63251
3.27885
0.0630521
-0.855919
0.792867
-6.35955
2.54923
-0.258524
-0.675355
-0.81211
-0.0821266
-0.906226
0.988352
-2.38746
0.961252
-4.47923
3.97915
4.08068
-2.84675
-0.992353
0.890273
0.10208
0.0130893
0.0767999
-0.64043
-4.6336
2.80347
1.83013
-0.612296
0.498491
-0.419752
1.39115
-0.971394
1.85148
1.90597
0.511403
-0.192057
-0.319346
-1.08831
1.16598
0.311957
0.0235192
1.96588
-0.478085
4.52717
0.335191
-2.61891
-3.42574
4.17941
-0.107233
-4.07217
-0.778984
-0.125111
0.904094
2.25814
-4.33292
-0.122581
3.07046
-2.94788
-0.318967
0.0283594
0.290608
-3.37882
3.29291
0.0859085
-1.68279
2.93439
0.940386
4.67254
5.51337
-0.121172
-5.3922
0.168785
0.645384
-0.814169
-0.219179
-1.3116
-0.0849438
-1.27851
-0.0330853
0.125622
-1.58755
1.46193
-0.374182
4.15224
-3.77806
-3.97136
1.62532
2.34604
1.24054
4.18981
0.171278
0.11085
-0.282127
2.39128
1.09346
-3.48474
0.0356175
-0.20907
-1.45047
4.01118
-2.5607
-3.69766
0.494722
2.92673
1.24192
-3.37955
-0.0112664
-0.520211
0.531477
4.34284
-0.975163
-3.36768
1.43806
0.914367
-4.54424
2.27171
4.85485
-5.12782
-2.23869
0.516565
1.72212
-0.222294
0.380305
1.2385
-1.6188
-0.104795
-0.0662483
0.171043
-0.0469238
0.537783
-0.490859
1.30824
-1.47264
0.164401
-2.43579
5.20843
-1.25179
1.27291
0.518111
-0.937863
1.60122
-2.31889
0.717676
-5.40754
-1.76329
-1.48538
-0.251777
0.365887
-0.0675118
-0.298375
3.62697
-1.05511
-2.57186
0.506913
2.78645
-1.02151
-0.55985
-2.41552
0.391154
1.67112
2.2801
-3.95122
-0.0112732
-0.028147
0.0394202
-0.110636
1.44036
1.20789
-0.388611
-0.819274
4.24003
-1.38312
-2.8569
-3.49515
0.503048
1.95958
-3.37755
-0.179187
3.55673
8.18322
-4.64102
-1.10376
0.463105
-0.101652
0.14308
-3.01043
3.97478
-0.964349
0.614844
0.125326
-0.237081
0.637293
-1.00855
0.859388
-1.264
1.59896
-4.46678
3.63386
0.832919
3.09927
-1.67518
-1.42409
5.26643
-3.32329
1.00355
0.235522
-0.97372
0.805529
-0.134059
-1.62144
0.283042
-5.77872
-3.74532
1.47455
-1.0441
1.76714
0.590408
0.267888
-0.335546
0.0165793
3.84573
-3.86628
0.0205463
-3.08187
-2.15346
0.830415
1.32305
0.421785
-1.45417
4.88365
-3.83637
-1.02207
0.865851
-0.72719
-1.12982
1.85701
-3.39673
0.75305
1.08363
1.49464
-2.57827
1.37632
-0.500393
-1.29597
-2.76878
4.53474
-6.30596
1.34558
1.15025
-2.16153
1.01127
-1.06222
1.39216
-2.48849
-3.87105
-0.973661
-0.735465
3.10818
-3.53906
1.99882
1.54024
-0.0528681
-1.31284
0.0615619
-1.41782
1.35626
-3.63345
-1.69807
-0.67845
0.652825
4.23707
1.78668
0.704747
3.50257
-3.84029
-1.99623
3.95459
-0.201952
-3.75264
3.83222
-3.7576
4.88852
-2.82449
-2.06403
1.2806
0.836406
-2.11701
-2.20288
3.40658
-1.20369
-6.07056
3.14135
2.92921
-0.0471449
1.02292
3.58041
-2.47709
-2.93514
5.41223
3.52392
4.6593
-3.26609
-0.136065
2.34486
-0.67934
2.12815
-1.44881
-2.84895
3.63913
-5.27232