/*--------------------------------*- C++ -*----------------------------------*\
| =========                 |                                                 |
| \\      /  F ield         | OpenFOAM: The Open Source CFD Toolbox           |
|  \\    /   O peration     | Version:  2306                                  |
|   \\  /    A nd           | Website:  www.openfoam.com                      |
|    \\/     M anipulation  |                                                 |
\*---------------------------------------------------------------------------*/
FoamFile
{
    version     2.0;
    format      ascii;
    arch        "LSB;label=32;scalar=64";
    class       surfaceScalarField;
    location    "3.3";
    object      phi;
}
// * * * * * * * * * * * * * * * * * * * * * * * * * * * * * * * * * * * * * //

dimensions      [0 3 -1 0 0 0 0];

oriented        oriented;

internalField   nonuniform List<scalar> 
20045
(
1.26511
-1.4007
0.135595
-2.68843
1.00418
1.68425
0.632319
4.60058
-5.2329
-0.664961
1.02482
-0.359857
-2.05355
2.05117
0.0023828
-1.37072
5.35217
-3.98145
-2.50733
1.15515
1.35218
0.176761
1.06263
-1.23939
1.16167
1.0889
-2.25057
-1.97405
-0.359772
2.33382
-1.25392
0.227111
1.02681
5.78155
-2.90999
-2.87156
0.926602
-0.933233
0.00663147
-3.16583
2.60207
0.563762
-0.900722
2.70591
-1.80519
-2.70039
0.726335
0.134763
-0.520259
0.385496
2.96331
-3.01887
0.055558
-4.43402
6.42097
-1.98695
-1.8755
0.0691364
1.80637
-0.517249
0.0929271
0.424322
0.316311
0.610291
-0.379187
-2.30924
1.3243
2.69912
-4.02343
2.12792
0.431974
-2.55989
-2.82218
4.14648
0.386879
-0.385875
-0.00100352
-2.75067
5.0927
-2.34203
4.14506
0.0628426
-4.2079
-4.8281
2.30117
2.52692
-1.91712
0.272018
1.6451
3.75965
-2.49507
-1.26458
-2.21364
3.90321
-1.68957
4.84248
-2.7141
-2.12838
-1.37837
1.55513
4.62675
-2.24294
-2.38381
1.8786
2.68764
-4.56624
-0.165202
0.996068
-0.830867
-3.32141
-3.67763
6.99903
1.5816
1.25416
-2.83577
0.152815
0.990469
-1.14328
0.458053
-0.625139
0.167086
7.02286
-7.00047
-0.0223979
3.69671
-1.32142
-2.37528
1.66414
2.03256
2.79189
2.98966
-1.08907
0.0687091
1.02036
2.38377
1.61478
-3.99856
5.01967
-3.14107
0.306358
4.35561
-4.66197
3.2397
-5.49595
2.25625
10.9771
-9.33736
-1.63969
-2.91586
-2.51698
5.43284
-0.224453
-0.758949
0.983402
3.70479
-1.63725
-2.06754
-1.73374
-0.319815
1.10433
2.74119
-3.84552
12.0186
-2.49008
-9.52847
1.97109
-4.18473
3.25637
-3.36564
0.109263
-1.21573
0.57801
0.637718
-0.0457254
3.3021
2.05482
-4.49876
2.44394
0.184856
-0.702105
3.84728
-0.597466
-3.24981
1.80227
2.71563
-4.51791
0.484216
-1.01975
0.535538
-1.67149
0.337943
1.33354
2.13049
-0.968822
3.14322
-3.45721
0.313992
1.02157
-0.537356
0.596304
3.10848
-0.698538
-2.54105
3.23959
0.64009
-0.593311
-0.0467786
2.69837
0.98152
-3.67989
3.43529
-2.33095
-1.94854
4.64692
1.00089
-1.90161
1.67363
-0.689503
-0.984128
-0.809011
1.19572
-0.386704
2.21596
2.60766
-4.82363
2.24091
-1.79264
-0.448277
3.81889
-1.76407
-5.80119
0.993688
4.80751
0.0263802
1.23873
-1.33121
1.61632
-0.285107
6.2463
-4.5924
-1.6539
-4.02877
0.173792
3.85498
2.56317
0.422079
-2.98525
-2.14149
1.88576
0.255723
-3.93352
-0.76705
4.70057
1.78674
-0.288597
-1.49814
1.02122
-1.49333
0.472112
-0.4656
-1.9974
2.463
1.48864
-1.57524
0.0866009
2.96156
1.25241
-4.21397
0.233189
0.15369
-0.441737
1.1171
-0.67536
3.07552
-1.49392
0.236268
-0.459249
0.222981
3.16614
1.46061
-1.22836
-1.93747
0.551949
-0.993685
0.10158
11.917
-0.0242521
-1.30696
0.354189
-0.117921
1.09951
2.99628
-4.09579
6.88226
-1.18506
-5.69721
0.584565
-1.16639
1.00717
0.159222
-0.720374
0.890327
-0.169953
3.09367
-2.10866
-0.985012
-1.23947
1.01502
3.89561
-4.77718
0.881575
-0.48873
0.859137
-0.370407
0.138418
-0.866299
0.727881
2.86275
-0.734834
3.66866
1.17382
-2.94753
2.249
2.68252
-5.88146
3.19894
2.72481
0.238504
-0.932902
-0.282826
-1.96106
1.60154
0.359522
3.56085
0.234861
-1.4562
1.22134
7.92442
3.05263
2.87424
-3.59626
0.722018
3.9614
0.479254
-4.44065
-4.68604
3.82922
0.856821
0.0536327
-3.36554
3.3119
11.3649
-3.44049
0.603368
-0.534658
1.05652
-0.554969
-0.501556
-0.211568
0.160769
0.0507988
2.84707
2.01024
-4.85731
3.01316
-2.85472
-0.158446
-0.850647
0.265617
0.58503
-0.817698
-0.348696
6.46326
-3.78074
-1.60637
1.73327
-0.126904
3.08954
-5.10402
2.01448
1.23369
-4.14955
2.9921
1.20988
-4.20198
-1.20316
0.394145
6.13107
-0.903745
-5.22733
1.40088
-3.82444
2.42356
5.20618
-4.47951
-0.726674
-0.448139
0.974155
-0.526016
0.0658713
4.84573
-4.9116
4.48924
-0.344187
-4.11628
0.143881
3.97239
-2.33296
2.09632
0.236632
4.29192
-2.07596
0.766387
1.47453
-3.16469
3.82913
-0.66444
-3.77014
4.40246
0.0671035
-1.01152
0.944417
0.160172
0.0919845
-0.252156
-0.0831385
-0.92892
1.01206
3.1715
-0.123651
-3.04785
6.57684
-3.09519
-3.48165
-1.10078
1.01764
0.302904
-2.58546
2.28256
0.565796
-0.107743
-9.23578
-2.40946
3.31201
-0.902544
-3.27393
2.4772
0.796735
-0.0784705
-0.159761
0.238232
1.03814
4.16804
-0.119948
-0.09162
0.173468
0.883057
-3.49213
0.327436
-3.65911
4.65824
-0.99913
-3.29575
3.87791
-0.58216
-2.81532
-1.70752
4.52283
-1.12159
0.038359
1.08323
2.10939
-2.33599
0.226599
3.98494
0.577281
-4.56222
0.0409012
-3.71859
3.67768
-1.90036
4.89246
1.0377
-2.76236
1.72466
-1.05207
4.94768
-4.30043
2.74514
1.55529
1.49041
-1.56787
0.0774603
1.87744
-5.47559
3.59816
-4.20734
1.45667
-3.28434
-1.1179
4.43035
-2.52638
-1.90397
-1.28219
1.435
0.857745
-0.913543
0.0557985
-2.39378
-2.86309
5.25687
-4.11071
6.08552
-1.97481
10.5083
-2.92395
-7.58432
0.384875
-1.38182
0.996947
3.62591
-7.26108
3.63517
0.286632
-1.54055
-3.16687
3.2205
-3.37112
-1.12363
4.49474
0.607324
0.147986
-0.75531
0.506766
-2.91623
-0.21873
-1.69839
4.26002
-0.298622
-0.834162
0.66896
-0.885815
1.049
-0.163182
-0.622486
3.79399
-3.90148
7.52739
1.35418
0.611221
-1.9654
-3.49145
0.721067
2.77038
7.54236
2.9659
5.7855
-3.90806
3.00259
-5.19181
2.18922
0.668742
-3.84248
3.17374
0.202416
-2.07792
-2.41854
3.51805
3.23271
-4.60343
2.80789
-2.77515
-0.0327448
-5.32968
3.31776
2.01192
-0.208509
-1.93298
0.906201
0.740781
-1.64698
3.40239
-0.9405
-2.46189
-0.324485
-3.3192
3.38507
-1.27081
-0.335556
3.20573
5.46501
-4.79081
-0.674204
-0.0510176
-0.694041
0.745059
3.32397
0.454725
-3.77869
2.30907
-1.1239
-1.18517
-0.729999
1.11363
-0.383631
2.87109
3.37522
2.86934
-1.83164
-0.447828
1.05924
-0.611415
4.27578
-1.18624
0.596054
-0.056886
-0.539168
0.355551
-0.938922
0.58337
-0.700984
0.731336
-0.0303516
4.22826
-2.61066
-1.6176
1.45947
-5.57017
-0.779184
0.0782001
-4.50231
1.49037
3.01194
5.35369
-1.45048
1.24322
-4.90233
7.36134
-4.09803
-3.26331
-0.0932412
0.700565
-2.6822
6.26265
-3.58044
-3.01602
0.640348
2.37567
-4.99548
5.01524
-0.0197595
1.00664
-3.99206
2.98542
0.203024
-0.000809073
-0.202215
-2.37567
3.11755
-0.741877
-0.555401
1.57553
-1.02013
-0.789933
0.301202
-0.869004
0.14863
-6.22797
5.04291
1.40811
-0.376409
-1.0317
1.16523
-0.653184
-0.512049
1.97104
1.78862
2.59919
0.208704
0.207067
-0.0468953
3.28574
2.06795
-2.50914
0.117646
2.39149
-4.54705
1.86485
1.86077
0.845134
0.665031
0.500202
-1.40522
-0.0762316
1.48145
0.00119049
1.48922
-1.98515
1.25516
-1.59185
0.916457
0.675397
-4.42032
4.24657
0.173752
-3.49584
5.06231
-1.56646
-0.901792
-0.597937
1.49973
3.77576
-4.11656
0.3408
-3.54766
-1.78202
6.57092
-4.44543
-2.12549
-0.553542
0.502524
4.39542
-3.38878
1.03137
0.376737
-2.44022
-0.740757
3.18097
-1.71143
7.46411
-5.75268
5.33745
-0.362711
-4.97474
-3.19053
0.750315
4.17624
-2.40063
-1.77562
-0.818729
3.89584
-3.07711
2.80703
-4.2876
1.48057
0.18526
1.01746
-1.20272
-0.251529
-0.0375723
0.289101
5.79363
-4.55647
-1.23716
-2.48644
-2.19959
4.12176
1.34325
-4.01084
-0.40948
0.623977
-0.268425
1.25266
0.0225588
-1.27521
0.0228209
0.834924
-2.69743
5.5445
1.63954
2.58872
4.70909
-2.76136
-1.94772
-4.77783
3.65421
4.04115
-6.11527
2.07412
-3.09052
-0.224446
3.31497
-1.09171
-0.907511
1.99922
2.42418
-2.12128
-0.651551
2.00573
0.857948
0.00767184
-2.50275
-2.4838
6.1268
-3.64299
-1.04561
0.15979
-0.31474
-0.133088
0.604511
-5.59999
6.91424
-4.04316
2.62588
-1.35964
1.75659
-0.396949
0.140175
-0.805136
-2.50522
1.74917
0.75605
1.53966
1.55401
0.537925
1.83502
-2.37295
2.41452
0.59864
0.547815
0.704841
2.86721
-0.304044
-1.06447
-2.42697
2.40794
-2.37272
-0.0352207
4.48991
0.813683
1.99417
-2.80785
3.92028
-4.28288
0.362601
-2.21607
1.75047
-0.630207
-0.22044
-0.515297
-3.41823
1.36915
-2.72113
1.35198
2.15382
2.02242
4.03849
-5.55061
1.51212
1.06393
-2.68006
1.61613
-4.85828
0.829504
0.027136
1.7596
-3.14739
5.06332
-1.91593
-1.20511
1.57049
-0.365377
-1.92804
-0.57929
-0.664642
-1.09346
1.7581
0.522473
0.00875967
-0.531233
-1.67072
-0.662233
1.86941
2.22825
-4.09766
-2.65363
-1.89342
0.422786
-2.23443
0.0183549
2.28972
-1.22579
-3.38659
-0.913837
1.42055
-1.66446
0.243909
4.18421
-1.80043
-2.23873
3.77887
-1.54014
-0.631719
0.726912
-0.0951934
3.65326
-0.250872
-1.01201
1.03457
-2.47009
4.62991
-2.15982
3.60146
-5.67027
2.06882
2.65587
3.91504
-0.195826
-0.0370843
0.23291
0.463726
-3.55425
3.02276
-4.50869
1.48593
0.310301
0.329789
-0.31107
3.18531
4.27676
2.63749
-3.49653
4.16527
0.96359
-5.39761
-5.05502
2.84782
2.2072
3.20198
-0.54515
-2.65683
4.62977
-0.854007
-1.51034
-2.25778
-2.00587
2.09843
-0.10748
0.110821
-0.00334191
1.5936
-1.52446
-3.54817
3.2371
5.53434
1.48853
-3.96122
1.72249
5.48175
-1.35999
-0.884115
1.50652
-0.622401
-0.0389684
-2.97378
3.01275
-4.50525
0.851624
3.65363
4.23355
-4.23355
0.508931
-1.87957
1.37064
2.80703
-2.2691
3.25255
-1.94965
-1.3029
-4.56356
4.73776
-0.174196
1.66901
-0.243059
-1.42595
1.3357
-0.518614
-0.817086
0.605634
-1.50743
0.495888
1.83877
-0.807399
-4.09351
4.83715
-0.743632
-1.41244
3.28185
0.093154
0.106225
-0.199379
-1.18506
0.734616
0.450445
-1.86982
2.07224
4.80268
-4.11083
-0.691852
-0.417039
-2.60393
3.02097
-1.16725
1.25836
-0.0911163
0.694514
-1.41761
0.723094
-5.84059
3.41193
2.42866
0.582907
0.441911
-1.46952
0.585407
-0.176129
-0.255154
0.431283
2.42334
3.37029
0.329971
-0.236817
-0.375607
-1.33998
1.71559
-2.45656
3.96528
-1.50872
-0.182209
0.602465
-0.420256
2.12058
-0.965434
4.77873
0.553482
-5.33221
0.109139
-2.10654
0.177963
3.80698
2.09073
1.57024
-3.66097
2.33525
-2.00647
-0.328771
-5.04263
0.926356
-2.00507
0.910118
1.09495
2.22843
2.33459
-4.56302
-3.11999
2.89555
0.333699
-4.53732
4.20362
-0.7096
1.09447
1.54529
-1.69816
0.15287
0.0839422
-1.48917
-0.550887
0.641232
-0.0903457
-3.42461
-1.0777
3.03718
0.599349
0.438271
-1.03762
-0.657819
0.0260996
0.84442
-3.54575
2.70133
0.957662
2.67633
-3.634
1.66898
-3.53587
4.27571
-0.739837
-3.56689
2.74816
-0.234515
-0.15136
-2.00308
-1.27085
-1.2955
0.327166
0.968337
-4.29119
1.83463
3.31819
-3.73523
1.60973
3.87202
-1.44002
1.48504
-0.0450228
2.22444
-4.47795
2.25351
0.79844
-1.36519
0.566746
-1.99062
0.978607
-3.26461
-0.0311431
-1.59728
-0.0742048
1.11816
-0.49121
-0.626947
1.25502
0.0190264
-0.204068
0.185041
4.31889
-2.09046
-4.4746
2.54357
1.93104
1.27454
0.94933
-2.22387
-1.84362
1.13402
-1.09694
-0.198558
1.90585
1.3467
-3.26829
-2.61317
1.57393
-0.153381
3.07267
2.06981
0.797401
-4.32973
4.63609
0.392525
-2.1421
1.74957
-0.444559
-4.12942
4.57398
-1.54492
1.61202
-0.0671049
0.619304
-1.74089
-1.66006
4.46709
4.10852
-2.70765
-2.02694
-0.478279
0.00284849
-2.0377
2.03485
1.66978
-4.48509
-0.480658
-2.3791
2.85976
-0.482914
0.774536
-0.291622
-3.24735
0.249767
2.99758
4.17124
-2.55646
-0.0870887
0.469126
-0.382037
-1.07154
-0.0957065
0.953025
1.7343
-2.68733
0.697472
-0.856062
0.15859
2.74704
1.5228
-4.26984
-2.02326
4.98482
0.517057
0.0054157
-0.170036
-4.50593
4.67596
3.37062
3.09264
4.38658
-3.42891
-1.75455
1.08991
-0.373836
0.122307
-1.85404
5.89518
0.694581
-3.85492
3.16033
4.31538
-0.750838
-3.56454
-2.14692
3.44114
-1.29422
1.95606
-1.71851
-2.39522
4.11373
0.502387
-0.402792
-0.0995955
-1.43816
-2.41237
3.85052
-0.535413
-0.649647
0.186673
-0.265143
2.53378
-3.97193
-3.5381
-1.04309
4.58119
-0.271415
-2.39894
2.67035
0.70339
5.84014
-6.0086
0.168453
1.0776
-0.687158
-0.390438
0.0657738
-1.50579
1.2702
1.1928
-1.53656
0.444851
-3.93794
5.00826
-1.07032
-1.23228
-0.359573
0.887567
-2.09072
-5.41571
-1.58476
-0.27809
0.101286
0.176804
2.6745
-0.60469
-1.01725
1.12315
-0.105894
0.804677
-1.36008
-5.12144
1.8371
4.50706
0.845115
-0.583557
1.27807
-1.04309
2.31764
0.979087
0.859681
-1.05233
0.0350746
-0.437578
-3.11059
1.16508
1.13154
-1.06444
-4.58392
0.0786708
-0.377419
1.06525
-0.266812
-4.89618
2.11925
2.77694
2.59015
0.553063
0.960849
-0.321111
-0.639738
1.34073
-1.26708
-0.0736462
-3.5314
1.28846
-5.17188
2.70179
-0.563991
1.78756
-1.22357
-0.256822
1.4642
-1.20738
5.43632
-0.0208759
-5.41544
0.937851
0.0630403
-1.00089
-0.661327
-1.29973
1.14447
-0.123253
0.983833
-0.812251
-0.171582
1.89365
-0.320927
-1.57272
0.371544
0.612289
3.87156
-2.61915
-0.145273
-0.708398
0.853672
-5.10576
1.16782
-0.0225753
-0.649622
1.20157
-0.948635
1.54798
0.0821229
0.124944
1.24005
0.737797
-1.97784
3.17595
0.671326
2.05179
-1.65927
1.09453
-0.95611
0.398294
-1.6034
1.80802
1.98492
-3.79294
2.68886
-0.217935
-2.47092
-2.74901
-1.07543
-1.0962
-0.35716
1.45336
1.8509
-2.12181
0.270917
5.41038
-0.111614
-5.29877
-1.67429
0.274829
1.39946
-2.43546
3.29589
-0.860434
2.51299
3.01273
-5.52572
1.2493
-0.671286
-1.27442
2.14074
-0.866326
1.08903
0.446023
-1.53506
-4.70262
2.25386
2.44877
-0.5812
-0.231052
-4.22106
0.682958
1.53083
-0.927404
-0.603429
2.33032
-3.0356
0.705276
-0.442554
-0.958149
0.81925
5.02089
4.09135
-0.660455
-3.4309
-4.1689
0.633033
1.64231
-2.70678
3.97426
-6.91058
2.93632
-0.51392
1.42012
0.0373627
-1.92122
1.54561
-0.791608
1.02647
-0.194123
-3.3846
3.57873
1.41022
2.9852
-3.59823
3.83359
-0.235364
0.621708
0.496448
-3.4594
-1.23798
-0.60079
0.667578
-0.0667879
3.29389
-2.76084
-0.53305
0.288615
-0.204251
-0.0843637
-0.435464
2.76578
-4.01854
-0.94592
4.96446
-3.87237
-1.17736
5.04973
2.33367
-1.81091
-0.52276
-1.1109
0.131994
0.978901
-1.81056
0.788989
1.02157
-4.83905
0.221877
4.61717
0.122251
0.929389
-1.05164
3.90687
-4.40651
0.499641
-2.48374
3.90224
0.572679
-4.47492
0.045398
-0.646188
0.480906
-3.40826
2.92735
3.75541
-4.80748
-4.73423
4.11751
0.616716
0.842699
-0.145227
-1.22078
2.10834
-0.33172
-1.25183
1.58355
-0.0500355
0.852236
-0.8022
-1.66929
4.75867
-3.08938
4.59852
-5.91612
1.3176
5.03434
-4.84282
-0.191516
3.91447
-1.66758
-2.24689
0.20923
-1.1124
0.903168
-1.41817
-0.0380342
-5.04238
4.45986
0.582522
0.293913
-5.33629
-2.18126
4.47506
-2.2938
-2.84775
-1.70872
0.962973
-0.824103
-0.138869
-4.00532
-1.10044
-0.919056
0.610128
0.308928
1.66948
0.639584
-4.6056
4.38058
0.225022
-0.784362
-0.284192
-0.309119
0.997768
-0.0599174
-2.97223
0.596563
0.70223
-0.838967
0.136737
-4.44582
2.94623
1.49959
1.72596
-0.0569498
-1.31091
3.09301
0.560253
1.79612
-0.393866
2.40715
-2.01329
-0.59426
2.70365
-3.09264
1.93012
1.16252
-0.985539
0.40434
4.21739
-2.80717
4.00796
-1.78352
-1.04413
-0.881762
1.92589
1.53133
-2.82756
1.29623
2.73981
-3.01123
4.28163
-1.82457
-2.45706
-0.0290852
-2.5594
-0.533236
-2.50847
3.63572
-1.12725
0.410311
-1.37873
4.38132
-5.22331
1.21799
1.05765
-0.872388
-0.586811
0.0760989
0.755458
-0.0241218
-2.06733
-2.24642
4.87352
-1.43823
-0.41923
0.192941
0.22629
0.295738
1.03996
-3.94414
-1.84108
5.78522
0.223572
2.20061
-0.00921155
-0.713167
0.722378
4.09133
-1.45002
-0.0298958
1.47991
3.97405
-2.16604
-1.87049
-4.91232
0.818809
-1.06063
0.0506957
1.00993
3.95647
3.40487
3.69129
-1.30409
-2.3872
4.85287
0.181472
2.92998
-4.17578
1.2458
-4.06721
-0.0719174
4.13913
-3.96766
5.15226
-1.1846
0.682475
-0.0145557
-0.66792
-1.07668
4.83209
-0.964098
1.06787
-0.103773
0.221997
-3.82023
1.17315
-0.124385
-1.04877
-4.66008
6.03873
-1.37865
-1.25244
2.67829
-1.42585
5.81127
-2.55623
-3.25504
0.011923
-2.97635
2.96442
-1.45559
-0.242579
-2.36353
4.87652
-1.76941
2.27834
5.45801
-1.85655
-0.886077
0.740803
-4.28289
0.215679
5.93062
-1.89213
-0.0372602
-5.76393
1.12314
-0.132673
-2.54283
6.62489
-4.08206
2.70272
-0.665387
-2.03733
2.02686
-3.76449
1.73763
-0.862553
0.0550051
0.807548
-1.0369
-2.30871
3.34561
1.75776
-1.35947
-3.20229
0.548388
2.65391
0.678793
1.2988
-1.97759
0.392574
0.570398
-5.63933
6.64791
-1.00858
-1.36359
-0.181326
2.16857
1.03201
-3.20058
2.83362
1.72324
-4.55686
0.791765
2.41022
-0.103715
6.23479
-0.00317262
3.91071
-3.90753
-0.196429
0.0142201
0.415606
-0.0687366
-0.34687
3.67968
-3.61611
-0.063565
1.8952
2.38643
-0.495222
0.397503
0.097719
-1.39773
3.99757
-2.59983
0.0529083
0.795858
-0.848766
3.13843
-3.00079
-0.137639
-2.54148
-1.64034
4.18182
3.96695
-0.642978
1.42767
1.27505
-4.85625
-0.552214
5.40847
1.4073
-4.01124
0.60906
-0.551051
-0.058009
0.946385
-0.348271
-0.598114
0.0691839
-1.52477
-0.376662
4.32962
-3.95296
-0.561354
4.91697
3.81808
-3.09386
-0.724219
3.13417
-2.71209
-2.6054
0.896805
1.70859
0.288288
-2.23794
0.254461
0.361231
-0.615692
0.295052
0.665797
0.739416
3.62664
-4.36606
0.977165
0.916481
0.664963
-4.53733
-2.07328
0.892334
1.18094
-1.52444
-1.23723
2.76167
2.32207
-1.08203
-4.18613
2.77369
1.7938
-1.33961
-0.454189
-2.89273
1.14599
1.74674
-2.1319
2.24104
-2.00497
2.68636
-0.68139
-9.19066
3.78862
5.40204
-0.111923
1.01854
-0.906615
-1.39904
1.14222
0.363286
-4.63264
10.7002
-6.06755
-2.6372
3.35827
2.49448
-2.55885
0.0643722
1.04426
-1.15205
0.107796
-5.46427
3.99167
1.4726
-0.00515953
1.44609
-1.44093
0.439317
2.78722
-4.45651
2.37512
-0.84379
-2.104
-2.95102
-3.49446
3.49129
2.41539
0.0618043
1.77086
0.718474
-2.48933
-1.59888
1.4937
0.105181
1.32341
-1.98503
0.661622
-0.902583
-2.26975
3.17233
-0.125785
4.33454
-4.20876
-3.73252
-1.01935
4.75187
0.73679
0.307467
3.37156
0.308119
2.29567
-0.810313
-1.48535
1.13958
-0.4087
-0.730884
0.0277736
0.864524
-1.11818
0.253659
-2.46996
-3.65476
2.75217
0.673264
0.961245
-0.752015
2.83706
0.456832
-0.173787
-3.19175
0.165898
1.32275
0.506307
0.630523
-1.13683
-3.29384
-2.8336
6.12743
-1.58883
-3.26742
-2.52766
-0.378186
2.90585
0.676183
0.815091
-1.49127
0.00716541
5.53032
-3.5302
-2.00012
0.835867
3.25549
0.234424
1.78143
-3.23504
1.45361
-1.51777
4.08904
-2.57127
-2.81711
-1.11631
3.93342
-2.20044
0.92602
-1.94519
-0.660207
5.75343
-2.49093
-3.2625
0.594043
-1.05423
0.460188
1.83897
0.322488
-2.16145
-0.801981
0.924231
0.674454
-1.01095
0.336495
0.4864
-0.110407
-0.990369
-0.0618987
3.47796
2.27547
-4.96432
1.28669
-1.84152
4.14269
-0.0773668
0.671409
-4.15431
1.3372
3.53463
-3.0709
-0.526482
-3.08718
0.651719
2.4361
-4.61736
3.43219
-3.47116
4.03426
-0.113985
-0.939865
-0.553469
-1.15765
-0.484887
1.64254
-1.43217
-0.143075
3.63226
0.638247
-4.27051
0.0646125
-1.2284
1.16379
0.115608
0.562491
1.03946
-1.60195
4.22421
-0.31734
-4.55147
4.03273
0.518733
1.02823
-0.690291
-5.05505
-0.409214
-1.48937
4.62106
-0.161201
-1.91364
5.6816
-2.21133
-3.47027
-3.00199
-0.264243
3.26624
0.610863
2.54282
-3.15368
-3.41792
0.17057
-0.86978
-0.549048
1.41883
-2.30231
2.99689
0.684996
2.52502
-3.21002
-2.1996
0.605285
1.59432
-4.51482
0.444408
4.07041
1.10347
1.27165
-1.05756
2.62185
1.29262
-1.30054
-0.704529
4.44528
-5.34903
0.368017
-3.22712
2.85911
0.317847
0.93145
3.31611
0.229169
-3.54528
2.42454
-4.26607
-0.0446888
0.247713
-2.17964
3.7382
-1.55856
-2.96879
3.4497
-0.0589169
1.28033
-1.22141
-1.56568
1.11351
0.452172
1.45214
-0.832836
-1.24732
2.88963
1.08173
-1.64572
-0.741005
0.786403
1.53424
-2.65814
0.309352
-0.310161
-0.933712
0.895194
0.0385179
0.953906
-1.07403
0.120128
-2.59551
3.57703
0.548808
-3.07647
-0.0216076
-1.26058
0.0813962
2.70362
-2.78502
1.51555
-1.59179
1.30514
-3.82417
2.51903
-2.39313
-0.915236
3.30837
3.43609
-5.91989
-1.4091
-0.121155
-4.61308
1.34023
3.53329
-3.68128
-0.504855
2.21938
-1.4057
-1.95921
0.865745
0.0140533
0.0334085
-0.0474618
6.92397
-2.9675
3.79104
-0.768279
-1.09011
-0.749671
1.83978
-5.07626
1.9879
3.08836
-0.956534
1.18365
-0.621902
4.52414
0.755986
-0.439675
-4.04806
0.567714
-1.53181
1.33782
-0.515329
-0.822495
-0.614255
4.24652
0.39215
0.500976
-0.893126
0.00354998
-6.46646
3.05078
3.41568
1.2043
0.877079
-2.08138
6.10144
-3.96895
-2.13249
-2.5089
1.25646
-3.76433
-0.0379706
1.87694
4.41832
-4.86288
1.92596
-0.836922
-1.94439
3.35169
-6.1749
2.75028
3.42462
3.07958
-3.27136
0.191781
-3.41902
3.59049
-0.171477
1.938
-2.53226
0.0623562
1.0568
1.27687
1.2811
-0.085383
-7.9394
-1.11525
0.331288
0.783957
1.17598
-4.17797
2.85851
-0.17972
-2.8363
0.567558
1.61142
5.01732
-1.66068
-3.35664
-2.42256
1.31604
-2.84048
0.755138
-4.63091
4.36666
-3.53782
1.81931
2.35593
-4.61014
4.88951
-0.279371
-10.7807
3.63668
7.14402
-0.00161532
-0.0620303
-0.420884
-4.73688
3.34421
1.39268
3.95685
-5.03353
-5.54267
-0.0966652
6.83568
-2.86142
1.94668
1.21109
-3.15776
-0.115225
-0.725878
0.841103
-1.45518
2.03414
2.59878
-5.28309
0.672948
0.787415
0.970345
1.05408
1.70193
-2.75601
1.80501
-1.06423
-0.306571
-5.31925
5.62583
-1.64359
2.14765
-4.04801
-2.94218
-2.1682
5.11037
1.18014
-1.46874
-3.25061
1.06273
2.18788
-0.31944
0.00552212
0.313918
4.11195
-4.30607
1.53361
-3.71325
1.0593
2.71878
-3.77808
-0.41806
-0.00117028
-3.88011
1.11937
2.76074
-4.19828
1.6568
2.48766
-4.00543
3.57565
-3.20764
-0.175871
-0.143569
-0.0322547
4.34763
-2.90784
3.61368
-0.705837
3.84187
0.027171
-3.86905
-3.91444
-0.0713452
-1.2883
0.222891
4.01066
0.571262
0.15565
-0.50436
0.854896
1.95213
2.42034
-0.50398
1.82739
-4.31579
-0.289807
-3.13096
4.92974
1.33291
0.832778
0.864546
-1.69732
8.18789
0.681821
-8.86971
-0.510718
0.496162
-1.58427
-3.58761
-3.72167
-0.56121
-1.82077
4.24532
-1.56221
2.17186
-0.609654
-5.02016
1.72632
-1.33639
2.39047
-3.01653
-1.87966
-1.41688
-1.40452
1.63112
-3.83294
-0.612879
5.3445
-0.723441
4.68105
-5.2778
0.59675
0.578118
0.481125
1.19169
4.78126
-4.44756
-0.0146602
-1.04552
1.51763
-2.34632
2.46397
-2.1332
-1.26925
0.968821
0.83202
-1.80084
-4.31025
0.0766934
-0.572155
3.61448
-3.04233
-1.09345
-3.45802
-3.33687
3.7916
5.83318
-2.48419
-3.34898
-0.496925
1.40704
4.19106
-2.34709
-1.84397
1.19711
-1.30752
0.276813
0.138794
-0.709084
-0.00270492
0.711788
-0.660193
2.43105
-1.38209
5.33894
-0.1325
-0.691603
-1.28576
-0.396016
1.68177
0.150881
3.96107
0.60357
1.9018
-2.50537
-1.7345
2.68753
2.00578
1.99179
-1.53769
-0.535586
2.40274
-0.842746
-1.56
-0.300561
0.177034
0.123527
0.483883
-3.67808
3.1942
-4.36431
0.642646
1.01691
5.52732
-0.59758
-0.0241535
1.22127
0.603819
-2.16603
-4.0946
2.08873
-4.61679
1.5216
-2.11835
0.248528
-2.06448
-2.79081
4.85528
-5.47626
1.05765
0.639677
-1.69733
4.3236
-3.32991
3.44963
-2.83877
0.729213
2.49847
-3.22768
0.902842
-1.77262
0.396716
-3.74056
3.34385
0.510347
1.3819
-1.89225
-1.32023
3.97448
-2.65425
4.08746
-2.43576
-1.6517
6.88149
-1.96384
-4.91765
-2.56291
-3.90356
-1.49702
-0.100266
4.92387
6.44104
-0.0804656
0.436957
-0.356491
-3.09743
-0.782677
3.44217
2.97879
-2.47708
3.00551
-0.528433
-1.53016
1.50026
0.150352
2.03216
-2.18251
0.833526
-0.441376
-0.491731
-4.24515
0.563006
1.76909
0.0247114
-1.88203
1.6633
0.315813
3.48811
-3.80393
-2.41642
-0.555815
0.522283
-3.17592
0.335917
-1.15362
-0.261653
-0.346851
0.608504
0.518834
-1.7158
1.19696
2.47451
2.58779
0.339809
3.88107
-1.72725
4.43951
-2.29186
-0.530507
-1.14933
1.67983
3.51309
0.382745
0.11565
-3.13816
2.10127
3.44608
-3.2952
-2.48805
-2.03644
4.52448
-2.89762
-2.17863
-4.76825
4.89947
-0.131217
0.930451
-1.73121
1.24632
2.6574
1.22368
-1.15274
-0.883611
2.03635
-1.28096
-2.17625
-2.78963
0.0699331
2.7197
2.16679
-1.94322
0.0676369
0.541423
2.79877
-4.38304
2.13316
-1.70118
-1.53645
4.14085
-2.6044
2.89717
2.50223
1.3293
-3.83153
4.89962
-2.99481
-1.90481
-1.64433
-3.74915
5.50581
-1.75665
5.85479
-1.17374
-1.28107
1.25691
1.97707
3.8342
-0.982972
0.867747
0.0808812
-0.0618548
4.51599
-2.50575
3.12425
3.79972
-1.89199
0.999177
0.892817
1.08106
-2.12519
3.54509
-0.22898
3.93555
-1.98888
-3.19807
-0.436457
3.63453
0.846695
-0.147149
-0.699546
0.690732
0.386865
0.662979
-4.63064
-1.24573
1.32967
3.28967
-2.87453
-0.415139
0.688193
1.71455
-0.677636
0.356525
1.04336
1.12909
-2.17245
-2.34625
4.31734
-0.358111
-2.45834
5.56858
-3.11024
-1.22547
1.90427
-0.534439
-1.66516
5.00415
-2.4343
-1.57654
4.97155
1.12989
1.32129
-1.3429
-0.807904
0.695981
-1.36121
-0.652652
-0.00516709
2.46818
-0.675311
3.79525
-3.11994
0.0801689
-0.256297
-1.78533
0.533503
-1.50294
0.0059279
-4.5633
4.39327
1.0127
1.12804
-1.1135
-1.49914
2.61264
1.12956
0.486757
3.972
2.25485
-6.22685
-0.446894
-0.10627
0.553163
-2.55872
-1.91588
3.75642
2.07675
3.64533
-3.32952
-5.60319
-0.100362
-0.0237484
-0.477488
2.14371
2.79088
0.572265
-3.36315
1.61852
-0.10297
-0.144061
-1.46719
-0.424807
-6.44431
-2.16818
2.45647
-1.04236
3.58592
2.6581
-2.64398
-0.014121
0.862439
0.0327554
-0.316989
1.10969
-0.155788
3.62376
0.981049
-4.60481
0.255622
1.0822
-1.00968
0.61115
0.39853
-1.53539
0.030294
1.5051
1.82775
2.1935
-4.02125
1.07478
1.2473
3.21556
-0.0741532
-1.16532
3.24398
-2.38908
0.18514
-0.333571
0.14843
-3.58815
2.47024
3.85411
-3.09177
-0.762339
0.0763403
-0.665484
0.589143
4.0536
-4.43026
3.2266
-1.0598
1.22733
2.22231
-0.580865
-0.0717866
-1.23476
0.317827
0.91693
-2.68068
-0.567604
4.99019
-2.54936
-2.44083
5.3921
-1.76677
-3.62533
1.80609
-3.21074
1.40465
-0.436847
2.37345
-0.0837301
-2.28764
3.34032
-1.05268
-1.03938
-0.195376
2.81795
-0.188959
0.689935
4.40655
0.01009
-4.41664
0.0787844
-0.789546
1.29585
0.541794
-0.144291
1.42559
2.31261
-0.750365
1.03898
0.0748164
0.106012
-0.648781
0.624529
-1.7466
2.47582
0.0798218
1.05172
-0.150832
-1.71484
3.68588
-0.137284
2.79539
-0.476858
-0.527359
-1.11337
2.15673
-0.981189
3.84513
-2.86394
-3.7163
-0.504758
-2.75765
3.2202
-0.462554
-0.748808
0.559849
1.3497
-0.287065
-0.0953994
-1.03247
1.12787
-3.64572
1.21142
0.510609
-0.597697
1.8419
-5.78603
0.303946
-4.80987
-1.21969
3.91881
-1.48392
2.23518
-1.10608
0.0625207
-2.91254
3.39643
-0.00758028
-0.686461
0.587816
-2.39873
-0.444726
-2.70498
3.14971
0.555283
-3.61391
6.63619
-4.11167
-2.52451
-0.990386
0.315677
1.01702
0.0989864
-1.11601
-3.5838
0.675956
0.838663
0.107722
-0.0424536
-0.557568
0.600022
0.8234
-3.58105
0.375027
1.98305
0.17816
-2.16121
-4.28437
3.30319
0.670379
0.164856
-0.835235
6.62041
-11.253
-0.61731
-0.0207914
0.638101
0.872957
-0.202577
-0.00190011
3.2308
-2.43904
2.69077
2.17397
-1.09919
-4.36881
1.42663
-2.99208
2.42921
0.562867
1.98006
-4.46811
-2.15446
-1.40555
3.56001
0.428282
1.66804
-1.27749
1.03443
4.93199
-0.671749
-4.26024
-0.00695069
-4.30884
3.60126
3.28023
1.94232
2.24873
-0.688231
-0.0249361
0.663248
-1.31845
-1.40269
0.352832
-0.28349
-0.0693413
0.131652
-4.40684
4.27519
-0.147108
1.17201
-1.0249
-1.32425
-2.92905
4.2533
-0.436886
-2.41783
-0.142151
0.148764
2.96247
-1.436
-0.893554
2.32956
-1.54219
-1.88243
1.92124
-1.08922
0.78842
-0.191799
-0.596621
-3.06978
1.95628
-2.39292
-0.570979
-0.187534
0.758514
0.391655
1.43757
-1.82923
3.39652
-2.99075
-0.405779
0.13562
-2.44486
0.722433
-5.38251
-2.68939
-2.05699
4.74638
-4.24901
0.212398
4.03661
-5.91774
-3.49786
0.078839
-1.15833
1.21349
-0.0551618
-4.34715
-1.6029
5.22666
1.59414
-0.856346
0.317781
-1.43115
-0.767787
2.01508
0.656988
0.405791
-1.69155
0.0814373
-0.701838
0.620401
-0.666071
0.217932
-0.468565
0.544905
-1.06976
2.27405
-11.2931
5.43747
5.85565
-2.81434
2.16279
2.56937
0.85845
-0.0117542
-2.40474
1.252
-2.06372
-1.18689
-2.35651
0.890063
1.46645
0.166927
1.39436
-1.56129
-1.66873
2.18756
-0.383939
3.15432
4.20915
-3.60558
2.54401
-4.0862
1.96008
-2.53957
0.57949
0.466515
0.00261043
-0.063967
0.0268827
-4.8232
2.75872
2.29167
3.10043
0.0647359
-0.87004
0.805304
-6.21243
2.44228
-0.528519
-0.410403
-0.823131
-0.0804582
-0.923892
1.00435
-2.42494
0.988935
-4.4838
3.99207
3.69614
-2.63684
-0.999615
0.896093
0.103522
-0.0218512
0.123137
-0.659764
-4.67884
2.68762
1.99122
-0.632991
0.526721
-0.415754
1.37705
-0.9613
1.89158
1.33501
0.676851
-0.154756
-0.522095
-1.09844
1.17826
0.411923
-0.101622
2.95932
-1.72655
4.52144
0.33143
-0.700394
-3.89201
4.17752
-0.119077
-4.05844
-0.76472
0.0887493
0.675971
2.21813
-4.28547
-0.230515
3.15433
-2.92382
-0.329429
0.0296046
0.299824
-3.33323
3.27912
0.0541059
-1.55863
2.86377
-0.285203
4.88372
6.78543
-0.69154
-6.09389
0.178006
0.397398
-0.575404
0.0845574
-1.32727
-0.0908937
-1.29836
-0.028909
0.16301
-1.61923
1.45622
-0.372179
4.15048
-3.7783
-4.03553
1.61316
2.42237
1.26468
4.17164
0.177939
0.145776
-0.323714
2.40548
1.12089
-3.52638
0.148841
-0.134788
-1.3882
3.95319
-2.56498
-3.6422
0.44413
2.91518
1.26924
-3.4237
-0.0118537
-0.527871
0.539725
4.19495
-0.913498
-3.28145
1.3472
0.923138
-4.50286
2.25644
4.72309
-5.02966
-2.22653
0.482783
1.74375
-0.307239
0.235891
1.28892
-1.52481
-0.067725
-0.0797468
0.147472
-0.0463246
0.549359
-0.503035
1.00473
-1.19467
0.189946
-2.46295
5.26172
-1.27866
1.28151
0.525976
-0.94173
1.62858
-2.34772
0.719135
-4.90971
-1.26519
-1.50741
-0.303147
0.556002
-0.160569
-0.395433
3.74885
-1.55484
-2.19402
0.491483
2.79818
-1.03743
-0.561453
-2.45259
0.414886
1.50911
2.25177
-3.76087
-0.0799816
-0.00388471
0.0838663
-0.115371
1.4561
1.01911
-0.442063
-0.577049
3.94935
-1.2942
-2.65515
-3.65676
0.272159
1.74956
-2.97078
-0.372277
3.34306
6.6551
-2.37835
-0.885976
0.236355
-0.298848
0.234881
-2.85508
3.76193
-0.906854
0.633209
0.122777
-0.340606
0.433533
-1.0191
0.886597
-1.20937
1.4842
-4.65679
3.33754
1.31926
3.17913
-1.73019
-1.44894
5.9307
-3.45619
1.02382
0.234541
-0.988634
0.818681
-0.177645
-1.61499
-1.39857
-4.51755
-3.4128
1.12516
-1.01042
1.7994
0.600544
0.272412
-0.305415
-0.0240132
3.84129
-3.86381
0.0225144
-1.20691
-2.15046
0.860365
1.29009
0.44193
-1.48745
0.229146
-3.84555
-1.0342
0.887049
-0.745616
-1.13447
1.88008
-3.42247
0.785265
1.14262
1.43961
-2.58223
1.25064
-0.740293
-1.29039
-2.68032
4.40355
-7.27286
1.52018
1.17182
-2.18998
1.01817
-1.07133
1.40725
-2.48006
-3.73236
-1.02985
-0.535835
3.11869
-3.57895
1.75311
1.82583
-0.0472771
-1.33109
0.0557688
-1.42997
1.37421
-3.53607
-1.65574
-0.696912
0.67612
4.02402
1.76147
0.669406
3.5148
-3.85634
-1.81393
3.954
-0.201676
-3.75233
3.67717
-3.85095
4.77076
-2.74191
-2.02885
1.28854
0.860885
-2.14943
-2.12545
3.37199
-1.24654
-6.06276
3.11324
2.94952
-0.00776104
1.03984
3.58183
-2.4773
-2.93969
5.41699
1.69746
4.95764
-3.26306
-0.154865
2.34228
-0.69978
2.16101
-1.46123
-2.53444
3.35784
-5.48012