/*--------------------------------*- C++ -*----------------------------------*\
| =========                 |                                                 |
| \\      /  F ield         | OpenFOAM: The Open Source CFD Toolbox           |
|  \\    /   O peration     | Version:  2306                                  |
|   \\  /    A nd           | Website:  www.openfoam.com                      |
|    \\/     M anipulation  |                                                 |
\*---------------------------------------------------------------------------*/
FoamFile
{
    version     2.0;
    format      ascii;
    arch        "LSB;label=32;scalar=64";
    class       volVectorField;
    location    "3.3";
    object      U;
}
// * * * * * * * * * * * * * * * * * * * * * * * * * * * * * * * * * * * * * //

dimensions      [0 1 -1 0 0 0 0];

internalField   nonuniform List<vector> 
13486
(
(7.21893 -1.17109 3.28983e-20)
(8.35218 1.27169 1.51838e-20)
(11.526 -0.134089 0)
(-7.58581 2.5299 -3.80813e-20)
(11.1457 -2.89385 1.68508e-20)
(11.855 0.5268 3.85733e-23)
(12.4273 -2.59556 -9.33134e-23)
(9.55017 -3.59243 -2.10783e-20)
(9.48778 -2.11976 0)
(10.0097 3.2826 0)
(0.939432 8.634 -5.38005e-20)
(12.994 0.107072 0)
(6.48241 -2.11614 -3.27035e-20)
(12.1808 3.1325 2.73476e-22)
(11.8698 -2.33027 1.02651e-20)
(9.87025 3.50151 -1.01394e-20)
(6.09506 -1.83091 4.78342e-20)
(8.77131 -6.55607 -6.84722e-21)
(11.7514 0.022106 2.62273e-22)
(8.12705 -0.395822 -3.33238e-20)
(-3.57273 -3.49729 -1.31595e-20)
(6.5581 -2.1647 4.21326e-20)
(8.56484 1.29806 -1.21632e-20)
(14.2594 -5.50998 0)
(10.4234 2.70289 3.30753e-21)
(12.5342 -4.6735 -8.69714e-21)
(3.03895 -1.33342 5.21201e-20)
(10.9541 -0.780984 8.49441e-21)
(8.57807 -0.826646 0)
(9.83091 -2.42813 -3.47804e-21)
(2.41853 -8.64516 -6.70914e-21)
(12.8679 -2.13435 -1.42055e-20)
(14.8478 -2.16998 1.57837e-20)
(8.97194 -0.415715 0)
(9.63584 -3.47717 0)
(7.88053 0.144538 3.78473e-22)
(9.54938 -4.3272 -3.49518e-21)
(7.80589 -3.63751 1.8248e-20)
(7.39785 12.0579 -3.8722e-20)
(9.7082 -1.32762 1.85297e-20)
(11.3903 -4.01848 0)
(5.79575 -2.73195 -3.83413e-20)
(12.8762 0.0364298 0)
(10.2848 2.30824 -1.62014e-20)
(10.3619 2.29813 6.5896e-21)
(12.9027 0.108397 9.75485e-21)
(-10.7572 -0.975105 9.4677e-20)
(8.69897 -0.695473 -7.93027e-23)
(9.89988 -3.97074 2.78046e-21)
(12.1337 -0.228459 6.46253e-21)
(9.96818 0.172854 1.92861e-20)
(21.385 2.32891 0)
(13.6152 -0.0641146 -1.22929e-20)
(7.98102 -2.96364 -2.62176e-20)
(9.84615 -7.13016 0)
(11.0708 -2.95855 -1.06921e-20)
(9.37667 -1.23318 -3.18518e-21)
(23.8059 6.11372 -7.40589e-20)
(13.2667 -1.8793 1.83505e-20)
(6.84745 -3.32914 0)
(3.1608 7.07992 -7.34086e-20)
(6.47125 -3.04675 0)
(17.1629 -1.01281 -2.4758e-20)
(-2.87126 -3.79771 -1.17524e-22)
(11.5361 -11.0728 0)
(8.68595 -4.00997 -1.27552e-21)
(-8.58276 2.72492 -4.56339e-20)
(7.19194 0.119832 1.08032e-20)
(9.50681 -2.23812 -1.07062e-20)
(6.73755 0.541433 1.02862e-20)
(-8.95058 3.42144 5.26918e-20)
(8.15796 -6.98837 -7.48287e-22)
(9.65098 -0.692753 1.35242e-20)
(-3.10669 3.65509 -3.38025e-20)
(8.31966 -3.20128 -1.52253e-22)
(8.5273 -0.969872 7.19183e-22)
(8.84936 -3.12771 -3.12858e-22)
(11.8651 -2.40551 -4.14239e-21)
(-7.2092 -2.38262 -3.82655e-20)
(-3.25325 -1.49198 0)
(8.63867 -0.0037446 -9.8602e-23)
(8.17724 1.83921 -9.64481e-22)
(18.3814 -1.52771 -1.52313e-21)
(11.8286 0.13838 -2.48371e-21)
(7.18188 -1.21306 -6.41301e-20)
(7.88859 8.26278 0)
(11.6938 10.6497 -1.23824e-20)
(10.0355 0.260225 -2.93477e-20)
(9.36789 1.04489 -1.28045e-20)
(9.1201 4.66354 -1.17762e-20)
(14.2773 -1.78341 -7.35271e-21)
(10.1567 -3.211 -1.15829e-20)
(7.51104 -1.69082 8.57095e-21)
(8.32715 0.298668 8.56304e-22)
(9.01459 -2.89841 4.35351e-21)
(8.79925 -0.596494 1.81752e-23)
(3.24769 -2.07569 0)
(-9.57487 2.12762 3.43077e-20)
(9.7393 -1.31127 -3.53824e-20)
(4.38984 -0.643745 8.94859e-22)
(8.59553 0.113473 0)
(12.0244 3.17244 -7.87537e-23)
(-8.00309 0.720435 2.55203e-21)
(21.7169 4.02563 8.76753e-20)
(6.93418 7.55987 0)
(3.4258 0.405619 5.6284e-22)
(9.7231 0.274356 7.58862e-23)
(4.20429 15.4662 -7.61064e-20)
(-9.51613 -2.11873 5.66113e-20)
(9.75393 -4.52092 0)
(8.28668 -3.92134 0)
(11.9542 -2.68067 -1.64839e-20)
(8.0431 -2.87202 1.58741e-22)
(9.61341 -1.52124 2.28588e-22)
(5.58153 -0.363253 0)
(8.11945 -3.84079 -1.67952e-20)
(10.2698 2.84618 0)
(8.8013 -0.0622566 0)
(9.64409 -0.664673 0)
(10.755 -3.07803 -1.25175e-21)
(9.80386 -5.71994 4.89319e-21)
(1.24956 7.41162 0)
(8.90294 -2.65202 0)
(9.30945 13.4882 1.12599e-19)
(9.16277 -3.33376 0)
(23.4601 1.42276 0)
(10.8729 -1.60521 4.57821e-22)
(10.7558 0.441025 6.5944e-21)
(8.52486 0.19862 2.15086e-21)
(10.0606 -9.41097 -1.29995e-20)
(20.9993 -0.494072 -5.5788e-21)
(-5.40977 -0.946821 -2.45595e-20)
(7.07898 2.62446 5.84826e-20)
(-1.35028 0.830386 4.4743e-20)
(9.98069 0.0898757 -3.16192e-21)
(9.54231 2.1023 -1.42806e-20)
(4.71316 2.93224 -8.75732e-21)
(9.46783 -4.29275 0)
(10.9719 -2.61993 4.04498e-22)
(9.74644 -3.01062 -7.34867e-21)
(13.163 -1.00046 -1.56401e-20)
(13.9482 -0.122015 1.03208e-20)
(13.1587 -1.14368 0)
(-2.17318 0.342311 0)
(13.2285 -0.0720896 1.07699e-21)
(16.8065 -2.78691 -4.0416e-20)
(12.037 3.26386 -3.25316e-21)
(-3.64741 6.22657 0)
(12.685 -0.312985 0)
(8.54864 -0.887897 0)
(9.91515 0.0744526 2.95632e-22)
(11.7469 -2.63639 0)
(8.58651 0.0218306 1.03195e-22)
(8.11103 1.55166 -8.2501e-21)
(10.8802 1.48197 0)
(11.5353 -0.105635 0)
(9.54212 -4.30534 0)
(-1.50907 -1.6165 -7.77726e-21)
(8.43272 -3.3902 3.89348e-20)
(7.32922 0.402303 7.56694e-21)
(12.394 -0.0080304 3.71924e-21)
(8.48285 -3.30526 -5.8623e-20)
(9.54985 -4.98487 2.27486e-21)
(5.21302 -2.60042 1.69164e-20)
(23.1821 4.17684 0)
(12.7257 3.08508 -2.74263e-21)
(11.7254 2.93008 3.30531e-21)
(2.53179 -0.668422 -3.92634e-20)
(11.8264 3.34666 8.71002e-21)
(-1.50665 1.16572 1.22479e-20)
(2.77682 3.3103 1.55675e-21)
(10.822 1.33855 5.36034e-21)
(9.91223 0.42398 -2.36648e-20)
(11.7305 -1.39423 7.98342e-22)
(8.83838 -0.229914 -5.55881e-23)
(2.1195 -8.63182 0)
(12.2035 4.7689 2.30379e-21)
(13.8035 -0.948843 2.29849e-20)
(9.72829 0.223314 -3.21115e-20)
(13.0813 -0.969289 0)
(9.91633 -1.6109 3.86233e-20)
(9.32966 -1.52253 3.76198e-22)
(12.2964 -1.32382 -2.3765e-22)
(-12.7962 7.68627 0)
(11.9236 0.895014 6.31993e-21)
(10.8627 -0.611623 -3.85313e-21)
(8.81127 -1.16288 5.2905e-24)
(9.5667 -1.5115 -2.60384e-22)
(11.1316 -4.13151 0)
(7.49091 -3.62711 -2.2204e-20)
(10.1536 -3.38134 0)
(11.7353 -0.354988 0)
(17.4608 12.7898 0)
(9.28246 5.03447 -1.70673e-20)
(12.7045 11.7729 0)
(-0.919885 9.4973 -1.75217e-20)
(10.3391 -9.96373 2.83251e-20)
(11.9886 -0.0521985 1.91345e-21)
(7.06182 -3.44502 -7.97058e-21)
(12.5287 2.81184 -6.01618e-22)
(2.34878 -9.49129 7.55047e-21)
(10.7917 0.487796 -2.01139e-22)
(7.7531 -3.71438 -2.11459e-20)
(10.3423 -4.32489 5.97878e-21)
(7.6227 0.233966 -9.01579e-21)
(14.2065 10.8848 -9.33491e-21)
(7.06696 -6.48295 -1.79446e-21)
(9.33871 -0.282036 2.66117e-20)
(18.0773 12.9667 0)
(11.7006 0.715586 0)
(10.1617 -0.720987 2.2728e-21)
(10.3806 -5.62607 1.70396e-20)
(8.16553 -0.246842 3.06086e-20)
(9.66937 0.30277 1.07612e-22)
(11.8239 0.703301 -4.44836e-23)
(4.99872 -4.2494 2.72181e-21)
(10.4152 -2.03766 0)
(9.25694 4.32318 2.99183e-20)
(7.91506 -1.81833 0)
(15.6808 2.29133 0)
(4.13864 -0.704387 -9.03878e-20)
(12.5525 -0.268169 0)
(9.67865 -2.97914 1.73083e-20)
(13.0118 0.0548196 0)
(13.9922 0.493122 -2.16714e-21)
(6.75565 -3.11315 1.22647e-20)
(12.5293 1.22476 -1.75596e-22)
(3.3181 -12.0162 1.03848e-20)
(2.80574 -1.7349 -3.84239e-22)
(8.08228 8.36417 -8.82201e-22)
(9.9507 -1.58907 -1.23768e-20)
(8.86467 -3.08385 5.38891e-22)
(13.387 -1.18446 1.96467e-20)
(5.66783 -2.66344 1.3057e-20)
(-4.77001 -3.39901 0)
(6.42955 -3.11135 1.46926e-21)
(9.06616 -1.05363 -1.70916e-21)
(11.6516 -0.327787 -1.82156e-21)
(6.60694 -3.14348 4.02177e-20)
(12.1075 -0.768505 0)
(13.4458 -2.06666 0)
(10.0672 0.357299 3.64379e-20)
(11.6568 -1.42646 0)
(6.29331 -3.11162 1.3598e-20)
(-1.66743 11.9238 -6.81263e-20)
(8.99236 0.267963 0)
(12.428 -0.108418 -3.42424e-21)
(12.6024 -4.42388 2.0991e-20)
(-1.95689 1.58248 7.58309e-20)
(10.121 2.20914 0)
(-11.7747 3.47162 -2.19493e-20)
(5.46859 -0.222401 4.62371e-21)
(7.57624 -3.71437 2.16697e-20)
(6.32763 15.4274 0)
(1.18142 2.4668 5.03967e-21)
(1.14633 -5.65481 1.55266e-20)
(12.8604 -2.05994 1.17502e-20)
(5.22446 -7.21945 -3.43943e-21)
(-0.796913 -1.13821 8.14425e-21)
(14.3414 -2.43292 1.26519e-20)
(8.94605 1.05512 0)
(-4.34595 8.26097 -1.16504e-20)
(11.9125 -2.34941 -2.36408e-20)
(1.66811 -5.14057 -1.93873e-20)
(10.6234 -3.71281 -1.63752e-20)
(-13.3401 8.8472 0)
(5.39681 -1.14946 2.55271e-21)
(1.10184 -8.23318 -1.18189e-20)
(10.0467 -0.0735538 -1.59259e-20)
(12.0846 -3.67536 0)
(7.53953 4.28068 1.26637e-20)
(9.76703 0.316152 -8.65065e-21)
(10.384 -2.48659 0)
(13.2046 0.33549 7.80735e-21)
(6.97988 -3.26433 1.64301e-20)
(11.581 -3.83684 -1.16131e-20)
(0.972791 3.65891 0)
(9.55131 -9.2975 0)
(4.80846 16.3167 -5.20629e-20)
(12.4227 3.06483 6.19216e-21)
(9.50873 -9.14761 2.12163e-20)
(10.4933 -1.18631 -1.44374e-20)
(9.61431 0.398802 1.89481e-20)
(16.0137 -4.44449 -2.1509e-20)
(-2.07958 8.23081 9.85221e-20)
(3.33337 -0.508366 8.50025e-20)
(13.6326 -0.758445 1.85419e-20)
(9.25541 0.259928 -2.8283e-21)
(14.3649 0.402982 2.96931e-21)
(9.8607 -0.0763534 0)
(-4.19567 -2.28597 0)
(-0.462336 -2.96311 9.23692e-21)
(8.04226 -3.80114 1.65761e-20)
(9.99145 0.110981 -3.09937e-21)
(8.78962 -0.686019 -2.72665e-21)
(9.26127 -1.2887 0)
(11.6237 -0.162328 -4.52789e-21)
(13.1687 0.444005 -6.77867e-21)
(9.5059 0.30624 -1.74084e-20)
(12.2418 -3.21072 1.00526e-20)
(8.82253 -4.83354 -3.38696e-21)
(7.89932 -6.89928 8.3196e-23)
(12.3737 3.25221 -5.27711e-21)
(12.6631 -2.06218 1.35431e-20)
(11.364 -3.82722 1.20376e-21)
(9.04472 -4.46313 0)
(-0.338071 -1.22164 0)
(11.3195 -0.162981 6.75121e-21)
(10.3924 12.8943 1.11758e-20)
(9.98295 -3.74126 0)
(11.0647 7.10617 -6.55814e-20)
(-6.97465 2.70403 0)
(11.6648 4.73691 7.54691e-22)
(12.6018 -2.55149 -1.64148e-20)
(14.9731 -1.83702 0)
(9.41689 1.79514 -8.67601e-21)
(0.274087 -2.22783 -1.20375e-20)
(9.32192 0.983382 -1.08588e-21)
(9.32258 -0.270223 -2.92323e-20)
(4.85655 -1.55133 0)
(9.23864 -3.83756 2.15468e-21)
(-2.6963 -5.30583 5.76871e-21)
(9.82949 0.26253 4.04344e-21)
(8.20532 0.519338 -1.60144e-20)
(3.54179 3.00587 1.63658e-20)
(14.1349 -2.05561 1.40988e-20)
(11.048 -2.20946 -4.60431e-20)
(10.5523 -1.17386 0)
(12.7915 1.03955 8.92246e-23)
(11.1817 -2.27051 -9.06855e-21)
(9.94918 0.162389 4.24732e-20)
(10.267 -3.23924 0)
(14.5418 -1.8492 -2.39571e-21)
(7.32951 1.69852 0)
(11.8336 -2.54713 -2.53358e-20)
(9.31597 -2.76199 -1.21134e-20)
(4.3201 -1.95331 1.55453e-20)
(11.6425 -2.6775 -1.57059e-20)
(10.061 0.947154 0)
(-3.85667 9.40375 -9.79858e-20)
(4.7927 -1.29896 -3.72706e-21)
(8.31007 0.522063 1.51438e-20)
(11.2439 -2.31157 3.4323e-20)
(12.1892 -1.34003 1.74652e-20)
(-10.9684 8.01644 -7.40943e-20)
(8.69238 -0.671315 4.06155e-23)
(11.2334 -1.27559 0)
(5.39608 -1.80048 3.69937e-20)
(15.683 2.13051 0)
(-1.58659 -2.0487 -3.67979e-21)
(11.0365 -0.685828 2.61407e-20)
(13.0908 0.825752 -7.61177e-21)
(13.3186 0.29706 6.40663e-21)
(2.29271 -0.319553 -5.74827e-20)
(9.60896 0.318009 2.17687e-20)
(8.8532 0.240552 0)
(-3.59459 3.52354 -2.94114e-20)
(10.9124 -1.6166 -9.18712e-21)
(8.48974 11.8155 -1.16157e-20)
(13.4027 -6.91275 1.3433e-20)
(13.044 0.0297082 0)
(14.9112 -1.07438 7.52933e-21)
(8.97771 0.701459 3.28405e-20)
(9.76418 0.368803 2.61895e-20)
(10.0717 -2.84286 0)
(8.52547 0.0129738 2.10713e-24)
(9.14765 -1.00209 1.60523e-21)
(-2.85907 -0.468661 1.37267e-20)
(8.00974 -0.322186 4.25161e-21)
(10.9178 -1.43565 8.76271e-21)
(13.6197 0.061137 -4.25156e-22)
(11.137 -1.19798 0)
(14.0939 0.67755 -6.78802e-21)
(-11.1091 3.7694 2.41738e-20)
(11.8749 1.59561 -4.16529e-22)
(9.964 0.170713 1.62277e-20)
(8.2751 0.0177041 0)
(-4.97381 0.180644 -7.55689e-20)
(15.6133 -2.14623 0)
(16.8507 4.8038 -1.54936e-20)
(10.0916 -0.127941 0)
(10.1947 -3.5917 -2.46795e-22)
(6.76883 -0.676302 -8.92383e-21)
(7.31885 3.13534 2.96962e-20)
(-3.34033 -0.70855 -6.32376e-20)
(2.16635 3.10482 0)
(11.2492 0.328663 -4.57847e-21)
(10.0483 1.02668 -9.51813e-21)
(1.35 -2.16358 -2.62025e-20)
(0.800022 -6.01595 2.48803e-22)
(8.32347 -0.378693 -4.63286e-20)
(10.6338 -1.99919 3.11613e-21)
(10.3681 0.925282 6.62331e-21)
(7.27338 -2.28094 0)
(7.08134 1.29733 1.69368e-20)
(10.4657 -2.23047 -6.22527e-22)
(-7.73893 2.85912 2.28643e-20)
(-12.586 4.05321 -8.20811e-20)
(2.15604 -2.10465 -5.44534e-20)
(13.3928 -0.840155 0)
(0.794967 -1.97825 0)
(10.6923 5.44714 0)
(10.4361 -0.508833 0)
(2.04277 -2.77829 2.0574e-21)
(11.8611 -2.49862 0)
(13.4715 4.20742 0)
(8.37991 0.40017 6.32106e-21)
(14.1732 -1.02137 -2.36169e-20)
(11.0188 -1.12236 -2.06686e-20)
(8.46421 1.43875 5.26372e-20)
(10.0384 0.197021 -4.77119e-21)
(11.7417 7.68491 0)
(11.2448 -1.87396 0)
(9.50487 0.338968 1.8543e-20)
(10.0408 0.0940669 3.2081e-21)
(7.14174 4.747 0)
(-13.4358 7.37484 7.12549e-20)
(10.4871 -3.75296 1.83688e-20)
(0.0227332 1.77041 0)
(12.234 -0.774237 1.63649e-20)
(9.73432 0.278345 -2.13952e-20)
(6.37019 -3.13827 -8.39863e-21)
(5.39204 -1.73513 0)
(10.037 1.02794 1.77675e-20)
(12.4193 0.515094 0)
(9.54816 -1.32209 0)
(10.9691 0.897328 -9.17745e-22)
(9.60215 0.433056 9.88244e-21)
(2.33645 -2.05851 -6.82539e-20)
(11.589 2.88624 1.6156e-21)
(6.71118 -1.72216 -1.60946e-20)
(10.2405 -0.449948 2.42432e-21)
(10.4466 1.00874 5.17409e-21)
(14.5017 0.777754 1.65645e-20)
(10.8491 -3.71258 0)
(12.0816 -3.68906 1.01653e-20)
(6.82249 -0.383661 0)
(-2.18839 -3.05467 1.65e-20)
(11.6502 -1.38625 0)
(7.29286 0.130597 2.30942e-20)
(-7.845 -0.560041 -8.05399e-20)
(10.9614 -2.07045 0)
(-0.209653 0.915731 1.94868e-21)
(11.4495 -2.02088 -8.37358e-21)
(6.15933 7.57797 1.87195e-21)
(8.80529 -1.44106 4.63257e-20)
(7.22727 3.34832 -1.85561e-20)
(6.70603 -1.69597 -4.55828e-20)
(17.7096 4.394 0)
(10.8736 -3.27421 1.79097e-21)
(-10.7731 8.10774 -1.82461e-19)
(10.0578 1.08116 0)
(9.28187 1.10117 1.18967e-21)
(12.8514 -0.252691 -1.35566e-21)
(13.5286 4.7034 0)
(9.99508 0.0457021 0)
(-13.6661 6.17869 0)
(2.57851 -7.57652 6.39785e-20)
(16.4871 -5.15454 2.54772e-20)
(16.5819 -2.50623 1.41183e-21)
(11.6337 4.47624 0)
(8.53804 -0.953597 3.06496e-20)
(8.89006 -0.227213 1.03663e-22)
(11.557 2.67445 -3.28553e-21)
(-5.30671 0.0752222 2.37575e-20)
(9.56579 0.848754 0)
(8.55387 -0.690624 0)
(4.12162 -0.647271 -2.43648e-20)
(7.14914 -2.22799 -1.15248e-20)
(9.66419 -1.03023 0)
(8.99619 -4.2101 -1.75563e-20)
(8.83667 0.141135 -1.88798e-22)
(8.73227 -0.554694 -3.66334e-23)
(4.67006 -2.07313 0)
(10.7391 3.26562 -8.05299e-21)
(10.8675 -2.45289 1.08767e-21)
(12.4696 0.51269 3.99438e-21)
(9.25128 -2.86485 0)
(2.92698 0.0236904 -1.28085e-19)
(13.1113 0.664218 7.40302e-21)
(10.0039 0.557211 3.74366e-21)
(9.12975 0.281676 1.46619e-21)
(12.9537 2.89109 0)
(8.45864 1.49036 -1.40317e-20)
(15.2321 0.883621 -1.08378e-20)
(3.40542 -2.13092 1.15453e-20)
(10.0026 0.285347 0)
(0.821113 -5.93467 -2.55278e-22)
(2.82862 -0.384129 0)
(10.0933 0.268678 -1.45121e-20)
(9.94465 0.360478 6.41398e-21)
(9.31244 0.18575 -3.63203e-21)
(-0.415555 -6.04137 0)
(11.8722 0.0904696 -3.99832e-21)
(5.8765 2.08552 4.51799e-20)
(10.8341 -3.69191 0)
(8.25867 0.326524 1.94117e-20)
(11.8247 -3.14266 -1.15661e-20)
(10.6456 0.110326 0)
(0.675255 -8.33067 7.0358e-21)
(-4.67619 4.33471 -4.74023e-20)
(13.6194 0.045251 0)
(2.37827 1.48492 8.72277e-20)
(9.23512 1.00625 0)
(8.73026 -4.00583 1.6552e-20)
(-10.0091 1.92128 4.70428e-20)
(8.97007 -1.08799 1.49188e-24)
(11.9118 0.575678 -8.9e-22)
(7.0039 1.25275 8.97656e-21)
(8.85208 -1.59459 -1.70445e-20)
(2.06035 3.7038 2.12821e-21)
(8.81151 -3.94854 1.17143e-22)
(10.8474 -1.4229 8.293e-21)
(12.9406 2.83238 5.86632e-21)
(10.2302 -4.67402 0)
(9.98211 0.121589 -1.43872e-20)
(5.13452 2.55749 -3.06915e-20)
(6.93134 -0.417844 0)
(9.3328 -2.10034 1.56167e-22)
(6.64018 0.569965 0)
(6.26475 -1.78755 3.96486e-20)
(9.99931 -3.83733 0)
(8.33826 0.0821834 -7.21301e-22)
(11.3873 -0.61696 -1.49719e-20)
(1.7267 -9.76943 1.38212e-20)
(-13.2083 6.15462 6.76101e-20)
(12.8124 -0.0731338 -1.49915e-22)
(8.97663 -4.31079 1.82196e-20)
(8.85649 -2.64712 1.72692e-20)
(7.45998 -1.70672 0)
(-5.88215 5.81319 -3.36489e-20)
(10.9812 -3.53051 -3.69095e-21)
(-6.4062 6.9848 -4.08592e-20)
(8.84217 -0.645509 3.24723e-23)
(7.26413 -2.80019 0)
(11.1871 0.106069 -7.91215e-23)
(-13.7644 8.31387 0)
(-7.63552 0.574125 2.59602e-21)
(6.82745 -3.93605 1.14016e-20)
(-1.04464 -0.899682 0)
(10.0521 -2.85539 5.59248e-21)
(11.257 -10.8796 0)
(13.5811 4.44117 0)
(8.3589 -3.99986 -2.17153e-20)
(7.51919 1.4419 1.38822e-20)
(7.16623 -7.33074 0)
(9.02238 0.819588 -8.95694e-21)
(16.8112 -2.39623 4.56889e-20)
(-11.0561 4.44681 1.16045e-19)
(13.9232 6.28962 0)
(10.6773 0.01065 0)
(-10.0128 8.83721 -7.95045e-20)
(9.34549 -0.654947 0)
(12.1338 0.311913 0)
(3.42347 5.60833 2.21012e-21)
(10.1631 -2.17306 -2.60677e-20)
(8.68575 -2.19006 1.44988e-20)
(13.8508 -2.81648 1.84099e-21)
(-7.87945 7.36659 7.5072e-20)
(9.95464 0.292935 7.37564e-21)
(7.68051 -1.84881 0)
(10.8694 2.16773 -2.61066e-21)
(7.16066 -1.05722 0)
(11.0518 0.0508493 0)
(9.99857 0.6169 0)
(10.8992 0.868972 -7.50532e-22)
(9.31323 -0.250778 1.34491e-20)
(13.4582 -0.571433 -1.3021e-21)
(7.88859 -1.9175 0)
(1.11932 -0.297248 -4.71748e-20)
(10.3098 5.07262 4.34522e-21)
(9.11751 -3.37056 1.74316e-21)
(7.87104 0.559369 6.01838e-21)
(11.1924 -4.34811 1.77795e-20)
(9.88591 0.089377 -1.24615e-20)
(-8.22117 -1.06321 0)
(13.1373 0.459356 0)
(7.58893 4.4733 0)
(6.43279 -2.83439 -2.93448e-20)
(8.01409 -12.9828 -1.68985e-20)
(0.205203 -0.872523 0)
(10.932 2.13445 0)
(14.4253 -0.0105482 6.82806e-21)
(9.49326 -0.107975 -3.82305e-21)
(9.65066 2.87786 1.4636e-20)
(10.5516 -4.34679 0)
(-8.08637 14.0134 -1.99157e-20)
(11.3898 0.331562 1.76994e-21)
(6.99269 -2.07055 -2.72625e-20)
(10.8752 0.386933 -4.36905e-21)
(11.5192 2.66402 5.51903e-21)
(15.2083 -8.2071 1.9799e-20)
(6.33153 -2.78523 5.05366e-20)
(9.91642 -8.9499 1.62e-20)
(9.61331 -1.43978 4.72282e-22)
(9.98152 0.0531144 -3.64119e-21)
(8.02478 -3.94323 -5.45597e-21)
(-2.7133 4.94304 2.69001e-20)
(9.34849 10.9562 -3.2102e-21)
(8.77485 -4.16032 9.01734e-21)
(13.3985 1.15509 0)
(12.0843 7.27411 1.25506e-21)
(10.8105 0.0290759 -1.26535e-20)
(14.5298 2.80797 5.56227e-21)
(6.84791 -1.89331 -2.47218e-20)
(9.07491 -3.2628 -1.83513e-20)
(10.5822 -0.128098 4.01123e-20)
(13.1739 -0.344387 -2.30515e-20)
(13.4549 -0.763256 3.95541e-21)
(13.4892 -0.633859 -9.52251e-21)
(5.90711 -0.866443 -5.25732e-20)
(10.722 0.0484659 -1.04691e-20)
(5.86116 -1.16721 0)
(3.06504 -10.7639 -4.4092e-20)
(10.7635 0.0610202 3.26819e-20)
(7.25767 0.0998952 9.67275e-23)
(-3.5204 2.82409 0)
(9.32493 -4.30881 0)
(10.2121 2.05233 1.29733e-20)
(5.3937 -0.79686 3.24242e-20)
(13.755 -12.3004 -3.92359e-20)
(10.3229 -3.58183 -1.06096e-20)
(11.0996 -2.25368 2.52931e-20)
(15.9345 1.93099 0)
(10.2501 2.21087 7.09529e-21)
(8.38495 -6.54101 -6.64938e-22)
(12.5157 4.44531 3.0277e-21)
(9.85517 -1.47828 -2.14764e-20)
(-7.86179 6.89051 -1.22673e-19)
(10.8872 -3.62994 -1.60077e-20)
(12.9283 -3.98419 5.93654e-21)
(11.3359 5.47902 0)
(7.14249 -1.52269 1.29453e-21)
(9.30752 0.156427 3.33684e-21)
(8.75274 -0.0971859 -1.01977e-22)
(5.18949 -2.53339 4.64069e-20)
(9.72856 -1.48803 3.23138e-20)
(7.15473 -0.0833794 -2.80392e-21)
(-11.9451 4.19581 -6.65645e-20)
(10.0999 -0.74057 -1.42154e-21)
(10.9215 0.129014 9.36852e-21)
(-1.19363 8.94194 -1.23239e-20)
(12.0623 4.42934 -2.40996e-22)
(2.75775 0.243482 -9.4777e-20)
(6.74437 -3.23767 -1.59339e-20)
(8.62762 -0.0531034 0)
(9.68721 -1.33298 -2.50479e-21)
(-0.526059 1.4707 -4.82159e-20)
(6.70367 -0.797292 4.78365e-20)
(11.5457 -0.58231 0)
(9.17941 -3.78778 9.38754e-22)
(6.14248 -2.44529 1.13543e-20)
(9.93321 0.205887 -3.14269e-20)
(-13.4821 7.36369 -7.2483e-20)
(7.81212 -10.596 -3.46679e-20)
(11.0781 -1.20036 1.42063e-20)
(11.1762 0.292421 6.70236e-21)
(8.8181 -4.05555 -2.32381e-20)
(12.5093 -1.21882 1.62033e-21)
(8.38488 -13.4143 -4.82109e-20)
(10.5679 0.0414666 1.18717e-20)
(10.1866 -0.368761 -1.04329e-20)
(10.5951 0.546075 -2.70345e-22)
(11.9746 -0.121409 -2.34216e-20)
(5.95433 -2.52468 -2.19161e-20)
(9.61083 -1.54772 0)
(0.0340979 -7.06002 4.36487e-20)
(10.6181 0.092719 2.3972e-21)
(5.93242 -1.81284 -1.35025e-20)
(12.4561 0.096986 -1.38809e-22)
(10.8172 -2.29545 -1.49428e-20)
(10.016 0.130612 -2.44628e-20)
(10.4996 1.57588 3.92726e-21)
(-13.4562 7.88388 -7.32432e-20)
(12.0206 0.223772 0)
(-4.58265 -1.56073 4.30215e-20)
(12.9655 1.036 7.80158e-21)
(7.28273 -2.72114 0)
(10.6127 0.475654 7.40137e-21)
(12.9969 1.22486 1.02221e-20)
(11.8704 0.106737 1.16926e-24)
(12.0214 -4.70601 -5.19035e-21)
(13.0432 7.7537 0)
(9.18081 1.87035 2.56268e-20)
(7.86616 -0.625164 3.80908e-21)
(8.61846 -4.05728 1.89284e-20)
(9.98675 -1.0342 0)
(7.441 1.40351 -4.01876e-20)
(9.92395 -5.34792 4.27829e-21)
(12.5938 6.82834 -1.10143e-20)
(5.95193 -0.924989 5.14327e-20)
(13.8128 0.0530226 1.76006e-21)
(-13.776 6.46161 5.62156e-20)
(9.55923 -0.569238 -2.15531e-20)
(12.2379 -3.08123 -1.41091e-20)
(8.89259 0.699692 -1.88521e-20)
(12.4581 -0.0650598 0)
(9.95951 0.125674 -1.37991e-20)
(-2.26465 -0.674331 -9.26553e-21)
(-1.62378 1.65905 0)
(12.8826 -5.94102 0)
(8.75665 -0.0807284 0)
(4.17493 -2.03252 0)
(10.2563 1.52389 0)
(5.69357 -0.801168 0)
(4.90918 -5.25638 7.48686e-22)
(16.1411 -2.83814 -2.17316e-20)
(12.6389 1.25566 0)
(8.3375 1.38863 3.80356e-20)
(13.7972 -5.4757 -3.209e-20)
(10.3959 1.05386 3.20017e-22)
(0.911654 3.26528 -2.2994e-20)
(5.81253 0.313023 -1.31594e-22)
(-14.0477 7.79026 6.26043e-20)
(10.6734 0.0081741 -1.04905e-20)
(12.3121 -0.329715 8.88607e-22)
(10.1244 1.50343 -9.00889e-21)
(9.40466 0.92964 -2.55225e-20)
(10.016 4.71284 -1.03799e-20)
(17.1571 4.7028 0)
(-1.86969 -4.41263 1.26363e-21)
(6.33455 -1.8682 -4.34203e-20)
(10.0146 0.0567926 -4.17888e-20)
(11.128 -3.53581 -2.42517e-20)
(11.5265 -0.106357 3.61476e-21)
(12.7467 -3.50776 7.9963e-21)
(10.5869 -1.837 -3.07033e-21)
(10.1348 -2.80923 -1.95555e-20)
(10.0874 0.921434 9.86566e-21)
(13.1464 9.10548 0)
(3.01017 5.58129 2.46822e-21)
(8.52716 0.277089 -5.80689e-21)
(11.7548 -2.39879 0)
(9.32061 16.1448 0)
(9.20643 -4.21173 -7.75716e-23)
(-12.4676 5.04071 5.84418e-20)
(6.35436 -7.0839 -1.03834e-20)
(20.1181 -6.19152 0)
(9.43858 -0.357482 -2.77896e-20)
(9.10432 1.05046 -4.90555e-21)
(-1.02241 -6.90167 2.43185e-20)
(12.0594 0.90077 6.11923e-21)
(-14.4669 7.79116 0)
(-2.85067 -3.02562 2.95279e-21)
(11.8341 1.01426 0)
(6.03981 -1.89247 -1.86286e-21)
(14.5246 -1.43271 -6.97642e-21)
(10.0723 0.14285 -3.97095e-23)
(11.7621 2.98221 -5.81252e-21)
(13.7647 5.48944 -1.7509e-21)
(8.6415 -2.53631 3.54355e-20)
(4.60892 -8.13767 0)
(10.0277 -10.7513 -2.95322e-20)
(10.8831 -10.7317 0)
(12.8652 1.14702 -2.02343e-21)
(-1.76245 -6.75537 4.39963e-20)
(10.3029 -5.36416 1.91418e-20)
(-4.63534 0.774048 -5.89763e-20)
(2.91501 -5.60753 -1.04964e-19)
(7.72119 -3.61098 -2.18618e-20)
(6.49412 -1.88635 -2.5409e-20)
(10.5556 -2.35172 2.19019e-22)
(10.1631 -9.67816 2.40718e-20)
(6.01338 -2.57628 1.79565e-20)
(6.76227 -2.04391 2.77321e-20)
(7.68604 -12.0309 2.07861e-20)
(10.6327 -9.57013 -1.30727e-20)
(9.06676 -2.9303 1.81609e-20)
(-6.5806 -0.314501 5.90101e-20)
(12.7238 -0.285502 1.39346e-21)
(14.2668 -6.64735 2.98462e-20)
(11.5793 1.8557 -2.28917e-21)
(10.9409 -3.02235 0)
(4.14346 -2.73953 -1.10782e-19)
(10.4895 0.00738472 -1.44982e-20)
(10.0044 0.651267 0)
(12.7584 1.09265 0)
(8.85907 -9.8718 -2.16122e-20)
(13.4881 -3.38102 -1.87162e-20)
(11.8833 0.838725 -6.6139e-22)
(10.1462 -2.11728 3.42502e-20)
(9.98151 4.56822 9.60737e-21)
(9.61234 -0.0792194 2.6764e-20)
(-1.95514 -5.32792 -2.96894e-21)
(9.0591 2.97212 0)
(6.92342 -2.19305 2.65845e-20)
(-0.85786 6.04336 8.44832e-21)
(2.65164 -4.42705 7.95421e-20)
(8.43967 -3.25471 6.0124e-21)
(9.37114 -4.41361 -7.04315e-21)
(10.5366 -0.0953475 1.36975e-20)
(6.90776 11.316 5.10537e-20)
(9.5494 -2.39851 3.26744e-21)
(-3.17491 -5.16423 -3.47033e-20)
(11.8411 0.82896 5.81615e-22)
(9.61156 0.27656 1.09027e-20)
(5.83655 -1.14355 -2.11537e-20)
(9.36648 -0.51958 1.73628e-20)
(13.6563 -0.0424981 0)
(11.9372 1.55348 1.10113e-21)
(9.77064 0.227392 2.42283e-21)
(7.43477 -1.54301 -8.53508e-21)
(9.89664 7.87713 5.89685e-22)
(8.95293 -2.86942 1.32898e-20)
(9.53975 0.0235958 4.83406e-21)
(6.98224 0.557932 -3.08696e-20)
(12.3216 -2.48957 0)
(-4.03114 -2.54643 -1.2304e-19)
(11.0403 0.405168 5.92354e-21)
(9.129 1.39078 0)
(7.14203 0.0562629 1.77728e-20)
(11.9649 0.907697 0)
(8.33046 8.18408 1.3277e-20)
(12.6973 -0.263156 0)
(3.10764 5.35025 0)
(12.8649 0.198981 4.9448e-21)
(11.629 0.649327 1.34491e-21)
(14.0494 0.142473 -1.60457e-20)
(9.55824 0.786404 -1.1642e-20)
(7.54806 4.75474 -8.35536e-21)
(9.88826 0.492203 -4.54647e-21)
(10.4103 1.56054 0)
(11.0735 -2.81575 -9.30685e-21)
(12.0585 0.525754 1.60513e-21)
(5.88262 -1.23143 4.74246e-21)
(10.9566 -2.998 0)
(14.5429 2.62896 8.63584e-21)
(10.9244 7.7142 3.84019e-22)
(12.9736 -0.181338 5.36381e-21)
(14.7077 -8.47504 0)
(5.25263 5.30524 6.51205e-20)
(10.2735 0.892008 0)
(9.95779 -1.99391 -1.52207e-21)
(-1.87476 1.46552 0)
(16.6214 -1.95066 0)
(7.46589 -7.7936 0)
(9.82875 -3.79883 0)
(-2.76924 10.782 -8.87723e-21)
(2.68435 -8.646 -1.38351e-20)
(9.27137 -0.250537 -2.00985e-20)
(1.67251 -10.0288 -1.95157e-20)
(6.44586 -2.69822 0)
(4.59254 -12.1061 -1.74272e-20)
(-2.71598 1.38435 -7.52093e-20)
(7.9374 -3.71454 0)
(7.27428 -2.53341 -2.90517e-20)
(8.00837 -2.89642 1.12708e-22)
(11.4916 1.77028 5.65913e-21)
(11.6024 -4.22508 8.46443e-21)
(9.26624 0.844122 0)
(10.5618 -3.59932 0)
(16.0724 -0.239357 9.39169e-21)
(-1.80735 8.09175 4.21766e-21)
(11.0392 -4.37848 -2.17658e-21)
(8.61084 -9.74009 -1.96997e-21)
(9.98674 0.0388669 1.02086e-21)
(8.8073 -1.0183 -9.46197e-23)
(10.0965 0.908287 1.40474e-20)
(-3.08548 -3.99236 4.15404e-20)
(9.28923 -2.70613 0)
(-0.880945 1.00595 0)
(12.4229 -1.04007 0)
(8.07308 0.268721 0)
(8.6236 -1.69043 1.24828e-20)
(12.7476 -0.783494 0)
(1.32138 7.40324 1.19368e-19)
(14.0944 -8.95212 -4.74974e-22)
(6.63503 -2.10166 -4.1733e-20)
(13.6355 -5.14826 1.2443e-20)
(1.81997 -7.85411 -2.48365e-20)
(3.97869 5.42715 -4.7688e-20)
(10.7816 0.119533 3.82988e-21)
(-5.05417 -4.38237 -3.92474e-20)
(-1.80317 -4.76446 3.60615e-20)
(13.0216 0.233289 0)
(11.6501 -2.28236 0)
(16.2131 1.07067 0)
(10.7739 -2.40492 7.98302e-21)
(11.5453 -10.5393 0)
(9.19413 2.89617 0)
(10.0215 0.0455899 0)
(8.7774 -2.18925 1.36063e-20)
(10.4152 0.947486 -1.32615e-20)
(10.4838 -2.69603 0)
(6.54329 -4.75885 -4.72181e-21)
(9.85833 1.02798 -1.36568e-20)
(12.4414 4.2433 -6.7287e-21)
(8.04812 -3.69416 1.84507e-20)
(9.55097 3.27701 1.00147e-22)
(-1.33412 -4.1425 -5.64261e-21)
(1.74149 18.1567 5.11695e-20)
(1.64931 -0.129846 -3.93449e-21)
(11.6754 0.701197 -1.64083e-21)
(11.2332 -3.55413 -3.48514e-21)
(9.04744 0.370308 -1.86831e-20)
(10.4574 0.0402673 0)
(6.61279 -2.34612 1.02596e-20)
(9.702 0.341553 1.94077e-20)
(8.88565 -6.4903 4.32352e-21)
(10.5408 -1.73351 -8.91344e-21)
(5.51762 -0.919852 -3.52694e-20)
(11.6989 0.56873 2.3947e-22)
(14.9241 1.09195 1.56784e-20)
(10.0557 0.451159 0)
(12.4471 5.81199 2.48353e-21)
(21.6396 -7.22688 -2.89287e-20)
(2.77015 -0.0921428 3.49168e-21)
(-5.19857 -1.09219 -2.71048e-20)
(9.84807 0.0371666 1.049e-20)
(10.4607 -1.59923 -5.14006e-22)
(13.4205 0.0467916 -1.29789e-21)
(12.9427 -0.545406 0)
(10.4058 -3.94636 0)
(7.55043 -3.57792 2.24366e-20)
(-13.762 7.2306 7.82973e-20)
(8.59005 0.0151886 -1.52141e-23)
(9.75806 0.333274 3.87574e-20)
(12.9693 6.03152 -7.63337e-21)
(7.38016 1.19436 0)
(8.92411 0.42828 0)
(8.05532 -1.79891 -8.87495e-23)
(12.5545 0.23813 7.68129e-21)
(9.75801 2.95019 1.98116e-20)
(13.0574 -0.981687 0)
(10.7873 -0.266664 0)
(10.1934 -3.09568 2.83906e-20)
(9.85621 -0.928515 1.71551e-20)
(0.954073 2.91902 2.50122e-21)
(8.43678 0.400362 0)
(18.1171 -2.48265 1.32046e-20)
(9.34923 -5.62094 -2.38776e-21)
(-1.78105 2.8078 -6.28241e-20)
(9.79778 -0.167633 -2.27978e-20)
(15.6843 -2.78882 0)
(13.9093 -3.83778 1.49284e-20)
(16.0704 -9.28136 -5.59857e-20)
(0.856559 2.40971 0)
(8.8527 0.274528 -4.86985e-21)
(9.5138 0.563275 -1.25848e-20)
(8.61722 0.138248 -2.05407e-24)
(14.831 -2.27673 3.97874e-21)
(9.96087 10.1364 1.90539e-20)
(10.7373 0.075771 0)
(5.48154 -1.90137 -1.89466e-22)
(12.9956 4.70071 5.74965e-21)
(17.3563 -3.11362 -6.20573e-20)
(10.1746 1.49107 1.06681e-20)
(5.13971 -7.97409 1.13985e-21)
(9.46752 0.0195892 -4.9916e-20)
(7.44283 0.0997644 1.87124e-21)
(-2.50951 13.0043 7.49907e-20)
(8.62554 -2.01844 0)
(19.7638 0.97621 -1.11616e-20)
(5.87356 -2.64465 1.45039e-20)
(11.1547 -0.611253 -2.83276e-20)
(9.80673 0.229259 -1.75827e-20)
(9.35311 -1.91306 7.7733e-22)
(8.34908 -0.872968 4.42421e-20)
(12.5786 -0.24074 -1.66768e-21)
(8.88664 0.487104 1.06848e-20)
(9.42866 -2.25214 6.13045e-22)
(13.4459 -2.48327 -2.0707e-20)
(12.3255 4.76807 -4.95301e-21)
(14.1277 -12.1064 3.07067e-20)
(10.4503 -0.159629 0)
(15.4887 6.18257 0)
(4.9721 -3.1289 0)
(6.61117 -1.92535 3.20042e-20)
(9.72704 0.075109 -2.80436e-20)
(9.02313 1.10171 0)
(7.63523 -1.64708 -2.55039e-20)
(8.93513 0.994455 0)
(8.66075 -1.51521 -2.06282e-20)
(6.58026 -1.78828 2.27876e-21)
(9.19534 -2.53097 -1.98665e-20)
(10.8838 0.0708077 0)
(9.6189 0.207104 0)
(9.08943 1.38925 -6.31443e-21)
(12.5353 1.05433 1.74695e-22)
(11.8071 -0.541615 6.02047e-21)
(11.4091 7.99351 -9.97657e-22)
(13.3197 -1.64167 0)
(8.50441 -3.1491 -1.0019e-20)
(-2.81477 3.26337 0)
(3.42138 2.92461 -1.68612e-20)
(13.8179 5.43568 0)
(10.5105 -1.57773 1.13205e-21)
(5.93301 -0.719757 1.36379e-20)
(7.66409 -0.713047 1.40133e-20)
(9.83226 0.457224 6.26986e-21)
(14.0316 -9.37612 -7.48406e-20)
(9.72248 -1.06259 4.32115e-20)
(10.2839 1.53809 -3.42018e-22)
(11.7903 -3.39084 -9.67721e-21)
(9.81742 -2.32714 -1.02873e-20)
(-2.17673 2.06277 3.07139e-20)
(12.7635 1.81325 0)
(9.85792 0.254556 5.847e-23)
(7.74934 -1.92378 0)
(2.02817 12.264 -9.02582e-20)
(8.61002 -3.17212 -5.27879e-21)
(8.40558 -0.732143 -1.45559e-20)
(8.46878 0.0232123 -2.33949e-24)
(12.285 0.0223864 -4.96127e-21)
(8.37796 -0.235644 2.96329e-20)
(12.4679 -0.509645 -1.14878e-20)
(10.6259 -3.77068 0)
(-7.24414 11.4448 0)
(11.8461 0.147481 3.28107e-21)
(13.8687 0.121331 0)
(9.58034 0.909598 -6.31454e-21)
(8.3643 5.34819 -1.24902e-20)
(5.9589 -6.01663 -2.17888e-21)