/*--------------------------------*- C++ -*----------------------------------*\
| =========                 |                                                 |
| \\      /  F ield         | OpenFOAM: The Open Source CFD Toolbox           |
|  \\    /   O peration     | Version:  2306                                  |
|   \\  /    A nd           | Website:  www.openfoam.com                      |
|    \\/     M anipulation  |                                                 |
\*---------------------------------------------------------------------------*/
FoamFile
{
    version     2.0;
    format      ascii;
    arch        "LSB;label=32;scalar=64";
    class       volVectorField;
    location    "1.8";
    object      U;
}
// * * * * * * * * * * * * * * * * * * * * * * * * * * * * * * * * * * * * * //

dimensions      [0 1 -1 0 0 0 0];

internalField   nonuniform List<vector> 
13486
(
(1.51914 -0.286214 5.40053e-19)
(1.70333 0.207883 2.52941e-19)
(2.08155 0.00842857 0)
(0.988913 -0.537456 -1.88257e-19)
(2.43635 -0.536727 1.61407e-19)
(2.31203 0.0320939 3.23968e-21)
(2.71956 -0.409833 4.95914e-21)
(2.07627 -0.76322 -2.7754e-19)
(1.99469 -0.429882 0)
(2.0489 0.573871 0)
(1.60559 -0.931849 -1.52709e-19)
(2.29318 0.0776318 0)
(1.399 -0.494176 -5.34274e-19)
(2.45041 0.441547 3.42419e-20)
(2.56657 -0.30773 8.25064e-20)
(2.01106 0.57456 -1.4793e-19)
(-0.636442 -0.241438 3.07934e-19)
(0.36321 0.294853 -6.62253e-19)
(2.25698 0.00150669 2.76351e-21)
(1.66042 -0.107861 -5.46265e-19)
(1.4389 -0.841698 -7.12337e-20)
(1.41585 -0.507679 6.89934e-19)
(1.72065 0.21345 -2.02129e-19)
(2.01412 -0.428177 0)
(2.0916 0.454496 4.82872e-20)
(2.0041 -0.388585 -4.21588e-20)
(0.861345 -0.441092 1.18122e-19)
(2.09475 -0.0493717 1.46e-19)
(2.05022 -0.0191651 0)
(1.98266 -0.141853 -7.66918e-20)
(1.34916 -0.76076 -5.00957e-20)
(2.64216 -0.0284225 -9.32366e-20)
(2.26178 -0.308536 1.44347e-19)
(1.99636 -0.0292531 0)
(2.08541 -0.736624 0)
(1.93199 0.018705 -8.55015e-21)
(1.99294 0.0249583 3.45128e-20)
(1.598 -0.751435 2.72179e-19)
(1.95061 0.0545412 4.7377e-21)
(1.99198 -0.260736 2.75069e-19)
(2.56966 -0.863452 0)
(0.953788 -0.477067 -6.19833e-19)
(2.00567 -0.0549382 0)
(2.09152 0.377865 -2.34323e-19)
(2.1011 0.370875 9.67415e-20)
(2.3014 0.0910194 9.68509e-20)
(2.39771 -2.36161 1.50935e-18)
(2.00635 -0.0044127 3.99315e-22)
(1.99765 0.0221082 -2.64867e-20)
(2.3186 -0.0510784 8.8549e-20)
(1.98386 0.0366499 3.10874e-19)
(1.9467 0.00726866 0)
(2.32375 0.209729 -1.34182e-19)
(1.72872 -0.656383 -3.98011e-19)
(0.777199 0.0837426 0)
(2.40748 -0.543306 -1.10875e-19)
(2.01124 0.0302564 -1.97322e-20)
(1.95433 0.0245295 1.14174e-20)
(2.25606 -0.308586 1.68198e-19)
(2.02699 0.059015 0)
(1.65709 -0.867642 -1.56471e-19)
(1.97741 0.0539259 0)
(2.75788 -0.714084 -2.88365e-19)
(1.42835 -0.840935 -8.79701e-22)
(1.6563 -0.44531 0)
(2.02389 0.0412929 1.61395e-20)
(1.0163 -0.536036 -1.78728e-19)
(1.49241 -0.0430587 1.82692e-19)
(1.99566 -0.45155 -1.57296e-19)
(1.97205 0.0204353 -5.95109e-21)
(0.820369 -0.418929 2.05019e-19)
(0.622125 0.158945 -1.26865e-20)
(1.97344 -0.136991 2.04515e-19)
(0.301673 1.51654 -1.01978e-18)
(1.99796 0.00867127 4.42875e-21)
(2.02932 0.0321827 4.51314e-21)
(2.02423 -0.00617375 -1.15937e-20)
(2.57885 -0.335 -3.39941e-20)
(1.87758 -2.22245 -4.72103e-19)
(1.81298 0.0586855 0)
(1.9989 -0.0101934 1.2123e-21)
(1.67809 0.280653 -1.60849e-20)
(2.71068 -0.878171 -3.27636e-20)
(2.10955 0.00922428 -1.68726e-20)
(1.51319 -0.300049 -1.05772e-18)
(1.4896 1.45003 0)
(1.93605 0.184267 3.66346e-20)
(1.99296 0.0377856 -4.7215e-19)
(1.89996 0.173041 -2.05115e-19)
(1.93835 0.806495 -1.5784e-19)
(2.63287 0.191249 -3.89619e-20)
(2.20472 -0.650099 -1.4436e-19)
(1.58588 -0.388426 1.39285e-19)
(1.69546 0.0152187 1.41936e-20)
(1.92445 -0.620365 6.36265e-20)
(2.00265 -0.0161542 3.12851e-22)
(1.00159 -0.493133 0)
(1.44454 -0.757878 8.58966e-20)
(2.01089 -0.263574 -5.24975e-19)
(-0.298773 -0.708636 4.22409e-20)
(2.10775 0.0105 0)
(2.41474 0.444286 9.13559e-21)
(1.49331 -0.774035 -7.96611e-22)
(1.94829 0.0243099 -1.41542e-20)
(1.45028 1.38961 0)
(-0.258008 -0.827196 4.31279e-20)
(1.97884 0.0739555 7.04192e-22)
(1.92971 0.0450297 1.17414e-20)
(2.15355 -2.32287 8.06276e-19)
(1.92894 -0.87596 0)
(1.3854 -0.663604 0)
(2.79072 -0.174316 -5.20471e-20)
(1.73609 -0.638413 2.95576e-21)
(2.06193 0.0178603 1.34878e-21)
(1.1875 -0.156345 0)
(1.32306 -0.653601 -2.37297e-19)
(2.0816 0.463128 0)
(2.02213 -0.0308572 0)
(1.97468 -0.139499 0)
(1.99639 0.0192869 1.64059e-20)
(0.627334 0.741728 1.88404e-19)
(1.63685 -0.862685 0)
(1.89155 -0.56411 0)
(1.96836 0.0573941 -1.41776e-20)
(1.97408 -0.713449 0)
(1.94886 0.0131017 0)
(2.25353 -0.258799 5.97734e-21)
(2.14998 0.0503272 9.83834e-20)
(1.9804 0.0118403 -1.09523e-20)
(1.64178 -0.369444 -2.6113e-20)
(1.95857 0.0234247 1.71442e-21)
(2.47993 -2.35802 -3.68067e-19)
(3.24338 0.158357 1.60934e-18)
(-0.0788767 -0.0549675 1.27596e-18)
(2.00993 0.0184439 -5.11929e-20)
(1.92554 0.346213 -2.26524e-19)
(0.800925 0.590128 -1.57267e-19)
(1.94701 -0.869571 0)
(1.99885 0.0153652 -4.64468e-21)
(2.09478 -0.618601 -1.00151e-19)
(2.33909 -0.211653 -1.67911e-19)
(2.35183 0.227307 1.13773e-19)
(2.47714 0.0721995 0)
(1.8182 0.0521447 0)
(2.065 0.00123919 4.87031e-21)
(2.29089 -0.779621 -3.00517e-19)
(2.09 0.161316 -2.86207e-20)
(0.422673 1.41408 0)
(2.33935 -0.0757537 0)
(2.0167 0.0234481 0)
(2.00578 0.00928554 4.7315e-21)
(2.5782 -0.430413 0)
(2.00918 -0.00625278 -1.27254e-21)
(1.65751 0.283092 -1.36684e-19)
(2.17022 0.21785 0)
(2.10642 0.0239932 0)
(1.74169 -0.797252 0)
(0.832393 -0.701458 1.39169e-20)
(1.83223 -0.7435 5.66192e-19)
(2.0273 0.0772357 4.0777e-20)
(2.34826 -0.00380188 5.19242e-20)
(1.83907 -0.723323 -8.60061e-19)
(3.05211 0.279806 -6.30989e-20)
(0.84853 -0.408476 2.72437e-19)
(1.95665 0.0210983 0)
(2.52671 0.395054 -7.64898e-20)
(2.36534 0.419475 -1.03119e-20)
(0.599255 -0.227868 -6.70454e-19)
(2.08066 0.152967 7.40501e-20)
(-0.112141 0.0380661 3.51628e-19)
(3.66765 -0.0465656 1.22117e-19)
(2.17643 0.202321 7.65744e-20)
(1.9858 0.108955 -3.83896e-19)
(2.37554 -0.143341 8.86002e-21)
(2.01372 0.0193363 1.31923e-21)
(1.61026 -0.727087 0)
(2.52642 0.740469 1.19477e-19)
(2.3746 -0.262972 2.43989e-19)
(1.97413 0.0430339 -5.15501e-19)
(2.4593 0.0860063 0)
(2.05782 -0.310279 5.53583e-19)
(2.04471 0.0187344 2.53703e-21)
(2.43735 -0.0818005 -4.55801e-21)
(0.740129 -0.36534 0)
(2.14854 0.0587156 4.37231e-20)
(2.16093 -0.0422392 -6.69852e-20)
(2.02338 0.00825779 -1.19132e-21)
(2.01056 -0.0668492 -2.50976e-20)
(2.58678 -0.837742 0)
(1.18502 -0.572461 -3.05242e-19)
(2.00991 0.0309094 0)
(2.07146 -0.014103 0)
(1.94043 0.027553 0)
(1.41194 0.687862 -2.8908e-19)
(1.91669 0.0179573 0)
(1.57152 -0.925723 -4.00933e-20)
(1.63474 -0.392996 5.90671e-20)
(2.26921 -0.0203871 2.73307e-20)
(1.18842 -0.586972 -1.18299e-19)
(2.48123 0.367647 -3.50729e-20)
(1.36538 -0.734691 5.18992e-20)
(2.18472 0.070561 -2.92874e-21)
(1.47809 -0.713619 -3.14709e-19)
(1.842 -0.800673 3.74635e-20)
(2.04774 0.0570379 -5.02123e-20)
(1.92296 0.0386629 3.58207e-21)
(0.64107 -0.661029 -1.73671e-19)
(1.91037 -0.0859384 4.16152e-19)
(1.89414 0.0310477 0)
(2.12033 0.0558374 0)
(2.03271 -0.0524022 9.08328e-20)
(1.87415 -0.370072 6.15135e-20)
(1.67771 -0.08936 4.99901e-19)
(1.95205 0.0539183 7.31625e-22)
(2.30588 0.0826917 -3.73351e-21)
(1.8057 -0.0834115 4.04626e-21)
(2.00716 -0.138187 0)
(1.93907 0.80201 4.12665e-19)
(1.66381 -0.408744 0)
(2.96281 -0.00906502 0)
(-0.612942 -0.327307 -6.32367e-19)
(2.34369 -0.0886885 0)
(2.07706 -0.613952 2.32507e-19)
(2.29841 0.0204413 0)
(2.27901 0.278451 -2.33889e-20)
(1.3728 -0.649736 1.9213e-19)
(2.42605 0.113603 -3.48407e-21)
(1.48029 -0.682307 2.55313e-20)
(1.85416 -0.0215828 1.8394e-21)
(1.94721 0.172048 -1.41857e-21)
(2.05735 -0.298556 -1.77738e-19)
(1.39922 -0.224053 1.08935e-19)
(2.32907 -0.228776 2.11839e-19)
(0.986677 -0.483456 2.12232e-19)
(1.50963 -0.793059 0)
(1.15442 -0.561956 2.2766e-20)
(2.00446 -0.0829936 4.05743e-20)
(2.06179 0.00748146 -9.04904e-21)
(1.00866 -0.488669 6.14894e-19)
(2.3502 -0.025013 0)
(2.22306 -0.329606 0)
(1.98844 0.0568308 5.85757e-19)
(2.04041 0.0145514 0)
(1.014 -0.50519 2.05661e-19)
(1.95772 0.064055 1.34666e-20)
(1.82958 0.0403777 0)
(2.28232 -0.0176478 -3.8471e-20)
(1.97653 -0.285051 1.41251e-19)
(-1.14145 1.36278 2.44279e-18)
(2.05473 0.364183 0)
(1.57895 -0.784243 -3.88425e-20)
(1.15477 -0.127153 7.84323e-20)
(1.11811 -0.547766 2.99948e-19)
(1.95634 0.0620923 0)
(1.86369 0.00846219 -2.85525e-23)
(1.64016 -0.734558 2.00686e-20)
(2.63249 -0.0127721 7.06033e-20)
(1.7845 -0.0673464 -5.11463e-21)
(0.761479 -0.66999 -1.46979e-20)
(2.20056 -0.331425 9.99758e-20)
(1.82851 0.155897 0)
(1.95115 0.0680103 -4.5114e-22)
(2.57349 -0.314276 -1.95261e-19)
(1.63468 -0.734127 -2.50421e-20)
(2.33287 -0.764307 -1.66734e-19)
(0.899895 -0.436379 0)
(1.87217 -0.0226913 -9.86816e-21)
(1.39347 -0.769835 -7.32996e-20)
(2.03327 -0.009104 -2.41856e-19)
(1.73691 0.659908 0)
(1.63951 0.757306 2.00279e-19)
(1.98499 0.0877408 -1.39723e-19)
(2.0154 -0.143744 0)
(2.28138 0.146575 7.96974e-20)
(1.29607 -0.625509 2.54795e-19)
(1.98802 -0.264818 -7.86469e-20)
(1.8566 0.00473899 0)
(1.3468 -0.187421 0)
(1.93455 0.0507813 9.35967e-21)
(2.10197 0.173088 5.60978e-20)
(1.38239 -0.192643 2.10078e-20)
(2.15785 -0.204048 -2.01451e-19)
(1.95575 0.0726686 3.04849e-19)
(2.04097 -0.594183 -9.47592e-20)
(1.63548 -0.832596 1.82221e-19)
(0.677127 -0.798915 2.56085e-19)
(2.36187 -0.200878 2.04569e-19)
(1.93563 -0.00701644 1.43645e-20)
(2.25995 0.267461 3.77744e-20)
(2.03375 -0.0299856 0)
(1.49859 -0.801959 0)
(1.99524 0.0604961 -2.0278e-20)
(1.35851 -0.654827 2.33347e-19)
(1.9841 0.0381502 -5.05609e-20)
(1.95804 -0.049833 3.63698e-20)
(1.99924 -0.0521744 0)
(2.16273 -0.00871009 -6.39792e-20)
(2.23185 0.140785 -6.68671e-20)
(1.90237 0.0559873 -2.7958e-19)
(2.68529 -0.574164 4.05819e-20)
(3.07609 0.450078 7.15523e-20)
(0.629783 -0.589958 -4.58155e-20)
(2.10314 0.174924 -4.82419e-20)
(2.62195 -0.0521777 8.84362e-20)
(2.00033 0.024788 -5.74167e-21)
(1.51628 -0.696213 0)
(0.400522 -0.0375473 0)
(2.30778 -0.0133659 8.09044e-20)
(1.93918 0.168215 -2.93394e-20)
(1.99901 0.0265419 0)
(2.6556 1.57193 -2.11003e-18)
(0.852259 -0.456191 0)
(2.42386 0.751343 -2.45168e-20)
(2.78048 -0.154427 -4.88833e-20)
(1.89893 -0.883278 0)
(1.91559 0.33203 -1.39038e-19)
(1.97062 0.0689495 2.95918e-20)
(1.88474 0.17439 -1.75727e-20)
(1.90083 -0.0717661 -4.5864e-19)
(1.87677 -0.0423176 0)
(2.01369 0.0357931 -3.02302e-20)
(1.9843 0.0530352 1.0922e-21)
(1.9838 0.0564895 6.49999e-20)
(1.68683 0.0555442 -2.65153e-19)
(0.891371 0.557932 2.88889e-19)
(2.64219 0.14997 7.18319e-20)
(2.32245 -0.366136 -5.4871e-19)
(2.17029 -0.198148 0)
(2.18392 0.121225 2.15935e-22)
(2.36491 -0.37251 -9.77708e-20)
(2.0135 0.0211071 6.8432e-19)
(2.23371 -0.652737 0)
(2.67967 0.265646 -5.81631e-21)
(1.52591 0.264446 0)
(2.73639 -0.438233 -1.14637e-19)
(1.98504 -0.579842 -1.73467e-19)
(0.78926 -0.378937 2.5339e-19)
(2.5507 -0.452612 -1.34841e-19)
(2.03538 0.207283 0)
(1.96244 0.0677596 2.48409e-20)
(1.85873 -0.0380406 1.26239e-20)
(1.69485 0.0692008 2.50391e-19)
(2.385 -0.37581 3.85887e-19)
(2.43117 -0.0928949 1.79561e-19)
(1.58968 -0.769327 -1.28045e-19)
(2.00464 0.00725414 -2.00294e-21)
(2.24555 -0.168279 0)
(1.15451 -0.442421 6.12363e-19)
(2.94427 -0.0410348 0)
(1.96541 0.0612308 -3.78564e-23)
(2.25658 -0.081774 3.29233e-19)
(2.21355 0.125365 -7.20063e-20)
(2.27014 0.145401 6.35534e-20)
(0.97455 -0.46363 -1.44484e-19)
(1.94886 0.0457944 3.4925e-19)
(1.99064 0.00837794 0)
(0.589814 1.30133 -8.58518e-19)
(2.26257 -0.25429 -1.17123e-19)
(1.94066 0.15545 1.51769e-20)
(1.88606 -0.344261 5.76702e-20)
(2.29606 0.0181916 0)
(2.56619 0.270278 5.64301e-20)
(1.82125 0.108181 5.33115e-19)
(1.94335 0.0844505 4.2394e-19)
(1.99053 -0.146291 0)
(2.02654 0.00795443 -7.94985e-22)
(1.97957 -0.0597177 -3.81075e-20)
(2.87482 -2.24862 3.15366e-19)
(1.65539 -0.115644 6.94264e-20)
(2.24107 -0.227214 1.11331e-19)
(2.0539 -0.0165877 -3.60817e-22)
(2.2672 -0.173285 0)
(2.23206 0.266691 -8.91526e-20)
(1.59267 -0.782879 3.82018e-20)
(2.34984 0.198063 1.56198e-20)
(1.9843 0.0120096 2.60976e-19)
(1.42434 0.00408305 0)
(1.97164 0.0497797 3.45495e-20)
(1.92866 -0.854669 0)
(3.53426 0.30682 -3.38264e-19)
(2.06853 -0.065928 0)
(2.22815 -0.744177 -5.86906e-21)
(1.41554 -0.195366 -1.48989e-19)
(1.6228 0.687438 4.81346e-19)
(2.85086 -2.32506 -1.02629e-18)
(1.87069 -0.00320648 0)
(2.24632 0.0405458 -6.42807e-20)
(2.0344 0.194087 -1.49235e-19)
(-2.21983 0.881574 -8.60895e-19)
(1.31104 -0.828392 9.34326e-21)
(1.70275 -0.10595 -7.54651e-19)
(2.05878 -0.139788 4.30573e-20)
(2.09497 0.171403 1.02694e-19)
(1.56533 -0.518934 0)
(1.45885 0.202832 2.86445e-19)
(2.00074 0.0203206 1.47128e-20)
(0.92762 -0.49434 1.08483e-19)
(1.58175 -0.779985 -1.32629e-19)
(-1.94655 0.534569 -1.14767e-18)
(2.36891 -0.209021 0)
(-2.25569 0.867033 0)
(2.12801 0.936421 0)
(2.08274 -0.0911002 0)
(0.748412 -0.211211 -7.62053e-20)
(2.72596 -0.389041 0)
(2.011 0.263891 0)
(1.71006 0.0331946 1.03262e-19)
(2.35766 -0.26732 -2.52098e-19)
(2.22288 -0.162613 -2.71429e-19)
(1.74897 0.255827 8.55463e-19)
(2.0046 0.0102725 -7.72564e-20)
(2.54111 1.43047 0)
(2.11159 -0.139029 0)
(1.94721 0.0540402 2.97918e-19)
(1.99871 0.0567892 5.22554e-20)
(1.42875 0.730094 0)
(0.714092 -0.363813 1.32128e-19)
(2.31368 -0.779841 1.87723e-19)
(3.44397 -0.253071 0)
(2.34319 -0.0325973 1.78818e-19)
(1.99192 0.0525891 -3.44402e-19)
(1.81455 -0.661926 6.97488e-20)
(1.14745 -0.427725 0)
(2.01683 0.221454 2.79959e-19)
(2.38295 0.0241682 0)
(1.99705 -0.0809288 0)
(2.19018 0.153995 -1.27841e-20)
(1.93193 0.0763209 1.58581e-19)
(0.937576 -0.490477 -1.52662e-19)
(2.33612 0.431744 1.06444e-20)
(1.44823 -0.417921 -2.64606e-19)
(2.06612 -0.096644 3.51408e-20)
(2.09272 0.158334 7.96941e-20)
(2.22051 0.254263 2.33616e-19)
(2.41184 -0.760057 0)
(2.04204 -0.278315 7.93202e-20)
(1.42189 -0.140399 0)
(1.98771 0.0671983 -1.96355e-20)
(2.35516 -0.152752 0)
(1.51253 -0.0203276 3.86186e-19)
(1.07334 -2.16784 -1.9663e-18)
(2.03361 -0.13328 0)
(-0.50237 -0.185449 5.57344e-20)
(2.08904 -0.157602 -1.01331e-19)
(2.00373 0.131816 4.35979e-20)
(1.84412 -0.314759 7.21034e-19)
(1.5243 0.668625 -3.09134e-19)
(1.44002 -0.405659 -7.5207e-19)
(3.4881 0.240044 0)
(1.99748 0.0139489 -1.485e-20)
(1.61784 -0.781294 -3.01795e-19)
(2.03119 0.227064 0)
(1.86374 0.192723 1.9132e-20)
(2.3141 -0.0400548 -1.84267e-20)
(2.82591 0.659859 0)
(2.00764 0.012529 0)
(0.709892 -0.359195 0)
(1.61579 -0.715907 8.45894e-20)
(2.01369 -0.609548 1.13405e-19)
(2.28589 -0.717881 7.41591e-21)
(2.38447 0.71994 0)
(1.76274 -0.219283 4.89642e-19)
(2.05897 0.0174342 -3.8094e-21)
(2.33381 0.408104 -1.64387e-20)
(1.38904 -0.803042 1.61492e-19)
(1.9346 0.149333 0)
(2.04106 -0.0166541 0)
(0.895078 -0.219442 -4.19378e-19)
(1.54043 -0.511828 -1.84851e-19)
(1.99103 -0.21275 0)
(1.43445 -0.694967 -2.21409e-19)
(2.08476 -0.0122674 2.28565e-21)
(2.0231 0.000672112 3.3341e-22)
(0.888873 -0.425482 0)
(1.90419 -0.00762321 4.97787e-21)
(2.00507 0.0225787 -1.31798e-20)
(2.39484 0.0288456 6.42285e-20)
(1.97385 -0.59992 0)
(0.621139 -0.879849 -3.97552e-19)
(2.25844 0.140299 7.29505e-20)
(1.97906 0.0887303 6.06572e-20)
(2.00417 -0.00493326 -6.01209e-21)
(2.56369 0.345273 0)
(1.72794 0.243298 -2.27559e-19)
(2.71952 -0.1545 -1.64705e-19)
(-1.53508 0.196462 1.40045e-19)
(2.01807 0.0188965 0)
(1.33907 -0.817999 -9.49582e-21)
(0.652046 -0.20034 0)
(2.00358 0.0467469 -2.37092e-19)
(1.94029 0.0659956 1.043e-19)
(1.91482 -0.000113076 -5.81632e-20)
(1.62244 -0.733349 0)
(2.10475 -0.0332721 -2.75678e-20)
(1.21537 0.335913 7.92349e-19)
(2.38293 -0.754372 0)
(1.68455 0.0164114 3.22563e-19)
(2.65737 -0.58482 -4.61324e-20)
(2.11657 0.00459134 0)
(1.41233 -0.757256 3.31523e-20)
(1.83403 0.0544769 9.51892e-21)
(2.03083 0.000589651 0)
(0.18418 -1.20705 4.86682e-19)
(1.86262 0.177199 0)
(1.82774 -0.834739 2.2952e-19)
(1.59162 -0.783757 7.45496e-20)
(2.03181 0.00983723 1.18891e-21)
(2.32164 0.0627955 -2.04178e-20)
(1.45655 0.192864 1.52028e-19)
(1.83577 -0.341611 -2.66008e-19)
(1.87201 0.00101875 -2.27438e-21)
(1.86159 -0.83909 2.49061e-21)
(2.22948 -0.227739 1.08394e-19)
(2.55894 0.356818 1.58621e-19)
(2.00282 -0.891771 0)
(2.03673 -0.0056283 -2.3149e-19)
(3.2476 -0.0307753 -8.3781e-19)
(1.4484 -0.15011 0)
(2.0113 0.0274905 5.00365e-21)
(1.97388 -0.00671885 0)
(1.35218 -0.433529 6.49446e-19)
(2.19438 -0.811912 0)
(2.03598 0.0162588 1.34721e-20)
(2.2514 -0.0803512 -1.88075e-19)
(1.42119 -0.71663 5.71424e-20)
(0.819291 -0.414776 1.3352e-19)
(2.28867 -0.0432866 -1.63717e-21)
(1.46773 -0.697628 1.91473e-19)
(1.87816 -0.559115 2.55135e-19)
(1.58166 -0.396471 0)
(0.72764 -0.35616 -8.6264e-20)
(2.43565 -0.695721 -3.92947e-20)
(0.809265 -0.375361 -1.01776e-19)
(2.02245 0.0218605 -1.11681e-21)
(1.5673 -0.628981 0)
(2.1055 -0.00101048 -1.1858e-21)
(0.814094 -0.390425 0)
(1.52137 -0.786209 -1.24899e-21)
(1.69668 -0.873974 -7.73371e-20)
(0.495109 -0.507896 0)
(2.15554 -0.56883 7.40653e-20)
(1.63656 -0.437994 0)
(2.81626 0.589208 0)
(1.61079 -0.760869 -3.02739e-19)
(1.55101 0.237994 2.30762e-19)
(1.74255 0.113349 0)
(1.82401 0.132371 -1.4532e-19)
(2.33196 -0.788295 3.50284e-19)
(1.61277 -0.789302 1.72865e-19)
(2.95087 0.976201 0)
(2.13827 -0.0396661 0)
(1.63347 -0.786974 -1.31357e-19)
(1.90116 -0.145831 0)
(2.17502 0.0376073 0)
(1.66665 -0.851214 -2.05184e-21)
(2.13709 -0.411519 -3.57418e-19)
(1.82852 -0.46944 2.20709e-19)
(2.17091 -0.353956 1.40865e-20)
(0.658314 -0.312708 1.86129e-19)
(1.94715 0.0525412 1.19384e-19)
(1.61656 -0.42506 0)
(2.19197 0.326274 -3.53399e-20)
(1.50374 -0.268479 0)
(2.13439 0.0196991 0)
(2.0237 0.0606923 0)
(2.18499 0.130819 -1.08303e-20)
(1.88516 -0.0693645 2.12583e-19)
(2.03409 0.016825 -8.35752e-21)
(1.65846 -0.428817 0)
(0.845759 -0.411603 -1.15074e-19)
(2.15043 0.883335 3.5721e-20)
(1.9733 -0.727343 2.40932e-20)
(1.97191 -0.00240121 -2.20998e-20)
(1.96819 -0.255152 1.27286e-19)
(2.04579 -0.00546987 -2.00064e-19)
(0.998668 -1.81418 0)
(2.27603 0.126759 0)
(1.54474 0.697218 0)
(1.34401 -0.618945 -4.66671e-19)
(1.42894 -0.532607 -4.58363e-20)
(0.521618 -0.334101 0)
(2.21009 0.328375 0)
(2.32162 0.278996 7.99716e-20)
(2.06505 -0.0556874 -5.5848e-20)
(1.95957 0.485068 2.23411e-19)
(1.83584 -0.790926 0)
(1.53622 -0.792849 -4.9945e-20)
(2.26695 0.0521858 2.48609e-20)
(1.50702 -0.479116 -4.42418e-19)
(2.1963 0.0548559 -6.25832e-20)
(2.32461 0.401653 4.95965e-20)
(1.83546 -0.507879 5.24905e-20)
(1.34328 -0.623031 8.14733e-19)
(1.71194 -0.167117 2.64491e-20)
(2.03293 0.00976607 2.93075e-21)
(2.00101 0.0205556 -5.92998e-20)
(1.30338 -0.612188 -6.97678e-20)
(1.83968 0.0486814 -5.31199e-21)
(1.77261 1.86743 1.37704e-20)
(1.45032 -0.693247 1.14301e-19)
(2.15958 0.103723 0)
(1.99226 0.199686 -9.9617e-21)
(2.11208 0.0126063 -2.06776e-19)
(2.83282 0.211609 1.14187e-19)
(1.47575 -0.447939 -4.03395e-19)
(1.95698 -0.699256 -2.6255e-19)
(2.11374 -0.000218077 5.33754e-19)
(2.33016 -0.0530197 -3.04623e-19)
(2.08598 0.375451 -5.53856e-20)
(2.38227 -0.205478 -1.03935e-19)
(1.27105 -0.255759 -8.82978e-19)
(2.05377 -0.0232225 -1.62438e-19)
(1.2584 -0.312766 0)
(1.46922 -0.68955 -1.10686e-19)
(2.01595 -0.011691 5.01701e-19)
(1.91092 -0.0148893 -9.82754e-22)
(0.322024 1.57506 0)
(1.70828 -0.785306 0)
(2.06848 0.331903 1.9532e-19)
(1.14337 -0.251777 5.49852e-19)
(1.67842 -0.540129 -7.36295e-20)
(2.2512 -0.737539 -1.2438e-19)
(2.34361 -0.378798 2.9897e-19)
(2.96019 -0.0839039 0)
(2.08409 0.360571 1.034e-19)
(0.40167 -0.335768 6.42783e-20)
(2.58023 0.719173 1.32742e-19)
(2.03119 -0.285417 -3.15019e-19)
(0.823132 -0.395579 -3.02148e-19)
(1.98118 -0.227361 -1.24454e-19)
(2.02933 -0.292204 4.18726e-20)
(2.38551 0.943176 0)
(1.90994 -0.0618116 -1.2935e-20)
(1.91261 0.0226695 5.31814e-20)
(2.02048 0.00924589 3.06027e-22)
(0.885266 -0.432255 7.47306e-19)
(2.01008 -0.285016 4.71898e-19)
(2.00802 0.054646 -2.22599e-20)
(1.59327 -0.781516 -1.03808e-19)
(2.02143 -0.0511665 -4.46294e-20)
(2.11093 -0.0409328 1.44428e-19)
(1.62151 -0.841595 -2.35627e-20)
(2.4837 0.705769 -1.30896e-19)
(0.0668051 -1.00985 -5.28371e-19)
(1.04544 -0.51109 -2.47592e-19)
(2.01992 -0.00569514 0)
(2.05296 0.0015291 -1.80612e-20)
(1.66696 -0.784897 -5.94875e-20)
(1.4093 -0.223142 8.02182e-19)
(2.04756 0.0228585 0)
(2.99313 0.529124 -8.33376e-20)
(1.31269 -0.566225 1.8475e-19)
(2.0207 0.0590672 -5.06911e-19)
(1.21483 -0.605638 -1.256e-19)
(1.7624 0.112303 5.77015e-21)
(2.2412 -0.170862 1.85003e-19)
(2.23965 0.0481306 9.24197e-20)
(1.85031 -0.845115 -3.17426e-19)
(2.0404 0.00454137 1.08503e-20)
(1.47731 -0.540796 -1.08062e-19)
(2.11117 -0.00587895 1.9423e-19)
(2.09025 -0.0691758 -1.51108e-19)
(2.13366 0.0762334 -5.82105e-21)
(2.20852 -0.0514309 -3.27433e-19)
(1.2515 -0.571586 -3.56898e-19)
(2.04186 0.024543 0)
(1.56531 -0.725285 6.91177e-20)
(2.03823 0.0049707 3.80283e-20)
(1.87567 -0.364667 5.25033e-20)
(2.27814 0.0303651 -6.78496e-21)
(2.27702 -0.412646 -1.85338e-19)
(1.99589 0.0264056 -3.93074e-19)
(2.10452 0.257932 5.82456e-20)
(0.639022 -0.320484 -1.35714e-19)
(2.11373 0.0232279 0)
(1.97803 0.0660089 -1.7277e-20)
(2.19872 0.131897 7.37112e-20)
(1.57448 -0.614468 0)
(2.14606 0.0921451 1.11848e-19)
(2.1749 0.117921 9.07555e-20)
(2.12468 0.00968662 8.15976e-24)
(2.61335 -0.859986 1.76904e-20)
(1.92964 0.016286 0)
(1.83375 0.280852 4.09503e-19)
(2.0155 0.0644081 2.33703e-20)
(1.41924 -0.684149 2.54322e-19)
(2.04395 -0.188833 0)
(1.5495 0.196691 -6.67469e-19)
(1.09507 1.19744 1.64853e-19)
(2.70693 1.17291 -3.54937e-19)
(1.28224 -0.276235 8.57303e-19)
(1.98767 0.0125334 1.95732e-20)
(0.859363 -0.43714 1.05823e-19)
(1.95969 -0.134967 -3.31852e-19)
(2.08684 -0.274853 -1.18538e-19)
(1.80818 0.100963 -3.07893e-19)
(2.04015 0.00260608 0)
(1.9899 0.036475 -2.25318e-19)
(0.100953 -0.138073 3.55471e-19)
(-0.124201 0.951274 0)
(1.93001 -0.392097 0)
(2.01191 0.00141816 0)
(-1.14727 -0.0467071 0)
(2.06432 0.265651 0)
(1.21239 -0.24912 0)
(1.84065 -0.0924009 -1.60968e-21)
(2.24359 -0.657035 -1.5162e-19)
(2.44433 0.11639 0)
(1.82011 0.281486 6.19739e-19)
(1.64064 0.530228 4.98e-20)
(2.07595 0.185338 5.44136e-21)
(1.67132 -0.798267 -3.27051e-20)
(1.21705 -0.00984019 -2.15108e-21)
(0.806115 -0.403695 1.14503e-19)
(2.07513 -0.0141015 -1.2159e-19)
(2.29053 -0.077312 1.18006e-20)
(2.0432 0.259727 -1.38087e-19)
(1.89609 0.164928 -4.10657e-19)
(2.07837 0.818922 -1.30241e-19)
(3.39286 0.309478 0)
(1.39801 -0.860397 2.99533e-20)
(1.37079 -0.44692 -7.11931e-19)
(2.01547 0.0339362 -6.92184e-19)
(2.44863 -0.703749 -2.10248e-19)
(2.07848 -0.0231583 5.33836e-20)
(2.8031 -0.667624 -1.75125e-20)
(2.19795 -0.318911 -4.06827e-20)
(2.16847 -0.554939 -2.56434e-19)
(2.02408 0.145809 1.55363e-19)
(3.22462 1.48708 0)
(1.89757 0.0179463 -1.39376e-21)
(1.73105 0.0190625 -9.4781e-20)
(2.76759 -0.347383 0)
(1.93144 0.0439596 0)
(1.91581 -0.874264 -3.44817e-21)
(1.09993 -0.558644 1.11621e-19)
(1.80328 -0.092158 -2.56323e-20)
(1.9763 0.0171476 0)
(1.92285 -0.0860744 -4.35505e-19)
(1.84369 0.163332 -7.97016e-20)
(1.53427 -0.730714 4.26919e-20)
(2.14682 0.0780826 4.72483e-20)
(0.799519 -0.398039 0)
(1.40798 -0.861774 3.40107e-20)
(2.17904 0.0909042 0)
(1.89512 -0.0592663 1.3241e-20)
(2.58127 0.268667 -4.63124e-20)
(1.98304 0.029015 -1.88284e-22)
(2.38614 0.423579 2.00177e-20)
(2.87316 0.845733 -3.99169e-20)
(1.83405 -0.540105 5.30119e-19)
(1.25455 -0.751818 0)
(1.58621 -0.356358 -5.23506e-20)
(1.46521 0.143649 0)
(2.46843 0.0880277 -3.59884e-20)
(1.53438 -0.744268 9.24666e-20)
(1.91148 -0.38077 7.6758e-20)
(1.9619 0.0614806 1.60608e-20)
(1.65856 -0.738398 -1.2885e-19)
(1.22086 -0.598345 -2.93782e-19)
(1.4079 -0.453626 -4.11916e-19)
(1.99537 0.0251923 -5.32077e-21)
(1.58855 -0.339533 4.30634e-20)
(1.29425 -0.587586 2.93633e-19)
(1.46014 -0.478735 4.52745e-19)
(1.42011 -0.539163 6.47165e-20)
(1.67921 -0.364663 -2.8372e-20)
(1.94158 -0.621733 2.62335e-19)
(2.68625 -2.38698 1.50642e-18)
(2.03522 0.0133278 6.72371e-21)
(1.58313 0.489646 -4.50251e-20)
(2.29082 0.258521 -2.30476e-20)
(2.37844 -0.571686 0)
(-1.50416 0.38489 -1.51123e-18)
(2.07646 0.0100262 -2.48872e-19)
(2.02095 0.0546296 0)
(2.45991 0.0935859 0)
(1.41651 -0.261266 -3.10105e-20)
(2.12747 -0.388203 -1.24214e-19)
(2.3214 0.0971899 8.74227e-21)
(2.13423 -0.402646 4.68497e-19)
(2.05127 0.78461 1.22941e-19)
(1.67385 -0.015573 3.41662e-19)
(1.55329 -0.743352 5.22922e-22)
(1.8657 0.505206 0)
(1.49223 -0.507164 4.33715e-19)
(1.65423 -1.37023 6.936e-20)
(1.65361 -0.736656 9.77789e-20)
(1.82885 -0.708221 8.7324e-20)
(1.62208 -0.731562 -4.39549e-20)
(2.06907 -0.048787 1.72167e-19)
(1.94538 0.0430418 -6.39845e-21)
(1.98108 -0.131801 8.1355e-20)
(1.56508 -0.748065 -6.20407e-20)
(2.30354 0.0997246 -3.84644e-21)
(1.94962 0.0305962 1.74502e-19)
(1.25284 -0.303958 -3.52432e-19)
(1.91354 -0.125436 2.71002e-19)
(2.05989 0.402949 0)
(2.35015 0.203573 -1.41617e-20)
(1.98634 0.0552904 3.89489e-20)
(1.56891 -0.365536 -1.38895e-19)
(2.02048 1.63393 6.50771e-20)
(1.91116 -0.608042 1.9565e-19)
(1.99059 -0.00464652 7.53877e-20)
(1.4693 0.0562937 -5.22705e-19)
(2.72329 -0.352436 0)
(1.97328 0.0457497 2.89973e-20)
(2.2044 0.0774833 8.51144e-20)
(1.90551 -0.00486695 0)
(1.48408 -0.0591588 2.98834e-19)
(2.15245 0.0771853 0)
(1.9014 1.66164 3.58277e-20)
(2.29536 -0.0145253 0)
(1.87551 0.015673 0)
(2.2761 0.031737 4.68404e-20)
(2.2821 0.0845403 1.00137e-20)
(2.51117 -0.153069 -2.14732e-19)
(1.93648 0.137863 -1.8696e-19)
(1.69671 1.01713 -1.21429e-19)
(2.00738 0.0831738 -7.27305e-20)
(2.09939 0.25553 0)
(2.338 -1.36758 -8.0654e-20)
(2.34313 0.0593329 3.13109e-20)
(1.89218 -0.0621776 -2.53389e-20)
(2.377 -0.565497 0)
(2.85102 0.198997 1.72822e-19)
(2.3628 1.46687 2.07215e-20)
(2.0228 -0.00479363 2.80361e-20)
(1.75097 -0.672776 0)
(1.68743 -0.848638 1.21697e-19)
(2.06428 0.184238 0)
(1.99827 -0.135284 -4.15594e-20)
(-0.694066 0.985211 0)
(2.61804 -1.09421 0)
(1.7019 -0.187406 0)
(2.14863 -0.807305 0)
(1.50885 -0.953121 -2.67117e-20)
(1.60559 -0.706792 -1.86543e-20)
(1.89849 -0.0729265 -3.19029e-19)
(1.4403 -0.726507 -6.86768e-20)
(1.37247 -0.612814 0)
(1.47509 -0.663263 -4.21585e-20)
(-1.09567 1.64146 -2.40947e-18)
(1.61873 -0.760698 0)
(1.57332 -0.579002 -4.62708e-19)
(2.01339 0.0205117 3.7988e-21)
(2.28238 0.241544 5.1853e-20)
(2.56189 -0.854637 3.38429e-20)
(1.86922 0.13759 0)
(2.32645 -0.735175 0)
(2.70646 -0.449791 1.15297e-19)
(1.8385 0.0634303 -1.46015e-21)
(1.99696 0.0201597 1.09994e-20)
(1.40628 -0.243799 3.79143e-21)
(2.0133 -0.00675435 1.66681e-20)
(2.00047 0.0543257 1.288e-21)
(2.01537 0.172199 2.22991e-19)
(1.9839 0.0562755 -1.66166e-20)
(1.97943 -0.557789 0)
(1.1531 -0.661641 0)
(2.03669 0.0117065 0)
(2.00809 -0.00679779 0)
(1.8069 -0.360447 1.95718e-19)
(2.2764 -0.115499 0)
(1.61328 -0.909851 2.85843e-19)
(1.78735 -0.521582 -3.56218e-21)
(1.43276 -0.49695 -6.80229e-19)
(1.62606 0.619412 -1.9789e-20)
(1.57149 -0.707087 -3.88131e-20)
(1.65976 -1.01561 -1.60201e-19)
(1.91662 0.0241702 6.03072e-20)
(1.59412 -0.755943 -5.96887e-20)
(1.98649 0.0526409 -2.6398e-20)
(2.26332 0.0586239 0)
(2.47758 -0.332477 0)
(1.86838 0.316643 0)
(2.28059 -0.43292 9.77919e-20)
(1.66543 -0.411619 0)
(1.89391 0.510927 0)
(1.99795 0.00398941 0)
(1.84845 -0.472725 2.0586e-19)
(2.07391 0.186238 -2.05689e-19)
(1.98092 -0.0103847 0)
(1.83784 -0.108921 -2.92444e-20)
(1.97835 0.188978 -2.16784e-19)
(2.56982 0.628032 -2.75432e-19)
(1.65565 -0.772724 2.74945e-19)
(1.96024 0.548511 -1.24732e-22)
(1.8028 0.049082 8.46516e-22)
(1.93108 0.0543374 -9.23945e-21)
(1.84326 -0.00735877 -2.80984e-21)
(2.31116 0.0821148 -1.21537e-20)
(2.00293 0.0259568 2.4688e-20)
(1.83245 0.04626 -3.007e-19)
(2.11636 -0.0529073 0)
(1.93655 -0.506539 -3.84327e-20)
(1.96664 0.0686385 3.10887e-19)
(0.472196 0.173196 2.64897e-19)
(2.18619 -0.307002 -1.18996e-19)
(1.17139 -0.270126 -5.99913e-19)
(2.29104 0.0932731 2.00267e-21)
(2.75413 -0.143866 2.37115e-19)
(1.99492 0.129397 0)
(2.01476 0.220074 -2.66353e-20)
(1.96038 0.0327664 5.16086e-21)
(1.86677 -0.0104422 1.36419e-20)
(1.42518 -0.82933 -1.85205e-19)
(1.99016 -0.00471374 1.64351e-19)
(2.04329 0.00986344 -3.33342e-21)
(1.99949 -0.00266411 -1.80585e-20)
(2.0284 0.0163705 0)
(1.97101 1.15277 0)
(1.47327 -0.706651 3.36512e-19)
(1.08548 -0.542228 1.34652e-19)
(1.98745 0.00690853 1.29166e-21)
(1.94113 0.0717032 6.26251e-19)
(2.02762 0.227486 7.98912e-20)
(1.51809 0.18149 0)
(1.81744 0.0511276 0)
(1.6862 -0.408428 -2.93948e-21)
(2.28115 0.0259165 7.32519e-20)
(2.00022 0.517056 2.93165e-19)
(2.45933 0.041699 0)
(2.0439 -0.0190956 0)
(2.20209 -0.628204 3.48687e-19)
(2.02269 -0.17918 2.54475e-19)
(0.340003 -0.139958 -4.47467e-20)
(1.94837 -0.00198747 0)
(2.68547 -1.16054 1.43685e-19)
(1.87213 -0.20007 -1.48948e-20)
(1.66606 -0.77983 -8.16094e-20)
(1.97804 -0.0430881 -3.5045e-19)
(2.27806 -0.624357 0)
(2.14185 -0.405091 9.8243e-20)
(1.76032 -0.650751 -9.91849e-20)
(0.176116 -6.90409e-05 0)
(2.04691 0.00754171 2.03963e-20)
(1.92773 0.102922 -2.02334e-19)
(1.99474 0.0022087 2.14499e-23)
(2.69625 0.201663 1.40313e-20)
(2.32933 1.78547 6.7612e-19)
(1.93293 -0.00675603 0)
(1.16965 -0.462279 -4.15148e-21)
(2.02219 0.246086 -7.28068e-20)
(1.9158 -0.822822 -2.06102e-19)
(2.05214 0.255573 1.63886e-19)
(1.17722 -0.770667 9.40533e-20)
(1.97015 -0.0228765 -7.65453e-19)
(2.00996 0.0692188 1.1806e-20)
(1.95892 0.0556243 -1.48112e-20)
(1.81308 -0.438891 0)
(1.93321 0.0147434 1.12756e-20)
(1.2188 -0.573269 2.34454e-19)
(2.23398 -0.109906 -3.67007e-19)
(2.00209 0.063071 -2.81805e-19)
(2.01137 -0.100205 3.97007e-20)
(1.72079 -0.214195 7.17753e-19)
(2.04757 0.010074 -6.91787e-21)
(1.80598 0.054575 1.74569e-19)
(2.01369 0.031713 1.77162e-20)
(2.18119 -0.360009 -1.62772e-19)
(2.5342 0.747587 -2.06953e-19)
(1.69529 -0.545054 5.76635e-20)
(2.02808 0.0263368 0)
(1.89677 0.247832 0)
(1.1311 -0.232529 0)
(1.42895 -0.460692 5.2637e-19)
(2.07214 0.0461276 -4.55891e-19)
(1.83112 0.167444 0)
(1.60676 -0.380644 -4.12385e-19)
(1.81784 0.14337 0)
(1.81605 -0.333821 -3.21447e-19)
(1.88524 -0.047073 -2.47802e-20)
(1.95205 -0.527952 -2.88746e-19)
(1.96489 0.0118385 0)
(1.95182 0.0294655 0)
(1.92284 0.00523766 1.64163e-20)
(2.3959 0.0873319 3.47497e-21)
(2.25489 -0.0785853 8.05633e-20)
(2.58518 1.55991 -1.22085e-20)
(2.56596 0.101317 0)