/*--------------------------------*- C++ -*----------------------------------*\
| =========                 |                                                 |
| \\      /  F ield         | OpenFOAM: The Open Source CFD Toolbox           |
|  \\    /   O peration     | Version:  2306                                  |
|   \\  /    A nd           | Website:  www.openfoam.com                      |
|    \\/     M anipulation  |                                                 |
\*---------------------------------------------------------------------------*/
FoamFile
{
    version     2.0;
    format      ascii;
    arch        "LSB;label=32;scalar=64";
    class       surfaceScalarField;
    location    "0.8";
    object      phi;
}
// * * * * * * * * * * * * * * * * * * * * * * * * * * * * * * * * * * * * * //

dimensions      [0 3 -1 0 0 0 0];

oriented        oriented;

internalField   nonuniform List<scalar> 
20045
(
1.26771
-1.37107
0.103356
-2.63992
0.902308
1.73761
0.778126
4.31759
-5.09572
0.566731
-0.767996
0.201265
-2.04629
2.01577
0.0305236
-1.46553
5.46648
-4.00095
-2.51516
1.1223
1.39287
0.164061
1.0562
-1.22026
1.18455
1.02493
-2.20948
-2.09053
-0.279873
2.37041
1.68712
-0.0329669
-1.65415
5.55837
-2.75016
-2.8082
0.89683
-0.918824
0.0219933
-3.18525
2.70576
0.479486
-0.843544
2.64426
-1.80072
-2.74876
0.658228
0.241555
1.44643
-1.68799
2.22793
-1.68773
-0.540205
-4.27659
6.31409
-2.03749
-1.89074
0.150525
1.74021
1.07094
-0.990863
-0.0800809
0.292308
0.604522
-0.286945
-2.35297
1.17265
2.14581
-3.31846
2.15552
0.500518
-2.65603
-2.30902
3.48167
-1.45974
1.41755
0.0421898
-2.7468
5.29818
-2.55138
4.3267
0.578855
-4.90556
-5.09705
2.89443
2.20262
-0.301963
-0.853084
1.15505
3.61111
-2.48665
-1.12447
-2.16114
3.66488
-1.50374
5.45388
-3.14315
-2.31073
-1.36241
1.52647
5.55574
-2.76583
-2.78991
3.58841
0.582607
-4.17102
-0.165095
0.982683
-0.817588
-4.90255
1.85909
3.04346
1.52955
1.26236
-2.79191
0.150036
1.00443
-1.15446
0.4359
-0.584378
0.148478
5.43489
-5.40125
-0.0336413
3.70264
-1.28141
-2.42123
1.63747
2.06516
2.60459
2.95378
0.549144
0.320035
-0.86918
3.08001
1.41588
-4.49589
4.58113
-0.992719
0.329209
4.49764
-4.82685
3.23272
-5.51375
2.28104
4.54992
-3.38059
-1.16933
-2.96841
-2.22663
5.19505
-0.232264
-0.74649
0.978754
2.16314
-0.483511
-1.67963
-1.70376
-0.342538
0.202276
3.65226
-3.85454
4.05485
0.146919
-4.20177
1.83563
-3.99677
5.23075
-3.5411
-1.68966
1.57354
0.197224
-1.77077
2.09745
3.1333
2.57307
-5.06701
2.49393
0.909613
0.16133
1.64231
0.511799
-2.15411
4.05899
0.619129
-4.67812
-0.237582
0.764113
-0.526531
-1.67383
0.405809
1.26802
2.11428
-0.929738
4.66964
-4.77521
0.105564
-0.562524
0.324941
-0.336385
2.49952
-0.657492
-2.5512
3.20869
0.84722
-0.486731
-0.360489
4.49992
-0.790137
-3.70978
3.42022
-3.21794
-0.136047
4.63596
1.03074
-1.87428
-1.12355
0.645659
0.477887
1.2139
-2.85634
1.64244
2.54947
2.99115
-5.54063
2.29346
-1.75549
-0.537977
4.54271
-1.96964
-5.65514
1.04448
4.61066
0.0613584
1.20635
-1.49835
1.66067
-0.162325
2.68001
-2.32404
-0.355978
-4.07779
0.213102
3.86468
2.61159
0.421376
-3.03297
-2.12458
1.94138
0.183202
-3.68602
-0.554957
4.24097
1.78373
-0.306543
-1.47719
1.02063
-1.45334
0.432707
-0.367804
-2.02154
2.38935
1.44918
-1.55074
0.101556
3.69261
0.988272
-4.68089
-0.959327
-0.500411
0.0513623
-0.76644
0.715078
3.02434
-1.49479
-0.0724565
1.57791
-1.50545
3.81111
1.74463
-1.16216
-2.02309
-0.835016
0.886379
-0.67853
4.73338
-0.17637
-1.32198
-1.76963
1.69717
1.0952
2.99911
-4.0943
3.03619
-4.46303
1.42684
-0.574402
-1.15729
0.99587
0.161418
-0.723516
0.89357
-0.170054
3.10673
-2.20549
-0.901241
-1.23029
0.998025
3.26913
-5.31079
2.04166
-0.426575
0.818681
-0.392106
0.137374
-0.867473
0.730099
2.96604
-0.810525
4.05642
1.39746
-2.89499
2.23749
3.4437
-5.0149
1.5712
1.44812
0.779814
1.38889
0.184656
-1.90974
1.54614
0.363598
-1.86635
0.232932
-1.43432
1.20139
3.28879
1.26113
2.73891
-3.48798
0.749072
3.96982
0.478816
-4.44864
-5.13861
4.02571
1.11291
-1.04362
-1.5974
2.64102
4.82242
-1.53363
-1.02961
1.34965
0.808715
0.0490207
-0.857736
0.145551
-0.189249
0.0436974
2.85238
1.99975
-4.85213
2.99173
-2.88428
-0.107453
-0.986596
0.392763
0.593833
-0.812492
-0.344797
5.58574
-2.14204
-1.61132
1.72328
-0.111959
3.11218
-5.14586
2.03368
0.959461
-3.92788
2.84165
1.13999
-3.98163
3.13771
-1.92381
4.84468
-0.605495
-4.23919
0.6027
-3.66012
3.05742
5.33223
-4.39053
-0.9417
-0.390453
1.11938
-0.728925
0.0154883
4.92485
-4.94034
5.27187
-0.945169
-4.17925
0.169051
4.01019
-2.33381
2.06815
0.26566
4.97567
-2.4262
0.874244
1.41922
-3.12571
3.82075
-0.695038
-3.50912
4.28725
0.0627098
-1.02041
0.957701
0.528734
-0.654285
0.125551
-0.0886667
-0.919597
1.00826
4.55389
-0.470533
-4.08336
6.47054
-3.16313
-3.30741
-1.09389
1.00522
1.72799
-3.50615
1.77816
0.53679
-0.10089
-4.05912
-2.41083
3.41562
-1.00479
-3.35132
2.4487
0.902626
-0.0718139
-0.119907
0.191721
1.3333
3.99892
-0.0336207
0.179172
-0.301125
1.10984
-3.46612
0.340409
-3.64139
4.71225
-1.07086
-3.21949
3.7329
-0.513415
-2.99601
-2.09341
5.08942
-0.187868
-0.929497
1.11736
2.22772
-2.36881
0.141089
3.88816
0.684363
-4.57252
0.0288798
-3.74628
3.7174
-1.81434
4.65599
0.994902
-2.69346
1.69856
-1.97893
5.24807
-4.13872
2.66932
1.4694
-0.203774
0.139481
0.0642923
1.89437
-5.52173
3.62735
-4.34631
1.59951
-3.05336
-1.98711
4.77897
-2.93604
-1.84293
-1.28925
1.43929
0.857845
-0.914195
0.0563497
-3.81249
-0.935923
4.74842
-4.01009
5.62974
-1.61965
4.59399
-3.17819
-1.41579
0.478223
-1.40434
0.926117
-1.10428
-2.43962
3.5439
0.15798
1.52914
-2.21451
1.17089
-3.38714
-1.14286
4.53
0.610771
0.146064
-0.756835
0.596912
-3.00774
0.793889
-1.09585
4.284
-0.314177
-0.828339
0.663244
-0.899764
1.06784
-0.168079
-0.437449
4.99134
-3.77704
2.67276
1.59085
-0.107878
-1.48297
-3.40965
0.628036
2.78162
1.59351
3.00048
5.72834
-3.83397
3.35027
-5.59904
2.24877
1.06381
-3.31366
2.24984
0.130043
-2.02078
-2.37143
3.46662
3.2281
-4.69362
1.23278
-3.28501
2.05223
-5.52245
3.09988
2.42257
-0.120419
-2.00417
0.912417
0.688024
-1.60044
3.52207
-0.996815
-2.52525
1.81946
-3.39597
3.41146
-1.26024
-0.351085
3.0834
5.60484
-4.56483
-1.04001
-0.0390924
-0.673547
0.712639
3.32864
0.528719
-3.85736
0.853923
0.516591
-1.37051
-0.424392
2.96328
-2.53889
-0.138315
2.81833
2.81608
-1.82117
-0.415017
1.08572
-0.670699
4.2742
-1.16202
0.559897
-0.061139
-0.498758
0.791525
0.21516
-1.00669
-0.697648
0.731993
-0.0343447
4.78298
-3.05985
-1.72314
1.11196
-5.12205
-0.776581
0.0789331
-4.3652
1.46411
2.90109
4.96398
-1.2991
1.24767
-4.88906
6.20874
-2.87862
-3.33012
-0.0947711
0.705542
4.26183
-1.66419
-2.59764
-3.03612
0.696394
2.33972
-4.87432
4.904
-0.0296778
1.2722
-3.68355
2.41135
-0.204821
0.123254
0.0815663
-2.41135
3.1165
-0.705153
-0.0669989
-0.629951
0.69695
-0.74434
0.317765
-0.872719
0.149203
-3.11491
-1.34813
2.16695
-3.60137
1.43441
1.20438
-1.18095
-0.0234275
2.01979
1.59132
2.90493
-1.67215
0.155067
0.373667
3.12783
1.83615
-2.4917
0.093647
2.39806
1.24516
3.01667
1.85839
0.785871
1.22344
-0.0190595
-1.39192
-0.0887947
1.48072
-0.144423
-0.0593506
-3.16031
2.73592
-0.973041
1.32929
-0.35625
-4.37393
4.22179
0.152145
-2.12734
3.34915
-1.2218
-0.985984
-0.534126
1.52011
3.74108
-4.09938
0.358303
-3.33349
-2.18895
6.38466
-4.20654
-2.17812
-0.531079
0.491986
4.10202
-2.82982
-1.60129
3.76824
-0.39747
-1.27865
1.67612
4.03118
-0.533725
-3.49746
5.55621
-0.565502
-4.99071
-1.86299
1.46552
4.11118
-2.39759
-1.71359
-0.799411
3.88795
-3.08854
2.77067
-3.40417
0.633497
0.320122
-1.4352
1.11507
1.76665
-0.0406646
-1.72599
5.86089
-4.58341
-1.27749
-2.83092
-2.3077
3.93148
1.67336
-3.99162
-0.382315
-0.236107
1.02763
0.860261
-3.95289
3.09263
0.0215779
0.836268
-2.73099
5.58337
1.77746
3.00553
5.2072
-3.21107
-1.99613
-5.08279
3.93994
3.79506
-5.92454
2.12948
-3.04206
-0.225714
3.26778
-1.1126
-0.894141
2.00674
3.09198
-1.36399
0.328612
1.26224
1.16569
-0.0771429
-2.4095
-3.49372
4.8885
-1.39478
-1.06318
0.163417
-0.346955
-0.0680623
0.715753
-5.59007
2.54422
-2.68254
0.768637
-1.2789
1.58765
-0.308759
-0.0488828
0.615614
-2.56104
1.84859
0.712446
1.67951
1.42723
-2.19297
3.04974
-0.856771
2.44049
0.551241
-3.17515
4.03541
2.89798
-0.286388
-0.967939
-2.44171
4.66116
-3.37173
-1.28943
4.6416
-4.49309
1.43384
3.05925
3.94035
-4.30387
0.363523
-2.07708
1.70927
-0.634119
-0.352478
-0.586741
-3.09927
1.3785
-2.66653
1.28802
2.10986
2.00131
3.76597
-5.40965
1.64368
1.08866
-2.62661
1.53794
-4.9073
0.829513
0.0420998
1.74163
-2.92735
4.45506
-1.52771
-1.27727
1.55713
-0.279856
-1.96822
-0.54694
-0.62524
-1.09294
1.71818
0.463544
0.0110417
-0.474586
-1.64387
-0.689939
1.84382
2.20518
-4.049
4.07777
-2.83262
1.50085
-2.18902
0.111941
2.26505
-1.17638
-3.28054
-0.85818
-0.603303
0.422545
0.180758
4.80147
-1.72146
-2.23506
3.68897
-1.45391
-0.602878
0.682813
-0.079935
3.7516
-0.229531
-1.13439
-2.81851
-2.41419
4.49677
-2.08258
3.38807
-5.5918
2.20373
2.69332
3.69134
1.15791
-0.75763
-0.40028
0.496982
-3.53905
3.37405
-5.1372
1.76315
0.333522
0.513698
-0.356626
3.09554
-0.254913
2.79914
-2.23886
3.30267
1.03646
-5.31305
-4.50823
2.47107
2.03715
3.19449
-0.526459
-2.66803
4.57274
-0.831655
-1.99717
-2.64442
-2.35855
2.14735
-0.191462
-1.29359
1.48505
1.58185
-1.43132
-3.48609
3.12947
4.30837
1.12651
-3.87555
1.64048
5.58167
-1.65019
0.733733
-0.681446
-0.0522871
0.0270051
-3.02108
2.99407
-4.47515
0.862541
3.61261
4.2582
-4.2582
-1.24739
4.19935
-2.95196
1.37372
-3.56669
3.24715
-1.97817
-1.26898
-4.51985
4.65837
-0.138518
1.64995
-0.227233
-1.42272
1.33938
-0.551037
-0.788345
0.528821
-1.5148
-1.22107
2.35594
-3.95722
-4.09053
4.84611
-0.755582
-1.43423
3.27805
-1.17116
-0.276524
1.44769
-0.563206
1.03957
-0.476367
-1.89538
2.02542
4.95341
-4.01324
-0.940166
-0.431264
-2.62807
3.05934
-1.136
1.25365
-0.117643
0.628495
-1.39861
0.770118
-5.2343
2.15377
3.08053
-0.540942
-0.227055
0.775699
-0.041966
0.282808
1.40694
-1.68975
2.42364
3.43725
-1.56167
0.390503
-0.300296
-1.40799
1.70828
-2.41806
3.89094
-1.47288
-0.159335
0.630659
-0.471324
2.1295
-1.0072
4.3505
-0.0383144
-4.31218
0.0241625
-2.04571
0.0943791
3.79378
2.08339
1.49061
-3.574
2.28786
-2.0525
-0.235356
-5.07407
0.894822
-2.08943
0.997504
1.09193
2.00635
2.57158
-4.57794
-3.11332
2.88761
0.385382
-4.54869
4.16331
-0.642302
1.12052
-0.259056
0.240387
0.0186689
0.092866
-1.48479
-1.08027
1.74671
-0.666444
-3.34871
-1.01649
3.02799
0.83161
0.177495
-1.00911
-0.611604
0.00872582
0.87527
-3.60616
2.73089
1.04607
2.67425
-3.72032
1.56789
-3.52922
4.29918
-0.769958
-3.58169
2.78228
0.413118
1.00443
-1.98191
-1.36941
-1.27768
0.345497
0.932181
-4.23048
1.81242
3.3494
-3.78067
1.8806
3.70108
-1.44247
1.47669
-0.0342158
1.67091
-4.0523
2.38139
0.759573
-1.35844
0.598864
2.74251
-3.8769
-3.14962
-0.0698646
-1.54531
-0.128519
0.412692
0.922421
-1.33511
1.61991
0.336559
-0.346082
0.00952286
4.26369
-2.25734
-3.99376
4.20816
-0.214399
1.29471
0.869514
-2.16422
-1.8019
1.1596
-1.0563
-0.221377
1.96184
1.28531
-1.27804
-3.73687
-0.248594
-0.354709
3.08045
2.09373
0.804249
-4.23217
4.56137
0.474506
-2.2605
1.78599
-0.467276
-4.10906
4.57634
0.568359
-0.589667
0.0213077
1.16968
-1.35755
-0.696906
3.46758
3.91506
-3.31236
-2.14045
-0.42059
0.0406785
-2.02954
1.98886
1.98709
-4.9831
-0.571995
-2.35179
2.92378
0.216967
-0.968001
0.751034
-3.26809
0.341863
2.92622
4.73765
-3.32177
-0.0986231
0.425666
-0.327043
-1.06909
-0.0669103
0.90361
1.7218
-2.62541
0.701906
-0.859404
0.157498
3.3397
1.81552
-5.15522
-1.97422
5.66683
0.468275
-0.00473095
-1.25677
-2.75897
4.01574
2.00105
3.58469
4.47353
-3.42746
-1.70336
1.07812
1.80472
-0.0380688
-1.97359
5.76865
0.645459
-3.79346
3.148
4.65601
-0.670894
-3.98511
-2.29462
3.52938
-1.23476
2.00091
-1.80241
-2.44651
4.24892
-1.88399
1.61845
0.265542
-1.36095
-2.4494
3.81035
0.408861
-0.972067
0.142229
-0.214043
2.57514
-3.93609
-3.53283
-1.05615
4.58898
-0.31315
-2.34532
2.65847
0.293941
5.91858
-6.09703
0.178451
1.0508
-0.750321
-0.300484
0.0529807
-1.49545
1.28139
1.10796
-1.54515
0.432554
-3.88922
4.97528
-1.08606
0.130978
-1.10402
1.7785
1.35921
-4.23336
-1.16788
0.227738
1.59964
-1.82738
2.66963
-0.5759
-1.00357
1.10664
-0.103068
-0.769427
0.702428
-5.7432
2.68984
4.51527
0.951202
-0.631823
1.26032
-0.998451
2.29316
3.90965
-1.55371
-1.03455
0.0309779
-0.458797
-3.0273
1.121
1.12601
-1.0633
-4.5418
0.0666575
-1.38139
1.06417
-0.304593
-4.91985
3.10173
1.81812
3.9461
0.72355
0.928004
-0.292939
-0.635065
1.34253
-1.25682
-0.0857151
-4.4188
1.65297
-4.9776
2.56341
-1.29559
1.075
0.220584
0.0751848
-0.581426
0.506241
5.39262
-0.0370005
-5.35562
0.943194
0.0651333
-1.00833
-0.655013
-1.25472
1.11488
-0.0942466
0.141083
-0.249266
0.108184
1.88583
-0.308346
-1.57749
-0.321256
0.462339
4.17079
-3.18252
-0.162236
-0.683565
0.8458
-4.97
1.08078
-0.119575
0.144033
-0.979049
-0.581688
1.4133
-0.0353948
0.190462
1.19843
0.746784
-1.94521
2.03349
-0.391179
2.14029
-1.66578
1.08157
-0.944199
0.341
-1.61827
2.90961
-0.243172
-2.66644
2.65015
-0.200618
-2.44953
-3.08273
-0.577388
0.742311
-0.213438
-0.528874
1.92367
-2.18606
0.262385
5.28289
-0.140121
-5.14277
0.636284
-0.612174
-0.0241105
-2.44129
3.25119
-0.809903
2.34144
2.94254
-5.28398
-1.551
1.74822
-1.25988
2.095
-0.835122
1.04696
0.453779
-1.50074
-4.41631
2.09136
2.32495
-0.356078
0.106811
-4.24554
0.712705
1.48987
-0.929801
-0.56007
2.37355
-3.03899
0.665436
-0.405981
-0.965088
0.88401
5.03457
4.05897
-0.701812
-3.35715
-4.20941
0.680189
1.69407
-2.662
3.37775
-5.40827
2.03053
-0.478856
1.39127
0.198583
-1.93419
1.63389
-0.777808
1.01074
-0.539512
-3.62261
4.16213
1.79581
2.30622
-3.61798
3.84003
-0.22205
-0.818984
1.23168
-3.23122
-1.27308
-0.576205
0.631022
-0.054817
0.837504
-1.63557
0.798061
0.2151
-0.166324
-0.0487758
-0.371447
2.745
-4.09879
-0.601298
4.70009
-3.69554
-1.19865
4.89419
2.36912
-1.77372
-0.595398
-1.1314
0.134197
0.997199
0.221735
-1.15847
0.936734
-4.80725
0.215437
4.59182
0.146876
0.898933
-1.04581
3.86414
-4.40113
0.536996
-2.55391
2.3036
0.499292
-2.8029
0.0278562
-0.604061
-1.08588
-1.90273
2.98861
3.07685
-5.05578
-4.70399
4.12723
0.57676
0.848257
-0.146351
3.15548
-1.37697
-0.143311
-1.52876
1.67207
-0.0506294
0.855867
-0.805238
-1.527
4.51934
-2.99234
3.21164
-4.19194
0.980307
4.87577
-4.70307
-0.172695
3.93436
-1.60642
-2.32794
0.232262
-1.10081
0.868548
-1.3945
-0.0398151
-4.74379
4.20411
0.539677
0.280908
-5.0247
-2.96069
4.06896
-1.10827
-2.89593
-1.68748
0.910729
-0.813553
-0.0971761
-3.92298
-1.04702
-0.882901
0.57018
0.31272
1.28084
-0.426919
-4.66427
4.42521
0.239053
-1.0791
0.244545
-0.731276
1.00692
-0.0637249
-2.9511
0.539751
0.633585
-0.799477
0.165892
-2.04666
1.73405
0.312609
1.72153
-0.0715746
-1.2481
3.24909
0.502505
1.8351
0.417214
1.32063
-1.73784
-0.509156
2.73687
-3.01269
1.91427
1.09843
-0.120109
-0.235969
4.04961
-2.2538
3.41068
-1.73976
-1.13998
-0.848028
1.988
1.58356
-3.75983
2.17627
2.67812
-2.99127
4.87273
-2.13516
-2.73757
-0.0244811
-2.52691
-0.485784
-3.83289
4.88219
-1.0493
0.0608654
-1.38641
4.73668
-5.12696
1.20398
-0.89653
1.21665
-0.520214
-1.54189
0.755994
-0.0240007
-2.41867
-2.55529
5.70659
-2.28638
1.39216
-0.760579
-0.631583
0.331076
1.00831
-3.29143
-1.77957
5.071
1.41991
1.67207
0.00361944
-0.68255
0.678931
4.09526
0.397969
-0.165879
-0.23209
2.69441
0.215201
-1.79215
-4.91752
0.826988
-1.04783
0.0511794
0.996652
2.8013
3.40744
1.24198
0.375322
-1.6173
4.71751
0.158261
2.88084
-4.11102
1.23018
-4.03323
-0.0555159
4.08875
-3.81832
4.95099
-1.13267
0.633398
-0.00202424
-0.631374
-1.91482
4.99167
0.0599745
1.21733
-1.27731
0.184767
-3.80275
1.324
-0.263116
-1.06089
-4.48599
5.87901
-1.39303
-1.20046
2.62469
-1.42423
5.80746
-2.55613
-3.25133
0.0153154
-2.95427
2.93895
0.182187
0.0582007
-2.323
4.66444
2.76648
-4.01387
5.35894
-1.97086
-0.877797
0.715562
-4.26474
0.231508
5.73416
-1.96818
-0.127512
-5.52763
1.1334
-0.128976
1.29185
2.66316
-3.95502
2.6362
-0.591914
-2.04428
3.33476
-4.80906
1.4743
-0.865564
0.055187
0.810377
-0.998937
-2.30531
3.30425
1.75305
-1.41205
-2.21186
0.882554
1.32931
0.637211
1.3847
-2.02191
0.401316
0.509412
-4.26134
4.99149
-0.730149
0.549133
0.0192257
2.18065
0.992249
-3.17289
2.41838
1.83981
-4.2582
0.735454
2.45903
-0.102595
4.94728
-0.0258405
3.9262
-3.90036
-0.161274
0.00193989
0.14683
0.0879564
-0.234786
3.30486
-3.04327
-0.261595
2.22218
2.65054
1.78664
-1.57293
-0.213709
-1.44441
4.06284
-2.61843
0.0916389
0.730234
-0.821873
1.73168
-3.45483
1.72315
-2.93591
-0.907275
3.84319
4.04899
-0.720342
1.42572
1.21047
-2.18021
-0.442021
2.62223
1.35068
-3.97875
-0.942604
1.48608
-0.543475
0.913289
-0.36663
-0.546658
-0.135251
0.317437
-0.48457
4.41003
-3.92546
-0.594056
5.0917
3.83968
-3.05425
-0.78543
3.15359
-2.73221
-2.62578
0.836912
1.78887
0.333542
-2.31171
-1.0231
0.808262
0.214837
0.271113
0.656891
0.759993
3.66906
-4.42906
0.985444
0.900387
0.638908
-4.33445
-2.08021
0.892114
1.18809
-1.54462
-1.15839
2.70302
2.28495
-1.08653
-4.15353
2.71931
1.66943
-1.27938
-0.390051
-2.40935
3.78946
-1.38011
-2.17535
2.19952
-2.06164
2.70441
-0.642769
-3.16517
4.42808
-1.26291
-0.109594
1.00609
-0.896496
0.676092
-0.600907
-1.55333
-3.09249
4.68495
-1.59246
-2.67188
3.29991
2.48402
-2.56187
0.0778432
-0.117925
-1.00548
1.12341
-5.50014
4.0039
1.49624
-0.0890154
-0.273006
0.362021
-0.113486
2.91785
-4.44484
3.46263
-1.87907
-1.82534
-2.68289
-3.47014
3.4443
2.47395
-0.0252535
1.85018
0.71194
-2.56212
-1.54982
1.44165
0.108168
1.54688
-1.26423
-0.28265
0.557074
-2.03695
1.47987
-1.08491
2.4748
-1.38989
-3.73939
-1.08668
4.82607
0.893958
-1.01188
2.64106
0.663799
-4.38772
3.39582
0.991904
1.43516
-0.362952
-1.07221
0.028006
0.821632
-1.08714
0.265507
-3.23325
-1.67414
2.23121
0.637018
0.950864
-0.718602
1.49664
-0.65914
0.882663
-2.48006
0.141713
1.30747
-1.33277
0.754198
0.578573
-2.85703
-2.19834
5.05537
-0.407913
-1.77229
-2.51392
-0.41636
2.93028
0.646945
0.8239
-1.47085
-0.0973566
5.46081
-3.48834
-1.97247
0.809061
3.2499
0.309594
2.17612
-1.97031
-0.205814
-1.37598
3.72659
-2.35061
-2.78249
-1.1818
3.96429
-2.14027
0.880388
-2.01785
-0.607932
5.90907
-2.36296
-3.54611
-0.896242
-0.0631536
0.959396
1.91011
0.239482
-2.14959
-0.771896
0.918772
-0.99019
1.89934
-0.909153
0.254211
-0.112285
-0.9816
-0.063553
3.51602
2.39305
-2.37411
4.2332
-1.58996
4.48439
-1.01736
0.121118
-4.15511
1.37262
3.52823
-3.03124
-0.481585
-3.0445
0.603206
0.490225
-3.45092
3.46582
-3.43881
4.08572
-0.145371
-0.939115
-0.514225
-1.38534
-0.347786
1.73313
-1.38908
-0.161661
3.58608
0.634198
-4.22028
0.135697
-1.24949
1.11379
0.0678581
1.54536
-4.52252
2.97715
4.23032
-0.366176
-4.30043
4.49416
-0.193729
1.05281
-0.647006
-5.03923
-0.46091
-1.52865
4.37367
-0.169558
1.5003
5.43919
-2.07367
-3.36552
-3.05369
-0.267313
3.32101
0.614723
2.59203
-3.20675
-3.44287
0.174786
-0.843905
-0.630418
1.47432
-2.36129
3.00675
0.703324
2.53361
-3.23694
-3.4693
0.404885
3.06442
-4.59844
0.496584
4.10186
1.02304
2.43959
-1.05681
2.69561
1.23875
-1.43119
-0.658246
3.63232
-4.23781
-0.157405
-1.58775
1.74515
-2.17059
0.619586
3.28884
0.181902
-3.47075
2.94671
-4.53667
-0.0193248
-0.185496
-2.4344
4.73199
-2.2976
-2.90403
1.81815
-0.06892
1.28033
-1.21141
0.965282
-1.49154
0.526255
1.21113
-0.0414452
-1.19213
2.8862
-0.192372
-1.10321
-0.712929
0.740785
1.6064
-1.08981
0.150585
-0.0273306
-0.919134
0.882631
0.0365024
0.922187
-1.06445
0.142262
-3.47792
2.68778
0.579429
-3.09335
-0.0267351
-1.26252
0.0535668
2.68532
-2.73889
1.49943
-1.58823
1.52406
-4.01321
2.48915
-1.68579
3.20738
-1.52159
1.19353
-4.68725
0.31313
-0.12909
-4.5749
2.26935
3.43724
-3.63691
-0.516623
-3.23719
-1.2559
-1.91344
0.820502
0.719503
0.800205
-1.51971
5.61219
-2.81089
4.44747
-1.07343
-1.10831
-0.706408
1.81471
-5.04284
1.9787
3.06414
1.50022
-1.53318
-0.439569
2.74317
0.740835
-0.448527
-2.56936
1.2113
-1.15132
-2.01051
2.07298
-0.0624719
-0.588922
4.175
0.856366
-0.872176
0.0158103
4.17635
-6.19538
2.85292
3.34245
1.15019
0.895175
-2.04537
2.33635
-0.460886
-1.87546
-2.45296
1.2525
-1.70271
0.049014
1.8611
4.41997
-4.88725
1.88574
-0.838782
-1.99817
3.34885
-4.88061
3.47647
1.40414
1.89095
-3.6189
1.72795
-3.401
3.56683
-0.165828
2.02511
-2.53427
0.0635492
1.14111
1.22801
0.197644
-3.05399
0.916276
-4.32965
1.95367
2.37597
1.17122
-4.22492
3.61047
-0.230467
-2.80565
0.579813
1.5015
4.99208
-1.64325
-3.34883
-2.02411
1.22407
-2.76869
0.725224
-4.6655
4.39819
-3.68736
1.88495
2.35096
-3.88543
4.21639
-0.330956
-4.34715
2.92558
1.42157
-1.36636
-0.571274
0.788241
-4.73766
3.35382
1.38384
3.00576
-4.92058
-4.16825
-0.0930818
5.40635
-2.02861
1.6253
0.469857
-2.09515
-0.114787
-0.719536
0.834322
0.308954
2.33125
2.62065
-4.55672
0.67129
0.83568
0.91737
1.11115
1.67817
-2.78932
1.74162
-1.05359
-0.186668
-5.18152
5.36819
-1.60765
2.0467
-3.86104
-2.96076
-1.91813
4.87889
1.16076
-1.4673
-3.15118
0.975569
2.17561
-0.0428263
0.12502
-0.0821938
4.19347
-4.73298
1.79724
-4.23164
2.19567
1.37267
-3.56834
1.04343
0.348733
-3.86834
1.0754
2.79294
-4.04113
1.10522
2.358
-3.73398
1.88208
-2.03948
0.0573771
-0.100203
-0.149195
4.8052
-2.92248
3.69377
-0.771293
4.71202
0.0166831
-4.7287
-3.48231
-0.0806565
-1.19824
0.216939
4.04126
0.529902
0.152911
-0.206223
-1.27604
2.64976
2.39527
0.478619
1.06826
-4.29194
-0.372328
-4.27034
2.0608
-3.72499
0.782323
0.871776
-1.6541
4.10391
0.221119
-4.32503
-0.467521
0.465496
-1.56779
-3.40981
-3.71199
-0.591882
-1.69588
4.64259
-1.59181
2.14514
-0.553334
-4.15804
1.30102
-1.30074
2.41189
-1.89459
-3.02526
-1.28848
-1.50713
1.64822
-2.12771
0.0810522
5.05145
-0.677777
1.36381
-0.413387
-0.950422
0.591189
0.494528
1.16713
4.79408
-4.4087
-0.00768267
-1.0421
1.4748
-2.3669
2.46054
-2.10676
-2.34869
0.974521
0.795915
-1.77044
-4.34268
0.0844744
-0.617263
3.60955
-2.99229
-0.430845
-3.86959
-3.32825
3.85697
5.98847
-2.62434
-3.36413
-0.441044
1.43855
3.95043
-2.15248
-1.79795
1.18152
-1.29381
0.427748
-0.280919
-0.832797
0.0830879
0.749709
-0.641665
2.49184
-1.9973
5.00306
-0.187009
-0.626544
-1.28414
-0.336445
1.62058
-0.0435284
4.237
0.721655
0.900695
-1.62235
-1.71581
2.61942
2.04727
2.01557
-1.5546
-0.525608
2.37655
-0.841294
-1.53526
-0.0402174
-0.277938
0.318155
0.585206
-3.77296
3.18775
-4.34209
0.630102
1.01102
-1.78091
3.84171
-0.0294069
1.21093
0.538958
-2.13077
-4.85999
2.50145
-4.70683
1.5437
-2.0655
0.170123
-1.98844
-2.69834
4.68677
-4.67279
-0.96617
0.89741
0.06876
4.16975
-3.12527
3.50663
-2.8919
0.767302
2.40297
-3.17027
1.01228
-1.85619
-3.39269
-1.11924
4.51193
-0.652242
1.47344
-0.821194
-1.90441
3.99655
-2.09213
3.89926
-2.44589
-1.45337
3.9564
0.108625
-4.06503
-2.52365
-3.67173
-1.51664
-0.0286793
1.706
3.11642
-0.090544
0.393232
-0.302688
-3.13534
-0.733004
3.52465
2.78943
-2.50093
2.96774
-0.466814
0.317164
-0.483043
0.111528
1.84037
-1.9519
-0.0223052
0.878671
-0.494364
-4.2433
-4.15502
1.78185
-0.112412
-0.651757
1.44565
0.309738
3.45642
-3.76616
-2.43963
-0.511471
2.98067
1.0971
0.327555
-1.14005
-0.254838
-1.43461
1.68945
0.475725
-1.67735
1.20162
1.50521
1.84393
0.96216
3.84819
-1.73833
4.22389
-2.17719
-0.483737
-1.13679
1.62053
3.54801
0.339947
0.107768
-3.07782
2.07888
3.57387
-3.61739
-2.39977
-1.94995
4.34972
-2.89564
-2.14719
-4.61944
4.8382
-0.218762
-0.393582
-1.77169
1.42391
2.62828
1.21991
0.303436
-1.3031
0.999664
-1.57414
-3.20107
-0.70749
-3.54741
4.2549
2.69432
-1.27441
-1.69897
0.756363
2.70118
-4.26897
2.20713
-1.70661
-1.74161
4.76017
-3.01855
2.1452
2.40773
1.31068
-3.71841
4.97461
-3.03238
-1.94223
-1.63392
-3.53725
5.47839
-1.94114
0.954265
0.409544
-1.26329
1.23388
1.97939
3.82807
-0.966786
0.851999
0.164447
0.172112
4.53152
-2.53176
2.15964
3.45255
-1.82682
0.934032
0.892783
1.06338
-2.20336
3.51715
-0.228307
2.62241
-0.997112
-3.19384
-0.488712
3.68255
0.835804
-0.171959
-0.663845
0.616538
0.434267
0.710449
-4.52877
-1.23578
1.32865
3.32485
-2.84662
-0.478226
0.691007
1.68554
-0.651574
0.358634
1.04429
1.10227
-2.14656
-2.35996
4.1956
0.7255
-2.49161
5.40267
-2.91107
-1.31717
1.95439
-0.936011
-2.53329
5.01102
-2.48455
-1.50707
0.311484
2.02486
1.32232
-1.34905
-0.799232
0.689638
-1.34964
-0.621798
0.0101942
3.00779
-0.681553
3.83085
-3.1493
-1.47849
1.76129
-1.76928
0.240524
-1.45989
-0.0567479
-4.188
2.93123
1.01729
1.07771
0.420665
-1.59184
1.17118
1.11505
0.545621
3.89788
2.08064
-5.97852
-0.392546
-0.123698
0.516244
-1.02621
-2.96755
3.92315
2.06532
3.64723
-3.3375
-5.51084
0.38769
0.387531
-0.763743
2.12369
3.3283
1.06327
-4.39156
1.6166
-0.117167
-0.168628
-1.45781
-0.369007
-2.48519
-2.23756
2.5711
0.759027
3.44913
2.67016
-2.67559
0.00542855
0.847921
0.0347098
-0.298061
1.09973
-0.177545
3.69989
0.932933
-4.63282
-2.92639
0.915879
-0.994614
0.581642
0.412972
-1.52245
0.0206662
1.50178
1.97259
2.19532
-4.16791
1.02941
1.25554
3.20715
-0.0881094
-1.14218
1.79945
-3.07549
-0.421844
0.615229
-0.193385
-4.51335
2.52624
3.85969
-3.06711
-0.792582
0.0801467
-0.626708
0.546561
4.00339
-4.48796
2.97107
-0.276744
1.24946
2.25717
-0.533486
-0.0883119
2.10057
-0.835889
-1.26468
-2.72222
-0.52866
4.98798
-2.53681
-2.45117
2.97789
0.457158
-3.43505
1.80321
-3.1404
1.33719
0.223172
2.3156
-0.050551
-0.804287
2.64049
-1.83621
1.5218
0.578772
-1.40705
-0.967864
0.0956872
4.52201
-0.047936
-4.47407
-1.56388
-0.916798
-0.415973
-1.80514
0.232214
1.21468
3.51731
-0.95945
1.17455
-0.154722
0.145748
-0.797216
0.620846
-1.73563
2.50293
0.0737173
1.05229
-1.54843
-1.50095
3.52074
-0.163053
2.83321
-0.707279
-0.48309
-1.08809
2.13239
-0.959817
3.90173
-2.94192
-3.71201
-0.533523
-2.03008
3.65174
-1.62166
-0.0614118
-0.906452
1.33604
-0.279837
-0.0929166
-1.02545
1.11836
-3.74212
1.25757
0.448367
-0.54699
2.17575
-5.46719
1.47611
-4.23508
-0.952198
3.09801
-1.51782
2.20069
-1.09843
0.0588059
-2.90699
3.49219
-0.0226809
-0.650866
0.663069
-2.43679
-0.437168
-2.68711
3.12427
1.20598
1.46969
5.56266
-3.65458
-1.90808
-0.938918
0.339436
1.00256
0.0955319
-1.0981
-3.57889
0.656414
0.786816
0.126472
-0.048078
-0.507811
0.555889
1.84526
-3.87535
0.383246
2.01045
0.095929
-2.10638
-4.3308
3.37098
0.660403
0.153492
-0.813895
1.48873
-4.58122
-0.570492
-0.0304816
0.600974
0.860433
-0.20003
0.0388557
3.23037
-2.49492
2.7506
2.13384
-1.10443
-4.29243
1.33166
-3.04485
2.46444
0.580408
1.94624
-4.34601
-2.14747
-1.35242
3.49989
0.391724
1.67642
-1.26317
1.03594
4.95623
-0.717679
-4.23856
-0.0328569
-4.25908
3.61819
0.338215
1.8648
2.08562
-0.646467
-0.0360832
0.613974
-1.2596
-1.40693
0.098153
-0.320701
0.222548
0.0205871
-4.80185
4.78126
-0.153264
1.18526
-1.032
1.37816
-3.94817
2.57001
-0.47981
-2.40447
-0.170161
-0.247929
2.91096
-1.41128
-0.837248
2.24853
-1.52742
-1.82129
1.89597
-1.10005
-0.516939
-0.465521
0.98246
-1.24799
1.66865
-4.10018
-0.563755
-0.119333
0.683088
0.451999
1.38037
-1.83237
3.33015
-4.13441
0.804266
0.0415652
-2.39454
0.72429
-5.21028
-2.18004
-2.85227
5.03231
-4.31436
0.218357
4.096
-5.72283
-3.47361
0.0726148
-1.16422
1.21516
-0.0509402
-4.63192
-1.51644
5.21633
1.58371
-0.836922
0.324623
-1.41271
-0.739141
1.99468
0.633058
0.340986
-1.62512
0.0817483
-0.707405
0.625657
-0.753408
0.362955
-0.4411
0.521247
-1.08287
2.23306
-4.58396
2.95089
1.63307
-1.53552
1.86413
2.63561
0.822827
0.0129774
-1.07701
1.38044
-2.05821
-1.09297
-2.27101
0.839527
1.43149
0.193494
-0.62525
0.431756
-1.66463
2.14036
-0.308574
3.09019
2.73234
-2.01068
2.41549
-3.94292
1.94279
-2.59252
0.649731
0.410625
0.0150408
-0.956228
0.198599
-4.64259
2.65415
-0.32833
3.30622
0.0648334
-0.856252
0.791418
-6.00058
2.49146
-0.79188
1.00704
-0.816026
-0.100122
-0.897128
0.99725
-2.34637
0.935086
-4.48495
3.99059
3.96162
-1.76595
-1.01365
0.911229
0.102425
1.74385
-0.14421
-0.61857
-4.8622
1.89257
2.96963
-0.598439
0.47474
-0.41629
1.40234
-0.986051
2.20487
0.766193
0.085183
1.35052
-1.4357
-1.09917
1.17288
0.346487
-0.0129646
2.62972
-3.69889
4.41913
0.298375
-0.827213
-1.49682
4.1578
-0.0945654
-4.06323
0.176669
0.776482
-0.953151
2.46007
-4.87874
1.18971
1.0224
-2.21211
-0.146227
0.0260245
0.120203
-3.95781
4.00124
-0.0434315
-1.63556
3.15962
0.0239913
3.18765
4.16909
-1.40058
-2.76851
-0.0872274
-0.621518
0.708746
-0.0463062
-1.31257
-0.0819377
-1.27487
-0.0376991
0.0874038
-1.56165
1.47424
-0.381333
4.19495
-3.81362
-3.86233
1.49578
2.36654
1.28077
4.11184
0.158066
0.0949808
-0.253047
2.40268
1.06215
-3.46483
-0.723513
1.44302
-1.73383
4.43911
-2.70527
-3.69057
0.496734
2.88527
1.20093
-3.3484
-0.0175917
-0.519785
0.537376
4.21869
-0.916142
-3.30255
1.32276
0.913173
-5.21334
2.65804
4.84524
-5.03191
-2.26873
0.580783
1.68795
0.0668295
-0.466753
-0.140544
0.607296
-1.72421
0.0592965
1.66492
-0.0482829
0.507625
-0.459342
-0.783975
0.833578
-0.0496026
-2.4275
5.12868
-1.24117
1.28185
0.54614
-0.96243
1.56705
-2.3113
0.744252
-2.83798
-2.04264
-0.425935
0.64767
0.435392
0.159332
-0.594724
4.90189
-1.47239
-3.4295
0.513313
2.81154
-0.997715
-0.552107
-2.39965
0.370105
1.38603
2.62268
-4.00871
-0.0474614
-0.0106263
0.0580877
-0.104572
1.44711
-0.824139
0.239671
0.584468
4.07059
-1.87261
-2.19799
-4.27613
0.653513
1.55808
-2.88966
0.942062
1.9476
2.40763
-2.66254
0.882715
-0.738682
-0.591482
-0.364747
-2.52142
3.26518
-0.743754
0.604733
0.136102
-0.515708
-0.475155
-1.01032
0.823312
0.101005
-0.713179
-2.01082
3.06505
-1.05423
3.06894
-1.71357
-1.35537
3.35722
-1.85201
0.994309
0.259338
-0.978505
0.808451
-0.097635
-1.65785
-1.41922
-2.77272
-2.63103
1.82674
-0.853528
-0.304941
0.588566
0.271867
-0.208881
0.0626539
3.78844
-3.86454
0.076102
4.31184
-2.16327
0.803708
1.35956
0.3974
-1.4395
-1.1267
-3.85075
-1.02137
0.849416
-0.712866
-1.13975
1.85261
-3.37541
0.703532
1.07252
1.56491
-2.63743
0.32266
-0.974901
-1.19301
-2.34353
4.18334
-0.820338
-2.67712
1.13712
-2.16139
1.02427
-1.06668
1.39424
-2.26266
-3.73792
1.31723
-0.35195
2.91554
-4.59104
3.06767
1.52337
-0.057739
-1.30467
0.0704089
-1.42471
1.35431
-3.72773
-1.87131
-0.665609
0.635128
4.02503
1.70331
1.15053
3.65093
-3.6295
-1.9623
3.97452
-0.22077
-3.75375
2.69849
-1.81583
5.47926
-3.5513
-1.92796
1.28868
0.819267
-2.10795
-2.25045
3.445
-1.19455
-5.89292
3.13535
2.75757
-0.0831706
1.02414
3.59319
-2.4616
-2.94473
5.40633
2.94609
-0.538459
-3.28122
-0.161654
2.37457
-0.656193
2.10954
-1.45334
-1.95612
3.80138
-4.87593
0.364142
-3.02069
2.65655