/*--------------------------------*- C++ -*----------------------------------*\
| =========                 |                                                 |
| \\      /  F ield         | OpenFOAM: The Open Source CFD Toolbox           |
|  \\    /   O peration     | Version:  2306                                  |
|   \\  /    A nd           | Website:  www.openfoam.com                      |
|    \\/     M anipulation  |                                                 |
\*---------------------------------------------------------------------------*/
FoamFile
{
    version     2.0;
    format      ascii;
    arch        "LSB;label=32;scalar=64";
    class       volVectorField;
    location    "0.8";
    object      U;
}
// * * * * * * * * * * * * * * * * * * * * * * * * * * * * * * * * * * * * * //

dimensions      [0 1 -1 0 0 0 0];

internalField   nonuniform List<vector> 
13486
(
(7.12326 -0.961063 2.7773e-20)
(8.36516 1.76973 1.22277e-20)
(10.9206 0.168987 0)
(5.73527 -2.76713 -6.08271e-21)
(11.0534 -2.70558 9.731e-21)
(11.9469 0.724127 1.98445e-21)
(12.4119 -2.35035 9.25873e-23)
(9.45038 -3.49805 -1.533e-20)
(9.39835 -1.88846 0)
(10.0309 3.68741 0)
(-0.142024 -10.8924 -5.03388e-20)
(12.3338 -0.0185896 0)
(6.37451 -1.95734 -2.79562e-20)
(12.2978 3.60308 3.09273e-21)
(11.7331 -2.07907 4.79932e-21)
(10.0121 3.9667 -6.66583e-21)
(-16.3131 8.96939 9.27869e-20)
(6.88603 -2.07303 -3.43561e-21)
(11.8129 -0.159839 1.07828e-22)
(7.9813 -0.122607 -2.74272e-20)
(6.75948 -3.58509 -2.56741e-21)
(6.44796 -1.99752 3.60164e-20)
(8.3701 1.62003 -9.79519e-21)
(11.0276 -4.02042 0)
(10.683 2.93114 1.93788e-21)
(11.1108 -3.72454 -5.29092e-21)
(-12.2206 3.31951 5.48389e-20)
(11.5468 -0.506919 1.82897e-20)
(10.0525 0.0900333 0)
(10.5571 -1.48588 -1.03711e-20)
(6.43063 -3.0953 -1.69436e-21)
(12.5073 -1.65882 -5.3736e-21)
(13.2797 -2.20098 1.73399e-20)
(9.95932 -0.273547 0)
(9.48981 -3.34588 0)
(9.73217 0.0127001 1.03098e-22)
(9.67129 0.361606 -9.15692e-23)
(7.70452 -3.6036 1.47343e-20)
(8.96246 0.417491 -3.76301e-22)
(9.57383 -1.23704 1.39222e-20)
(11.5187 -4.05351 0)
(5.45064 -2.5138 -3.31761e-20)
(10.1753 0.141289 0)
(10.333 2.21167 -9.78496e-21)
(10.4326 2.15038 3.9303e-21)
(12.5513 -0.185439 3.3868e-21)
(6.20361 2.87922 2.35875e-19)
(9.99814 0.0931762 2.12345e-23)
(9.68078 0.412736 7.21058e-23)
(12.6429 -0.176977 1.03654e-20)
(9.99631 0.190784 1.39768e-20)
(9.21468 0.162828 0)
(13.1128 -0.601356 -2.93234e-21)
(7.93877 -2.89904 -2.12094e-20)
(6.64671 -2.44909 0)
(10.9607 -2.77686 -6.44455e-21)
(10.2229 0.44269 -3.6725e-22)
(8.90016 0.196752 -1.75069e-21)
(13.0011 -2.08256 1.9974e-20)
(9.76231 0.567931 0)
(1.53344 -11.899 -3.58798e-20)
(9.72114 0.553583 0)
(19.4142 -1.81833 -3.774e-20)
(6.91081 -3.55116 -3.01823e-23)
(8.14827 -3.81871 0)
(9.66593 0.3433 -3.39269e-23)
(5.81453 -2.89637 -6.10576e-21)
(7.04831 0.383611 9.12571e-21)
(9.41435 -2.054 -8.11281e-21)
(9.66172 0.0211163 3.68373e-22)
(5.42905 -2.51247 7.05017e-21)
(8.32317 -2.31456 -2.75721e-22)
(9.59743 -0.631786 1.02176e-20)
(-1.05466 5.97542 -3.72392e-20)
(9.79178 0.485148 -9.65669e-25)
(10.3339 0.445165 8.44713e-23)
(9.75887 0.486022 -3.84804e-23)
(11.7504 -2.15961 -1.9775e-21)
(4.87774 -0.263552 -1.31775e-19)
(7.94398 -0.956874 0)
(9.97385 -0.00694479 5.01932e-23)
(8.20762 2.15611 -7.81216e-22)
(21.0251 -2.89358 -9.7647e-22)
(11.6084 0.28646 -4.41721e-22)
(7.10167 -1.00104 -5.41277e-20)
(7.31395 9.49436 0)
(5.77456 3.17006 -3.65591e-21)
(10.1473 0.378544 -2.11265e-20)
(9.45879 1.05794 -9.72807e-21)
(9.1338 5.19121 -6.88362e-21)
(12.9274 -1.32837 -2.13033e-21)
(10.1006 -3.08771 -7.92313e-21)
(7.34295 -1.50612 7.14514e-21)
(8.13661 0.515216 7.01981e-22)
(8.85987 -2.70954 3.36662e-21)
(10.0005 0.098614 -2.17295e-25)
(-11.1976 3.15416 0)
(6.974 -3.60831 2.90989e-21)
(9.60971 -1.19953 -2.65728e-20)
(-16.133 9.0661 2.95143e-21)
(10.0105 0.0432366 0)
(12.115 3.67806 1.00635e-21)
(6.48821 -3.42781 8.25373e-23)
(9.11807 0.279853 2.04985e-21)
(7.24854 8.40823 0)
(-15.1427 7.79939 2.14074e-21)
(9.49792 0.311259 1.76942e-22)
(8.90285 0.341513 -8.78073e-22)
(6.5584 3.19967 1.67208e-19)
(9.72402 -4.47499 0)
(8.31168 -3.93473 0)
(12.3719 -2.1446 -5.46948e-21)
(7.97131 -2.77556 1.8888e-22)
(10.3201 0.299075 1.87101e-23)
(5.31469 -0.0331375 0)
(8.11474 -3.84394 -1.28473e-20)
(10.5874 3.19482 0)
(10.0617 -0.20243 0)
(9.4924 -0.556731 0)
(9.74975 0.282409 -9.95001e-23)
(7.54448 -2.30085 1.95596e-21)
(0.348668 -11.569 0)
(8.65774 -2.47416 0)
(8.88019 0.342108 1.25153e-21)
(9.00642 -3.27946 0)
(9.24085 0.248981 0)
(10.5664 -1.35658 3.06885e-22)
(10.7617 0.424406 2.25623e-21)
(9.67836 -0.0871492 -1.6633e-21)
(8.38024 -3.39539 -2.86554e-21)
(9.14847 0.152864 -1.9233e-22)
(7.77959 2.64097 -6.06637e-20)
(2.29853 6.18999 4.67456e-20)
(0.450422 -2.29909 5.27775e-20)
(10.004 0.0772128 -2.39998e-21)
(9.3772 2.32092 -1.04078e-20)
(5.03664 3.79567 -7.55783e-21)
(9.37852 -4.20625 0)
(9.75283 0.315256 2.99419e-23)
(9.72732 -2.90161 -5.35823e-21)
(13.3174 -1.01486 -1.90387e-20)
(13.127 -0.705592 2.35742e-21)
(12.5071 -1.01395 0)
(8.00333 -0.951126 0)
(10.0033 0.0275699 1.84075e-22)
(16.9829 -5.97831 -5.14115e-20)
(12.1929 2.78828 7.6321e-22)
(-4.82338 8.35781 0)
(12.6001 -0.216429 0)
(9.99606 0.0993125 0)
(10.0984 0.249609 1.87203e-22)
(11.7371 -2.45345 0)
(9.94197 -0.0212377 -5.25314e-23)
(8.06267 2.05424 -6.66458e-21)
(10.8265 1.5715 0)
(11.1748 0.183642 0)
(9.62201 -4.30432 0)
(1.98814 -1.06694 -1.48622e-22)
(8.39296 -3.3301 3.05969e-20)
(10.1501 1.14864 6.23782e-22)
(12.6225 -0.00524371 6.94689e-21)
(8.4253 -3.24181 -4.59665e-20)
(12.9355 -2.04755 -1.28907e-21)
(4.94066 -2.40512 1.46164e-20)
(9.17569 0.133853 0)
(13.005 3.49319 -6.16457e-21)
(11.9362 3.40259 -3.23039e-21)
(1.98724 -0.44689 -3.45989e-20)
(12.0298 2.64509 -1.78864e-21)
(0.640328 -1.59395 1.46903e-20)
(3.25824 5.1941 6.64348e-21)
(10.7001 1.37094 2.17979e-21)
(10.0582 0.598961 -1.63407e-20)
(11.3387 -1.17507 4.62196e-22)
(9.90012 0.0602976 -4.21006e-23)
(5.64412 -4.78651 0)
(12.4241 5.32293 8.20932e-21)
(13.9753 -1.28928 2.77114e-20)
(9.70282 0.17247 -2.42976e-20)
(12.5189 -0.944517 0)
(9.73011 -1.50207 2.85274e-20)
(10.0941 0.158481 5.63784e-23)
(11.7996 -1.19893 -2.48629e-22)
(0.57946 -1.38869 0)
(11.8849 0.776349 1.03184e-21)
(11.3098 -0.396833 -8.40242e-21)
(10.0792 0.0810113 -1.96964e-24)
(10.4486 -0.93046 -3.26552e-21)
(11.1674 -4.10456 0)
(7.51373 -3.63281 -1.72959e-20)
(9.74911 0.394931 0)
(10.7757 0.180871 0)
(8.98376 0.139299 0)
(8.47199 5.20477 -1.38674e-20)
(8.77215 0.00989778 0)
(-1.78436 -11.6749 -9.84844e-21)
(8.17524 -3.51097 6.73779e-21)
(12.6037 0.0170679 3.78015e-21)
(7.07392 -3.4461 -6.60107e-21)
(12.8082 3.18642 -2.93071e-21)
(6.41657 -3.19583 1.82152e-21)
(10.8816 0.570495 -5.96781e-23)
(7.69781 -3.69834 -1.70742e-20)
(10.5627 -4.35678 3.41121e-21)
(10.078 1.10771 -7.51188e-22)
(8.88989 -0.0415768 -1.73684e-21)
(7.11126 -2.47008 -1.5472e-21)
(9.04387 -0.0299797 2.07191e-20)
(8.84541 0.112273 0)
(11.654 0.724499 0)
(11.3238 -0.598598 1.19639e-20)
(9.9481 -3.63287 7.84147e-21)
(8.02803 0.00971523 2.51835e-20)
(9.3815 0.347548 4.05394e-23)
(12.0761 0.856344 -2.2885e-21)
(8.70158 -1.68185 1.17447e-21)
(10.7722 -1.41037 0)
(9.21005 4.74103 1.94658e-20)
(7.73106 -1.61268 0)
(16.0778 2.49136 0)
(-15.4401 8.54988 -1.71584e-19)
(12.7586 -0.160344 0)
(9.68352 -2.88468 1.25974e-20)
(12.4099 0.051233 0)
(13.9829 -0.552734 -2.59586e-22)
(6.55218 -2.91091 1.03802e-20)
(12.6895 1.43979 -4.18828e-22)
(6.56867 -3.61062 1.224e-21)
(8.80148 -0.967754 1.78073e-22)
(6.41823 2.59441 9.23072e-22)
(9.75316 -1.46474 -9.13518e-21)
(9.15038 -2.95924 7.97696e-21)
(13.3317 -1.26086 2.40179e-20)
(5.28295 -2.41851 1.13336e-20)
(6.35034 -3.44817 0)
(6.4259 -3.0874 1.22881e-21)
(10.197 -0.658532 5.5158e-21)
(10.7337 0.190322 -2.54272e-22)
(6.59321 -3.11882 3.377e-20)
(11.8918 -0.78262 0)
(12.867 -2.561 0)
(10.0389 0.382235 2.50634e-20)
(10.4627 0.262006 0)
(6.35935 -3.14279 1.12538e-20)
(8.78328 0.698046 -6.37875e-22)
(8.96198 0.427497 0)
(11.9559 -0.24704 -1.8311e-21)
(10.9295 -2.72913 1.84994e-20)
(1.36919 -0.969163 9.1853e-20)
(10.2298 2.07009 0)
(4.93899 -3.67629 -1.17157e-21)
(5.1783 0.0655525 4.04383e-21)
(7.61135 -3.73237 1.63954e-20)
(8.82672 0.314479 0)
(8.39096 -0.805199 1.36221e-21)
(5.1924 -5.42044 1.17047e-21)
(12.372 -1.537 4.12774e-21)
(8.71783 -1.71159 -1.48411e-21)
(2.7106 -3.7897 1.5564e-22)
(12.9602 -2.42891 1.27868e-20)
(8.95673 1.12961 0)
(8.80849 0.698899 -1.36563e-23)
(11.8105 -2.10158 -1.11846e-20)
(5.28934 -5.15571 -1.4615e-21)
(10.5984 -3.6164 -1.02692e-20)
(0.271435 -1.62474 0)
(9.05915 -0.966002 -3.1449e-21)
(6.40933 -3.24151 -2.62665e-21)
(10.0006 -0.0211489 -1.17881e-20)
(8.98707 -2.5764 0)
(7.49629 4.78497 9.70506e-21)
(9.66805 0.271973 -6.57139e-21)
(10.7442 -1.49721 0)
(12.8036 -0.00514092 2.12988e-21)
(6.76102 -3.08526 1.3885e-20)
(10.8034 -2.56985 -1.03176e-20)
(8.52053 -0.688707 0)
(7.57095 -2.68014 0)
(8.68672 0.284366 -9.87945e-22)
(12.802 2.62669 -2.04634e-21)
(7.56125 -2.67187 3.84659e-21)
(10.4252 -1.06698 -1.01822e-20)
(9.68518 0.433416 1.45938e-20)
(12.1487 -5.83978 -1.35102e-20)
(-0.930238 -10.0835 3.28941e-20)
(-15.193 5.37926 1.61926e-19)
(13.6887 -0.920961 2.365e-20)
(9.82735 -0.214582 2.18717e-21)
(14.0564 -0.616381 -1.89178e-22)
(9.84569 0.0374405 0)
(6.39654 -3.36223 0)
(9.49458 0.902036 4.11227e-23)
(8.03168 -3.7922 1.29202e-20)
(10.0784 0.193058 -2.28627e-21)
(10.1306 -0.684594 5.16956e-21)
(10.288 -0.785367 0)
(12.4334 -0.0685781 -8.87606e-21)
(12.7108 0.101471 -1.63281e-21)
(9.40888 0.250289 -1.34087e-20)
(12.2365 -3.02591 3.70902e-21)
(10.7322 -1.59048 1.36997e-21)
(6.57534 -2.23549 1.69946e-22)
(12.5566 2.56715 1.74394e-21)
(12.2772 -1.64464 5.05983e-21)
(9.67462 0.315159 5.93891e-23)
(9.18269 -4.55044 0)
(-0.109011 -0.603126 0)
(11.5754 -0.332184 3.65101e-21)
(6.20567 2.08994 2.14455e-21)
(9.7146 0.315027 0)
(10.4218 7.05095 -8.40881e-20)
(4.91387 -2.49375 0)
(11.9654 5.21287 -2.49786e-21)
(12.5571 -2.01561 -5.29847e-21)
(11.1577 -12.3702 0)
(9.54043 1.99744 -6.37244e-21)
(9.44791 0.920254 -4.5199e-23)
(9.50299 1.088 -8.36504e-22)
(9.29455 -0.0473648 -2.26879e-20)
(9.12379 -1.08025 0)
(9.78163 0.466686 5.13988e-23)
(9.32322 0.76453 4.66619e-23)
(9.96847 0.203532 3.05495e-21)
(7.74237 0.891892 -1.30889e-20)
(3.03376 4.12251 1.39643e-20)
(13.0606 -1.37654 3.84905e-21)
(10.8407 -1.99133 -2.89854e-20)
(10.3269 -1.06552 0)
(12.5249 0.746112 1.51049e-22)
(10.9598 -2.02357 -5.44985e-21)
(9.96012 0.181194 3.06518e-20)
(10.2384 -3.11556 0)
(12.7974 -1.24232 -4.28857e-22)
(7.32489 2.08677 0)
(12.1085 -2.42709 -8.68249e-21)
(9.12402 -2.57043 -9.12979e-21)
(3.89642 -1.71233 1.36692e-20)
(11.6202 -2.51026 -7.96107e-21)
(10.0109 0.833578 0)
(8.79653 0.75574 -8.20764e-22)
(8.8916 -1.00567 3.42202e-21)
(7.95883 0.846335 1.23773e-20)
(11.0866 -2.07015 2.08991e-20)
(11.816 -1.19701 8.95673e-21)
(1.11879 -4.01162 -5.43403e-21)
(9.97229 0.0675874 -2.25846e-23)
(10.9452 -1.11261 0)
(5.10831 -1.59527 3.23333e-20)
(16.2278 2.46365 0)
(9.36455 0.865115 5.33093e-24)
(10.8773 -0.645888 1.64533e-20)
(12.864 0.354404 -1.26232e-21)
(12.8399 -0.0388799 1.56656e-21)
(-9.93657 2.37062 -4.16591e-20)
(9.49394 0.258748 1.67698e-20)
(9.88495 0.000100994 0)
(-1.64251 5.87794 -2.73532e-20)
(10.614 -1.38061 -6.04194e-21)
(6.78221 1.83818 -8.01209e-22)
(9.83816 -3.36065 7.37975e-21)
(12.4958 -0.172767 0)
(13.4243 -1.06431 1.91913e-21)
(8.94959 0.72108 2.58689e-20)
(9.68896 0.426389 1.98718e-20)
(10.5782 -1.54684 0)
(9.99991 0.0283949 3.25479e-24)
(10.2324 -0.807908 -5.18039e-21)
(9.63976 4.06996 3.08191e-20)
(7.73717 -0.0501417 3.50927e-21)
(10.6247 -1.18036 5.76283e-21)
(10.2868 0.0716769 -6.1709e-23)
(10.9118 -1.03748 0)
(14.2615 -0.0726874 5.84152e-22)
(4.4115 -4.0127 1.1518e-21)
(11.9349 1.81805 3.5545e-21)
(9.81897 0.25098 1.18374e-20)
(8.62256 0.026489 0)
(9.23543 0.828178 -5.57083e-22)
(12.4413 -11.2891 0)
(16.8118 4.88526 -1.75392e-20)
(10.0853 -0.0902855 0)
(10.1334 -3.47425 -2.75844e-22)
(6.75851 -0.490439 -7.62843e-21)
(7.03536 3.43651 2.3243e-20)
(8.2815 5.20661 -1.28501e-19)
(8.75441 -0.76979 0)
(11.4823 0.250601 6.40244e-22)
(10.1065 0.99412 -6.14695e-21)
(-10.8549 9.16354 -3.9119e-20)
(6.59456 -3.17158 2.57155e-22)
(8.23061 -0.125086 -3.78522e-20)
(11.0425 -1.37374 5.37065e-21)
(10.5368 0.979912 3.75502e-21)
(7.21576 -2.09675 0)
(6.93589 1.60175 1.43564e-20)
(9.92062 0.356575 -1.88063e-22)
(5.37873 -2.82466 3.47685e-21)
(4.47783 -3.81277 -4.11093e-21)
(-13.1734 9.16918 -9.27572e-20)
(13.6283 -0.925511 0)
(-11.4192 8.62226 0)
(10.5964 5.8225 0)
(10.2682 -0.48191 0)
(2.69718 -2.70998 -2.25769e-21)
(12.1422 -2.33323 0)
(11.6706 2.34588 0)
(8.24222 0.69302 5.12258e-21)
(13.8112 -1.24801 -2.84732e-20)
(10.7825 -0.987426 -1.35536e-20)
(8.45312 1.75863 4.17917e-20)
(10.0375 0.153707 -3.09437e-21)
(12.4287 7.64545 0)
(11.5241 -1.27085 0)
(9.43889 0.368643 1.4233e-20)
(10.0277 -0.068772 2.42733e-21)
(6.51079 4.9654 0)
(1.48685 -1.61534 3.33524e-21)
(10.4479 -3.67341 1.15194e-20)
(5.0311 8.80084 0)
(11.7604 -0.701365 8.68832e-21)
(9.98011 0.282482 -1.62633e-20)
(5.9136 -1.65307 -1.02681e-21)
(5.11232 -1.52977 0)
(10.1074 1.09193 1.17829e-20)
(12.6396 0.688056 0)
(10.3611 -0.92308 0)
(10.9576 0.927899 -2.82949e-22)
(9.57536 0.480408 7.52122e-21)
(-12.6436 4.1923 -7.20125e-20)
(11.6573 3.31631 -3.31134e-22)
(6.60226 -1.53198 -1.36626e-20)
(10.0105 -0.405637 1.74841e-21)
(10.5352 0.920917 2.76688e-21)
(14.3668 -0.0211985 -2.99067e-21)
(10.864 -3.63751 0)
(11.262 -2.60662 9.91191e-21)
(6.83663 -0.174637 0)
(9.39362 0.920327 7.56443e-23)
(11.2659 -1.17079 0)
(7.12005 0.384314 1.94397e-20)
(-4.70212 9.29014 -1.73419e-19)
(10.9624 -1.27707 0)
(-1.77869 -1.6769 2.28357e-21)
(11.411 -1.40697 -1.23967e-20)
(9.04943 2.50259 -8.55448e-22)
(8.65634 -1.20948 3.67891e-20)
(7.16963 3.78204 -1.45663e-20)
(6.60572 -1.50429 -3.8901e-20)
(17.7981 4.23924 0)
(9.81712 0.367027 1.42208e-22)
(0.744833 -4.28397 -1.52084e-20)
(9.94392 1.18206 0)
(9.30402 1.08377 9.16457e-22)
(12.4067 -0.225468 -2.16831e-21)
(13.9434 5.2003 0)
(9.88939 0.0278995 0)
(4.58656 -2.41134 0)
(5.63296 -4.80838 5.07539e-21)
(11.8201 -6.16285 1.60021e-20)
(15.9191 -5.69585 2.9417e-21)
(11.8752 4.95318 0)
(8.36393 -0.813834 2.47588e-20)
(9.95781 -0.00166301 3.21872e-23)
(11.6043 2.97143 1.54597e-21)
(7.56006 -3.72076 5.47826e-21)
(9.40535 1.1007 0)
(10.0427 0.0886904 0)
(3.69095 -0.448488 -2.14767e-20)
(7.10746 -2.03416 -9.67884e-21)
(9.43573 -0.897101 0)
(9.03877 -4.22636 -1.25686e-20)
(10.1789 0.0147685 -2.92323e-23)
(9.99981 0.0752309 -1.78237e-23)
(4.20453 -1.79292 0)
(9.33182 -0.035609 2.17198e-21)
(9.76533 0.250833 1.01226e-22)
(12.5777 0.672853 8.27318e-21)
(9.11117 -2.70028 0)
(-14.7501 6.59744 -2.47387e-19)
(12.8408 0.239153 1.7832e-21)
(9.92487 0.425287 2.63816e-21)
(10.0662 -0.0372526 -3.35632e-23)
(13.2263 3.31208 0)
(8.38992 1.83115 -1.10919e-20)
(15.535 0.916488 -1.41919e-20)
(-14.5096 9.41448 1.94049e-20)
(9.78206 0.113213 0)
(6.41506 -3.10371 -2.63861e-22)
(2.28515 -0.211999 0)
(10.061 0.160517 -1.02881e-20)
(9.93553 0.389263 4.71984e-21)
(9.18401 0.275479 -2.7967e-21)
(5.48079 -4.95623 0)
(11.7372 -0.0124158 -9.93548e-22)
(5.60591 2.56367 3.88314e-20)
(10.815 -3.6122 0)
(7.99826 0.57668 1.59431e-20)
(11.9698 -3.09822 -4.26472e-21)
(10.6989 0.0866325 0)
(6.2652 -3.29293 1.23371e-21)
(8.03914 -0.867344 -2.8277e-21)
(10.3103 -0.00626036 0)
(-14.5119 6.52808 1.81659e-19)
(9.33849 0.96383 0)
(8.60925 -3.93109 1.26484e-20)
(4.92888 -3.88966 2.51279e-21)
(10.1166 0.0955263 2.37135e-24)
(12.1048 0.780031 -4.73517e-21)
(6.8414 1.56351 7.63954e-21)
(8.75549 -1.4071 -1.34796e-20)
(8.71447 -0.595787 -1.4382e-21)
(8.68948 -3.86093 1.30897e-22)
(10.5951 -1.26857 5.54653e-21)
(13.2591 3.2331 1.23252e-20)
(10.3133 -4.66526 0)
(9.98874 0.0499812 -1.04866e-20)
(4.60587 10.7486 -2.50517e-20)
(6.88948 -0.212609 0)
(9.86208 0.281534 2.70012e-23)
(9.3124 0.0401795 0)
(6.13023 -1.59673 3.41247e-20)
(9.97783 -3.73643 0)
(9.97472 0.0819046 -2.18285e-22)
(10.7681 -0.482151 -9.41323e-21)
(6.42129 -3.38955 2.31234e-21)
(5.77757 -2.8767 3.55051e-21)
(12.4295 0.059452 -7.14865e-23)
(9.07281 -4.34003 1.21413e-20)
(8.62384 -2.48994 1.35688e-20)
(7.35144 -1.52352 0)
(-3.29909 0.666616 -7.66274e-21)
(10.98 -3.44004 -2.33509e-21)
(-4.48239 -0.717175 -9.11511e-21)
(9.95492 0.0845658 -3.00071e-24)
(7.18682 -2.63223 0)
(10.7268 0.0339952 -3.46159e-23)
(1.02863 -1.63456 0)
(6.13157 -3.40512 1.20301e-22)
(7.24308 -2.02792 1.73594e-21)
(-1.18759 0.20644 0)
(9.93159 -2.70133 3.97436e-21)
(8.08505 -3.68307 0)
(13.9028 4.87519 0)
(8.28525 -3.95099 -1.66042e-20)
(7.46346 1.75522 1.15801e-20)
(7.53506 -1.54641 0)
(8.9151 0.896935 -7.03218e-21)
(17.0238 -6.02803 6.16145e-20)
(3.89704 -4.28532 5.90515e-21)
(14.226 6.65945 0)
(10.2117 -0.0437079 0)
(-0.111401 -4.73627 -8.45211e-21)
(9.24936 -0.490708 0)
(11.5832 0.410153 0)
(1.78788 -11.6349 -2.30315e-21)
(9.94708 -2.04282 -1.86112e-20)
(8.51274 -2.0414 1.14826e-20)
(12.7465 -2.68451 1.81674e-21)
(-2.95492 -0.79293 1.33218e-20)
(9.96756 0.251481 5.44589e-21)
(7.52567 -1.63991 0)
(10.8592 2.3461 -1.15787e-21)
(7.11853 -0.855745 0)
(11.5036 0.138799 0)
(9.85841 0.501806 0)
(10.9634 0.956916 -2.31757e-22)
(9.06975 -0.0196057 1.04966e-20)
(10.4618 0.163673 -1.49827e-22)
(7.72903 -1.69571 0)
(-10.4146 2.87585 -3.94168e-20)
(10.4167 5.61392 8.77326e-22)
(8.98533 -3.30329 1.31058e-21)
(9.20333 -0.161178 -3.38503e-21)
(10.6185 -2.45488 1.63859e-20)
(10.1072 0.236272 -9.39673e-21)
(-3.45716 11.2009 0)
(12.7122 0.162288 0)
(6.94091 4.61223 0)
(6.11273 -2.56955 -2.51249e-20)
(7.16266 -3.3858 -3.13696e-21)
(-0.314656 -1.25967 0)
(10.8667 2.32639 0)
(13.7551 -0.932793 1.20098e-21)
(9.87058 -0.138527 -2.7327e-21)
(9.58267 3.17116 1.01956e-20)
(10.8029 -4.37839 0)
(-6.93879 -4.80983 -1.43908e-20)
(11.4311 0.281532 -1.48575e-21)
(6.93286 -1.86408 -2.30134e-20)
(10.7957 0.478815 -6.25353e-22)
(11.664 3.00494 -2.01064e-22)
(9.42082 -4.90824 5.97455e-21)
(6.0342 -2.53822 4.33178e-20)
(8.65767 -2.45167 5.19877e-21)
(10.3905 0.346788 6.8423e-23)
(9.89248 0.116142 -2.73298e-21)
(8.07343 -3.9498 -3.78083e-21)
(7.97459 -0.660083 1.27605e-21)
(8.9082 13.1362 -6.03787e-22)
(8.81248 -4.17114 6.58045e-21)
(12.204 0.88007 0)
(7.73986 5.48481 1.59761e-21)
(10.3427 -0.00145973 -6.49159e-21)
(14.5843 3.1987 7.54555e-21)
(6.75963 -1.68885 -2.09821e-20)
(8.9586 -3.2018 -1.39984e-20)
(10.4716 -0.271896 2.64889e-20)
(11.672 -0.245705 -1.52226e-20)
(11.0581 -4.08458 7.0652e-21)
(13.7329 -0.75066 -1.22152e-20)
(5.70306 -0.506307 -4.56671e-20)
(10.6044 0.0902771 -4.62263e-21)
(5.66165 -0.929163 0)
(6.55891 -3.5394 -5.15492e-21)
(10.1035 -0.0462851 2.4146e-20)
(9.56107 0.0858596 1.50515e-23)
(-1.04635 8.04286 0)
(9.37925 -4.29617 0)
(10.2204 1.87368 8.34721e-21)
(5.16072 -0.458865 2.83807e-20)
(7.89991 -4.57482 -7.01157e-21)
(10.2995 -3.47465 -7.1176e-21)
(10.9149 -2.00875 1.58938e-20)
(16.3392 2.17674 0)
(10.3031 1.9995 4.36328e-21)
(6.80862 -2.21989 -3.08025e-22)
(12.6853 5.01014 8.54129e-21)
(9.72667 -1.31569 -1.60833e-20)
(-2.69205 -0.767629 -1.98826e-20)
(10.5109 -2.23961 -1.6053e-20)
(11.2409 -2.68415 5.2406e-21)
(11.5838 6.09582 0)
(9.51048 -1.1143 -2.31297e-21)
(9.25943 0.27866 2.58786e-21)
(9.95592 0.0524141 1.42063e-23)
(4.88258 -2.32193 4.01881e-20)
(9.53529 -1.31681 2.42233e-20)
(10.0469 1.07001 -2.48341e-22)
(3.9479 -4.06831 -3.03873e-21)
(10.664 -0.579238 -6.02252e-21)
(10.5999 0.106551 4.15002e-21)
(-2.09164 -9.26342 -4.45036e-21)
(12.2723 4.94896 -1.0069e-20)
(-15.2067 8.41717 -1.9738e-19)
(6.75329 -3.22537 -1.3321e-20)
(9.94855 0.0243086 0)
(10.1868 0.443139 -3.46199e-22)
(3.01886 -7.75991 -4.68922e-21)
(6.70181 -0.598229 4.08547e-20)
(10.1274 0.0491177 0)
(11.7287 -0.84221 -2.2928e-21)
(5.85755 -2.22143 9.80067e-21)
(9.9084 0.206647 -2.27994e-20)
(2.59397 -2.77414 -2.89711e-21)
(7.34186 -1.46336 -9.84136e-22)
(10.8171 -0.988727 9.28926e-21)
(11.1082 0.212343 -1.22663e-21)
(8.70516 -3.99469 -1.75141e-20)
(10.2753 0.194546 2.33795e-22)
(7.15481 -3.63489 -7.69945e-21)
(10.3618 0.0559227 6.09958e-21)
(10.0105 -0.457887 -7.57956e-21)
(10.5172 0.544604 -6.66644e-23)
(10.9759 -0.321128 -1.63262e-20)
(5.59159 -2.27694 -1.89343e-20)
(10.2468 0.211087 0)
(5.99112 -4.02118 3.50823e-21)
(10.2707 0.23358 1.81406e-21)
(5.57738 -0.897481 -3.14612e-21)
(11.7788 0.209952 -3.6891e-21)
(10.6433 -2.12074 -9.90191e-21)
(9.99888 0.1084 -1.71177e-20)
(10.4205 1.53291 2.18355e-21)
(1.74886 -1.55902 -3.42813e-21)
(11.7248 0.436392 0)
(9.1407 0.855952 3.09138e-22)
(12.7725 0.589631 1.2938e-21)
(7.2007 -2.54099 0)
(10.5545 0.52023 3.045e-21)
(12.3943 0.817704 1.4314e-21)
(11.2638 0.313877 2.19235e-25)
(12.1348 -4.62331 -1.29891e-21)
(8.99599 -0.0531895 0)
(8.90343 2.08761 1.98163e-20)
(10.171 0.957882 3.34097e-22)
(8.62971 -4.066 1.42603e-20)
(9.96105 -0.941865 0)
(7.36634 1.7141 -3.35444e-20)
(7.39001 -2.00615 1.61997e-21)
(12.8017 7.10035 -1.86465e-20)
(5.75114 -0.600664 4.46905e-20)
(10.3143 -0.0729735 1.74467e-22)
(5.68427 -2.92071 2.59359e-21)
(9.48184 -0.484068 -1.64505e-20)
(11.6389 -2.35145 -1.47032e-20)
(8.93808 0.829161 -1.48703e-20)
(10.3417 0.00599714 0)
(9.89311 -0.0290571 -1.03894e-20)
(-2.3492 -0.423246 9.94221e-21)
(-1.97089 0.662646 0)
(10.3165 -3.70698 0)
(9.95081 0.0763514 0)
(-15.4032 9.38496 0)
(10.3177 1.58277 0)
(5.46681 -0.438463 0)
(8.89803 -1.70643 -1.29882e-22)
(14.7316 -5.36684 -2.368e-20)
(12.8079 1.48109 0)
(8.14531 1.63916 2.97008e-20)
(8.30265 -2.16792 -6.36739e-21)
(10.2944 1.10768 3.23354e-22)
(2.4892 -8.90371 -3.63631e-21)
(5.55467 0.470384 -1.29438e-22)
(2.30632 -2.2232 2.47237e-21)
(11.1106 -0.155275 -5.79592e-21)
(12.6545 -0.329515 1.39894e-21)
(10.15 1.62129 -5.76641e-21)
(9.45821 0.943767 -1.9748e-20)
(10.0949 5.20525 -5.00478e-21)
(17.8826 5.11582 0)
(7.01497 -3.61022 9.34525e-22)
(6.21015 -1.68559 -3.73618e-20)
(10.4025 -0.0383524 -3.1601e-20)
(11.1496 -3.41814 -1.37232e-20)
(10.2342 -0.106545 2.58678e-21)
(12.8854 -3.4077 1.73759e-21)
(10.3539 -1.56172 -2.09529e-21)
(9.97952 -2.63309 -1.37525e-20)
(10.0269 0.786049 6.37138e-21)
(12.2329 8.12179 0)
(8.69679 -0.493762 -1.3016e-21)
(8.49265 0.510041 -4.63302e-21)
(12.137 -2.23545 0)
(8.77536 0.212072 0)
(9.10274 -4.15581 -9.158e-23)
(5.42347 -2.80013 3.08936e-21)
(8.91681 -1.75945 -5.83114e-21)
(9.38755 0.198699 0)
(9.50296 -0.15838 -2.15036e-20)
(9.11258 0.99133 -3.84745e-21)
(6.16681 -3.74864 2.01049e-21)
(12.0897 0.815501 1.05752e-21)
(3.15825 -2.40132 0)
(6.78969 -3.64225 1.10748e-21)
(12.3866 0.855965 0)
(9.31284 -1.1406 2.48533e-21)
(12.8343 -1.19032 -1.983e-21)
(9.92937 0.20339 -1.51565e-23)
(11.8539 3.46494 5.74223e-21)
(13.9594 5.93229 -1.76406e-21)
(8.37067 -2.41652 2.8057e-20)
(6.3932 -2.5939 0)
(7.97476 -3.38285 -6.61902e-21)
(7.54303 -2.03472 0)
(13.047 1.28667 -3.56063e-21)
(5.98199 -3.64754 3.97428e-21)
(10.3031 -3.67495 1.01561e-20)
(9.04375 0.720891 -3.98199e-22)
(4.88103 -6.07578 -8.61549e-21)
(7.74949 -3.64031 -1.64702e-20)
(6.37205 -1.70393 -2.17119e-20)
(9.79057 0.211055 6.98575e-23)
(8.1423 -3.24339 5.3892e-21)
(5.68777 -2.33597 1.55224e-20)
(6.68102 -1.85702 2.3537e-20)
(7.17556 -3.31252 3.79889e-21)
(8.5712 -3.51362 -3.36004e-21)
(8.94148 -2.77791 1.39258e-20)
(4.25243 7.96668 1.2462e-19)
(10.4279 0.0761165 1.45416e-22)
(6.43789 -2.14801 5.61105e-21)
(11.5819 1.95199 4.31187e-22)
(10.8368 -2.86201 0)
(-14.7436 8.54359 -1.94951e-19)
(10.0899 0.0321293 -8.08562e-21)
(10.0071 0.787747 0)
(12.9284 1.31085 0)
(7.6615 -2.78325 -4.5239e-21)
(12.3522 -3.20377 -1.59839e-20)
(11.9432 0.977355 7.37078e-21)
(9.89242 -1.99744 2.44692e-20)
(9.95218 4.95093 5.14964e-21)
(9.5878 -0.04065 1.70982e-20)
(5.85887 -3.80889 -1.47653e-22)
(8.93756 3.42379 0)
(6.86705 -2.00717 2.24419e-20)
(4.84707 -11.3185 3.27374e-20)
(4.95808 -5.75281 6.39455e-21)
(8.37995 -3.20686 4.72642e-21)
(9.51197 -4.52467 -4.01849e-21)
(11.0727 0.00154698 8.3297e-21)
(8.94051 0.497734 3.70208e-22)
(10.4854 -1.39447 1.10775e-20)
(5.80521 -3.84485 -2.68383e-21)
(11.824 0.938592 -5.46487e-21)
(9.65301 0.181377 8.3272e-21)
(5.63157 -0.875025 -1.83911e-20)
(9.24893 -0.392707 1.34594e-20)
(10.6319 -3.74833 0)
(11.9406 1.71453 -5.68729e-21)
(9.8635 0.155601 1.83014e-21)
(7.31071 -1.35837 -7.15826e-21)
(9.25409 9.29299 4.72081e-21)
(8.79579 -2.69994 1.03449e-20)
(9.89519 -0.0231474 3.65885e-21)
(6.90758 0.889406 -2.62533e-20)
(12.2901 -2.22358 0)
(9.18097 0.712338 -6.51209e-22)
(10.9996 0.512541 8.51669e-22)
(9.27993 -0.287895 0)
(7.15215 0.328908 1.50949e-20)
(12.0085 0.772922 0)
(7.77791 10.0242 4.46462e-21)
(11.5304 -0.311768 0)
(8.81445 -0.604449 0)
(12.381 0.0475235 1.80725e-21)
(11.9401 0.683692 -3.10895e-21)
(14.2162 0.135182 -2.12511e-20)
(9.60887 0.87436 -8.76318e-21)
(7.49081 5.29198 -6.04433e-21)
(10.2191 0.369242 -3.13608e-21)
(10.3924 1.47852 0)
(18.5095 -6.24163 -1.47374e-20)
(12.269 0.65452 6.0484e-21)
(9.27071 -1.06127 -5.14022e-21)
(10.8465 -2.85469 0)
(14.7618 3.13632 1.13411e-20)
(11.3011 8.27985 1.43797e-21)
(10.3979 0.0936718 9.15799e-22)
(7.61166 -6.5456 0)
(3.50331 -12.2069 2.27048e-20)
(10.0269 0.804157 0)
(10.5971 -1.2505 -5.64736e-21)
(2.08023 -0.322855 0)
(21.5861 -5.56432 0)
(8.59203 -2.54841 0)
(9.80128 -3.71021 0)
(-3.72636 -10.4948 -1.02939e-20)
(5.83471 -4.70529 -1.09313e-21)
(9.29183 -0.0482748 -1.56794e-20)
(6.42788 -3.41007 -2.80993e-21)
(6.18077 -2.44881 0)
(6.59367 -3.56674 -2.15665e-21)
(0.241382 2.1305 -9.11056e-20)
(7.83247 -3.68293 0)
(7.19957 -2.33806 -2.42479e-20)
(9.81435 0.512592 2.63235e-23)
(11.5315 1.88799 -1.65799e-21)
(11.671 -4.16009 3.92938e-21)
(9.14226 0.750266 0)
(10.53 -3.48999 0)
(16.6462 -0.735763 1.23167e-20)
(8.08259 -0.466094 2.99586e-22)
(9.65238 0.279712 -1.19952e-22)
(7.63573 -2.7981 3.73496e-24)
(9.92697 0.0135431 7.76818e-22)
(10.2497 0.474832 2.58633e-23)
(9.90597 0.846778 9.1587e-21)
(9.29134 0.799801 2.33149e-22)
(9.10154 -2.48983 0)
(-13.0869 2.09047 0)
(10.4576 0.19672 0)
(9.63547 0.0902749 0)
(8.534 -1.50487 1.00057e-20)
(12.6979 -0.77566 0)
(0.139706 -11.9442 7.50106e-20)
(9.07368 -4.82337 -3.90049e-22)
(6.53695 -1.92734 -3.55728e-20)
(6.99865 -2.7617 2.8771e-21)
(6.18452 -4.12476 -1.91217e-21)
(3.84307 -14.1131 -5.49249e-20)
(9.90311 0.0528927 2.88149e-21)
(5.35916 -4.12355 -2.60499e-21)
(9.37024 0.811877 1.69307e-22)
(12.362 0.0406035 0)
(11.4806 -2.107 0)
(5.53586 -3.45223 0)
(10.5593 -2.23096 5.25258e-21)
(8.35971 -3.61416 0)
(9.0718 3.23736 0)
(9.94752 -0.0321071 0)
(8.62168 -2.04508 1.07346e-20)
(10.3147 1.07249 -7.48304e-21)
(9.32525 0.0322432 0)
(9.10905 -1.75019 -5.58571e-21)
(9.83544 0.971954 -9.73017e-21)
(12.4571 4.75409 -1.83104e-20)
(7.90809 -3.65147 1.4831e-20)
(9.58494 3.6675 1.32859e-22)
(7.96891 -1.13561 -2.49152e-22)
(8.72065 0.363072 9.70968e-22)
(8.6519 -0.893545 -2.7428e-21)
(11.761 0.711016 4.46427e-21)
(9.66688 0.22455 -2.3728e-22)
(8.98087 0.531076 -1.47616e-20)
(10.3268 -0.00450678 0)
(7.33895 -1.11724 2.4463e-21)
(9.67219 0.313156 1.46902e-20)
(7.37524 -2.64898 1.96104e-21)
(10.3009 -1.43439 -6.11576e-21)
(5.29333 -0.603742 -3.08711e-20)
(11.7543 0.554398 -8.15364e-22)
(15.711 1.2443 2.05305e-20)
(10.1016 0.524872 0)
(10.3658 5.69796 8.75251e-21)
(9.18779 0.292003 -3.25015e-22)
(8.75279 -0.973932 5.35493e-21)
(6.91487 -3.5738 -6.25118e-21)
(9.79886 -0.0127186 7.94069e-21)
(10.3345 0.261423 -7.05976e-23)
(10.1189 -0.04502 -1.44421e-22)
(10.4414 0.1132 0)
(7.53584 -1.56217 0)
(7.48489 -3.54537 1.8393e-20)
(2.76535 -2.5968 3.12916e-21)
(9.95511 0.0625798 -8.60155e-24)
(9.71754 0.327582 2.96565e-20)
(11.2443 4.9509 -2.99345e-20)
(7.416 1.50057 0)
(8.93725 0.603826 0)
(7.86334 -1.58035 -9.41998e-23)
(12.2258 0.0122158 2.65862e-21)
(9.75278 3.28769 1.31959e-20)
(12.405 -0.895338 0)
(10.5338 0.103007 0)
(10.1682 -2.98573 1.95135e-20)
(9.55706 -0.694837 1.27901e-20)
(0.847945 -0.265062 -1.69223e-21)
(9.59569 -0.0548662 0)
(21.9249 -4.16642 2.34992e-20)
(9.66067 -2.24706 -2.099e-21)
(3.12458 -7.33169 -6.16244e-21)
(9.81957 -0.059671 -1.71357e-20)
(15.1445 -4.61579 0)
(12.451 -3.27304 1.25799e-20)
(8.237 -6.31618 -1.07903e-20)
(1.20202 -0.155066 0)
(9.65646 0.162552 -1.37209e-22)
(9.62104 0.528178 -9.6663e-21)
(10.0449 0.00699047 -1.81489e-26)
(13.3763 -1.41426 9.44878e-22)
(8.76852 9.34273 2.60625e-20)
(10.4978 0.080689 0)
(5.18544 -1.70115 -1.95189e-22)
(11.5591 3.89185 2.80604e-20)
(10.703 -10.6875 -3.68416e-20)
(10.1322 1.7284 6.82842e-21)
(6.73539 -2.80108 1.54031e-21)
(10.2383 -0.0917668 -3.70917e-20)
(9.94363 1.03842 1.62843e-22)
(8.72948 0.590635 7.02131e-22)
(8.47759 -1.82632 0)
(9.06819 0.0109664 -2.07567e-21)
(5.44765 -2.36405 1.2548e-20)
(10.8774 -0.454946 -1.84085e-20)
(9.73911 0.201693 -1.33564e-20)
(10.4381 -1.18118 5.19044e-21)
(8.27446 -0.659786 3.60187e-20)
(10.4595 0.0590968 -1.72717e-22)
(8.86952 0.626371 8.43398e-21)
(9.76689 0.393273 1.264e-23)
(12.75 -2.78807 -2.0872e-20)
(12.6105 5.37312 -1.38578e-20)
(8.0009 -4.76663 5.47184e-21)
(10.3812 -0.324678 0)
(3.44552 -1.48063 0)
(5.19614 -2.88799 0)
(6.51246 -1.74086 2.73245e-20)
(10.1842 0.0941204 -2.10656e-20)
(8.95354 1.13084 0)
(7.46406 -1.44474 -2.12148e-20)
(8.98709 1.08038 0)
(8.63064 -1.35101 -1.64373e-20)
(9.08163 -1.03349 -5.4849e-21)
(9.06635 -2.34227 -1.51636e-20)
(10.6843 0.143343 0)
(9.4873 0.0426141 0)
(9.46899 -0.285053 3.10337e-21)
(12.6355 1.31535 4.1668e-22)
(12.4751 -0.3679 9.72695e-21)
(11.9903 8.00789 -1.46126e-21)
(12.5802 -1.28318 0)
(8.42596 -3.11146 -7.83205e-21)
(-4.43702 -1.39867 0)
(3.34472 3.74947 -1.42326e-20)
(14.1455 5.78325 0)
(10.3293 0.248736 1.53702e-22)
(5.73684 -0.35383 1.18484e-20)
(7.42614 -0.44713 1.1696e-20)
(9.71642 -0.0411821 -3.10694e-21)
(8.93452 -4.52313 -2.22938e-20)
(9.59844 -0.96402 3.23711e-20)
(10.4991 1.61493 -2.99563e-22)
(11.8698 -3.33603 -2.03615e-21)
(9.68544 -2.23136 -7.5623e-21)
(-1.56007 0.369686 3.64397e-20)
(12.95 2.16698 0)
(9.86305 0.28938 4.10668e-23)
(7.59331 -1.70473 0)
(8.92037 0.588929 -7.84243e-22)
(8.51003 -3.09519 -4.07585e-21)
(8.36532 -0.522185 -1.18431e-20)
(10.0143 0.0184354 -3.6138e-24)
(12.5513 0.0415487 -9.26678e-21)
(8.3103 0.0253541 2.41953e-20)
(11.9472 -0.437158 -5.99734e-21)
(9.71712 0.269177 0)
(-5.86369 -4.51656 0)
(11.3627 0.313926 5.83531e-22)
(14.1197 0.0978844 0)
(9.34685 1.02196 -4.78923e-21)