/*--------------------------------*- C++ -*----------------------------------*\
| =========                 |                                                 |
| \\      /  F ield         | OpenFOAM: The Open Source CFD Toolbox           |
|  \\    /   O peration     | Version:  2306                                  |
|   \\  /    A nd           | Website:  www.openfoam.com                      |
|    \\/     M anipulation  |                                                 |
\*---------------------------------------------------------------------------*/
FoamFile
{
    version     2.0;
    format      ascii;
    arch        "LSB;label=32;scalar=64";
    class       surfaceScalarField;
    location    "7.7";
    object      phi;
}
// * * * * * * * * * * * * * * * * * * * * * * * * * * * * * * * * * * * * * //

dimensions      [0 3 -1 0 0 0 0];

oriented        oriented;

internalField   nonuniform List<scalar> 
20045
(
0.864063
-1.01817
0.154109
-1.72781
0.77741
0.950399
0.415265
3.02034
-3.43561
0.972743
-1.50298
0.530238
-1.67836
1.37265
0.305708
-0.85973
3.14604
-2.28631
-1.60044
0.118753
1.48168
0.0651297
0.841131
-0.90626
0.878462
0.689439
-1.5679
-0.943272
-0.319255
1.26253
0.102976
-0.529584
0.426608
2.79399
-1.42233
-1.37166
0.70069
-0.684752
-0.0159383
-1.66739
1.39007
0.277315
-0.0755391
1.45076
-1.37522
-1.45517
0.511902
-0.11448
-0.0938776
0.208358
0.159949
1.09359
-1.25353
-2.27272
3.26959
-0.996864
-1.18245
-0.0834234
1.26587
1.72051
-1.08803
-0.632475
0.255794
0.444896
-0.413324
-1.31449
1.91595
0.568177
-2.48413
1.24996
0.115592
-1.36556
-0.727533
2.64348
-0.151724
0.185584
-0.03386
-1.86642
3.92117
-2.05476
1.25475
-1.06014
-0.194607
-4.32641
2.79457
1.53184
1.91583
-1.36533
-0.5505
1.78133
-1.75936
-0.021967
-0.700012
2.19732
-1.49731
4.5516
-2.51513
-2.03647
-1.05996
1.12509
5.22437
-2.42494
-2.79943
-0.226911
2.37472
-2.14781
-0.115366
0.718481
-0.603115
-3.46457
2.2838
1.18077
0.99193
0.905706
-1.89764
-0.0640016
1.01101
-0.947013
0.329809
-0.458874
0.129065
3.39738
-3.45661
0.0592331
2.04927
-0.62977
-1.4195
0.843757
1.20551
1.31311
1.48088
-0.823872
0.349054
0.474818
0.285312
-0.0562418
-0.22907
2.49951
-2.72642
0.389289
2.67997
-3.06926
1.99569
-3.29219
1.29651
2.70099
-1.66186
-1.03913
-1.10124
-1.13407
2.23532
-0.170788
-0.55044
0.721229
-1.28898
1.20769
0.0812929
-1.18966
-0.488702
0.12865
3.16967
-3.29832
2.10614
0.887173
-2.99332
1.91924
-2.61925
3.00397
-3.12335
0.119373
0.336018
-0.60677
0.270752
-0.0701751
3.07415
0.434681
-2.4788
2.04412
0.68576
1.03475
-1.47431
0.482833
0.991474
0.365042
2.73088
-3.09593
-0.549455
1.42302
-0.873569
-1.05521
0.0706861
0.984523
1.5042
-0.625734
1.29721
-1.29067
-0.00654054
-1.22542
0.67597
-1.22918
-0.0597986
-0.451579
-1.68069
2.13227
0.398025
-0.286044
-0.111981
1.64672
1.34393
-2.99066
2.76259
-2.63394
-2.43129
4.07801
1.13977
-1.21531
1.17134
-0.763076
-0.408262
-0.259765
-2.72956
2.98933
2.56099
3.16044
-5.72143
1.29856
-1.2187
-0.0798673
1.74501
-1.31033
-3.57745
0.420525
3.15692
-0.0403628
0.904426
-0.439787
0.710069
-0.270282
0.276266
-2.00501
1.72875
-2.37615
0.0492871
2.32686
1.40545
0.474814
-1.88026
-1.19627
0.923146
0.273129
-2.00735
0.361857
1.64549
1.39939
-0.36272
-1.03667
0.701811
-1.07163
0.369823
-0.439729
-1.17142
1.61115
1.05465
-1.15157
0.0969146
0.894299
0.45699
-1.35129
-0.217311
0.0655869
-0.00549439
-1.09341
1.0989
2.04818
-1.05625
-0.129565
0.00637812
0.123186
3.42762
1.79675
-0.641718
-1.02567
-1.26115
1.25565
-0.931377
3.03752
0.186922
-0.626709
-0.101069
-0.0284958
0.543145
1.92494
-2.46809
1.28188
-3.30165
2.01977
0.347467
-0.910396
0.770049
0.140347
-0.519171
0.653941
-0.134771
1.60416
-1.7634
0.159246
-0.905261
0.734472
2.03857
-4.27266
2.23409
-0.451083
0.636838
-0.185754
0.0929793
-0.624615
0.531636
1.53586
-0.285895
3.1705
1.3811
-1.94864
1.49706
-1.42206
-1.61299
3.03506
-0.805112
0.965061
-0.179861
0.515879
-1.41473
1.12937
0.285367
-2.18269
0.212353
-1.08484
0.87249
1.52701
1.17398
1.65244
-2.37488
0.72244
2.33408
0.250864
-2.58494
-3.9346
2.70154
1.23305
-0.802922
1.16189
-0.358963
2.68912
-1.1621
0.754017
-0.404963
0.287498
0.13329
-0.420788
0.0754959
-0.0740439
-0.00145205
1.73609
1.17704
-2.91312
1.84409
-1.57718
-0.266918
-0.371841
-0.000482576
0.372323
-0.653848
-0.256549
0.714211
-2.13627
-1.22155
1.23398
-0.0124268
1.59583
-3.25103
1.6552
0.596654
-1.6979
0.965056
0.998994
-1.96405
2.99691
-3.25668
3.10663
-0.470846
-2.63579
1.20776
-2.2553
1.04754
2.78319
-1.42975
-1.35344
-0.441551
0.429207
0.0123445
-0.25083
3.18697
-2.93614
0.0313662
1.22338
-2.45957
0.0571302
2.40244
-1.79708
1.1899
0.607177
5.26911
-2.70812
0.273523
1.02504
-1.85042
2.16956
-0.319139
-2.73571
3.15097
0.0200906
-0.806912
0.786821
-0.298073
-0.754253
1.05233
-0.0794102
-0.672212
0.751623
1.88187
1.33978
-3.22165
3.99966
-1.98848
-2.01117
-0.816003
0.736593
1.73923
-1.63782
-0.101413
0.40481
-0.0750019
-2.59324
-1.22083
1.75796
-0.537136
-1.75567
1.33294
0.422729
-0.0202921
-0.222304
0.242596
1.59323
1.18996
0.0139532
0.0615428
-0.363655
0.651153
-1.9704
0.11998
-2.24942
2.77683
-0.527409
-2.235
2.23491
9.0553e-05
-1.60398
-3.56773
5.17171
-1.5622
1.2546
0.307596
1.05943
-1.16593
0.106504
2.89551
-0.11588
-2.77963
-0.0945811
-2.22431
2.3189
-1.28832
2.25338
0.609738
-1.84903
1.23929
-2.04887
4.08745
-2.23736
1.79744
0.439916
-0.186168
0.180639
0.0055288
1.57973
-3.26704
1.68731
-3.0877
1.22129
-2.10083
-0.589294
3.95414
-2.56619
-1.38795
-1.23111
1.16711
0.614467
-0.657811
0.0433441
0.695144
-3.12601
2.43087
-3.33792
4.55331
-1.21539
3.05576
-2.67499
-0.380774
-0.0888894
-0.51681
0.605699
-1.52706
-1.34917
2.87622
0.40889
-0.305914
0.744781
-1.5477
-2.15653
-0.654005
2.81053
0.428346
0.105681
-0.534026
0.345936
-1.56676
1.13877
0.777058
2.47176
-0.13768
-0.597476
0.48211
-0.728806
0.905836
-0.17703
-1.74966
3.63153
-3.10569
1.57864
0.98531
-1.41247
0.427161
-2.29533
0.528396
1.76694
0.591316
2.46444
3.46352
-1.88379
2.70822
-4.32759
1.61937
2.42141
-3.15752
0.736101
0.244178
-1.42662
-1.58543
2.12858
1.83498
-2.69471
1.74301
-4.16074
2.41773
-4.56471
2.24399
2.32072
-0.254865
-0.94141
0.620083
0.546112
-1.16619
1.98079
-0.79695
-1.18384
-0.108102
-2.23424
1.98341
-0.897002
-0.324549
1.84313
2.16956
-1.83098
-0.33858
-0.0393216
-0.50145
0.540772
1.81586
0.366426
-2.18229
-0.916525
0.0218625
0.894662
-1.02876
3.27348
-2.24472
-2.15491
2.43117
1.90978
-1.30004
-0.462292
1.7074
-1.24511
2.75437
-1.15854
0.436648
-0.0349442
-0.401704
0.634465
0.460938
-1.0954
-0.495601
0.517058
-0.0214568
4.00331
-2.59639
-1.40692
0.695264
-4.03318
-0.550365
0.0547635
-2.34121
0.531835
1.80938
3.63829
-1.44096
0.670515
-2.91993
4.94103
-2.01931
-2.92172
-0.0641556
0.492501
3.14923
-2.43654
-0.712694
-1.83584
0.250197
1.58564
-2.76217
2.68698
0.0751889
1.97581
-3.22507
1.24926
-0.0762157
0.044584
0.0316316
-1.42123
1.71266
-0.291433
-0.611455
-0.253558
0.865013
-0.5895
0.138417
-0.630313
0.111143
-1.48113
-1.82052
1.4109
-3.76825
2.35735
1.04537
0.586841
-1.63221
1.54189
0.239435
4.20107
-2.45806
-1.53006
1.23198
1.70923
1.92905
-1.6462
0.267622
1.37857
2.06943
1.0798
1.41624
0.0345195
-0.176352
1.22172
-1.02313
-0.198369
1.2215
-0.0852251
-0.100943
-3.41305
2.38429
0.552519
0.472539
-1.02506
-2.86256
2.76098
0.101583
-0.132959
0.45727
-0.324311
-0.325765
-0.502221
0.827986
2.23139
-2.55001
0.318618
-2.42044
-2.14427
2.99105
-1.98863
-1.00242
-0.399777
0.360456
3.48533
-1.50953
-2.25653
3.66742
1.76542
-0.166596
-1.59883
3.3984
-1.43448
-1.96392
3.00185
-1.18137
-1.82048
1.63964
0.125781
2.72041
-1.67823
-1.04218
-0.669293
2.49415
-1.82485
0.914365
-2.14968
1.23531
0.517169
-0.382853
-0.134316
0.00114483
-0.136665
0.13552
3.58337
-3.12125
-0.462129
-2.26357
-1.67103
1.48705
0.682505
-2.59951
-0.263052
-0.53663
1.1711
2.3472
-2.94627
0.599077
0.00871013
0.605757
-1.6007
3.33679
1.55152
2.45179
4.3652
-2.77351
-1.59169
-2.896
2.242
1.70382
-2.83955
1.13573
-1.85728
-0.278056
2.13534
-1.26022
-0.392523
1.65274
1.37367
0.365553
1.73558
-0.750266
1.5721
-0.605047
-1.15431
0.633863
1.58149
-2.21536
-0.884052
0.155246
-1.09335
0.631061
0.267525
-3.0297
0.499243
-2.65415
3.19465
-0.60533
0.740925
-0.135595
-0.183993
1.15674
-1.26888
0.863909
0.40497
1.44457
0.159584
0.0253456
-0.0415147
0.0161691
1.3302
0.513891
-0.641581
2.98878
1.75344
-0.34799
-0.762714
-1.53262
4.55586
-3.52459
-1.03127
2.73977
-3.05578
2.47197
0.583811
2.34715
-2.66027
0.313125
-1.48838
1.04865
-0.465748
0.0939073
-0.783758
-1.22359
1.16727
-1.82321
0.655939
1.29666
1.42375
1.53135
-2.74386
1.21251
1.02743
-1.82795
0.800518
-2.92332
0.547168
0.134091
1.2653
-1.74053
1.75049
-0.00996651
-0.589348
0.99124
-0.401892
-1.83334
0.232902
-0.415532
-0.843031
1.25856
0.422826
0.00194685
-0.424772
-0.906229
-0.890851
0.978741
1.39202
-2.37076
2.97591
-0.906477
1.14281
-1.35329
-0.13509
1.67165
-0.644222
-2.06403
-0.173326
-0.31768
0.119787
0.197893
0.310715
-0.025403
-1.68178
2.42309
-0.741315
-0.46597
0.558113
-0.0921425
1.80737
0.173413
-2.41054
-0.535734
-1.68498
2.84502
-1.16003
1.41256
-2.68619
1.27364
1.32188
1.66917
0.207188
-0.239177
0.0319892
0.419573
-2.27685
2.01299
-1.94313
-0.0698673
0.190956
0.207069
-0.414116
2.06656
-1.7815
2.28074
-0.787396
3.20881
0.513296
-2.78602
-1.7736
1.38715
0.386452
2.08042
-0.514711
-1.56571
2.86528
-0.633888
-2.08242
-2.32145
-2.39851
1.76881
-0.560377
0.541948
0.0184292
1.01698
-1.10041
-2.44007
2.02595
2.73104
0.666334
-2.50755
0.82577
2.16136
-0.674304
0.981344
-0.429233
-0.552111
0.0223738
-1.68205
1.65968
-2.68865
0.467664
2.22099
2.50385
-2.50385
-2.26261
2.90734
-0.644732
-0.0277393
0.0530849
1.47617
-0.698929
-0.777245
-2.95819
3.08519
-0.127
1.20655
-0.0731245
-1.13342
0.939657
-0.28152
-0.658138
0.462944
-0.788709
0.19364
1.58436
-3.84088
-2.37054
2.7992
-0.428661
-0.927495
1.90624
-0.0768111
0.00915762
0.0676535
0.899697
0.377394
-1.27709
-1.18149
1.42567
4.03949
-2.94647
-1.09302
-0.344598
-1.45346
1.79805
-0.866586
0.915216
-0.0486303
0.593252
-0.902629
0.309376
-0.801283
1.28604
-0.484757
-0.918803
-0.584178
0.690709
0.290635
-0.0813626
0.0515663
0.0297964
1.87022
1.71315
-0.0220395
-0.0547716
-0.281901
-0.584788
0.866689
-1.64318
2.57475
-0.931572
0.136717
0.734743
-0.87146
1.32796
-1.20921
2.13762
-1.06102
-1.0766
0.231041
-1.40246
0.611747
2.28376
1.50343
0.792367
-2.2958
1.5418
-1.15424
-0.387563
-3.03567
0.576101
-0.902796
0.429801
0.472995
1.11577
2.22783
-3.3436
-2.00843
1.73038
0.213745
-2.74996
2.53621
-0.480034
0.391145
-0.274519
0.274144
0.000375293
0.174712
-1.19784
-0.0087506
0.540452
-0.531701
-2.00054
-0.340679
1.83036
1.86948
-1.13109
-0.738389
-0.523639
0.057669
0.355188
-2.01747
1.66228
0.741565
1.45344
-2.195
1.18063
-2.07345
2.45608
-0.382636
-2.25265
1.58336
0.159776
0.0258083
-1.09205
-0.663626
-0.943757
0.206906
0.736851
-2.77056
1.12738
1.88535
-2.22995
0.904966
1.25639
-1.21284
1.10133
0.111508
0.342703
-2.94405
2.60135
0.654982
-0.964107
0.309125
0.38863
-2.79917
-1.90876
-0.326248
-1.13809
0.0828828
0.663128
-0.159141
-0.503987
1.61905
0.129112
-0.0961063
-0.0330054
3.16185
-2.04608
-1.37259
3.07188
-1.6993
0.879565
0.658669
-1.53823
-0.969398
0.489364
-0.840591
-0.103166
1.13339
0.342786
-2.6547
1.04171
0.0411565
-0.358837
1.74721
1.4203
0.333141
-2.60731
2.9966
0.292544
-1.10206
0.809511
-0.282098
-2.47001
2.75211
0.697152
-0.821387
0.124235
-1.39394
-0.168261
-0.949703
1.86407
2.44549
-1.23773
-0.995564
-0.273315
-0.0532785
-1.35792
1.4112
2.97763
-4.58161
-0.23416
-1.30767
1.54183
0.799721
-1.59932
0.799599
-1.86434
-0.0357934
1.90013
0.573916
-0.630157
0.0155708
0.367594
-0.383165
-0.776809
-0.0897768
0.59303
1.19849
-1.79152
0.538396
-0.64467
0.106274
3.00048
1.3221
-4.32258
-0.941538
1.83584
0.403418
0.0194078
-1.17779
-1.99867
3.17646
1.84358
-1.12937
2.66203
-1.92046
-1.24196
0.826433
-0.104432
0.105576
-1.0453
2.74912
0.318756
-2.24767
1.92892
1.28911
-0.831259
-0.457847
-1.23711
1.82845
-0.591339
1.12848
-1.35947
-0.990715
2.35019
0.103741
0.00698949
-0.110731
-0.806415
-1.4815
2.28791
1.34603
-0.446329
0.239624
-0.259916
1.54441
-2.35082
-2.05149
-0.702828
2.75432
-0.0390663
-1.60807
1.64714
1.07825
3.42544
-3.57157
0.146132
0.678744
-0.255855
-0.422889
-0.106937
-1.1059
0.746091
0.865057
-1.21383
-0.0463951
-2.3967
3.00962
-0.612926
1.13167
-0.579152
0.393425
2.60349
-2.57958
-0.877027
0.156944
0.0567413
-0.213686
1.58703
-0.166731
-0.756004
0.822469
-0.0664657
-0.861574
0.250119
-2.70929
0.608464
2.59822
0.547816
-0.225711
0.818963
-0.723072
1.60264
3.68624
-2.10188
-0.766781
0.0107775
-0.483033
-1.95704
0.520854
0.88773
-0.86764
-2.76938
0.0807248
-0.372406
0.746943
-0.0919609
-4.2302
2.18697
2.04324
0.876609
0.420598
0.730402
-0.272283
-0.45812
1.08314
-0.940114
-0.14303
-3.73076
1.30582
-3.18603
1.50104
-0.208705
-0.721917
0.930621
-0.0525763
-0.840257
0.892833
2.87165
-0.0346021
-2.83705
0.73557
0.0631679
-0.798738
-0.497781
-0.916952
0.821782
-0.119972
-0.034437
-0.0162443
0.0506813
1.42721
-0.0787892
-1.34842
-0.135247
0.10081
1.2625
-0.80551
-0.100764
-0.522701
0.623465
-3.05821
0.661515
-0.0938799
-0.00284032
-1.25831
1.06093
0.808552
-0.186856
-1.3432
0.777981
0.657387
-1.43537
-1.26036
-0.213951
1.06428
-0.771731
0.797409
-0.704429
0.396899
-0.986247
1.42638
1.44116
-2.86754
1.75405
-0.319013
-1.43504
-1.51718
-0.738119
0.728729
-0.601119
-0.127609
0.905129
-0.9712
0.0660707
3.26611
-0.0880312
-3.17808
0.196353
-0.387208
0.190855
-1.58534
2.18223
-0.596884
1.76182
1.55471
-3.31653
-0.429204
-0.177567
-1.01115
1.47948
-0.468335
0.754836
0.33301
-1.08785
-3.07888
2.05882
1.02006
-0.0714991
0.0552548
-2.54737
0.49588
1.09028
-0.634159
-0.45612
1.23877
-1.69228
0.45351
-0.377157
-0.641015
0.36235
3.06309
2.48315
-0.492058
-1.99109
-2.39226
0.318812
1.00418
-1.76689
2.82736
-4.25958
1.43222
-0.380137
1.00022
-0.0101237
-1.00306
0.721157
-0.553683
0.766037
-0.809698
-2.84063
3.65032
2.26577
1.21956
-2.21427
2.37081
-0.156539
0.172184
0.490944
-1.51767
-0.506454
-0.435964
0.488598
-0.0526335
-2.46112
2.27044
0.190678
-0.541907
1.85528
-1.31338
-0.316262
1.55503
-1.43205
-0.406907
1.83896
-2.50177
-0.747123
3.24889
1.2451
-1.10462
-0.140471
-0.941705
0.0595671
0.882138
-0.046374
-0.120038
0.166412
-2.80028
0.132879
2.6674
0.0679767
0.69505
-0.763026
2.27846
-2.55259
0.27413
-1.32621
-0.183206
1.21889
-1.03569
0.0420506
-0.478015
-2.17679
-1.38507
3.56186
1.96615
-4.01503
-2.83821
2.48584
0.352378
0.645715
-0.10732
3.1043
-2.71087
-0.234008
-0.360402
0.59441
-0.0506658
0.647583
-0.596917
-0.239636
2.14477
-1.90513
2.24097
-0.697597
-1.54337
3.03937
-2.8995
-0.139872
1.9586
-0.663545
-1.29505
0.125336
-0.808715
0.683379
-1.01592
-0.0689225
-3.10773
2.69587
0.41186
0.115942
-3.22368
-0.962201
1.47518
-0.512979
-1.56485
-1.5564
0.74298
-0.58151
-0.16147
-2.38351
-0.674703
-0.691502
0.49429
0.197212
-0.829885
-0.08664
-2.93991
2.80395
0.135966
-0.730277
-0.0422639
-0.24378
0.807196
-0.0716267
-1.63515
0.213921
0.596669
-0.631857
0.035188
1.13549
-1.23355
0.0980613
1.37
-0.163451
-0.660679
1.91367
-0.106292
1.08289
1.32364
-0.953424
-0.37022
-0.273592
1.33302
-2.05004
1.35401
0.69603
0.056094
-0.127593
3.55342
-1.28765
2.25308
-1.91037
-0.460135
-0.474626
0.934761
1.63146
-3.59532
1.96386
1.81727
-1.85634
5.00635
-2.69619
-2.31015
-0.0222256
-1.74529
-0.304757
-1.31724
3.41443
-2.09719
0.299496
-0.928515
3.63674
-3.13359
0.750081
0.279789
0.23738
-0.302023
0.0558755
0.532693
-0.0156346
-2.06899
-3.31909
5.02272
-2.26013
0.434201
0.521357
-0.955557
0.138087
0.80157
-2.28259
-1.04352
3.32612
1.42263
-0.0489591
-0.0192766
-0.52024
0.539516
2.46335
0.347678
-0.232308
-0.11537
2.8145
-1.38811
-1.00411
-2.85563
0.485096
-0.792756
0.0522864
0.740469
1.98444
2.95658
-2.50543
0.344255
2.16117
2.90571
0.133657
1.93061
-2.69432
0.763707
-2.41396
0.0107608
2.4032
-2.55795
3.24483
-0.686879
0.513121
-0.0220036
-0.491118
-1.92028
3.88643
-1.06448
0.155891
0.908587
0.134225
-2.34849
2.09868
-1.38057
-0.718106
-2.74066
3.57006
-0.829402
-0.650037
1.80824
-1.15821
3.48686
-1.54432
-1.94255
0.122333
-1.77139
1.64906
0.186171
0.0879728
-1.279
3.04082
0.602504
-2.86511
2.64105
-1.2285
-0.647993
0.547228
-2.49828
0.0843214
2.90024
-1.36889
0.116222
-3.69367
1.02602
-0.0150017
1.66279
1.61298
-3.27577
1.64019
-0.528489
-1.11171
1.15915
-3.48381
2.32467
-0.628579
0.0300374
0.598542
-0.617325
-1.57899
2.19632
1.1413
-0.744405
-0.260486
0.875688
-0.615202
0.309218
0.601934
-0.911152
0.25121
0.49177
-2.99684
3.42513
-0.428297
0.864896
-0.167744
1.4246
0.689216
-2.11382
1.04715
2.05866
-3.10581
0.648565
1.43185
-0.0155702
3.1222
-0.0522355
2.38376
-2.33152
0.276036
-0.139319
0.0942748
-0.00404758
-0.0902272
3.19654
-2.01962
-1.17692
2.4089
2.59745
-0.0716602
0.180082
-0.108422
-0.698739
2.28609
-1.58735
-0.0303502
0.64756
-0.61721
2.00525
-4.04794
2.0427
-1.18709
-1.35893
2.54602
2.29933
-0.483474
0.710645
0.929549
-0.190788
0.0447287
0.14606
0.925224
-2.37868
-0.764466
0.142695
0.621771
0.634689
-0.102144
-0.532544
-0.129949
0.31612
-0.140077
2.0155
-1.87542
-0.556114
3.23608
2.17127
-1.87789
-0.293383
2.02383
-1.54902
-1.35943
0.562268
0.797161
0.439773
-1.1387
-1.45975
0.403336
1.05641
0.246098
0.484305
0.455878
2.1757
-2.63158
0.896973
0.530232
0.381143
-2.88291
-1.67776
0.285645
1.39211
-1.18531
-0.665996
1.8513
1.67769
-0.899713
-2.50921
1.58172
0.731811
-0.561162
-0.170649
-1.51352
3.48328
-1.96976
-1.29365
1.52469
-1.88918
1.65695
0.232232
-1.45636
3.25551
-1.79914
-0.0644891
0.756921
-0.692431
0.901815
-0.954392
-2.15549
-1.02367
2.30338
-1.27971
-1.69039
2.21879
1.45127
-1.66927
0.218006
0.361334
-0.1174
-0.243935
-3.25453
1.91841
1.33612
-0.135582
-0.245844
0.381425
-0.773986
1.79249
-2.03213
3.45209
-1.82063
-0.258805
-1.51479
-2.12122
2.06899
1.28867
0.0442793
0.890834
0.281603
-1.17244
-1.14403
1.05458
0.0894509
0.446842
0.677905
-1.12475
0.847355
0.754967
-1.60232
0.181653
-0.37806
0.196407
-2.00314
-0.740248
2.74339
0.351751
0.00958339
1.47464
1.7219
-3.10273
1.24354
1.85918
0.561071
-1.44521
0.884139
0.025362
0.676335
-0.839199
0.162864
1.0423
1.42031
-0.57295
0.493845
0.704423
-0.579088
-2.29259
-0.168529
1.31566
-0.153771
0.077351
0.977303
-0.00441319
0.743457
-0.739044
-2.14489
-1.69709
3.84198
-0.350479
0.159691
-1.41394
-0.208361
1.6223
0.250652
0.799477
-1.05013
0.032081
3.32119
-2.13738
-1.1838
0.601832
1.88132
0.296193
-0.288043
1.68806
-1.40002
-1.63039
2.57773
-0.947335
-1.5781
-0.686827
2.26493
-1.5226
0.511456
-0.90499
-0.454439
2.99803
-1.39728
-1.60076
0.313992
-0.736239
0.422247
0.893912
0.331754
-1.22567
-0.607817
0.675794
-0.222819
-0.513457
0.736276
1.14791
-0.0998838
-0.716119
-0.0358694
1.67784
1.32019
-0.668209
2.95201
-1.03192
3.82649
-0.200744
0.514736
-2.3856
0.807499
2.26378
-1.8442
-0.440293
-2.04441
0.459071
0.336489
-1.29869
1.94876
-1.92639
2.50764
-0.16049
-0.633191
-0.438443
-0.436394
-0.28124
0.717634
-1.01495
-0.136623
2.31469
0.404046
-2.71874
-0.123146
-0.749978
0.873124
-0.56122
2.38079
-3.17603
0.795236
2.44279
-0.164326
-3.55878
4.15282
-0.594042
0.638108
-0.567422
-2.59161
-0.662926
-0.670402
2.74125
-0.0453729
2.17272
2.85062
-1.08444
-1.76618
-1.76684
-0.120369
1.88721
0.742233
1.29214
-2.03438
-2.13835
0.274005
-0.575435
-0.128001
0.703435
-1.4347
1.75345
0.522262
1.3758
-1.89807
0.0327262
0.0165865
-0.0493126
-2.68208
0.334478
2.3476
1.26902
2.18307
-0.939003
1.47297
0.485631
-0.542917
-0.359879
2.69512
-3.16597
-0.78866
0.880409
-0.0917494
0.20419
-0.633394
2.00818
0.0392537
-2.04743
2.72221
-3.75412
-0.000497456
-0.0757182
-1.12303
1.38149
-0.258454
-2.87871
0.701919
-0.11586
1.01134
-0.895479
-0.286379
0.0175622
0.268817
0.0616934
-1.45563
-0.871196
1.87537
-0.74997
0.541265
-0.537116
0.579166
-1.29452
1.31638
0.0959367
-0.0513527
-0.678764
0.645659
0.0331053
0.705494
-0.784603
0.0791092
-2.16768
3.51161
0.303884
-1.71783
-0.210833
-1.02028
-0.155586
1.76279
-1.6072
1.07308
-1.27145
0.211161
-2.18545
1.97429
-0.443625
3.1392
-2.69558
2.75066
-2.11679
1.3516
-0.0628946
-2.77532
2.31505
2.70766
-2.10521
-0.404002
-0.90768
-2.1481
-1.40227
0.559237
0.198677
-0.165612
-0.0330654
4.43204
-2.4476
1.88995
0.123048
-0.756465
-0.52975
1.28621
-3.31726
1.5963
1.72096
-0.369302
-0.160282
-0.714145
0.530939
0.559947
-0.304153
-0.0882302
-1.08497
0.0204965
0.0961731
-0.461728
0.365554
-0.37866
2.69335
0.929438
0.109502
-1.03894
2.8606
-3.29944
1.48014
1.8193
0.369974
0.98379
-1.35376
1.37193
0.12284
-1.49477
-1.70967
1.05963
1.22761
-0.174454
1.06837
2.64076
-2.92286
1.36002
-0.605179
-1.058
1.98323
-1.81163
1.17693
0.634703
1.90644
-4.03386
2.12742
-1.96185
2.21148
-0.249638
0.998894
-1.27249
0.0397164
0.448502
0.796593
1.50244
-4.232
1.91726
-4.23123
2.57469
1.65655
0.655877
-2.42272
-1.07321
0.0141628
-1.85
0.366616
0.967588
3.10828
-1.11706
-1.99122
-0.135594
0.71854
-1.90385
0.566319
-2.66988
2.54951
-2.13252
0.773053
1.34213
-2.1696
0.82015
1.34945
-2.43098
0.887534
1.54345
-0.957754
-0.41154
1.21126
-2.98996
2.1317
0.858267
2.01573
-3.93601
-2.87319
-0.123648
4.15787
-1.33051
0.936341
-0.444836
-0.491505
-0.0849225
-0.519323
0.604246
0.212096
2.94766
1.52285
-0.932383
-1.23722
0.354552
0.786751
0.507427
1.18415
-1.69158
1.27485
-0.728735
-0.0811024
-2.73987
2.82097
-1.00667
0.689156
-1.97748
-2.0959
-1.35885
3.45476
0.771103
-1.13382
-2.14241
0.648626
1.49378
-0.117837
0.119292
-0.0014548
2.65748
-3.46718
-6.32063e-05
-1.12297
3.06922
0.513909
-3.58313
-0.180256
0.614457
-2.51427
0.736935
1.77733
-2.64678
1.45969
0.939815
-2.57021
-0.889779
0.101119
-0.127867
0.01003
0.574158
0.714949
-1.69786
2.28486
-0.587
2.86873
0.039732
-2.90846
-1.37867
-0.0484465
-0.556883
0.136254
2.36759
0.454634
0.103478
1.20524
-0.0913602
0.0636209
1.47253
1.83132
-1.38448
-2.74633
-0.193579
-3.06689
0.365158
-2.8017
0.575352
0.620493
-1.19584
2.31177
0.138581
-2.45035
-0.387595
0.365592
-1.09225
-2.09377
-2.22592
-0.434354
-1.18763
3.90984
-1.01138
1.48764
-0.476258
-3.07566
0.930771
-0.970839
1.47827
-3.12573
-1.10448
-1.36965
-0.689185
0.795689
1.35051
-0.215015
3.17709
-0.435841
1.77528
-0.138187
-1.6371
0.146828
1.56057
0.883241
2.93656
-2.72282
-0.194928
-0.710241
1.08006
-1.35706
1.62468
-1.47954
-2.25558
0.73946
0.541381
-1.28084
-2.55259
0.0487475
-0.471538
2.31838
-1.84684
0.048289
-3.60707
-1.84072
2.20715
3.94174
-1.86675
-2.07498
-0.208553
0.638354
1.96556
-0.673678
-1.29188
0.863658
-0.963542
0.092136
0.00213884
-0.350766
-0.130162
0.480928
-0.265556
1.15639
-1.92273
3.93846
-0.00212712
-0.579383
-0.8297
-0.351422
1.18112
-0.331618
2.9891
1.13065
-0.409502
-0.721148
-1.18654
1.77957
1.06036
1.22574
-1.56687
-0.110892
1.72219
-0.676172
-1.04601
-0.00826105
-0.0960349
0.104296
0.392168
-2.0772
1.68503
-2.69805
0.472132
0.710142
-2.40655
2.77171
-0.0404727
0.904131
0.484115
-1.4955
-4.53364
2.13514
-2.85156
0.863072
-1.45161
0.270113
-0.901218
-1.67056
2.57178
-2.0843
-0.195495
0.253664
-0.0581684
2.65971
-2.23918
2.1584
-1.41617
0.260717
1.60956
-1.87027
0.311716
-0.887151
-0.582951
-2.10984
2.69279
-1.36001
0.0399396
1.32007
-2.31402
3.59823
-1.28421
1.97504
-1.75223
-0.222805
1.52515
0.0426631
-1.56781
-1.34394
-1.9555
-0.925759
-0.212333
1.30745
1.38166
-0.0266787
0.354994
-0.328315
-1.9855
-0.528771
1.72723
1.54236
-1.59672
1.99852
-0.4018
0.122047
-0.354354
-0.167252
0.433515
-0.266263
0.876886
0.0525521
-0.293727
-2.69624
-3.07476
0.670466
0.061345
1.55462
-0.415853
0.257967
2.02899
-2.28695
-1.452
-0.183154
0.939071
2.03684
0.225534
-0.879382
-0.611628
0.382486
0.229141
-0.00324263
-1.0433
1.04654
0.135006
0.322264
1.99966
2.55061
-1.25395
2.10197
-1.41282
-0.38947
-0.794454
1.18392
2.11143
0.382718
-0.0822446
-2.06948
1.45216
1.24159
-1.57321
-1.12802
-1.94052
3.06855
-1.62896
-1.68831
-2.9791
2.96972
0.00937956
-0.234987
-0.780155
0.498915
1.63366
0.916955
1.07269
0.235997
-1.30869
-0.290397
-1.00027
-1.85039
-1.02096
2.87135
1.38145
0.0411885
0.0121558
-0.776622
1.6008
-2.69306
1.11962
-1.00403
-2.23546
3.2093
-0.973831
1.2394
1.05468
1.13232
-2.187
3.01539
-1.67325
-1.34213
-1.8969
-1.52315
2.5433
-1.02015
0.321855
1.45343
-0.94208
0.901607
1.22144
2.26542
-0.711128
0.626206
0.0657757
0.063336
2.69543
-1.5184
1.47509
2.95694
-1.30516
0.730895
0.574263
0.558945
-1.01908
2.03832
-0.0301422
0.618273
0.318067
-1.78118
-0.297878
2.07906
0.613397
-0.0576223
-0.555775
0.557258
0.121486
0.368568
-2.92652
-0.924748
1.09946
1.85575
-1.75612
-0.0996264
0.573953
1.14823
-0.517122
0.244839
0.934437
0.617048
-1.55148
-1.00698
2.92622
0.664052
-1.25345
2.66933
-1.41588
-0.557636
0.866854
0.0824938
-0.0497676
3.07282
-1.58212
-1.01739
0.037074
1.33485
0.992773
-1.20361
-0.598891
0.534402
-0.839953
-0.488494
-0.0351454
1.08656
-0.546758
2.30075
-1.754
-0.175449
0.0940864
-0.658216
0.297814
-1.06855
0.142793
-3.08625
1.90846
0.843392
0.636093
1.24305
1.02547
-2.26852
0.383258
0.326811
2.00906
1.30202
-3.31108
-0.398315
-0.0321499
0.430465
1.08269
-2.45528
2.73536
1.20638
2.19455
-1.93659
-2.56845
0.237509
0.0838749
-1.0656
1.23934
0.892792
1.7659
-2.6587
1.31733
-0.244253
-0.0718636
-0.949082
-0.356075
-1.4429
-0.873228
1.313
2.13936
0.932519
1.49804
-1.45793
-0.0401066
0.628649
0.01701
-0.197213
0.810273
-0.104779
2.11712
0.521797
-2.63892
0.54476
-0.448587
-0.741619
0.457781
0.283838
-1.08533
-0.0534268
1.13875
0.588017
1.71452
-2.30253
0.62077
1.05692
1.86825
-0.058609
-0.846652
0.0655205
-0.156881
-0.247447
0.625811
-0.378363
-2.2201
1.6308
2.37174
-1.81643
-0.555319
0.0519224
-0.488291
0.436368
2.26684
-2.40691
0.948006
0.433439
1.1186
1.0398
-0.47694
-0.0115542
-0.539139
0.589697
-0.0505578
-1.38081
-0.42254
2.99663
-1.54005
-1.45657
1.13786
0.0750201
-1.21288
1.36238
-2.11519
0.752805
0.504221
1.48332
0.188328
0.177935
2.77039
-2.94833
-0.03708
-0.502059
-2.16366
-0.84379
0.953292
2.41673
0.00395579
-2.42069
-2.1415
-0.625141
0.620727
0.163158
0.0169241
0.854962
0.526527
-1.9993
1.45739
0.0295268
0.437151
-0.143848
0.33077
-1.19605
1.45677
0.0185615
0.869169
-0.0696798
-0.190995
1.73289
-0.0432499
1.54129
-0.765639
-0.424994
-0.614895
1.54933
-0.321408
2.35526
-2.03385
-2.17637
-0.370997
-1.60958
3.87671
-2.26713
-1.05993
0.216136
1.01467
-0.173543
-0.0454309
-0.793944
0.839375
-2.36593
0.783808
0.476027
-0.460457
1.23693
-3.51952
1.60766
-3.60633
-1.69534
2.26352
-1.34863
1.5824
-0.965355
0.0297138
-1.54749
1.93966
-0.00123467
-0.500215
0.177839
-1.28246
-0.411486
-1.61809
2.02958
0.409754
2.66067
4.41322
-2.91897
-1.49425
-0.662808
0.283324
0.745888
0.0627516
-0.80864
-2.25485
0.556985
0.660047
-0.0253577
-0.0187962
-0.433
0.451796
2.22661
-3.83619
0.286979
1.24659
0.2296
-1.47618
-2.63086
2.30945
0.481466
0.120499
-0.601965
1.38492
-2.40859
-0.474802
0.00300321
0.471798
0.625735
-0.144269
-0.00108073
2.06854
-1.41997
1.58262
1.53951
-0.918743
-2.95326
0.85736
-1.75803
1.58163
0.176402
1.85511
-2.98313
-1.5138
-0.813384
2.32718
-0.138825
1.32873
-0.927856
0.854732
2.88802
-0.430078
-2.45795
-0.00582933
-2.7405
1.35442
0.170734
1.29163
0.673928
-0.518938
-0.00130191
0.494657
-0.659011
-1.1642
-0.0328342
-0.0492744
0.0821085
0.0149866
-2.02873
2.01375
-0.410011
1.19247
-0.782456
1.75395
-3.53103
1.77708
-0.0704518
-1.50672
-0.0817591
-0.12894
1.79224
-1.0658
-0.53714
1.60294
-1.14135
-0.859189
1.36396
-0.822583
0.582273
-0.907845
0.325572
2.67369
-1.43064
-2.43334
-0.260615
-0.292072
0.552687
0.876743
0.352521
-1.22926
0.796435
-2.59597
1.79954
0.293866
-1.60835
0.461045
-3.2017
-1.42992
-2.69736
4.12728
-2.52946
0.0972408
2.43222
-2.77112
-2.15296
0.19111
-0.985435
0.965962
0.0194726
-3.75382
-0.857706
2.97482
1.20456
-0.547174
0.368565
-0.983461
-0.409608
1.46653
0.48609
0.357501
-1.1872
0.0554679
-0.49326
0.437792
-0.360237
-0.0813141
-0.338248
0.390171
-1.03137
1.40134
-2.45384
1.14205
1.31179
1.70498
0.0305979
1.18673
0.66646
-0.0530632
1.61148
-0.538782
-1.39293
-0.749477
-1.61623
0.497187
1.11904
0.33484
-0.486596
0.151756
-1.38916
1.38592
-0.316059
2.083
1.01481
0.115841
1.16273
-2.30408
1.17509
-1.36595
0.19086
0.412231
-0.0446373
-0.231083
-0.00809342
-2.55815
1.65693
-0.10946
1.24732
0.0394139
-0.628207
0.588793
-4.20892
1.47321
-0.479804
0.940742
-0.593101
-0.0534324
-0.679547
0.732979
-1.66063
0.594827
-2.85206
2.55834
4.22578
-1.15656
-0.820109
0.767243
0.0528658
0.303226
-0.246485
-0.493598
-5.49032
1.70099
3.78933
-0.482011
0.449862
-0.106946
1.15432
-1.04738
1.19419
-0.24618
0.24288
0.15123
-0.39411
-0.893623
0.912184
0.280119
-0.0891626
1.49169
-2.89085
2.73971
0.165998
-2.13233
0.127314
2.49076
-0.121748
-2.36901
0.147743
0.775915
-0.923657
3.07533
-5.14432
0.843792
-2.07383
1.23004
-0.0984516
0.023853
0.0745986
-2.59535
2.66466
-0.0693089
-1.29078
1.50194
2.06871
0.172261
2.90081
-1.08409
-1.81672
-0.364438
-0.686278
1.05072
-0.562713
-0.986249
-0.0296716
-0.932666
-0.0535832
0.287452
-0.879352
0.5919
-0.27201
2.52872
-2.25671
-2.12287
0.497441
1.62543
0.698435
2.17322
0.0349715
0.267329
-0.3023
1.62521
0.685911
-2.31112
0.335026
-0.136349
-4.09152
4.55384
-0.46232
-2.07705
0.295863
1.66473
0.720227
-2.23403
-0.00670842
-0.372466
0.379174
2.75877
-0.876959
-1.88181
1.19392
0.71149
-5.56934
2.25025
2.45917
-2.54027
-1.32396
0.130474
1.19349
0.0346005
-0.460933
0.11635
0.344583
-0.083002
-0.277385
0.360387
-0.0274695
0.411336
-0.383867
-1.34991
1.4106
-0.060687
-1.59429
3.1951
-0.910301
0.857022
0.834586
-0.941531
0.943796
-1.62826
0.684465
-1.10771
-0.703918
-0.15845
0.112076
0.134085
0.0325949
-0.16668
3.57772
-2.36661
-1.21111
0.14039
1.71536
-0.732317
-0.411713
-1.69262
0.334698
1.50601
0.949931
-2.45594
-0.0448344
-0.0191419
0.0639763
-0.0227211
1.10586
1.10097
-0.545684
-0.55529
3.71374
-2.2449
-1.46884
-3.72528
0.884654
0.130695
-3.08656
2.13477
0.951791
0.466665
-2.24816
1.03728
-1.04012
-0.20454
-0.0265436
-0.917771
2.26296
-1.34519
0.483996
0.0759511
-0.152594
-0.935439
-0.7268
0.724673
-0.287909
-0.0992992
-2.67209
3.5832
-0.911107
1.68989
-1.36115
-0.328737
0.669076
-0.53407
0.757787
0.157429
-0.730943
0.596172
-0.280619
-0.938076
1.4861
-2.1837
-2.61064
2.78858
-0.233145
0.113107
0.431109
0.194626
-0.0831455
-0.0153061
2.24376
-2.33637
0.0926167
2.98329
-1.27372
0.703264
0.570452
0.35165
-1.06189
-1.93248
-2.44802
-0.746784
0.689161
-0.494976
-0.834217
1.32919
-2.24864
0.558253
0.334227
0.803202
-1.13743
-1.05713
-0.302886
-0.325429
-1.18121
3.23987
0.423218