/*--------------------------------*- C++ -*----------------------------------*\
| =========                 |                                                 |
| \\      /  F ield         | OpenFOAM: The Open Source CFD Toolbox           |
|  \\    /   O peration     | Version:  2306                                  |
|   \\  /    A nd           | Website:  www.openfoam.com                      |
|    \\/     M anipulation  |                                                 |
\*---------------------------------------------------------------------------*/
FoamFile
{
    version     2.0;
    format      ascii;
    arch        "LSB;label=32;scalar=64";
    class       volVectorField;
    location    "3.2";
    object      U;
}
// * * * * * * * * * * * * * * * * * * * * * * * * * * * * * * * * * * * * * //

dimensions      [0 1 -1 0 0 0 0];

internalField   nonuniform List<vector> 
13486
(
(6.87253 -1.66241 1.2061e-20)
(7.15515 -0.0313296 6.82304e-21)
(9.7942 -0.187468 0)
(12.6036 -6.06908 -6.18026e-20)
(11.3293 -1.32869 -6.86159e-21)
(8.8731 0.499366 -1.34439e-21)
(12.949 0.819963 5.61688e-22)
(9.58627 -3.19007 1.08716e-23)
(8.96417 -1.75067 0)
(7.45986 1.35479 0)
(-1.20478 2.08982 -6.24512e-21)
(8.57738 0.279155 0)
(6.44585 -2.34859 -1.17786e-20)
(8.47963 1.77013 -2.25072e-21)
(11.2831 0.491648 -4.57211e-21)
(7.3802 1.38785 -6.57861e-21)
(5.64374 -3.16762 5.92543e-21)
(6.67623 10.5957 -4.01516e-20)
(8.01754 0.135288 7.45751e-23)
(7.35341 -1.00516 -1.2432e-20)
(13.2062 -5.77702 -3.74656e-20)
(6.50402 -2.39216 1.51747e-20)
(7.2102 -0.0501431 -5.4657e-21)
(12.7779 -0.98104 0)
(7.785 1.08547 2.25701e-21)
(12.4203 -1.77111 -1.26884e-20)
(4.15993 -1.02878 8.32534e-21)
(11.5892 0.158071 3.10255e-21)
(4.73441 1.43167 0)
(11.7217 -0.119106 7.47757e-22)
(12.2668 -0.241238 -4.28876e-20)
(9.82776 1.97054 2.72846e-21)
(12.0717 2.39109 6.80894e-21)
(11.7029 -0.0809907 0)
(9.62942 -3.0411 0)
(6.21288 0.0687305 -3.13529e-22)
(7.34763 -0.856847 2.20512e-21)
(7.56258 -3.52208 4.25279e-21)
(9.16326 -2.85787 -2.70862e-22)
(8.83987 -1.08421 4.23942e-21)
(13.1854 -3.45545 0)
(5.81199 -2.7562 -1.42576e-20)
(9.85715 0.254402 0)
(7.82534 0.897048 -1.04835e-20)
(7.85686 0.907882 4.28135e-21)
(8.45815 0.279289 3.92466e-21)
(-0.862748 -3.55107 6.07063e-21)
(4.96063 0.707345 1.52969e-23)
(7.30315 -0.811492 -1.67954e-21)
(10.4441 0.515486 3.34971e-22)
(7.99451 0.0156918 8.50116e-21)
(9.77753 -1.29791 0)
(7.49649 0.973914 -7.56491e-21)
(7.77395 -2.89439 -6.5786e-21)
(4.44423 12.9395 0)
(11.0888 -1.52364 3.28032e-21)
(7.25539 -0.762505 -9.43311e-22)
(9.92727 -1.87438 -5.01782e-22)
(12.1168 2.49113 8.59366e-21)
(7.03614 -1.0681 0)
(-1.89806 0.383092 -7.20811e-21)
(7.21029 -1.11503 0)
(8.04298 2.72465 -5.02469e-22)
(13.5392 -5.5844 -4.39867e-22)
(-10.6219 -2.30928 0)
(7.29995 -0.94193 1.10748e-21)
(10.5361 -6.14285 -5.15698e-20)
(6.67176 -0.868014 4.44265e-21)
(8.95085 -1.85199 -1.91137e-21)
(6.53494 0.148564 -6.38621e-22)
(12.0492 -6.15136 5.95487e-20)
(4.78976 12.0417 -2.49151e-21)
(8.58907 -0.700942 3.72921e-21)
(-2.61766 2.60499 -1.43142e-20)
(7.2931 -1.03866 2.32115e-22)
(6.93676 -0.718725 2.14968e-22)
(7.20149 -0.993651 -7.38515e-22)
(11.4099 0.466804 1.90896e-21)
(-1.10874 -2.55395 -3.40028e-21)
(14.8466 -2.89189 0)
(6.51125 0.105217 1.61299e-22)
(6.90314 0.166836 -4.52448e-22)
(7.45763 2.4707 8.21093e-22)
(9.74621 -0.334632 -1.10224e-21)
(6.87549 -1.68079 -2.34483e-20)
(5.77916 3.26906 0)
(3.75196 -6.45956 -3.73713e-21)
(7.99495 0.0703058 -1.34417e-20)
(7.7176 -0.0100236 -5.68947e-21)
(6.81618 1.93315 -8.82397e-21)
(8.5852 2.55767 4.52238e-22)
(10.2394 -2.47291 1.05983e-21)
(7.15011 -1.97755 2.90661e-21)
(7.29782 -0.588448 3.42749e-22)
(8.75047 -2.63954 7.3318e-22)
(5.65681 0.579867 4.86131e-23)
(4.02163 -1.15767 0)
(9.12416 -6.78935 2.38529e-20)
(8.82843 -1.03648 -8.1561e-21)
(4.32758 -2.73909 -2.81037e-23)
(6.73703 0.0537902 0)
(8.42618 1.76805 -9.21419e-22)
(8.78438 -7.99013 7.98495e-22)
(9.75914 -1.63753 5.33245e-22)
(5.4524 2.92735 0)
(3.85088 -3.16187 8.30724e-23)
(8.01682 -0.151879 -5.96022e-24)
(9.31104 -3.4072 -9.73681e-22)
(-1.64059 -2.45134 5.1263e-21)
(9.87484 -4.35866 0)
(8.0862 -3.73323 0)
(11.1112 2.55812 1.00141e-20)
(7.82351 -2.82986 1.36179e-22)
(9.91932 -0.438569 5.35391e-23)
(5.60279 -1.35744 0)
(7.97862 -3.72563 -1.70087e-21)
(7.70237 1.17818 0)
(12.0486 -0.139248 0)
(8.56457 -0.676846 0)
(7.23513 -0.643838 1.15644e-21)
(5.04473 10.0345 1.52146e-20)
(-1.22278 0.743026 0)
(8.56418 -2.42646 0)
(9.31109 -2.93376 9.8247e-22)
(9.01486 -3.05344 0)
(9.88339 -1.23412 0)
(9.75621 -0.578337 3.73707e-23)
(8.28392 0.18425 5.19269e-21)
(11.7888 -0.295788 -2.42129e-23)
(-6.26672 0.264354 -1.07911e-20)
(9.45718 -1.01558 -1.57355e-23)
(-0.65095 -3.13559 -1.19556e-21)
(6.85996 1.45637 2.6664e-20)
(-1.27388 1.66594 1.23272e-20)
(7.99947 0.00794159 -1.35385e-21)
(7.51308 0.562155 -7.50271e-21)
(4.03339 0.628199 -4.60076e-21)
(9.65021 -4.11557 0)
(7.18928 -0.606659 -3.54569e-22)
(9.6063 -2.45399 -4.07903e-22)
(11.0861 1.77441 -4.8819e-21)
(7.70372 1.21594 6.5438e-21)
(8.85141 1.43267 0)
(16.8977 -5.06969 0)
(10.6351 0.0877064 4.26115e-22)
(5.83049 5.29043 -9.96448e-21)
(5.79263 -1.73794 -2.59195e-21)
(1.93968 1.60154 0)
(10.5821 0.755618 0)
(5.11913 1.70719 0)
(7.97028 0.0157477 1.65652e-22)
(11.9041 -0.0924784 0)
(6.62577 0.117728 -1.68811e-22)
(6.84878 0.156628 -3.87596e-21)
(8.1941 0.656373 0)
(10.1564 -0.237362 0)
(9.80747 -4.19368 0)
(-0.609448 -2.13653 2.64173e-20)
(8.2843 -3.23355 7.10441e-21)
(6.74081 -1.44772 2.37333e-21)
(9.31497 0.259263 -6.98104e-22)
(8.31554 -3.17046 -1.04833e-20)
(9.13427 5.10891 -2.80043e-21)
(5.17913 -2.5832 6.14602e-21)
(10.1202 -1.53199 0)
(8.71649 1.85753 1.77758e-21)
(8.3166 1.57693 6.41429e-21)
(3.66758 -1.55769 -1.7983e-20)
(5.61328 -1.85103 6.48618e-21)
(-1.17425 1.74502 3.36462e-21)
(5.61687 0.994373 1.29451e-21)
(8.17014 0.573144 4.04489e-21)
(8.03626 0.0994268 -1.21011e-20)
(9.89641 0.226584 8.33091e-24)
(6.44876 0.214627 1.27035e-22)
(-0.955598 -8.97457 0)
(8.29067 2.54912 -4.40087e-21)
(10.8556 2.30247 6.39937e-21)
(8.02823 -0.175898 -1.23695e-20)
(8.77865 1.29835 0)
(9.13068 -1.20294 6.99294e-21)
(10.1141 -0.261976 1.0866e-22)
(9.69932 0.670368 6.95598e-24)
(3.37607 -2.10781 0)
(8.93701 -0.851479 3.01578e-21)
(11.0112 0.131207 -1.3888e-21)
(9.25856 2.77083 1.32139e-21)
(11.862 0.110018 -2.10614e-22)
(13.2875 -3.38895 0)
(7.32378 -3.50013 -3.38832e-21)
(7.22393 -0.734442 0)
(10.2794 -0.0945892 0)
(10.3832 -2.49496 0)
(5.91345 1.29242 -9.19283e-21)
(10.9019 -2.69741 0)
(-0.83824 2.20467 -1.49493e-21)
(-7.57705 -0.274438 1.72001e-20)
(9.38577 0.192304 -2.83718e-22)
(6.89092 -3.36959 -2.27582e-21)
(8.68249 1.72631 1.67711e-21)
(12.3236 -1.009 5.21775e-20)
(8.30375 0.236708 -1.63203e-22)
(7.52636 -3.58935 -4.92816e-21)
(12.0142 -4.66183 -4.60139e-21)
(6.50561 -1.36957 -2.87418e-21)
(11.0556 -2.5165 -1.66648e-21)
(7.7749 8.97631 -3.42435e-20)
(8.17772 -0.601498 8.73243e-21)
(10.26 -2.48146 0)
(9.15602 -0.770044 0)
(11.6643 0.0602242 1.46972e-21)
(3.85005 -6.93135 7.24766e-21)
(7.41261 -0.908882 1.14157e-20)
(7.93028 -0.117645 -1.11108e-23)
(8.9082 0.587215 1.55038e-21)
(13.5629 5.664 2.2129e-21)
(11.8929 -0.0405535 0)
(6.8855 1.85787 2.03723e-20)
(7.47823 -1.99081 0)
(9.66189 2.0018 0)
(4.38325 -3.05334 -1.10256e-20)
(10.231 0.84662 0)
(9.52594 -2.4711 7.71043e-22)
(10.4441 0.312805 0)
(6.67609 0.771292 -1.71278e-21)
(6.61911 -3.0813 3.99573e-21)
(9.08343 1.11441 1.2014e-22)
(5.09729 -8.00097 2.65119e-20)
(16.9211 0.171882 -7.50403e-22)
(4.29184 -6.61384 -1.31989e-21)
(9.11534 -1.13701 -2.28471e-21)
(13.4912 -0.813042 4.83914e-20)
(11.2252 1.85436 6.0416e-21)
(5.73368 -2.7356 4.94137e-21)
(9.96432 -8.15774 0)
(6.33645 -3.08295 4.46407e-22)
(11.9707 0.0728629 1.82059e-22)
(10.1972 -0.102566 -6.80868e-22)
(6.47516 -3.09387 1.24808e-20)
(9.34184 0.438079 0)
(12.6421 2.88899 0)
(7.99192 0.0886705 1.86681e-20)
(10.6005 -0.14599 0)
(6.17505 -3.05776 3.85538e-21)
(8.2918 -3.37286 -7.02001e-22)
(7.72571 -0.488713 0)
(9.29343 0.176641 -6.73164e-22)
(14.309 -2.34057 1.15349e-20)
(-3.00919 1.90386 2.26053e-20)
(7.77199 0.807086 0)
(3.70867 -5.23403 -5.33417e-21)
(5.5046 -1.27936 1.99013e-21)
(7.54332 -3.65898 1.59506e-21)
(9.49703 -3.4652 0)
(17.9757 -2.53577 1.13515e-20)
(-1.0533 -7.93909 3.86173e-21)
(9.93325 2.00018 -1.95514e-21)
(11.3288 5.35245 -2.79627e-21)
(5.39781 1.7431 -2.7661e-20)
(12.9293 2.62513 8.59859e-21)
(7.44945 -0.0732049 0)
(8.21999 -3.30782 4.03574e-23)
(11.2762 0.538463 1.01608e-20)
(-1.14355 -8.27422 -4.82204e-21)
(11.1255 -2.99361 6.35764e-21)
(3.16297 -2.27616 0)
(14.9301 0.0126738 -7.03629e-21)
(12.5687 -2.64524 -5.74487e-20)
(8.7732 -0.105284 -4.73006e-21)
(0.742767 5.23898 0)
(6.6214 1.54963 7.37816e-21)
(7.97271 -0.0968992 -3.48937e-21)
(11.87 0.0313623 0)
(8.03002 0.317808 4.16048e-21)
(6.87331 -3.23183 5.30903e-21)
(13.1889 -1.70193 -6.53076e-21)
(15.8483 -3.64588 0)
(-1.44486 14.2932 0)
(9.7343 -3.89415 -1.93421e-21)
(5.70244 -1.48801 5.49912e-21)
(-1.75099 13.386 4.06979e-20)
(9.32456 -0.586644 -2.42263e-21)
(7.99033 -0.200223 7.49295e-21)
(4.21905 5.70796 -2.55624e-20)
(-0.595844 -0.137955 7.51134e-21)
(5.67419 -2.01196 1.55916e-20)
(10.6526 1.80658 3.81559e-21)
(11.3427 -0.184769 3.18389e-23)
(7.62682 0.686838 3.3309e-21)
(8.54982 -0.103203 0)
(10.8702 -7.73178 0)
(7.04102 -1.92785 -8.6253e-22)
(7.85498 -3.64468 2.55672e-21)
(7.99154 0.00754199 -1.3183e-21)
(11.8248 -0.00664983 1.62408e-22)
(11.9121 0.0873825 0)
(10.1756 0.0169876 8.29236e-22)
(8.04862 0.122417 -3.91398e-21)
(7.9644 -0.265947 -6.76719e-21)
(13.5436 -0.781386 -1.50332e-20)
(8.49478 3.98595 3.39084e-21)
(7.22626 10.4849 2.59652e-21)
(5.78867 -1.59365 -4.68616e-21)
(10.1311 1.82231 -2.31241e-21)
(7.32854 -0.616681 -4.02795e-22)
(9.73502 -4.71092 0)
(9.215 0.740574 0)
(8.45661 0.121118 1.23319e-21)
(4.24452 -7.09146 4.40077e-21)
(7.27992 -0.802422 0)
(7.49298 4.91369 -1.52094e-20)
(11.0302 -5.8181 0)
(8.02656 2.42844 3.09798e-21)
(11.1831 2.553 8.97687e-21)
(-2.3655 3.49936 0)
(7.51654 0.445408 -4.72347e-21)
(7.4304 -1.85883 1.27995e-21)
(7.64327 -0.0301731 -4.85536e-22)
(8.14824 -0.599571 -9.84195e-21)
(14.5426 0.693382 0)
(7.26428 -0.907417 -1.99201e-21)
(7.57228 -2.0152 1.21784e-23)
(8.06214 -0.0720991 1.56872e-21)
(7.2381 -0.481193 -6.59133e-21)
(4.41563 0.243602 8.36506e-21)
(9.17657 2.52212 -1.38471e-23)
(10.3558 -0.818142 3.67794e-21)
(9.37662 -0.566295 0)
(8.10348 -0.569085 -9.33124e-23)
(10.5315 -0.694597 1.73381e-21)
(8.00534 0.00319767 1.94263e-20)
(10.3717 -2.46744 0)
(8.30225 2.93161 7.4957e-23)
(6.46132 0.0764928 0)
(12.8234 1.00045 3.04886e-20)
(9.02201 -2.39251 -1.5319e-21)
(4.70915 -2.30521 6.41984e-21)
(11.7885 -0.402703 8.5656e-21)
(7.97702 0.259888 0)
(7.92133 -3.20399 -4.69963e-22)
(14.7667 0.568021 4.00657e-21)
(7.2264 -0.465321 6.23301e-21)
(10.6797 -0.692561 -5.01524e-21)
(9.71916 0.727273 5.07835e-22)
(1.87622 -1.90803 -7.01862e-21)
(5.23183 0.765547 -1.12997e-22)
(9.69006 -0.182856 0)
(5.54875 -2.23897 1.47821e-20)
(9.64325 1.88436 0)
(7.43455 -1.99551 1.25768e-23)
(9.36954 -0.0160224 3.76389e-21)
(7.92616 -0.193104 -5.01427e-21)
(7.96798 0.345441 3.78632e-21)
(3.04297 -1.18939 -9.17873e-21)
(8.00163 -0.230402 8.41737e-21)
(6.86618 -0.00685535 0)
(-2.54199 2.81458 -1.36776e-20)
(9.76409 -0.510872 -7.23257e-22)
(4.93089 -6.82331 -3.69564e-21)
(6.61522 -5.75501 3.47046e-21)
(9.39546 0.103491 0)
(8.39112 2.61814 2.17157e-21)
(7.56811 -0.279614 1.37123e-20)
(7.98042 -0.114104 1.06107e-20)
(11.7073 0.0312053 0)
(6.70391 0.107635 -3.69328e-23)
(11.8009 0.0231211 -1.70988e-22)
(0.470026 -3.98354 1.82051e-21)
(7.31507 -0.99837 1.58994e-21)
(9.73057 -0.425079 6.8985e-22)
(10.6156 0.227133 -1.17788e-22)
(9.64273 -0.216401 0)
(6.37116 0.431276 -7.95574e-21)
(2.97437 -4.5729 3.98475e-21)
(8.6821 1.05303 -3.18367e-21)
(7.99688 0.0128488 7.08457e-21)
(6.56807 0.016167 0)
(7.57193 -2.31105 9.15364e-22)
(-1.93058 3.16821 0)
(10.8718 2.8243 -3.41689e-21)
(8.83512 -0.128434 0)
(10.4558 -2.96314 -3.23417e-22)
(6.4998 -1.38156 -3.50515e-21)
(6.8365 1.31622 1.67969e-20)
(0.434399 -4.49311 -3.10926e-21)
(16.2379 -2.01948 0)
(8.62797 0.132522 -5.08299e-21)
(7.97476 0.272588 -5.27465e-21)
(0.652199 -1.71561 -2.87466e-21)
(14.7528 -0.531606 6.08261e-21)
(7.50163 -0.956691 -1.69837e-20)
(11.93 0.102876 1.12102e-21)
(8.02618 0.312732 4.18544e-21)
(7.0995 -2.41793 0)
(6.28824 -0.221761 7.75574e-21)
(7.11481 -0.667619 1.07233e-21)
(11.073 -6.20137 3.52797e-20)
(3.15339 -4.72166 -1.52795e-20)
(1.75865 -2.36916 -5.00134e-21)
(10.7497 1.8943 0)
(0.611658 -2.1178 0)
(7.28262 2.48152 0)
(9.08294 -0.310961 0)
(11.4963 -2.11946 -2.27378e-20)
(12.3322 1.16448 0)
(2.68539 -2.05949 0)
(7.35461 -0.517331 2.52218e-21)
(10.9039 2.35464 -6.57537e-21)
(9.55569 -0.27786 -2.49283e-21)
(7.17613 0.0994415 2.40744e-20)
(8.00819 0.06318 -2.63593e-21)
(7.58343 4.03756 0)
(11.9134 0.313316 0)
(7.96648 -0.261391 7.23686e-21)
(7.96844 0.0314746 1.25833e-21)
(4.70754 1.03469 0)
(3.53058 -2.26932 8.01724e-21)
(10.974 -3.05762 -7.13164e-21)
(4.09959 -1.27541 0)
(9.38024 0.476125 2.01904e-21)
(8.10363 -0.120094 -8.317e-21)
(13.1526 6.15079 1.80329e-20)
(5.52745 -2.20451 0)
(7.91522 0.284546 9.49871e-21)
(9.3303 0.82769 0)
(11.7924 0.0496975 0)
(8.34791 0.415116 -7.65541e-22)
(7.95887 -0.187721 3.98578e-21)
(4.67382 -1.20818 -1.0908e-20)
(8.28603 1.51423 2.14107e-21)
(6.63517 -2.08718 -5.75667e-21)
(8.97651 -0.279628 5.91648e-22)
(8.11512 0.36241 3.35455e-21)
(7.34307 0.266138 2.15966e-20)
(11.4999 -2.76252 0)
(14.1662 -0.700465 6.39392e-21)
(6.47817 -1.20249 0)
(7.22783 -2.05794 -7.63008e-22)
(9.87307 0.126032 0)
(6.73064 -0.834175 9.51838e-21)
(-1.99909 -5.04729 -1.02783e-20)
(11.9251 0.0569819 0)
(-0.340168 0.679284 5.0206e-22)
(12.028 0.239664 -3.66331e-21)
(5.76135 -3.01165 5.63844e-22)
(8.20769 -1.49005 1.31338e-20)
(6.22278 1.17537 -1.05596e-20)
(6.60873 -2.06971 -1.67718e-20)
(10.8953 2.71615 0)
(7.24141 -0.651011 -1.0788e-21)
(1.76903 -1.8519 -1.65148e-20)
(7.93606 0.273056 0)
(7.63904 -0.0129468 5.3195e-22)
(9.75707 0.337968 -9.6152e-23)
(8.93812 2.73439 0)
(7.98481 -0.0150231 0)
(5.75515 -3.65893 0)
(-0.992797 -9.47612 2.29844e-20)
(4.47501 4.68398 3.02721e-20)
(7.08044 5.14653 -2.11701e-23)
(8.00814 2.2885 0)
(7.81255 -1.26486 1.00339e-20)
(6.44686 0.147095 -2.81167e-22)
(8.30618 1.39026 -5.02831e-21)
(13.248 -6.04292 6.46926e-20)
(7.79107 -0.0411192 0)
(4.88362 0.820393 0)
(4.77552 -1.56125 -1.0689e-20)
(6.99541 -2.40587 -3.84807e-21)
(8.75448 -0.874134 0)
(8.96908 -4.11797 1.21518e-21)
(6.99556 0.053956 2.45427e-22)
(5.89226 0.639851 -1.18999e-22)
(5.06647 -2.4323 0)
(10.7732 -1.4579 2.42719e-23)
(7.20582 -0.629123 -1.00808e-21)
(9.34494 0.815043 -1.6389e-21)
(9.00213 -2.52121 0)
(5.66005 -2.24744 -2.38045e-20)
(8.03212 -0.0328161 4.27449e-21)
(7.98523 0.141575 1.86621e-21)
(6.76694 -0.0377989 -5.81676e-22)
(8.8537 1.86243 0)
(7.16078 0.0876328 -6.39434e-21)
(9.49211 2.05164 -9.92694e-22)
(2.79284 -2.55478 1.00021e-21)
(7.95778 0.0454254 0)
(14.829 -1.00528 -6.24139e-21)
(3.81818 -1.38797 0)
(8.01059 0.0732795 -7.51556e-21)
(7.96437 0.0203695 2.847e-21)
(7.9879 -0.407167 -1.40854e-21)
(0.144775 -9.35065 0)
(9.49399 -0.218463 -1.93122e-21)
(5.49642 0.0474746 2.17545e-20)
(11.4583 -2.84342 0)
(7.30129 -0.581571 7.6915e-21)
(13.1078 -0.938845 1.73144e-20)
(8.57368 0.00946705 0)
(11.9131 -3.82375 2.81133e-20)
(16.0532 -6.54937 -5.42268e-20)
(10.6614 0.209223 0)
(3.59281 -2.92114 1.41129e-20)
(7.59499 -0.052622 0)
(8.52085 -3.80519 1.73816e-21)
(3.09655 -5.26107 9.23194e-21)
(9.19288 2.89173 -1.34863e-21)
(8.9693 0.482074 2.4437e-21)
(6.29636 -0.265681 4.03247e-21)
(8.1806 -1.57715 -4.73459e-21)
(14.7774 -2.64361 -4.14203e-21)
(8.56378 -3.70341 1.30059e-22)
(9.68962 -0.49081 8.64641e-22)
(8.85002 1.85422 -3.10612e-21)
(10.5974 -4.49984 0)
(8.00389 -0.00157618 -6.28369e-21)
(5.02037 -0.225688 -1.32337e-20)
(6.57707 -1.21472 0)
(6.97931 -0.828373 3.68862e-22)
(6.59922 0.115288 0)
(6.25939 -2.16391 1.48843e-20)
(10.2253 -3.37369 0)
(6.63848 0.0403814 5.32718e-22)
(9.52106 -0.0435592 -2.19249e-21)
(9.66876 -4.17745 5.83694e-20)
(7.13946 -4.71887 1.8247e-20)
(9.38596 0.192139 -3.22031e-23)
(9.76849 -4.54773 -5.21363e-21)
(8.51544 -2.44018 3.62301e-21)
(7.1392 -1.97069 0)
(1.9956 -1.60662 -4.23661e-21)
(11.6727 -2.57469 1.32612e-21)
(2.05017 -1.74937 -4.94395e-21)
(5.45008 0.630371 3.73741e-23)
(7.08262 -2.82367 0)
(8.68316 -0.00455735 -5.62611e-23)
(3.68708 -2.44931 0)
(8.50296 -7.46665 4.54781e-22)
(13.3611 7.56721 -2.37888e-20)
(7.24153 1.29923 0)
(9.87707 -2.10588 7.65837e-23)
(-10.5288 0.043878 0)
(8.902 2.65244 0)
(8.23703 -3.84714 -2.31648e-21)
(6.54073 -0.0580975 6.33639e-21)
(0.0659564 7.72478 0)
(7.55638 -0.206133 -3.84645e-21)
(6.32202 4.75863 9.05992e-21)
(2.28289 -4.02167 1.57688e-20)
(8.9725 3.58813 0)
(8.3795 -0.0328118 0)
(1.43601 -1.55698 -6.59149e-21)
(8.3117 -0.797419 0)
(9.31904 -0.365028 0)
(-2.18205 0.16204 -3.68856e-22)
(9.58733 -1.43191 -2.44435e-21)
(8.28794 -2.09257 3.53677e-21)
(13.9859 2.7837 1.36523e-21)
(2.25119 -1.57608 9.01016e-21)
(7.9978 0.0144952 3.22986e-21)
(7.30523 -2.03361 0)
(8.08716 0.977729 -1.97678e-21)
(6.83096 -1.58515 0)
(8.82425 -0.178622 0)
(7.95634 0.163921 0)
(8.3242 0.393121 -6.24983e-22)
(8.14611 -0.620528 4.52353e-21)
(10.9495 -3.65892e-06 -4.90004e-22)
(7.46711 -2.05116 0)
(3.34231 -1.05739 -7.81065e-21)
(7.28042 2.33659 4.80409e-21)
(9.0148 -3.07215 1.50379e-22)
(11.6599 -0.444847 4.42022e-23)
(12.5571 -1.78457 1.79384e-21)
(8.21173 0.0404528 -4.72557e-21)
(-2.01703 -4.79381 0)
(8.14593 0.134371 0)
(5.70549 1.21659 0)
(6.35801 -2.84593 -1.03104e-20)
(-0.979843 4.22968 -7.03281e-20)
(12.4465 1.38848 0)
(8.12365 1.00034 0)
(7.10728 1.36027 5.93233e-21)
(8.33949 -0.0577379 -9.62641e-22)
(7.37541 1.07876 8.81312e-21)
(12.5435 -4.7565 0)
(3.98528 -0.532771 -2.25488e-21)
(8.72916 0.162957 2.86467e-21)
(6.86293 -2.29915 -9.33382e-21)
(8.36536 0.191571 -4.0876e-21)
(8.24252 1.39273 6.52066e-21)
(-4.28454 -7.75426 1.80452e-20)
(6.29286 -2.81598 1.78996e-20)
(2.932 6.5413 -8.02194e-21)
(10.6068 -0.281514 1.45731e-22)
(7.99751 -0.004474 -1.49927e-21)
(8.3782 -4.0002 9.09856e-22)
(16.0747 -7.72864 2.80911e-20)
(5.6842 4.31638 -6.04943e-21)
(8.70241 -4.01908 -1.36787e-22)
(8.13488 -0.737192 0)
(3.41579 -4.53108 -2.64065e-22)
(8.45403 -0.029785 -8.49089e-21)
(9.34669 2.04393 2.43114e-22)
(6.74369 -2.18093 -8.73678e-21)
(8.91788 -2.96986 -2.2929e-21)
(8.71916 0.0432165 6.92374e-21)
(11.2248 -0.105533 -3.97895e-21)
(3.95028 0.689619 -6.48162e-21)
(10.5876 1.85447 -1.98772e-21)
(5.92238 -1.60526 -2.13484e-20)
(8.58223 -0.0392606 -7.40128e-21)
(5.91074 -1.8175 0)
(5.19266 -6.36068 -1.09028e-19)
(9.0734 0.00456576 1.07209e-20)
(5.86182 0.0529852 -1.34049e-22)
(-2.64849 2.50209 0)
(9.51442 -4.17894 0)
(7.81347 0.744238 7.84343e-21)
(5.4931 -1.62189 1.35125e-20)
(-9.16513 -5.88303 -3.42633e-20)
(10.5467 -2.93733 2.11436e-21)
(10.4508 -0.784166 -2.17146e-21)
(9.75238 2.00785 0)
(7.79331 0.818237 4.50012e-21)
(7.39205 11.8849 -3.0976e-21)
(8.43559 2.48063 -3.69324e-21)
(9.01728 -1.14658 -4.5022e-21)
(2.34552 -1.97492 -1.45169e-20)
(12.1625 -1.00473 -2.34248e-21)
(14.7481 -1.02819 6.56754e-21)
(7.75189 2.75618 0)
(12.7982 0.541578 -2.31921e-23)
(7.95595 -0.397416 1.24565e-21)
(6.54493 0.138897 1.63676e-22)
(5.20842 -2.56528 1.73905e-20)
(8.91791 -1.18693 6.84051e-21)
(6.67111 -1.39693 -1.12227e-21)
(2.73432 -4.24166 -9.30463e-21)
(11.3323 0.0448463 -7.87003e-22)
(8.49866 0.0680858 6.63937e-21)
(-0.538234 0.506246 -9.29164e-22)
(8.23837 2.35926 8.35839e-21)
(4.25889 -2.90396 -1.53345e-20)
(6.59833 -3.18 -4.82965e-21)
(6.62 0.223204 0)
(7.59512 -0.717924 -8.53651e-22)
(-0.946325 -3.44602 -4.95029e-21)
(6.47611 -1.46018 1.86389e-20)
(11.2077 1.09276 0)
(8.55082 5.0687 -2.39056e-21)
(6.13036 -2.58932 4.21552e-21)
(7.98444 0.0264642 -1.38608e-20)
(2.83707 -2.31606 -8.41385e-21)
(1.46862 0.46653 -2.85888e-20)
(9.61453 -0.253744 1.66885e-21)
(8.49302 0.194963 7.66893e-21)
(8.63889 -3.85004 -1.64369e-21)
(10.9282 -0.164355 6.0338e-22)
(-4.80272 0.113872 -1.41554e-19)
(8.44225 -0.0360478 7.96586e-21)
(8.90844 -0.261078 -2.62075e-21)
(8.23253 0.229372 -7.3218e-23)
(10.1951 0.0536844 -5.01822e-21)
(5.99099 -2.6567 -8.14354e-21)
(10.4727 -0.15809 0)
(1.358 -11.1521 3.21795e-20)
(8.52477 0.0459333 9.13015e-22)
(13.2286 5.30928 2.07918e-20)
(9.42515 0.169392 2.38636e-21)
(10.2442 -1.09632 4.6189e-22)
(7.99569 0.0510463 -1.18735e-20)
(8.04526 0.577969 2.54749e-21)
(4.12442 -2.39705 -8.24052e-21)
(9.49606 -0.367056 0)
(7.7022 -2.43867 -4.58818e-22)
(7.84835 -0.387138 5.13934e-21)
(7.11379 -2.77533 0)
(8.2167 0.160615 5.42483e-21)
(7.99545 -0.726729 6.62735e-21)
(9.44539 -0.337713 5.32203e-25)
(13.5177 -3.8719 1.29625e-20)
(11.3074 -2.28127 0)
(7.32534 0.305966 1.22844e-20)
(6.74066 -1.28835 1.28846e-21)
(8.42557 -3.86928 1.29633e-21)
(8.95506 -0.777214 0)
(6.53419 -0.100511 -1.82007e-20)
(5.89783 9.88794 9.48507e-21)
(8.17627 3.64803 2.69688e-21)
(5.97828 -1.64802 2.08161e-20)
(10.7682 0.266375 6.10466e-22)
(6.15964 -4.30813 1.25877e-20)
(8.50457 -0.677156 -6.35543e-21)
(13.9048 0.209465 -9.00528e-21)
(7.57396 -0.262298 -7.92113e-21)
(9.8141 0.130328 0)
(7.98748 -0.0117835 -5.62989e-21)
(0.0475958 -0.301779 1.03986e-19)
(-0.650289 3.1152 0)
(9.02405 -5.40228 0)
(6.54034 0.154035 0)
(3.6977 -2.728 0)
(7.96093 0.508852 0)
(5.73556 -1.59428 0)
(12.846 3.73025 1.93491e-21)
(7.91854 6.08709 -9.09998e-21)
(9.08686 1.18521 0)
(7.28033 0.20247 1.83118e-20)
(0.27744 6.78826 -2.4721e-20)
(8.0712 0.361483 1.09931e-22)
(-1.80665 -2.08865 -1.88908e-21)
(5.66837 -0.951008 4.53577e-23)
(3.53688 -2.40441 7.30144e-21)
(7.76461 0.0800927 -1.96625e-21)
(10.2478 0.552078 1.02719e-22)
(7.91575 0.458072 -5.2476e-21)
(7.6841 -0.0729187 -1.11895e-20)
(7.20488 2.02948 -8.80925e-21)
(10.5251 2.79234 0)
(13.9715 -4.56742 1.53252e-20)
(6.32727 -2.21628 -1.62815e-20)
(8.05605 0.0238688 -1.68147e-20)
(11.7764 -2.37327 1.49825e-20)
(9.85205 -0.0474411 9.26979e-22)
(14.0938 -1.48244 -2.13188e-20)
(9.6855 -0.897729 -2.30382e-22)
(9.92142 -2.07614 -1.2348e-22)
(7.99268 0.248818 5.4672e-21)
(9.35644 5.75976 0)
(13.8029 -3.02634 -3.22547e-21)
(7.43999 -0.57488 -2.38649e-21)
(12.1969 1.58683 0)
(10.0073 -3.40565 0)
(9.14222 -4.0058 -1.2795e-22)
(5.95299 -4.46921 1.47604e-20)
(11.1495 5.24491 3.61725e-23)
(8.85589 -0.878121 0)
(8.29189 -0.605207 -8.99992e-21)
(7.52453 -0.0628997 -2.15231e-21)
(4.27025 -10.9448 2.14024e-20)
(8.74686 -0.768939 3.09125e-21)
(3.87843 -2.67526 0)
(13.6173 -4.70052 1.7125e-20)
(8.62648 -0.782005 0)
(13.252 1.00215 8.1455e-22)
(8.09437 2.66622 -1.27871e-21)
(8.05636 -0.000620107 1.42862e-24)
(8.33099 1.60492 -1.13568e-20)
(8.92316 3.14189 -5.54655e-22)
(8.26607 -2.40336 8.07254e-21)
(12.4906 5.51792 0)
(-8.70734 4.69155 -2.98367e-20)
(0.235172 11.9085 0)
(9.19455 1.23369 4.69865e-22)
(5.8669 -10.1345 4.83061e-20)
(6.15071 -6.07162 1.58637e-20)
(7.94823 -2.70901 2.64887e-22)
(-2.45285 -6.32341 -1.88262e-20)
(7.7424 -3.5847 -1.49722e-21)
(6.46738 -2.21227 -9.26306e-21)
(7.12245 -0.6693 -3.73519e-22)
(-6.6857 3.63191 2.45339e-20)
(6.03582 -2.68884 6.69489e-21)
(6.66968 -2.28631 9.80064e-21)
(-0.499828 5.25798 9.83604e-20)
(-6.11429 -0.19272 -4.74464e-21)
(8.82192 -2.64387 2.73091e-21)
(-0.73438 -5.38646 7.49696e-21)
(10.8044 0.0367232 4.99291e-22)
(-1.66675 7.58489 2.28018e-20)
(8.45098 1.04914 -2.86469e-21)
(11.1207 -1.6054 0)
(3.54996 -2.70008 -1.04314e-20)
(8.28835 -0.0239424 -9.28986e-21)
(7.94649 0.124724 0)
(9.19956 1.17726 0)
(-3.17214 13.1591 -4.70921e-20)
(13.8575 2.44326 -1.99102e-20)
(8.81914 0.673707 -6.13932e-21)
(9.57491 -1.39197 3.18087e-21)
(7.24314 2.03111 7.5584e-21)
(7.31944 -0.0305027 4.42684e-21)
(3.52269 -10.526 2.15449e-22)
(7.05298 0.984459 0)
(6.81001 -2.38008 9.11141e-21)
(-2.14398 2.76076 1.65261e-21)
(-0.973865 -6.10057 1.48864e-20)
(8.25036 -3.09616 1.11852e-21)
(10.2261 -4.6814 5.42056e-21)
(8.12035 -0.020301 2.43736e-21)
(8.95474 -2.80915 1.7388e-22)
(11.8024 0.218314 -2.80815e-22)
(3.44836 -11.0777 -2.19844e-20)
(8.79759 0.641527 4.64642e-21)
(8.0246 -0.247953 4.1597e-21)
(5.86435 -1.79393 -8.54017e-21)
(8.32121 -0.716481 5.42473e-21)
(2.13762 1.11913 0)
(8.66632 1.01904 5.56403e-21)
(8.02792 -0.149651 9.31018e-22)
(7.08817 -1.86806 -2.99492e-21)
(6.39404 3.89703 -5.0133e-21)
(8.68407 -2.62096 2.41997e-21)
(8.24313 -0.0421125 1.67361e-21)
(6.38811 -0.644993 -1.32038e-20)
(12.4848 1.14458 0)
(7.98745 -2.34958 8.24288e-22)
(8.35732 0.21189 5.52306e-21)
(12.4773 -0.863078 0)
(6.58868 -0.916178 7.34e-21)
(8.85199 -0.800643 0)
(5.76059 3.72034 2.00581e-20)
(10.6816 -0.0410875 0)
(15.029 -2.53816 0)
(8.74037 0.138156 1.82223e-21)
(8.79729 0.487937 3.69538e-21)
(10.0456 1.83085 -1.91707e-21)
(7.85683 -0.041507 -5.13024e-21)
(6.08845 2.03436 -5.45009e-21)
(8.06675 0.0747508 -2.33187e-21)
(8.00623 0.545612 0)
(1.4272 1.31825 3.6415e-22)
(9.10374 0.533443 -2.65334e-21)
(13.4775 0.505303 -2.13208e-21)
(11.1731 -1.66489 0)
(9.50678 2.08425 6.54317e-22)
(7.20944 3.94324 -7.85176e-22)
(11.0351 0.104125 1.97376e-21)
(-6.97568 -6.00611 0)
(-2.66766 -0.206429 6.14346e-21)
(8.06919 0.272587 0)
(11.8216 -0.0150048 -1.00005e-22)
(-2.96199 1.96775 0)
(5.73826 0.908001 0)
(1.11505 6.31945 0)
(9.97114 -3.3724 0)
(-0.350664 2.70365 -1.1851e-21)
(-1.95205 -10.267 -5.64098e-21)
(8.17158 -0.61155 -6.78342e-21)
(9.50664 -5.44467 -6.32246e-20)
(6.36986 -2.75385 0)
(2.8913 -6.10116 -5.19253e-20)
(-4.1691 1.78014 -2.24194e-20)
(7.69775 -3.58595 0)
(7.11085 -2.63094 -9.12073e-21)
(7.28962 -1.04557 2.75631e-22)
(8.43325 0.989876 7.50717e-21)
(12.6778 -3.48709 -1.10289e-20)
(7.67586 -0.145548 0)
(10.9571 -2.77996 0)
(9.36796 2.5354 7.7201e-22)
(15.0049 -8.27868 3.53563e-21)
(7.39132 -0.681728 8.16929e-22)
(-3.11471 14.5358 3.50818e-21)
(7.99363 0.0133225 4.17976e-22)
(7.387 -0.765498 5.24817e-23)
(7.97762 0.251157 7.78189e-21)
(7.58418 -2.05222 -5.87252e-22)
(8.98332 -2.3281 0)
(5.82196 -1.245 0)
(10.7547 -0.0916635 0)
(6.3975 0.0422052 0)
(8.08061 -1.73377 3.56262e-21)
(10.9513 1.14036 0)
(-1.34327 1.55105 1.17781e-20)
(-7.4401 -4.17606 -1.77016e-21)
(6.57921 -2.33245 -1.48691e-20)
(0.635858 8.17266 9.88155e-21)
(-0.174556 -12.215 -1.54681e-20)
(-2.07052 2.6397 -6.76703e-21)
(8.98345 0.0448638 1.32405e-21)
(1.92691 -9.00652 -1.2898e-20)
(7.48113 -1.92844 -1.08328e-21)
(8.84375 0.0574589 0)
(11.0106 -0.0504228 0)
(-1.97673 1.49724 0)
(10.2546 -1.21156 -4.21674e-22)
(-9.44267 0.385974 0)
(7.12173 0.970273 0)
(8.0061 0.0182854 0)
(8.34201 -2.08201 3.34268e-21)
(8.1424 0.313287 -8.37496e-21)
(6.66988 0.138572 0)
(12.1044 2.84462 3.51512e-21)
(7.89098 0.229881 -6.77926e-21)
(8.43833 2.34655 7.56238e-21)
(7.74482 -3.53563 4.14532e-21)
(7.31575 1.21986 1.12133e-22)
(15.8805 -2.06737 -6.98964e-21)
(9.56859 -3.94637 1.90095e-21)
(17.5044 -0.997672 -1.52058e-20)
(8.73752 0.531045 -4.98606e-21)
(7.32605 -0.611265 1.82625e-21)
(7.77029 -0.388395 -7.33379e-21)
(8.37593 -0.0240172 0)
(12.2231 5.95932 -1.54071e-20)
(7.94546 -0.120862 7.77714e-21)
(5.29049 12.2028 2.03438e-20)
(9.65462 -0.887173 -8.25608e-22)
(5.58218 -1.68703 -1.46993e-20)
(8.76991 0.441972 8.41027e-22)
(9.72994 1.97612 1.43607e-21)
(8.0088 0.113612 0)
(3.43514 -3.21107 -2.14413e-21)
(8.89549 -1.31468 1.88543e-22)
(16.1608 -0.878762 1.95879e-20)
(12.5163 -6.23523 -7.38253e-20)
(8.35004 -0.0974937 3.55778e-21)
(10.7895 -0.240197 -1.68012e-22)
(10.7744 0.223041 -4.60429e-22)
(10.8979 0.0244944 0)
(3.95375 6.31005 0)
(7.33684 -3.48049 5.93092e-21)
(3.4865 -2.52555 9.08774e-21)
(6.63797 0.135571 2.90266e-23)
(8.00078 -0.121569 1.53497e-20)
(3.54412 -3.37733 6.80842e-21)
(6.51301 -0.220969 0)
(7.66902 -0.419437 0)
(7.58995 -1.94579 -1.72148e-22)
(8.59359 0.0395893 2.76075e-21)
(7.38662 1.14374 1.25555e-20)
(8.94705 1.19519 0)
(9.45654 -0.119876 0)
(10.156 -2.3194 -2.54075e-21)
(8.82859 -0.737354 4.23374e-21)
(3.01646 -2.12821 -1.36343e-20)
(11.4219 -0.412664 0)
(4.33982 0.801206 -7.72676e-22)
(9.95691 0.451532 2.5368e-21)
(-0.615868 -3.40141 -5.59795e-21)
(8.52171 -0.291778 -7.11089e-21)
(8.66992 5.64566 0)
(14.8138 3.18027 1.58899e-20)
(-6.74687 -6.40095 -2.47277e-20)
(-0.114628 0.834996 0)
(6.67108 -0.0343141 1.76122e-21)
(7.87508 -0.169231 -5.1994e-21)
(6.92106 0.0537776 1.6131e-24)
(9.00068 2.94759 -3.23865e-22)
(7.5683 7.42161 4.99276e-21)
(8.64348 0.0504604 0)
(5.60595 -2.30292 -1.57e-22)
(2.46437 -2.13923 -6.66042e-21)
(-2.55903 2.83675 -2.48461e-20)
(7.94771 0.471042 6.21403e-21)
(11.508 5.87548 5.43155e-20)
(8.24457 -0.0140467 -1.64303e-20)
(7.02981 -1.55539 6.48496e-22)
(8.57835 -3.51088 7.72712e-22)
(8.19618 -1.95639 0)
(9.22526 -0.448003 -1.59071e-21)
(5.91849 -2.7439 5.37847e-21)
(9.41136 -0.0420328 -4.47777e-21)
(8.00881 -0.109798 -6.90083e-21)
(11.8215 0.149711 1.07902e-22)
(7.64965 -1.2414 1.51501e-20)
(10.4678 0.0248202 -5.88854e-22)
(7.63765 -0.362036 4.35758e-21)
(7.0047 -0.82966 1.20458e-21)
(13.1883 2.90444 -1.42175e-20)
(8.2607 2.55019 6.0947e-21)
(-10.6082 -6.95488 2.70442e-20)
(8.47249 0.0387811 0)
(0.220617 -4.3502 0)
(12.8962 -0.256131 0)
(6.54618 -2.22569 1.16086e-20)
(8.06324 0.0293601 -1.09612e-20)
(7.48066 -0.0628421 0)
(7.24564 -1.89972 -8.55943e-21)
(7.45022 -0.143388 0)
(8.07918 -1.57319 -5.88823e-21)
(13.9936 0.909481 -2.50795e-21)
(8.85143 -2.18458 -3.15913e-21)
(8.74368 0.0461599 0)
(8.05387 -0.273378 0)
(11.7125 -0.648977 1.346e-22)
(9.1175 1.04448 -1.19523e-22)
(10.7164 0.413581 1.31714e-21)
(7.43251 4.23246 -5.63604e-22)
(9.0293 1.96606 0)
(8.30482 -3.01917 -1.77342e-21)
(-1.94449 3.60267 0)
(4.0177 1.11255 -9.12054e-21)
(8.95734 3.13866 0)
(10.5105 -0.179079 3.73769e-22)
(5.93859 -1.52339 5.56477e-21)
(7.11024 -1.29042 5.17826e-21)
(10.7631 -0.261165 2.2381e-22)
(-5.8925 -6.98284 -5.90102e-20)
(8.77631 -0.904866 1.06244e-20)
(7.93599 0.512841 -1.14248e-22)
(14.4973 -1.54761 2.61378e-20)
(9.2418 -1.76152 -1.29164e-21)
(-0.832595 2.61426 8.47189e-21)
(9.01147 1.48087 0)
(8.05278 -0.045212 -3.36649e-24)
(7.36419 -2.10417 0)
(8.67302 -3.11665 -6.94871e-22)
(8.42133 -2.99396 -8.32823e-22)
(7.68585 -1.14811 -4.92374e-21)
(6.65744 0.0862095 4.1004e-23)
(9.80965 0.363182 9.31237e-22)
(7.54214 -0.856884 1.0899e-20)
(9.28923 0.434806 -1.91321e-21)
(7.29051 -0.705913 0)