/*--------------------------------*- C++ -*----------------------------------*\
| =========                 |                                                 |
| \\      /  F ield         | OpenFOAM: The Open Source CFD Toolbox           |
|  \\    /   O peration     | Version:  2306                                  |
|   \\  /    A nd           | Website:  www.openfoam.com                      |
|    \\/     M anipulation  |                                                 |
\*---------------------------------------------------------------------------*/
FoamFile
{
    version     2.0;
    format      ascii;
    arch        "LSB;label=32;scalar=64";
    class       volScalarField;
    location    "0.2";
    object      p;
}
// * * * * * * * * * * * * * * * * * * * * * * * * * * * * * * * * * * * * * //

dimensions      [0 2 -2 0 0 0 0];

internalField   nonuniform List<scalar> 
13486
(
16.6498
12.3717
1.28679
-9.11851
2.33129
-2.1028
-1.53559
7.28683
10.408
5.63153
-6.90138
2.89549
17.7718
-2.30943
1.85375
6.03826
-11.5454
1.36997
3.84253
14.7593
-7.97079
17.6092
12.8006
-3.32502
4.73884
-2.78971
-7.92754
-1.78147
0.730612
-1.89514
-2.90101
2.6499
-4.20421
-0.842772
7.3166
-1.33331
0.639497
13.1819
-0.0536411
9.71523
-8.83776
18.6589
0.310769
5.04788
4.31174
2.69756
-12.0608
1.26358
0.179788
-3.44363
8.83395
0.100415
2.09311
13.3424
0.733317
2.74036
1.1465
-0.630351
-4.29599
-0.400345
-6.17208
0.682757
-8.87263
-8.26015
-1.63542
0.240112
-7.94724
16.3318
10.3071
0.00491851
-7.97511
1.30299
10.1596
-52.7259
0.99739
0.34733
0.519057
1.78645
-11.1228
0.0885912
-0.0844618
13.238
-9.78593
0.835397
16.6076
4.45503
0.365817
8.37216
10.2706
6.51568
2.57407
5.33401
15.8638
14.2566
10.7459
-0.0689822
-7.88302
-6.36503
9.92456
-11.4064
0.660886
-1.94392
-6.17309
0.603443
8.36877
-11.3274
10.2303
0.505557
-11.4945
4.16213
9.70496
1.15995
13.197
-0.188156
20.2731
10.0836
4.96615
-0.57007
10.966
0.424069
1.14739
-6.29009
11.5505
-0.187859
9.46686
-0.295751
6.73448
2.90115
-0.197322
-1.6268
-0.0182799
-11.946
-29.358
-79.5546
9.73301
8.44233
20.7125
4.42733
0.380652
8.26129
-3.40682
1.67717
2.60065
0.102416
0.168156
-6.41969
1.50629
17.3646
-3.17689
-0.824991
6.68719
0.581463
-0.845759
13.5002
3.15971
1.36432
1.41284
-32.1818
11.5231
0.532839
-2.22466
11.5372
1.53108
18.3896
0.0387771
-4.02131
-0.184356
24.4807
1.32571
-78.0099
-25.571
2.47877
7.12035
5.04152
0.180665
-4.07931
-5.00661
-4.95205
10.6243
2.9893
9.63459
1.38702
4.01169
-5.73349
1.59656
-2.30308
-0.244925
-1.75882
-11.1985
11.1264
0.31184
0.734814
0.187758
15.3365
0.103137
-6.89223
-1.23859
-2.33457
15.0278
-3.69673
-2.47942
2.93574
13.1447
-1.02168
1.47732
-0.0472847
0.96426
11.2382
-0.286737
1.62791
-2.29735
-2.1724
14.5237
10.8989
-1.18222
-0.93162
-2.02994
7.01854
15.0569
-10.4596
-11.7459
-2.95125
8.11916
-2.62098
1.80356
16.2116
-1.72724
-2.60174
-0.282777
0.717784
9.15518
-27.7152
-3.6403
19.1583
-5.71987
15.5959
-1.71349
1.12171
15.7955
4.12386
-3.67146
7.23052
0.514339
14.7708
0.292252
12.5501
4.74882
-2.38029
-46.5661
5.32944
-5.27688
20.5495
9.30343
0.472618
-0.370475
-4.1472
3.19279
-0.433109
-20.0972
-3.70084
11.6038
0.567031
1.81292
-4.39893
2.00655
-5.64496
-0.0822811
-3.93162
9.53543
1.30851
11.4152
9.83874
-2.00952
2.4318
16.3592
-2.65466
-0.195275
0.250476
0.268209
1.33037
0.209147
7.98677
10.2727
-4.34139
-6.11078
-9.65868
-3.725
-0.544221
2.54171
9.99134
-6.20517
0.708826
10.897
9.56787
-1.35046
-1.38279
-1.82924
2.50027
11.1238
-4.02248
1.75571
0.999741
1.43512
2.37188
0.32846
-2.36769
-28.6104
5.16772
1.03073
0.330739
-29.2558
-9.47066
-2.15282
1.3501
-6.20656
8.7968
0.409084
10.6533
11.2959
-1.05711
0.48292
0.603729
9.92027
13.4985
21.0752
2.39382
5.70975
7.51574
0.924227
5.03292
8.4862
5.30932
2.41469
15.6674
-1.34238
9.74087
21.2334
1.21724
6.55433
0.69045
-1.08139
13.8207
3.909
3.88714
-5.77911
0.126703
6.23532
20.2216
-11.3277
0.470568
6.96145
2.32073
2.57996
-7.61198
10.6174
-0.180383
-55.2876
6.52917
0.694901
-2.24554
3.19597
1.83538
11.6824
10.3196
-1.82762
-0.379799
-1.50875
-12.877
14.5066
6.83677
0.287972
5.49597
1.68397
-5.248
-0.39626
8.63225
10.4749
0.447687
-5.9671
-21.3574
10.3358
4.12239
17.5786
12.5652
-12.9135
-0.225783
0.989262
6.9837
-14.68
-7.7698
13.9409
-2.31798
4.09811
15.814
15.9508
0.294531
-8.64653
-5.33459
-13.6056
-4.85305
-14.1624
1.23004
9.31919
-21.4471
-1.69424
1.02521
13.1913
-5.02769
6.07617
11.6136
5.408
-11.8685
-2.84488
11.1542
9.89498
14.1596
-5.89092
1.90747
-22.3034
3.82132
10.4883
0.0614304
20.3039
6.68487
-2.18453
-1.2599
2.49476
9.56584
-8.17347
-0.432299
17.3396
7.99817
4.54487
2.13935
0.465494
-2.8612
17.7449
0.437221
4.66148
16.4
-13.709
-2.23418
-82.3522
-2.2674
1.3736
12.5951
13.6082
17.4874
-20.9404
0.239789
-5.7474
6.03604
10.3591
-3.51675
-9.72179
10.3935
-5.51943
-3.95305
-4.27059
-6.2374
-2.00322
13.3939
-0.298162
0.68499
-9.53669
10.3781
-1.35762
22.6107
16.0478
9.97434
6.50497
0.365832
0.0598385
21.1073
-1.24796
0.342218
-3.01809
9.8878
-9.84078
2.5732
6.44177
-0.103711
-4.03246
12.2982
-7.56766
-12.9917
8.13446
-6.34119
24.1963
4.9553
9.74356
11.3088
-4.12719
1.29917
18.7543
0.740257
13.2772
-3.12007
2.92731
-3.66615
0.572736
-0.529233
-10.9358
10.4013
9.83869
-5.17821
0.10215
0.0796268
16.5208
13.1514
-0.0485606
10.0333
6.2372
-4.23154
1.5305
10.2462
-25.4799
17.3505
0.433304
-0.542943
18.3665
4.57142
1.07113
6.64015
-2.74623
-5.71312
4.8419
3.23323
11.5749
15.9917
-6.69139
0.121782
-6.74099
0.86014
15.3939
2.92818
-5.94852
-5.90132
0.0479437
-24.8871
7.18865
-1.57712
-8.92708
10.1633
14.8623
0.596403
11.2519
-6.85286
-5.32352
-15.765
3.97278
-5.93142
12.0685
1.72568
-5.93677
8.10765
12.625
-3.7254
-6.56245
7.82749
15.407
2.54483
16.8309
1.72267
6.26129
1.18885
12.2533
0.325037
14.8997
-7.73332
1.85074
9.34058
-0.904464
-1.95298
10.1944
-14.164
2.46592
13.4881
17.5111
-0.701523
-16.0256
2.83581
3.20427
9.69547
7.2982
-4.30154
-7.2571
0.640644
16.5077
1.7642
0.356934
-2.28997
17.6433
-0.453622
0.383027
8.72591
5.73988
0.213278
-2.7314
7.59525
2.81702
1.14847
3.80047
-8.07567
17.0046
9.86477
7.31399
7.56684
1.19411
-4.66471
19.4175
2.56777
19.4971
-2.79805
10.2002
0.233217
-40.423
2.84902
5.58929
20.6119
-2.72233
3.90093
5.13687
-10.2862
5.25894
0.992368
-5.01648
10.2859
-6.52414
-2.30774
-2.53322
-1.18986
-1.13871
10.9949
0.229216
18.9833
9.6672
0.80248
-5.33399
-2.8009
3.74613
-6.30457
-3.68839
-10.9995
15.5067
-0.00402286
0.158031
-5.02925
17.6718
-0.119261
1.67029
18.4275
8.39468
-5.68226
0.37179
6.33516
0.6036
9.35462
0.630009
-1.16874
3.99888
8.50351
3.15349
9.08121
18.7234
0.400643
-3.84266
10.1867
0.511841
0.31495
5.71914
5.65551
4.24678
-5.87056
1.81756
0.520108
2.31381
15.3893
3.10168
2.5632
1.96529
-13.4146
-0.29294
10.9785
0.681398
8.80063
9.67647
15.4296
1.32727
-12.9771
19.2638
0.631694
-5.57151
10.5216
-2.84998
12.2081
1.24189
9.94427
-35.5378
-79.3965
-2.67835
0.641103
-12.49
5.77225
19.9396
-0.949803
-5.55095
-2.23971
10.927
1.24745
4.62578
-5.34461
19.7955
-5.65192
4.78267
-2.24815
5.7186
9.91651
3.42632
-20.7031
-9.75965
18.1179
9.00192
-0.0111525
7.87792
-8.42614
7.12441
7.23714
5.35906
-47.0857
-0.34328
13.6443
-0.250494
-0.0698222
7.17168
-5.80109
-0.855965
0.368677
10.7014
11.3923
-3.92833
1.19333
-5.66901
-9.24655
2.10788
-0.98365
2.05462
8.77082
-0.365134
-13.2356
12.5032
-0.672391
-1.12916
0.975474
-2.63378
-4.22136
-2.43495
0.643266
-4.38973
9.22247
17.6065
0.448391
-1.13886
18.4564
17.0723
-1.19646
-1.35555
10.4782
-13.9314
1.17533
0.709759
-0.0508068
2.58616
-12.8024
2.86743
6.93036
-3.00591
-0.175577
-3.80558
-0.87756
8.38225
4.66002
6.50035
-4.20722
9.0934
16.4931
-8.47509
-4.35084
11.6623
-4.06268
6.13776
0.196496
-1.91443
-4.35677
-0.99228
10.5817
19.5744
11.4238
1.43014
-0.217748
10.3314
15.9353
-5.31502
10.9002
10.1418
17.177
-0.534012
0.579919
1.86182
-0.15819
16.6318
1.9031
2.56059
6.66093
-0.0761715
3.01985
1.45965
-4.6419
10.2607
10.5882
8.1711
5.07617
-9.41589
-0.0846021
-0.778585
2.70274
-8.50314
-8.56282
0.0438222
-3.46505
-5.89754
5.50971
-1.68368
-51.6362
-9.75058
-0.757728
5.45035
-7.33241
-3.77162
12.2418
-3.12238
17.6479
-2.42366
-43.4839
12.6349
15.5524
1.06121
0.38613
-7.38863
10.6347
3.10105
-8.19289
0.0952619
0.488679
-0.0270161
10.556
0.442839
6.1594
0.464683
10.0606
-8.31359
0.56805
-0.382392
13.0065
-3.65658
-6.65261
-3.54199
17.5342
1.16542
-3.58397
-7.10327
9.61928
-4.50652
0.164633
3.26576
3.15904
1.25904
6.01458
-1.44465
8.58808
8.24057
12.3662
5.05701
0.666218
-0.833956
7.24643
-4.61455
12.8888
6.68655
0.0342183
-0.26483
-0.507384
-1.37994
0.200424
12.4741
3.07495
0.0315045
10.3446
0.992517
7.51435
20.3135
-0.149263
-7.8452
5.79077
0.765189
0.0140263
-0.0906453
-9.12869
9.79676
0.411527
0.420652
0.385895
1.06461
14.0378
-5.6631
-0.544688
9.64008
1.80449
15.7886
12.2102
14.5373
4.05421
6.15453
3.02758
1.39454
6.20462
9.97054
-22.6695
-1.03818
-9.74313
-1.80988
-5.20124
10.2711
-5.64703
-3.86906
-3.58386
-25.9182
0.946301
10.6517
0.332133
2.39267
-103.507
10.4078
20.0272
0.84053
-5.66267
5.51815
-0.796124
10.4441
1.01057
0.624731
12.6964
0.0896623
18.8145
6.31597
10.0064
-1.40279
13.9476
0.494738
12.2637
0.402123
-3.72689
-5.48836
-2.24007
5.76581
0.950912
-4.37883
17.4936
9.82493
11.6338
15.6531
11.4721
12.6269
-0.512612
10.7055
9.91873
10.6848
-0.974539
-1.72264
-2.97797
-14.3876
2.36485
11.6563
-75.0319
19.7205
-12.7506
0.407511
19.3448
15.6968
-0.829062
-2.62344
10.3171
4.22298
-8.71324
8.88454
-61.1562
-3.08925
10.2048
15.0327
0.820521
11.3825
13.9251
0.0208179
-0.569397
13.8908
4.69409
0.445934
-6.79399
1.51425
-4.46641
9.64102
8.06067
0.284323
-0.410574
-2.08841
2.58098
0.489357
3.23133
16.2894
0.0911261
22.1244
10.5534
3.19773
11.9422
-5.64317
-29.2651
-4.73041
10.6843
0.226154
-55.1176
-1.71943
4.37713
5.95387
0.397483
4.57848
-14.1926
3.35668
1.47291
0.624219
8.54965
2.98319
14.0317
10.793
11.1201
9.69078
-0.467391
-3.49465
-3.91545
1.7858
-1.09856
-5.74214
6.62244
-1.97275
-0.320433
0.080593
1.34823
-5.2551
5.67822
3.99175
0.944769
-1.96983
3.99676
-3.34824
-2.92712
2.14234
0.789933
11.4918
8.08517
14.028
-79.0106
9.61305
0.380723
15.4433
-0.387318
4.62896
1.54554
-0.580549
18.27
19.2405
7.5724
1.45531
6.8141
8.68038
18.5283
5.24555
-3.94695
-5.33373
2.53596
-15.9957
-9.89216
10.9382
9.64093
1.31879
-5.26728
6.94361
9.1051
20.6046
-6.24282
8.6756
-13.7443
-6.31581
15.8411
-0.737778
7.59069
-0.674473
3.80356
2.27578
21.5979
1.06139
-3.04196
4.52974
2.34004
-5.90072
-75.227
1.61171
11.434
1.40263
2.12263
16.8604
15.4569
-0.188671
-18.748
0.755217
1.44642
12.4252
8.3686
15.2594
5.01372
-6.89297
16.2258
8.72623
-7.74959
6.36862
10.941
13.4125
-5.47018
-17.927
-0.109314
9.1031
18.1801
4.83794
1.1997
-5.25551
20.6459
-8.17892
-3.52194
19.05
9.18652
1.52155
7.73443
-8.21537
4.27982
-1.03333
-8.06607
0.466166
-4.61896
1.13372
-0.844866
-14.2829
-12.4375
-9.01443
-8.9469
-14.0179
-5.3067
12.5708
10.7207
1.22516
-14.0685
2.50658
1.27246
-0.485534
21.9646
4.68578
-3.7568
7.14112
-1.43468
-4.49738
6.83528
6.68239
10.0708
22.4336
-0.504184
-0.613214
-2.9528
1.85311
5.27445
9.54749
-2.86532
16.4985
7.46468
11.0903
-2.87304
0.0300047
-0.120317
10.2888
10.5266
10.9331
10.0312
19.9635
19.713
-1.39987
8.54507
13.5936
-2.98983
15.3991
0.20995
19.3562
15.2376
1.35549
12.3576
5.3869
6.50288
0.0725964
10.4857
-3.58614
8.45534
1.3121
4.41995
-0.769062
10.2105
-0.646655
2.57439
18.5778
18.5099
5.3747
-77.5057
2.65982
-11.4409
-0.182319
8.07033
16.1819
-74.933
10.9976
9.78426
4.99629
10.2012
-5.04538
-0.475282
0.184383
20.5732
1.54485
0.8175
12.0417
-0.838611
-0.30901
4.61977
2.51853
7.46721
-2.60002
-1.7781
6.64171
7.06989
5.07382
5.95022
19.6891
15.4939
13.4532
20.1308
18.3478
3.40437
0.0594042
1.10743
-16.0528
18.2126
-1.67213
10.3456
8.38942
-5.51585
3.15433
11.319
-1.9272
4.44326
6.31312
22.6369
-7.53587
4.22472
1.48017
11.9814
0.949833
-5.35781
17.8698
14.7774
9.69885
9.9479
-1.04894
-1.52502
-11.1633
19.5948
0.41625
21.4529
-19.6722
1.76933
-21.9426
1.18093
-55.4012
2.46843
-0.0525096
3.58592
0.459019
3.02469
-5.32937
0.130171
-0.53184
-76.2576
-2.64715
-8.33817
0.87167
-0.269372
-11.6308
-6.09979
10.2881
10.3158
14.3011
10.2503
3.60686
2.1716
24.7186
9.65275
-8.48199
0.0590706
-0.207083
7.52445
8.57438
16.4699
-4.30302
-3.49562
6.66467
-0.488328
3.67554
13.2299
-76.9225
-5.68495
-11.7706
19.9434
-6.72018
6.38112
13.9313
-15.9749
7.03091
0.795696
-7.1904
-7.03614
0.543016
6.47764
12.589
13.4934
-7.43915
-73.004
3.84333
-10.1587
-1.60445
-1.26547
2.88194
-0.92401
0.68531
-5.65541
-7.40293
-3.53239
17.1434
-7.62345
19.1321
-5.92384
-0.146412
2.58475
1.0468
15.6157
9.59608
12.7046
1.08922
-0.13322
-7.21329
15.081
-84.7619
7.63874
0.689232
12.9574
15.7061
0.362656
10.5415
18.0465
11.1289
11.1027
-25.2913
-0.623781
3.79837
-2.92877
0.529
3.79694
5.08182
1.27399
-7.21767
2.61731
1.00724
7.69908
5.64933
-2.86543
19.2933
1.763
0.629446
2.30003
10.579
-1.35034
0.110284
11.202
-4.94759
1.08502
0.574311
10.6395
9.95592
9.35776
1.065
9.59746
12.0608
11.4073
-1.04457
0.38015
2.13163
7.9942
-4.39215
-19.6533
-3.4996
-8.89364
-8.03993
-1.57026
0.972331
0.667438
-65.9596
-3.97102
-5.25744
0.611843
-1.30096
3.11149
-6.23747
11.2367
24.639
2.82798
-0.219008
4.49941
1.11768
3.02986
0.811742
-1.58718
-3.34425
1.27431
14.275
-0.350361
17.7437
0.56528
9.89359
7.22331
4.02676
-17.4217
2.30433
20.1685
-13.6358
9.7531
10.0606
16.4327
2.12989
14.7746
10.9486
-22.001
11.9528
-7.61799
-9.16839
15.2725
11.2197
-8.01459
-0.31671
13.7875
-11.0196
-2.34397
0.759958
0.462898
7.4717
6.22744
10.6877
9.12099
7.8623
-19.4912
-2.8927
-1.09751
9.79082
21.4869
-1.83876
-8.27965
-19.0321
9.87706
2.51714
1.45695
0.233253
0.998095
6.59483
-10.3192
1.62953
19.2733
4.08812
1.21099
-4.02718
-5.92189
-2.43594
-13.3031
-3.24322
-5.55816
13.1779
4.22021
-2.23434
18.0417
0.121893
-6.85242
-0.500549
-8.97353
11.1549
-66.5948
3.13529
10.1806
1.0978
-1.23108
0.0507234
-8.45089
-2.55501
10.8971
-5.4098
0.262685
-11.4915
10.086
10.8832
-6.49144
13.4007
12.0255
17.051
17.3832
11.2666
2.64199
20.6612
-11.6018
9.46359
-3.28246
-4.25308
12.7067
-3.79335
16.8503
4.13563
-6.9477
-15.374
-12.5846
10.9771
-3.24809
-1.18319
1.49034
-12.6349
0.954971
5.44108
2.14451
6.82746
19.9099
-80.1929
-2.94716
-5.82029
10.4111
7.71633
-1.83457
24.3557
0.496368
0.737101
6.71015
-8.63357
10.428
10.1378
12.056
12.1708
1.18376
3.55481
9.32791
3.33848
-40.7971
-0.568842
11.3197
11.3461
15.0208
-17.5207
1.95928
0.14581
7.04011
2.54381
-3.88551
8.7085
-0.536284
7.31711
10.5979
-12.2892
17.7892
-2.37967
19.7471
11.9807
-4.97334
0.0365145
0.267622
4.10365
11.0574
-4.57996
14.7112
10.1833
1.34061
0.708329
2.27406
-2.31794
1.24538
-12.0042
4.15067
-2.22704
9.99768
-18.8149
-8.64049
-0.80128
12.9806
15.862
5.17023
-18.7725
5.28578
-0.0946235
1.87748
5.55325
-29.2369
-18.2278
18.9566
-4.93008
0.580817
-3.52981
-8.53256
-9.74889
9.86993
-11.9394
-0.982987
11.1725
5.36377
10.9085
-5.51575
3.15695
19.459
-16.8391
9.90512
3.12364
-22.4763
2.81874
2.80785
-6.8687
19.5248
11.9579
0.840753
19.1884
13.8889
13.1559
-10.4883
-19.4536
3.59772
-8.7566
-16.16
-6.96077
-8.3058
-6.6897
7.41779
4.49417
4.08845
5.45128
-23.7564
5.50625
9.61881
-7.37668
10.6267
5.70866
10.1106
0.0576992
1.49118
-6.30751
-13.2493
-5.62001
-1.189
10.2635
-4.23099
17.2078
-5.56741
9.11949
3.43672
1.12414
-3.38072
10.0362
4.12424
2.26432
8.96243
-0.22778
0.866309
16.0558
12.6649
-2.13056
-5.23121
-9.75824
8.65366
-0.156312
-1.62721
-6.93791
0.232916
-0.403757
1.01413
8.15006
7.09915
1.71419
5.06492
-0.176216
0.428816
-3.82936
12.6974
-6.26633
10.4435
0.0297792
8.45873
11.5753
6.07098
8.98017
-10.3729
-5.04116
0.314216
-23.724
-4.04097
-2.34853
1.42635
-3.74798
7.75174
0.0586164
10.7346
-7.73561
0.808623
-11.2074
0.296362
10.2217
-7.14368
9.44491
3.31756
-3.55467
-16.0346
-5.92454
7.52282
10.2689
0.295114
2.77643
-31.1713
12.4002
-8.24549
2.20744
-5.7523
13.5484
4.45878
0.254535
11.1619
10.5689
12.5613
4.32836
13.0571
-18.5551
1.00972
0.0966014
9.34616
5.63978
2.67267
-8.10544
-3.63852
-5.18502
3.75985
0.946078
-4.81639
18.8594
-27.179
12.5603
6.02045
-1.21015
0.230528
0.41793
0.223756
1.05227
2.62679
9.35842
1.13363
10.5483
-10.7486
-1.48287
-15.6042
1.15521
-3.98571
13.3872
19.2882
11.2568
2.11128
-6.16513
6.03309
-8.3485
-2.64916
0.675259
-0.32496
-2.22199
-5.02377
-3.91255
-2.05089
8.8623
9.5367
-7.87536
3.74069
11.931
-3.39988
-7.52227
11.477
0.237611
-6.52654
0.500246
-1.16848
-0.0960481
18.2752
0.788203
9.29894
-7.51229
-3.95421
-3.57018
9.99736
1.59713
7.07452
-8.45621
-2.84929
1.23967
-2.24184
11.7236
8.4491
1.4281
0.334613
-1.52529
20.206
-13.8109
11.8868
13.4093
-1.13821
-1.04771
3.61116
-18.9125
-8.78882
8.73946
5.48196
9.71875
-4.07624
11.6005
2.46969
15.6605
-0.90022
9.35188
13.4899
8.3594
2.64603
-5.73997
3.22455
-9.21226
7.34658
4.6792
12.5183
1.54736
16.7615
2.60289
18.361
1.19208
13.5021
-0.798752
6.78982
-6.17142
9.74845
3.70247
4.49992
17.6023
9.82122
2.37449
-3.26011
5.63957
9.97281
0.363358
-13.3197
7.71294
0.408964
13.8056
-6.36908
17.3603
2.32517
24.6338
17.4069
5.22638
3.93439
-5.87026
0.882777
18.6774
2.00414
-0.142851
-0.125965
19.7431
4.98535
7.68073
15.9283
-4.60277
11.077
-0.980331
12.721
1.10025
11.8475
9.96394
15.2903
-0.249238
-10.7966
3.39602
-5.97242
3.50891
-6.92522
0.838384
13.9917
16.003
0.312068
-2.04434
-0.71501
14.2203
7.65456
8.86075
6.19468
0.547968
-22.6681
-6.45774
10.9847
-11.3737
-0.0246779
1.58266
6.04541
4.02224
-2.60609
19.8434
-17.0228
17.2012
-3.60306
18.7335
-1.43534
1.92058
0.800067
0.191195
8.23027
9.927
2.17299
0.494178
1.37939
-0.0583561
16.0316
-2.81929
0.828733
-14.7356
0.387814
-3.98402
12.9813
2.28966
0.602938
0.424482
10.4264
21.5012
-5.79251
1.1183
9.51292
-0.233533
3.97909
0.686583
4.77366
0.728162
-14.8576
-3.9163
-0.491646
-0.0577711
1.63271
-6.09577
-2.39095
-0.389979
7.76952
10.9501
7.9311
20.8111
-6.26802
18.8826
-26.9256
17.7705
-4.42804
-3.73651
19.9852
4.17559
-1.31916
9.66863
0.495419
11.0802
-30.8822
-11.5648
2.46602
-2.20984
-2.77558
0.142865
-0.171345
3.58548
13.3133
-3.8411
4.27962
-10.0124
2.3803
-10.7864
0.202242
1.61012
-18.8237
-8.73953
14.993
0.225342
16.4313
4.072
-7.30567
3.49936
-8.46215
0.701765
9.77277
13.2816
20.8223
7.78428
8.55985
2.09603
-83.141
20.1455
21.6974
11.4553
-4.14049
-4.19858
-9.05599
8.97911
5.03271
2.93407
8.8206
-1.43483
0.198961
-7.29568
17.026
1.92988
1.08156
-4.99248
9.23873
4.05536
23.719
21.8248
9.17146
-2.39699
1.22498
-21.6387
3.88954
22.4229
-8.88444
0.832278
6.01192
0.0605752
2.07744
-0.653229
-2.13306
2.33754
1.98058
3.41426
0.459929
1.94643
15.2297
-4.49263
10.5774
-4.29587
-1.15873
19.2217
-4.90124
1.71466
-4.35929
4.05112
0.923011
-6.42791
-5.33014
0.511305
2.72944
23.8707
-17.9872
-7.40284
-2.52884
-7.79653
-11.8483
-3.86691
-7.05787
-6.49179
0.301129
-9.25983
-7.4848
-2.68138
1.30354
1.11287
1.19903
23.3306
1.27103
3.92804
-0.20126
2.32171
-70.213
-1.03092
15.1095
10.2277
2.65083
0.596509
9.76973
10.6149
-3.95369
-5.07716
0.697679
15.1543
-2.21911
9.40312
0.863454
16.9452
1.99661
-3.78875
1.62976
11.9592
-1.41568
8.76366
-4.89492
22.1423
-6.79692
-0.790714
-7.1988
4.2525
-5.77418
-3.99986
-6.24247
1.51893
-0.908939
-3.79762
-19.33
0.922428
2.25796
-2.12391
-7.35114
6.45328
-9.5367
8.17674
-5.67838
11.2883
19.8475
9.15547
-65.5635
9.77027
1.78311
1.79662
-0.607684
-1.72364
-10.248
1.12704
-1.54315
-0.405007
-0.204437
-10.3492
-17.7642
-5.82069
4.89402
10.044
-12.7831
-6.0134
-2.24962
0.425288
0.614128
4.45178
-36.1272
-5.69205
10.2434
-9.05396
2.0372
-3.79079
-6.01434
-6.34744
-6.13941
23.455
2.2248
-2.85337
2.37897
18.4906
19.2704
-3.36938
-0.833526
10.3598
0.210921
1.0744
19.0695
4.43092
7.79555
24.2986
-3.43818
-3.08928
1.75561
16.2574
10.8059
10.3916
13.6473
7.59455
0.469833
0.851132
4.36297
2.56372
-14.0489
19.5213
-9.71743
-6.2484
0.313911
-1.67912
4.1477
-4.52311
-0.716591
2.99712
10.4644
10.9199
11.896
-8.65449
16.5534
18.904
-6.73471
5.48073
0.273004
0.901904
1.36876
5.41589
-15.8206
-3.04314
-9.90402
21.5513
-7.74151
11.7882
10.1168
14.5054
6.10006
6.98052
0.462354
0.346945
2.22029
1.01773
-8.56559
-8.42422
0.446286
-7.44492
13.2125
-3.57586
0.519162
2.51178
-69.3994
-4.80163
-12.2649
8.57536
-0.734738
1.38512
5.08179
-3.64003
3.08723
-7.82771
0.383314
11.2261
-7.00038
19.7563
0.413209
21.0866
-0.607992
0.55487
2.97638
8.98867
7.90862
-11.6439
-0.196216
-2.52597
2.14967
6.00251
24.8981
14.5288
1.47632
-2.80023
3.64586
0.994743
11.8908
0.787648
5.67748
-5.58432
-5.68334
-51.322
-3.16963
0.750329
-75.7417
4.04665
5.79463
18.6329
20.443
-13.1157
-10.1234
1.58797
-7.08288
19.7935
-8.19547
-5.69506
4.29535
5.57772
-1.51226
-10.9561
2.14227
0.117815
8.51805
-1.37521
-3.09028
0.978142
-4.80225
-10.7875
-2.9595
-11.5362
-9.83803
11.2803
-2.99379
-3.98302
-1.00488
1.18882
21.9064
5.63103
9.64544
-0.963817
4.1161
-0.116635
2.63049
2.60242
-6.85577
-17.6447
19.7271
10.8802
0.22745
-17.9885
23.0966
-5.19665
-22.4605
-6.21926
3.17965
-5.53358
-2.28836
16.5958
0.137715
8.71833
3.75407
-8.40787
0.886858
1.57735
5.93047
-12.3425
-0.128771
2.67839
9.94884
-5.74397
-24.9937
-5.57546
-1.40587
-8.49988
-7.02126
21.3513
5.95343
-4.85002
2.40902
2.99119
18.0482
4.14932
-17.1482
3.74536
14.0136
11.3177
-1.94561
8.84201
0.639624
19.5727
0.441115
10.4283
-6.36867
-2.04525
0.320552
-5.19707
3.47502
3.66885
-17.3087
-5.36318
12.3732
0.136581
-0.546909
15.1836
7.30748
14.5046
8.70712
-3.00083
0.130726
0.727236
9.43652
-0.205795
13.23
6.26461
19.1619
-7.19645
14.7409
0.335373
19.604
-9.06137
-4.44529
19.9794
-6.63171
5.69315
-7.83151
16.8808
19.1988
11.6392
-17.0165
10.0198
13.9036
-1.88699
3.86976
-2.94222
15.1147
-6.00336
-12.4965
-10.378
-10.5439
13.6357
1.13016
-9.75209
4.18434
19.0833
-5.96241
-1.33509
-10.6768
-5.35394
7.18482
-0.522219
9.74933
9.03714
-9.63765
22.2305
-0.312978
15.948
15.6858
1.14458
-0.0431201
8.17456
-7.76609
-0.440542
7.69893
6.76893
-2.70301
9.19894
-8.68176
18.3045
11.5897
3.17506
-11.0513
11.5626
-0.738292
6.1993
14.4322
2.74548
0.325003
13.6682
10.931
-2.80352
-80.6225
6.19412
11.5743
19.4288
-26.8033
20.7686
21.0271
21.0796
0.500418
13.4126
-6.09229
10.1145
14.755
13.6553
11.5431
16.3042
23.6081
8.75173
-22.8995
-9.15715
-16.9583
23.5161
4.64865
0.337365
-6.21745
9.2907
16.5859
9.54168
3.07408
-0.103971
15.8911
-7.34544
11.1029
-5.88887
4.22215
0.343159
-4.67033
6.63804
-5.67935
-5.48766
-9.53298
-1.58451
0.740535
12.6926
-2.19605
1.8189
9.03817
-5.97817
3.49466
0.457213
-5.90224
-6.55759
-20.0258
15.2953
16.8642
-5.41816
3.77006
13.8628
13.1514
0.394688
-3.74271
10.9759
-14.8933
15.0089
-5.47616
14.3153
6.35354
1.77061
13.2203
7.70642
14.2471
2.89315
4.78268
-1.98154
-75.366
-6.84499
0.348971
14.1512
-3.62244
-2.09998
-3.7323
16.2586
13.968
3.3844
6.59018
15.8337
-9.05454
9.52817
0.488258
-3.30996
9.34925
-3.51327
-8.08936
-6.67822
-12.8976
-1.32959
-4.83069
0.971844
-8.87305
-58.9288
7.72272
19.574
21.9293
18.2721
-3.64921
11.3095
-6.39034
9.13498
16.1191
1.70024
13.3544
-3.32527
3.16075
-1.91054
0.981218
15.0795
-7.85824
11.7624
-8.93356
-1.7197
-12.4436
12.611
11.6906
10.0947
-7.43372
8.90601
-25.6907
-10.1973
-10.7081
3.27326
19.8201
-11.1277
-0.652981
-5.52804
10.4594
9.69604
0.14385
5.32715
-7.9454
16.1211
15.1553
-2.07632
-1.59964
15.8132
-2.9064
-5.8453
0.441511
14.2922
16.3783
-6.12843
5.19416
-2.16598
19.1767
-8.87093
-2.20712
1.30682
17.7715
-1.30682
-2.25513
0.00441088
14.8972
8.0846
14.7695
-0.611023
-10.2933
11.2523
22.9135
-56.5118
8.20147
0.607547
-9.66342
-0.0731532
3.27953
-5.99979
4.75026
-8.78772
6.1824
-1.23475
-2.65832
12.9892
16.577
9.47872
-8.01149
-1.93491
12.186
-8.23659
0.561914
-2.47377
4.83782
-7.89778
11.6219
12.1518
-0.0213031
11.2006
18.9846
-0.450194
6.59006
11.4891
-11.26
5.69814
-2.8799
4.17878
-1.08226
7.49796
0.194736
3.17996
-0.209109
-28.8242
15.4377
-0.417692
1.91142
-2.60264
0.00598565
10.6965
-8.09804
21.0074
-7.4075
-12.8662
-10.944
13.7052
11.7337
14.6805
-15.1177
18.1426
-4.52542
6.36645
2.2109
-7.02654
9.52444
4.1641
-1.32288
5.40685
-18.4697
7.7766
-12.4569
-3.00528
-0.943312
-5.63089
-6.21003
8.00271
18.6707
0.670212
-6.14759
13.8158
-6.63247
16.613
-0.858595
0.912745
5.70338
10.1638
4.40572
-0.57619
-4.41504
-0.0860143
2.63588
4.00134
-6.31366
-5.20941
0.838338
2.83208
-1.97774
23.7001
10.8514
10.2878
16.9816
2.15643
11.6319
-3.62666
-12.6482
-3.24375
10.441
23.0246
9.23621
-5.34844
15.288
8.91722
9.35222
0.291086
-0.177138
4.95787
21.1949
-11.4803
-2.86359
15.0772
15.7885
10.7206
10.0341
12.64
8.15173
-21.2892
-3.80685
11.0089
-53.9366
-72.2992
10.3958
-3.37114
-12.2184
-2.08404
10.9868
11.6719
12.0446
-0.632313
14.4952
15.0507
1.44677
12.6024
10.4471
9.57485
7.92774
4.06253
4.77703
-0.4377
13.6407
12.6596
1.18942
8.61993
-0.920522
0.0151235
18.4162
13.2586
0.663858
-5.52912
1.76865
13.788
4.89656
2.08339
0.363934
2.00133
-0.873243
2.56087
-5.47493
-0.780928
5.17934
-0.133507
-4.67021
-7.54359
17.3759
-6.25762
-21.7642
-5.08918
18.682
-0.372715
2.39168
1.69586
-9.93737
8.68615
9.77405
4.14957
16.2161
6.44637
1.10616
-17.2751
-5.50066
0.896117
12.3679
1.50704
-6.32126
-9.00153
-0.806687
-19.9295
-5.19052
-7.55751
-1.59436
3.45017
9.95918
14.1874
-0.667981
0.505348
16.2011
11.3104
-6.04284
-2.23915
-16.9527
5.38716
1.55515
4.15926
9.86901
-0.0179228
-0.261433
-0.694787
2.89868
-4.2652
-17.1425
1.68638
-3.38302
-13.6363
-9.57333
-5.1784
1.60683
-14.8711
4.20971
-6.48353
10.182
8.97509
1.53983
13.4827
-4.67811
18.8326
-2.33053
-0.214809
-6.8142
10.1457
5.65254
-78.611
-13.8626
10.7803
13.4919
19.6668
-5.76013
-14.5203
-4.25235
-0.857954
0.262371
-7.66465
-0.831787
-9.81789
5.9031
-6.32008
6.07957
-4.12225
-0.543929
16.4569
8.45324
-9.60941
0.766349
-7.52506
-21.22
13.8882
21.9586
-31.1494
13.1105
10.1017
0.122798
-23.252
13.7484
12.9477
-7.98698
-0.205269
-3.42957
-4.4016
-6.56698
-8.60436
-7.13875
6.78755
0.640948
11.6823
-7.00534
-9.47859
9.76935
-6.48672
-10.3136
0.627649
8.47225
-10.3998
-3.68329
-9.50753
-7.3476
-10.1889
20.0902
-13.653
-0.929978
-6.13964
11.1972
-11.8995
0.411041
-6.98065
-6.37985
-2.80832
11.6106
0.229158
-7.94758
7.61103
-0.169508
-1.90209
-6.73091
-7.61408
5.41378
7.3997
10.252
-11.8822
16.7705
-1.2906
-0.212977
0.907384
-14.9921
-3.96246
-7.77165
-3.30297
2.70373
3.10818
0.983297
-1.96358
-4.01227
9.24992
-5.49827
11.2725
-5.49847
6.31727
-1.07568
-3.44784
1.28154
24.9865
-32.3996
-10.4898
-10.8228
-3.26309
9.96911
0.691116
1.11464
1.31408
-9.03127
-5.63677
-81.7635
-8.73969
11.2721
-7.90757
1.53771
-9.45846
0.145272
9.33749
0.587708
1.60309
-1.91249
14.1315
-12.6101
-2.28183
15.5712
3.45498
-12.1254
-1.50871
-5.95703
-3.74369
-1.46118
13.6391
-3.54301
4.28233
-14.2522
-5.36905
-6.99612
-7.44354
-20.4574
2.86619
-0.442796
10.5918
3.02468
-5.02407
21.0773
-4.25841
12.6498
16.3957
-10.1331
0.33579
10.702
10.8247
6.22531
-3.10009
-4.6996
-4.88957
9.27955
2.8655
-3.67179
-6.49734
3.50348
12.5435
-1.53632
1.10923
0.633176
15.1623
-7.72978
-8.72846
0.618202
7.93245
0.23127
0.963086
16.801
13.2622
0.967048
-3.5472
13.823
4.99341
-0.737813
8.51686
-1.10713
-3.90913
-5.67111
-3.40644
13.2845
10.7541
-0.260002
-4.55041
1.03067
-3.44046
11.0967
-3.35838
5.93116
14.2968
15.6519
-1.03939
10.6303
8.28907
11.4303
12.4304
-1.07515
12.3547
0.150958
10.384
5.76629
11.2776
-5.62174
13.3471
12.3785
9.23264
6.40385
-2.49983
6.17934
1.06438
-2.82068
14.8612
14.99
-2.90362
15.7588
-4.01806
-58.4443
10.7082
10.4383
-5.93692
0.50069
-13.9569
-3.39653
-11.4461
-4.4558
-6.03892
-2.49885
9.14079
21.3679
13.6353
-0.772432
-5.6554
10.7951
4.19384
-10.7732
-3.77709
-1.74027
-10.0735
-70.1071
-60.4367
9.60418
1.09159
5.84888
0.355317
0.349717
0.828806
0.302364
2.86031
3.22222
7.36321
-2.25117
0.576446
-20.3619
-5.24895
7.14285
4.7683
0.590592
-8.42636
7.08996
-0.959003
3.64429
-2.75967
10.8137
8.12089
17.8996
10.1676
-2.88117
-2.33967
-2.73125
-1.57193
0.227674
0.747391
0.136779
-3.21882
21.7389
1.72008
-0.979213
16.4758
-5.65883
-6.4974
-5.79065
-5.56521
-14.4353
-2.31539
-6.44898
9.41238
-0.278162
-2.44806
1.28984
-1.22554
-3.42629
-2.8364
1.92925
7.73465
-6.69764
-4.88407
-7.42569
3.48796
-3.46933
10.8065
17.0468
-1.21472
11.1936
4.53562
8.3663
18.8916
-5.59933
5.93556
5.32847
4.80606
15.8611
-3.70869
-0.392861
-0.918978
10.9424
17.0168
-2.71943
0.712879
-3.58785
-3.02732
4.75836
-2.51797
-6.8471
-1.84812
3.39444
-14.7523
2.94128
3.14885
8.90984
2.38445
-25.31
1.55576
0.485018
0.107377
18.3539
21.0237
14.6914
22.3615
9.10344
14.0535
11.8406
9.32615
10.1554
-2.30862
10.3596
-2.09415
-74.0663
16.3157
-1.42323
-4.26349
19.8591
0.0179109
-5.02212
4.96497
4.42625
12.8799
-10.0818
9.53722
17.9937
-5.65356
-61.4767
-6.6853
3.85444
-6.5241
13.9134
0.515855
12.7531
10.308
-5.24506
12.3806
-2.94873
-19.726
-22.1914
-3.57222
12.9584
-3.35162
10.1922
0.167465
-8.05438
1.62898
0.98039
-13.6623
-2.33442
-13.2095
12.948
1.10903
-10.7342
-3.97882
6.91379
3.4218
-3.80591
4.31944
0.631485
5.21684
-10.9866
5.95355
2.68162
2.3311
-0.407256
8.81336
6.53354
3.15827
-12.7618
22.243
-4.35015
-10.1154
9.5082
8.14962
-9.16039
-3.30235
-5.60895
4.31783
3.94428
-3.01379
-0.0587864
-0.738561
22.6294
1.04855
-5.22171
1.5142
-3.24097
5.20402
-0.766098
9.36756
6.11559
-6.69552
5.38293
-14.5369
6.19002
3.78102
10.1834
7.2042
-0.0474824
0.994284
3.51577
11.3105
1.65316
1.47194
-11.0143
-5.52852
-1.55082
9.27151
-10.6042
4.01388
-11.7674
12.931
-8.15985
-1.63313
14.1334
12.6882
4.34788
-5.49062
-16.1428
11.4621
-1.35472
13.1101
4.45407
1.66729
9.83844
3.08514
3.18957
2.7683
-1.87854
-2.60595
6.50485
-4.51936
14.6619
3.82277
22.9943
0.0991456
2.66343
12.6581
1.66104
3.03627
11.0665
7.55326
6.42693
-3.25414
0.866154
9.74725
5.03141
1.61518
-3.64375
-0.275972
-5.28161
-8.86261
-1.91741
8.91228
2.18078
8.29167
-0.816905
18.6135
13.8638
3.22598
7.07438
2.90013
-12.2506
9.66044
7.15988
0.348089
4.09959
13.1607
11.2975
0.208769
-3.96332
-9.36517
8.33456
2.9995
1.64836
11.1896
-4.73124
8.85594
-9.30353
9.77684
4.77104
0.464177
4.26065
11.6151
-0.705334
10.2548
14.108
2.46897
-1.3698
6.02451
2.36288
16.9125
-6.34469
14.9996
12.1508
-7.86322
-1.62414
0.375351
-1.86547
-6.30726
-2.38007
9.66545
15.6912
11.6741
15.664
6.88039
13.6172
4.32548
2.32057
4.8096
1.31874
1.33771
7.78902
0.618371
16.6758
2.84352
-9.41264
7.13935
16.2992
17.1338
-5.73362
4.68758
-2.3018
-68.6986
5.06306
-1.82193
-5.41267
5.20847
17.9686
-13.5489
-6.08093
-5.98096