/*--------------------------------*- C++ -*----------------------------------*\
| =========                 |                                                 |
| \\      /  F ield         | OpenFOAM: The Open Source CFD Toolbox           |
|  \\    /   O peration     | Version:  2306                                  |
|   \\  /    A nd           | Website:  www.openfoam.com                      |
|    \\/     M anipulation  |                                                 |
\*---------------------------------------------------------------------------*/
FoamFile
{
    version     2.0;
    format      ascii;
    arch        "LSB;label=32;scalar=64";
    class       volVectorField;
    location    "7.7";
    object      U;
}
// * * * * * * * * * * * * * * * * * * * * * * * * * * * * * * * * * * * * * //

dimensions      [0 1 -1 0 0 0 0];

internalField   nonuniform List<vector> 
13486
(
(1.41535 -0.21098 5.77349e-19)
(1.65585 0.290791 2.90337e-19)
(2.68624 0.0369629 0)
(-1.85788 0.825398 -1.28601e-18)
(2.32706 -0.448222 8.99659e-20)
(2.48663 0.172809 3.81086e-21)
(2.47508 -0.254111 -4.90682e-21)
(1.96141 -0.693798 -2.37066e-19)
(1.92418 -0.371636 0)
(1.97975 0.77186 0)
(-0.873636 2.54889 -9.9018e-19)
(2.5115 -0.0753471 0)
(1.256 -0.407938 -5.6677e-19)
(2.43942 0.793428 -4.1522e-21)
(2.37744 -0.258927 5.81325e-20)
(1.9371 0.761927 -2.03202e-19)
(0.858735 -0.216587 7.29129e-19)
(0.65809 -0.613936 1.81395e-19)
(2.18926 -0.0143806 2.70532e-21)
(1.59947 -0.0433674 -5.91741e-19)
(-1.8151 0.255207 -4.91244e-19)
(1.27668 -0.423862 7.31109e-19)
(1.67767 0.285989 -2.32081e-19)
(3.85641 -0.741226 0)
(2.03557 0.621458 6.92703e-20)
(3.73931 -0.70648 -3.47183e-19)
(0.40761 -0.21164 8.43408e-19)
(2.96706 -0.205844 5.95116e-19)
(2.0297 0.101732 0)
(2.79101 -0.471941 -4.54471e-19)
(-1.37856 -0.550333 -2.94672e-19)
(2.39943 -0.205687 -1.16135e-19)
(3.31523 -0.0525651 4.70929e-19)
(2.237 -0.131299 0)
(1.96963 -0.666172 0)
(1.72482 0.0102198 1.01566e-21)
(1.6309 0.149941 -4.54158e-20)
(1.43929 -0.675287 2.69963e-19)
(1.77498 -0.175047 -1.64262e-20)
(1.95514 -0.22764 2.7324e-19)
(2.48688 -0.749902 0)
(0.838252 -0.415011 -6.60934e-19)
(1.98775 -0.00414828 0)
(2.05314 0.519713 -3.27633e-19)
(2.07198 0.519183 1.35016e-19)
(2.51096 -0.0757773 8.81502e-20)
(-0.944018 -0.0713252 1.38834e-18)
(2.01347 0.101105 -2.42876e-22)
(1.64977 0.151593 3.43301e-20)
(2.84134 0.00935952 2.08889e-19)
(1.99968 0.0276457 3.59592e-19)
(1.83356 -0.0422042 0)
(2.53354 -0.16864 -1.3836e-19)
(1.60232 -0.591523 -3.98152e-19)
(0.687613 -0.841437 0)
(2.29324 -0.457677 -7.12619e-20)
(2.35805 0.61681 2.67009e-20)
(1.82623 -0.0896613 -7.31366e-20)
(3.30223 -0.0237165 5.66472e-19)
(1.37456 0.196639 0)
(-0.942825 2.56313 -1.34544e-18)
(1.37905 0.229948 0)
(3.71907 0.573441 -3.98907e-19)
(-1.73696 0.257871 -5.14434e-21)
(2.22071 -2.56912 0)
(1.60114 0.177301 -2.412e-20)
(-2.11945 0.913106 -1.34282e-18)
(1.40588 0.055627 2.00709e-19)
(1.92334 -0.394055 -1.51115e-19)
(1.62137 0.0114651 1.69173e-20)
(-1.95564 0.877083 1.53751e-18)
(0.709851 -0.773921 7.55756e-21)
(1.97761 -0.10895 2.08196e-19)
(-0.768704 0.102262 -4.69808e-19)
(1.57302 0.279311 -6.50854e-21)
(2.39866 0.572571 -5.02689e-21)
(1.59573 0.278909 1.64499e-20)
(2.38328 -0.270055 -2.24037e-20)
(-0.794871 0.271303 -7.22183e-19)
(1.8433 -0.578666 0)
(1.97931 0.0222491 9.23723e-22)
(1.59843 0.390935 -1.85483e-20)
(3.55576 0.508144 -1.60145e-20)
(2.77618 0.0342676 -2.90946e-21)
(1.40621 -0.222348 -1.12955e-18)
(1.30322 1.65601 0)
(1.59805 -0.309346 -2.37834e-21)
(2.00162 0.0426238 -5.47225e-19)
(1.86492 0.218383 -2.37353e-19)
(1.819 1.02872 -2.34277e-19)
(2.44289 -0.232181 -8.31051e-20)
(2.10141 -0.579285 -1.15115e-19)
(1.47143 -0.308238 1.4676e-19)
(1.64353 0.0893156 1.5694e-20)
(1.81514 -0.55988 6.07274e-20)
(1.99669 0.0869828 7.99688e-23)
(0.410523 -0.19948 0)
(-2.42089 0.958295 8.57588e-19)
(1.9694 -0.224479 -5.21787e-19)
(1.04498 -0.161696 4.04374e-21)
(1.8926 0.0195801 0)
(2.40812 0.788869 -5.05343e-21)
(-2.48836 0.853374 5.17232e-20)
(1.82122 -0.0747235 8.56827e-20)
(1.27067 1.60585 0)
(1.02939 -0.0767159 6.4885e-21)
(1.97537 0.0641832 2.91907e-22)
(1.78549 -0.199977 -3.64414e-20)
(-0.826745 0.241061 9.55879e-19)
(1.77379 -0.796608 0)
(1.2434 -0.59688 0)
(2.39029 -0.211245 -9.6498e-20)
(1.61343 -0.574642 3.62094e-21)
(2.31856 0.308998 -9.92688e-23)
(1.03843 -0.0455973 0)
(1.18876 -0.587646 -2.19037e-19)
(2.03046 0.63856 0)
(2.34893 -0.106163 0)
(1.96832 -0.110179 0)
(1.72157 0.142654 -1.75544e-20)
(0.745189 -0.574354 -8.03181e-20)
(-1.18189 2.58516 0)
(1.78727 -0.505465 0)
(1.78143 -0.178858 5.29366e-20)
(1.85667 -0.645719 0)
(1.8215 -0.0401622 0)
(2.18989 -0.241526 5.42999e-21)
(2.20504 0.0780769 1.31948e-19)
(1.90808 -0.0613472 -6.41705e-20)
(2.46377 -2.49571 -5.07285e-19)
(1.80886 -0.0294901 -8.97001e-21)
(-1.14383 -0.171131 -3.49793e-19)
(0.437924 0.482184 8.74249e-19)
(-0.218506 0.154189 6.12011e-19)
(1.99945 0.0141778 -5.84385e-20)
(1.89283 0.426804 -2.80806e-19)
(0.617498 0.733666 -1.70691e-19)
(1.7949 -0.788973 0)
(1.73475 0.137224 4.85443e-21)
(1.99523 -0.552107 -8.89957e-20)
(3.12284 0.0640587 -4.788e-19)
(2.52777 -0.181782 1.16955e-19)
(2.43445 -0.174713 0)
(1.87251 -0.551215 0)
(2.09542 0.00284309 1.76303e-22)
(3.89655 0.466668 -8.27503e-19)
(2.12264 -0.152418 -1.2518e-20)
(0.263797 1.66379 0)
(2.8527 0.0300915 0)
(2.03518 0.0953255 0)
(2.01074 0.0206066 5.83723e-21)
(2.4085 -0.330405 0)
(1.96842 0.0133732 -9.69623e-22)
(1.57449 0.389732 -1.58214e-19)
(2.19585 0.333009 0)
(2.8673 0.0529879 0)
(1.60567 -0.722054 0)
(-0.564156 0.3321 1.57071e-19)
(1.70333 -0.677873 5.44312e-19)
(2.02294 -0.760294 -1.83241e-19)
(2.72128 0.0194851 1.09525e-19)
(1.7118 -0.657196 -8.24842e-19)
(2.3499 -0.262293 7.31789e-20)
(0.745097 -0.354171 2.89531e-19)
(1.84293 -0.0545487 0)
(2.54794 0.784794 -3.93621e-20)
(2.36011 0.720567 7.42525e-20)
(0.412404 -0.114624 -7.20824e-19)
(2.0925 -0.154886 3.02793e-20)
(-0.231002 0.169347 1.65054e-19)
(0.290481 0.433541 1.4126e-20)
(2.19043 0.305717 1.10712e-19)
(1.99781 0.0853786 -4.57804e-19)
(2.31097 -0.165732 7.98894e-21)
(1.96678 0.0483145 -1.42908e-22)
(-2.23509 0.804792 0)
(2.4068 1.11218 1.49225e-20)
(3.22483 0.137829 6.33935e-19)
(1.98327 0.0600455 -5.67111e-19)
(2.43813 -0.162873 0)
(2.00242 -0.27578 5.34363e-19)
(2.31314 0.280782 1.42441e-22)
(2.36531 -0.156036 -2.77799e-21)
(-0.984498 0.716268 0)
(2.67031 -0.042637 1.56907e-20)
(2.74954 -0.190495 -2.6788e-19)
(2.09269 0.091214 -3.41548e-22)
(2.729 -0.340082 -1.30718e-19)
(2.51116 -0.727806 0)
(1.06557 -0.513979 -2.87698e-19)
(1.68555 0.164501 0)
(2.49557 0.0583021 0)
(1.87099 -0.136318 0)
(1.267 0.848756 -3.33072e-19)
(1.91885 -0.170315 0)
(-1.12448 2.52675 -2.80777e-19)
(2.32704 -2.75198 1.10352e-18)
(2.62209 -0.00203619 6.4473e-20)
(1.06247 -0.524452 -1.20426e-19)
(2.52783 0.746472 -7.16758e-21)
(-1.40431 -0.61553 3.02051e-19)
(2.21664 0.0985331 -3.99878e-21)
(1.32266 -0.638349 -3.11981e-19)
(1.71535 -0.732267 -7.39832e-22)
(2.07013 -0.850223 2.24198e-19)
(1.94232 -0.158413 -6.56794e-20)
(0.236007 -0.755847 4.81007e-20)
(1.9002 -0.0434353 4.3969e-19)
(1.85649 -0.140948 0)
(2.68562 -0.0250005 0)
(2.97636 -0.234707 4.37071e-19)
(3.57655 -1.25069 7.14577e-19)
(1.61813 -0.0287389 5.41576e-19)
(1.96884 0.0632351 4.03324e-22)
(2.4837 0.215643 -4.38965e-21)
(2.20522 -0.813992 5.21178e-20)
(2.83055 -0.406951 0)
(1.81647 1.01291 5.7646e-19)
(1.55617 -0.334417 0)
(3.15446 0.84958 0)
(1.0307 -0.198251 -1.39654e-18)
(2.88516 0.0671943 0)
(1.97695 -0.547691 2.04946e-19)
(2.69134 0.0346627 0)
(2.59232 -0.187903 -2.32029e-20)
(1.21828 -0.572918 2.00296e-19)
(2.60982 0.380743 -3.74682e-21)
(-1.59812 -1.06873 3.37616e-19)
(2.13347 -0.521931 8.28746e-21)
(1.64098 -0.310794 -3.13441e-21)
(2.01397 -0.267842 -1.7203e-19)
(1.63822 -0.138192 3.71499e-19)
(3.1612 0.0458803 5.99402e-19)
(0.859948 -0.416204 2.26952e-19)
(-2.29916 0.337745 0)
(1.03307 -0.502826 2.33716e-20)
(2.58986 -0.272926 2.239e-19)
(2.50547 0.0419707 1.95278e-21)
(0.902649 -0.436209 6.34962e-19)
(2.3712 -0.0995979 0)
(3.37975 -0.058764 0)
(2.00327 0.0623132 6.99315e-19)
(2.38604 0.186346 0)
(0.91083 -0.452031 2.08668e-19)
(1.72416 -0.226178 -3.1677e-20)
(1.80617 0.08089 0)
(2.23794 -0.014191 -3.78906e-20)
(3.22452 -0.663376 9.59189e-19)
(-0.217683 -0.0970697 1.00634e-18)
(2.01796 0.494619 0)
(-2.7229 1.4711 -4.43186e-19)
(1.00244 -0.016234 8.54796e-20)
(1.00614 -0.493716 2.73079e-19)
(1.79346 -0.203802 0)
(2.00942 -0.491353 4.60577e-20)
(-1.94756 1.04819 3.83513e-19)
(2.40004 -0.208238 1.01662e-19)
(2.16735 -0.837786 -6.59843e-20)
(-0.304687 0.353391 -1.63375e-19)
(3.36658 -0.0793732 4.17111e-19)
(1.77301 0.233793 0)
(1.712 -0.21982 -8.27012e-22)
(2.37169 -0.2637 -1.40069e-19)
(-2.25995 1.0767 -4.74345e-19)
(2.2287 -0.6849 -9.56369e-20)
(-1.05186 0.858822 0)
(2.15781 -0.503268 -1.18816e-19)
(-1.75358 -0.327898 -4.96487e-19)
(2.13947 -0.0053575 -2.41415e-19)
(1.16139 -0.449528 0)
(1.51533 0.928367 2.43325e-19)
(1.97502 0.0667865 -1.55457e-19)
(2.85792 -0.427483 0)
(2.54275 -0.115595 7.39349e-20)
(1.14704 -0.55173 2.64831e-19)
(3.11958 -0.686226 -5.35998e-19)
(2.01759 -0.450426 0)
(1.01318 -1.60421 0)
(1.81277 -0.232798 -3.95706e-20)
(2.22685 -0.129475 2.8182e-20)
(1.02534 -1.70997 1.83436e-19)
(2.12021 -0.182753 -1.93266e-19)
(1.94325 0.0855283 3.36589e-19)
(4.24094 -0.0368331 -7.70798e-19)
(-1.45025 2.50702 1.60404e-18)
(0.551413 -0.231995 1.39909e-18)
(3.0927 0.150394 4.74923e-19)
(1.8502 -0.0827308 8.41489e-20)
(2.67572 -0.189925 3.33588e-20)
(2.11115 0.00367904 0)
(-2.30092 0.475392 0)
(1.5207 -0.232381 4.17063e-20)
(1.22147 -0.588562 2.19806e-19)
(1.99775 0.0210615 -5.74121e-20)
(2.63177 -0.260811 2.08542e-19)
(2.66456 -0.314651 0)
(2.12501 -0.0339578 -1.46379e-19)
(2.55989 -0.0962821 -5.70443e-20)
(1.93451 0.0706072 -3.07759e-19)
(2.56922 -0.395895 -6.03883e-20)
(1.97503 -0.224612 -8.82802e-20)
(0.34152 -0.785682 1.13234e-20)
(2.25907 -0.13242 -2.42359e-20)
(2.39265 -0.205074 1.12103e-19)
(1.69716 0.109263 7.88416e-21)
(1.41483 -0.641979 0)
(0.838328 -0.0385838 0)
(2.21012 -0.0307686 7.7053e-20)
(1.64176 -0.337786 5.04972e-21)
(1.66701 0.165424 0)
(1.8098 1.25516 -1.13898e-18)
(-1.8084 0.861932 0)
(2.30964 1.08472 2.85557e-20)
(2.38969 -0.21595 -1.09791e-19)
(1.48496 1.6991 0)
(1.88102 0.419047 -1.73968e-19)
(1.47311 -0.257786 -6.27561e-20)
(1.86169 0.206242 -2.03282e-20)
(1.89506 -0.0361442 -4.86615e-19)
(2.23513 -0.512032 0)
(1.61997 0.183428 4.40489e-20)
(1.58664 -0.169452 -9.11623e-22)
(1.99131 0.0576482 7.17373e-20)
(1.62566 0.135561 -2.9526e-19)
(0.718409 0.707998 3.15537e-19)
(2.43251 -0.225287 1.64243e-19)
(2.22492 -0.323901 -4.49621e-19)
(2.13478 -0.181935 0)
(2.61645 -0.0826246 1.17478e-21)
(2.2584 -0.324061 -7.22439e-20)
(2.00084 0.0285845 7.93079e-19)
(2.12925 -0.578972 0)
(2.42137 -0.25059 -4.27314e-20)
(1.42887 0.386548 0)
(2.49554 -0.251047 3.43181e-20)
(1.88846 -0.518825 -1.61242e-19)
(0.663945 -0.311203 2.74401e-19)
(2.3938 -0.350882 -6.73349e-20)
(2.01896 0.192901 0)
(1.69871 -0.228672 -4.96066e-20)
(2.19375 -0.517348 1.29895e-19)
(1.63597 0.142796 2.78807e-19)
(2.27513 -0.326544 2.99889e-19)
(2.35785 -0.156348 1.69513e-19)
(-2.18706 1.90566 -1.07985e-18)
(2.01385 0.0931785 1.65946e-22)
(2.23577 -0.170325 0)
(0.989586 -0.344261 6.58859e-19)
(3.17108 0.822653 0)
(1.54487 -0.239589 8.62172e-22)
(2.28361 -0.0840043 3.15219e-19)
(2.59191 -0.0964782 -5.5105e-20)
(2.55043 -0.113922 5.66526e-20)
(0.365353 -0.170717 -9.91913e-19)
(1.94323 0.0694046 3.839e-19)
(1.90168 0.0223597 0)
(-0.567798 0.293118 -4.37159e-19)
(2.19864 -0.242697 -1.06777e-19)
(1.66822 -0.322104 -5.91177e-21)
(3.32997 -1.30054 5.70856e-19)
(2.41307 -0.0178763 0)
(2.49811 -0.242526 1.13888e-19)
(1.79279 0.162491 6.00721e-19)
(1.97129 0.0749561 4.73122e-19)
(2.82142 -0.491581 0)
(1.96548 0.00695329 -3.09826e-22)
(2.69227 -0.302513 -2.103e-19)
(-1.39356 -0.585813 2.09975e-19)
(1.58074 -0.0438414 7.52461e-20)
(2.20272 -0.210982 1.01512e-19)
(2.03386 0.00697733 -9.76174e-22)
(2.2308 -0.165741 0)
(2.59686 -0.177606 -7.67524e-20)
(-2.69848 1.63313 4.43853e-19)
(2.45174 0.434836 -1.0207e-20)
(1.9979 0.0272347 3.02795e-19)
(1.38546 0.0284681 0)
(1.62477 -0.218469 -6.11762e-20)
(1.57731 1.71706 0)
(3.25293 1.31006 -2.55857e-19)
(2.1489 -0.0249078 0)
(2.11635 -0.671144 -7.26253e-21)
(1.3121 -0.107322 -1.61324e-19)
(1.50329 0.858828 5.78905e-19)
(-1.3056 -0.369176 -7.90884e-19)
(2.05213 -0.44887 0)
(2.3935 0.065209 -8.62715e-20)
(2.02553 0.20167 -1.85562e-19)
(0.990041 -0.554478 -4.03748e-19)
(-1.21218 -0.125241 3.68959e-20)
(1.64565 -0.0442368 -8.15888e-19)
(2.90645 -0.367962 2.16847e-19)
(2.09506 0.201448 1.3401e-19)
(1.44602 -0.44573 0)
(1.3546 0.319234 3.22147e-19)
(1.76163 0.163048 -1.23858e-20)
(-1.99228 0.908574 7.61013e-19)
(-2.72606 1.54738 -1.50178e-18)
(1.17814 -0.489685 -8.51862e-19)
(3.12652 0.126714 0)
(1.06133 -0.550311 0)
(1.98709 1.19549 0)
(2.11727 -0.0805952 0)
(0.963587 -0.15121 -1.8149e-19)
(2.45569 -0.229542 0)
(1.47925 -0.217788 0)
(1.665 0.106239 1.1423e-19)
(3.22146 0.156302 -6.57657e-19)
(2.20803 -0.160682 -2.53885e-19)
(1.69797 0.334243 9.92674e-19)
(2.00603 0.0212522 -9.50225e-20)
(2.29374 1.721 0)
(2.9537 -0.285974 0)
(1.92567 0.0744905 3.28696e-19)
(2.02435 0.0516759 5.85619e-20)
(1.28295 0.90166 0)
(-1.10002 0.720976 1.11914e-18)
(2.21088 -0.703759 1.07649e-19)
(-0.302075 0.102464 0)
(2.3676 -0.0997356 1.73207e-19)
(1.9787 0.0596834 -3.80501e-19)
(0.256818 0.126522 -7.50195e-20)
(0.984155 -0.329918 0)
(2.0095 0.207544 3.4447e-19)
(2.66338 0.221145 0)
(2.7249 -0.335988 0)
(2.22617 0.209348 -1.86764e-20)
(1.93751 0.0902918 1.77317e-19)
(0.413741 -0.225344 -1.09157e-18)
(2.31813 0.708788 3.69095e-20)
(1.32448 -0.330958 -2.80677e-19)
(2.12557 -0.0717323 3.50493e-20)
(2.09876 0.19633 1.05099e-19)
(2.70488 -0.180542 1.88412e-19)
(2.31555 -0.673615 0)
(3.2575 -0.528393 4.6452e-19)
(1.32128 -0.0458341 0)
(1.5687 -0.219497 3.51949e-20)
(2.29523 -0.17352 0)
(1.43034 0.0692635 4.25268e-19)
(-0.59048 -0.377894 -1.26073e-18)
(2.86626 -0.354596 0)
(-0.198057 0.105948 2.76853e-20)
(2.9681 -0.31418 -4.68944e-19)
(1.72044 -0.281012 -1.85282e-20)
(1.77185 -0.25659 7.40463e-19)
(1.3962 0.842895 -3.64517e-19)
(1.31478 -0.320188 -8.0253e-19)
(3.39641 1.29459 0)
(1.70659 0.137359 1.77874e-20)
(-2.14839 2.02122 -2.72018e-18)
(2.01405 0.215357 0)
(1.84305 0.2314 2.21335e-20)
(2.96732 -0.0224395 -4.43462e-20)
(2.69477 1.18586 0)
(2.00357 0.0179213 0)
(-2.0821 1.15239 0)
(-1.95144 0.407701 1.79328e-18)
(3.98141 -0.0753417 9.29652e-19)
(3.58581 0.512616 2.13939e-20)
(2.27725 1.03931 0)
(1.70944 -0.161319 5.16741e-19)
(1.95864 0.0501861 3.30129e-22)
(2.31582 0.652923 -7.72349e-20)
(-1.79716 0.57766 9.33418e-19)
(1.91018 0.165101 0)
(2.01977 0.100114 0)
(0.71934 -0.103274 -4.53476e-19)
(1.41842 -0.436259 -1.93923e-19)
(1.96122 -0.17351 0)
(1.29571 -0.624999 -1.81493e-19)
(1.91826 0.0233617 4.45993e-22)
(1.99946 0.0784533 -2.78604e-23)
(0.746421 -0.346831 0)
(1.94522 -0.050337 8.44878e-20)
(1.74747 0.139494 1.27863e-20)
(2.66114 0.197743 9.75353e-20)
(1.87325 -0.539851 0)
(0.619426 -0.181725 -2.10741e-18)
(2.56796 -0.100631 6.22094e-20)
(2.00183 0.0895831 7.19269e-20)
(1.84939 0.0362813 5.84549e-21)
(2.61839 0.773871 0)
(1.67217 0.329507 -2.64457e-19)
(3.15935 0.585743 -2.14744e-19)
(1.2012 -0.409005 1.77294e-19)
(2.00809 0.0512252 0)
(-1.27446 -0.170867 -3.7809e-20)
(0.458026 -0.0820721 0)
(2.00467 0.0487794 -2.79943e-19)
(1.9915 0.0671658 1.19719e-19)
(1.88283 0.0509722 -6.40802e-20)
(-2.13392 0.711208 0)
(2.30954 0.0284053 -1.58316e-20)
(1.0767 0.468774 8.81588e-19)
(2.28104 -0.669352 0)
(1.63249 0.0934664 3.55552e-19)
(2.53762 -0.420547 6.89803e-20)
(2.21208 -0.0158284 0)
(-1.72653 -0.474643 2.6384e-19)
(1.86289 -0.527193 -7.40921e-20)
(2.04871 0.00222384 0)
(0.89759 0.0490526 1.3657e-18)
(1.83171 0.21958 0)
(1.67465 -0.76079 2.10422e-19)
(-2.77679 1.40981 9.08387e-19)
(2.08893 0.0998245 3.62722e-22)
(2.51014 0.175695 -2.88541e-20)
(1.34673 0.299851 1.70099e-19)
(1.76281 -0.283568 -2.72584e-19)
(2.05454 -0.407739 -5.10409e-20)
(1.71399 -0.767634 3.17827e-21)
(2.18539 -0.216599 1.00863e-19)
(2.60433 0.78011 8.93198e-20)
(1.85293 -0.812388 0)
(1.99697 0.0228739 -2.68523e-19)
(-0.0386705 0.175856 -4.55282e-19)
(1.3486 -0.0578097 0)
(1.77464 0.247694 -3.25855e-21)
(1.58128 0.00753913 0)
(1.205 -0.347309 6.94558e-19)
(2.08935 -0.745745 0)
(1.77159 0.00196973 -4.38094e-21)
(2.2994 -0.0808818 -1.79708e-19)
(-1.61975 -0.726276 4.92604e-19)
(-2.34432 1.25475 1.33639e-18)
(2.31492 -0.0175717 -1.56966e-21)
(1.34413 -0.633143 1.26356e-19)
(1.77212 -0.500555 2.50039e-19)
(1.46577 -0.312577 0)
(-0.0108086 0.0693487 -6.0424e-19)
(2.33438 -0.600152 -2.33249e-20)
(-0.00151854 0.123924 -7.05898e-19)
(2.00216 0.0898275 1.12551e-22)
(1.43042 -0.558406 0)
(2.23449 -0.0201055 -1.54489e-21)
(-1.20508 0.886842 0)
(-2.5463 0.887234 5.37801e-20)
(0.177585 0.0544477 9.14632e-20)
(-0.0242221 0.296533 0)
(2.06377 -0.507433 6.39458e-20)
(2.18504 -2.66519 0)
(2.71241 1.09942 0)
(1.45079 -0.684256 -2.77872e-19)
(1.45845 0.356495 2.6205e-19)
(1.66257 -0.668166 0)
(1.79922 0.187516 -1.65594e-19)
(3.45665 0.511428 8.44573e-19)
(-2.63981 1.75058 2.01882e-18)
(2.67887 1.44504 0)
(2.18244 -0.0453853 0)
(-2.02851 2.08581 -1.18126e-18)
(1.88748 -0.103362 0)
(2.7194 0.0174563 0)
(-1.07945 2.55765 -1.49204e-20)
(2.06245 -0.365356 -3.26393e-19)
(1.73662 -0.41365 2.21019e-19)
(3.43184 -0.149783 6.11809e-20)
(-0.104237 0.151574 1.29813e-18)
(1.99207 0.0570131 1.36479e-19)
(1.50197 -0.344634 0)
(2.17472 0.49925 -5.40521e-20)
(1.40169 -0.192773 0)
(2.41955 0.0385616 0)
(1.99921 0.112524 0)
(2.21619 0.189442 -1.52727e-20)
(1.87902 -0.0340403 2.26643e-19)
(2.3536 0.125061 -1.42751e-21)
(1.54551 -0.349826 0)
(0.390776 -0.192497 -8.03708e-19)
(2.02234 1.13651 9.11918e-20)
(1.85292 -0.657904 2.18112e-20)
(2.04747 -0.11415 -1.37073e-19)
(3.08275 -0.682956 8.61383e-19)
(2.04137 0.0684015 -2.19031e-19)
(-0.586869 -0.435413 0)
(2.55167 -0.10054 0)
(1.4148 0.859631 0)
(1.18102 -0.532833 -4.92068e-19)
(-0.257979 -2.01472 -5.67396e-19)
(0.614004 0.258385 0)
(2.19992 0.513196 0)
(2.5896 -0.21281 9.48442e-20)
(1.94534 -0.0327235 -5.52979e-20)
(1.88946 0.6467 2.9482e-19)
(1.72454 -0.725402 0)
(-0.83297 1.4441 -3.18423e-19)
(2.4323 0.0740761 3.16541e-20)
(1.38516 -0.398594 -4.65824e-19)
(2.2603 0.0692734 -8.5797e-20)
(2.30707 0.659114 1.26974e-19)
(4.02276 -1.22005 9.96556e-19)
(1.17898 -0.537506 8.60559e-19)
(2.22208 -1.35193 3.25222e-19)
(2.34595 0.272663 -1.25576e-22)
(2.00008 0.0131137 -6.71641e-20)
(1.17873 -0.547325 -5.50775e-20)
(1.8777 -0.496697 3.13211e-20)
(1.583 2.08042 -2.40241e-20)
(1.30955 -0.622727 9.62401e-20)
(2.61531 -0.0717401 0)
(1.61404 -0.251903 -1.82844e-21)
(2.21359 -0.0439294 -2.61762e-19)
(2.92782 0.846719 1.04617e-19)
(1.3537 -0.362776 -4.26998e-19)
(1.83832 -0.633056 -2.43726e-19)
(1.94474 -0.0115824 5.19225e-19)
(2.38341 -0.0567513 -2.96422e-19)
(1.34109 -0.22856 -4.91901e-20)
(3.07935 0.163417 -2.51108e-19)
(1.12632 -0.148083 -9.56478e-19)
(2.14227 -0.0269451 -2.06558e-19)
(1.10977 -0.213988 0)
(-1.70971 -0.752694 -1.40436e-18)
(1.89608 0.0357662 5.17003e-19)
(1.5618 -0.0030733 -7.45667e-22)
(-0.812026 0.018289 0)
(1.56833 -0.711145 0)
(2.02777 0.456986 2.60875e-19)
(0.989128 -0.142709 5.96018e-19)
(1.96923 -2.11561 -1.90672e-18)
(2.14145 -0.664907 -9.06075e-20)
(2.24098 -0.334594 2.43665e-19)
(3.23614 0.797083 0)
(2.03751 0.499611 1.42772e-19)
(0.473376 -0.644345 -5.09113e-21)
(2.46197 1.11501 4.15294e-20)
(1.98443 -0.252087 -3.10237e-19)
(-0.25277 0.342287 -2.11962e-18)
(3.00962 -0.684496 -8.16869e-19)
(3.31979 -0.571033 2.51715e-19)
(2.23194 1.24857 0)
(2.38164 -0.482618 -9.86858e-20)
(1.89521 0.0468313 5.82736e-20)
(1.96698 0.0323159 7.93467e-23)
(0.775096 -0.374431 7.97552e-19)
(1.96417 -0.249411 4.65201e-19)
(1.68266 -0.794707 1.00649e-19)
(-2.68882 1.67161 -1.1701e-18)
(2.50358 -0.227736 -2.16679e-19)
(2.2739 -0.024212 1.84186e-19)
(-1.33561 2.47049 -1.96122e-19)
(2.37371 1.06018 2.88686e-20)
(0.999684 -0.0568962 -1.47948e-18)
(0.933418 -0.455782 -2.53479e-19)
(1.98184 0.0261728 0)
(2.37286 0.508622 1.14311e-20)
(-1.77446 2.24115 -9.02065e-19)
(1.30449 -0.13501 8.66451e-19)
(2.13989 0.0823902 0)
(2.06275 -0.236903 8.57842e-20)
(1.14814 -0.478616 1.96874e-19)
(1.99374 0.0410902 -5.85285e-19)
(-2.25912 1.60595 -1.14338e-18)
(1.66871 -0.64969 -1.29612e-20)
(2.21582 -0.169756 1.72316e-19)
(2.34696 0.0681047 1.24658e-19)
(1.69647 -0.770437 -2.84317e-19)
(2.37017 0.185069 1.01877e-21)
(-0.0975128 -2.17268 -1.86606e-18)
(2.12312 -0.0427397 2.45578e-19)
(2.12257 -0.0618857 -1.51963e-19)
(2.16185 0.102186 -6.29733e-21)
(2.13052 -0.0357721 -3.28207e-19)
(1.0842 -0.483854 -3.80372e-19)
(2.33802 0.249767 0)
(-2.32779 0.138913 1.25174e-18)
(2.11123 0.0732359 4.23104e-20)
(0.895843 0.0337018 -1.03665e-19)
(2.46185 0.0363937 -1.43796e-20)
(2.19072 -0.362136 -1.55724e-19)
(2.00021 0.0172908 -4.67705e-19)
(2.10227 0.336461 7.97776e-20)
(-1.27004 0.902248 -1.15507e-18)
(2.73658 0.0210872 0)
(1.64161 -0.201613 3.15349e-20)
(2.60092 -0.0996023 5.64009e-20)
(1.44158 -0.544736 0)
(2.1534 0.0793031 1.49432e-19)
(2.61562 -0.0834951 6.14749e-20)
(2.71068 0.031668 2.34288e-24)
(2.53506 -0.743185 9.97689e-20)
(1.98614 -0.150518 0)
(1.77373 0.367622 4.86587e-19)
(2.1751 -0.111058 -2.74707e-19)
(1.27506 -0.614414 2.26941e-19)
(2.03515 -0.169845 0)
(1.45387 0.313194 -7.57476e-19)
(0.832497 -0.469141 -8.60424e-20)
(2.4482 1.53252 -1.92972e-19)
(1.1366 -0.173326 9.28896e-19)
(2.13861 0.00374772 4.15981e-21)
(-2.39029 1.32064 1.06828e-18)
(1.94923 -0.090011 -3.43085e-19)
(3.24436 -0.403793 -6.30413e-19)
(1.77977 0.158777 -3.47323e-19)
(1.95493 0.00825247 0)
(2.00067 0.0313204 -2.53285e-19)
(0.272292 -0.0835583 8.51101e-19)
(-0.406935 0.346958 0)
(3.73405 -1.10677 0)
(1.96598 0.0308494 0)
(1.1232 -0.331648 0)
(2.0523 0.333751 0)
(1.06308 -0.14081 0)
(2.31002 -0.815622 -9.11155e-21)
(3.76038 0.41087 -5.20777e-19)
(2.63939 0.411309 0)
(1.75261 0.368432 7.32896e-19)
(1.20115 -0.519582 1.13431e-19)
(2.08558 0.20725 6.09992e-21)
(-1.54271 2.35844 -3.92208e-19)
(1.07586 0.0937232 -1.30708e-21)
(-1.4924 1.05968 1.00303e-18)
(1.77709 0.00150467 -1.19385e-19)
(2.86552 -0.00526976 3.06612e-20)
(2.02814 0.314471 -1.79454e-19)
(1.86702 0.196037 -4.71479e-19)
(1.95971 1.05687 -2.13634e-19)
(3.26253 1.26484 0)
(-1.54449 0.17998 1.27509e-19)
(1.2273 -0.362641 -7.60917e-19)
(2.01059 0.0267581 -7.80224e-19)
(2.34563 -0.609332 -7.12468e-20)
(1.98166 -0.0284464 5.19191e-20)
(2.70799 -0.476011 -1.54998e-19)
(2.13319 -0.285498 -3.68179e-20)
(2.07777 -0.495844 -2.20587e-19)
(2.02709 0.180264 1.93194e-19)
(1.74034 1.1332 0)
(2.03199 -0.358885 -4.61933e-20)
(1.68416 0.0853663 -1.06113e-19)
(2.45193 -0.213333 0)
(1.82793 -0.20423 0)
(1.75961 -0.798169 -4.33133e-21)
(-2.54711 1.30918 1.14678e-18)
(2.26461 -0.850335 -2.7903e-19)
(1.74974 -0.0250297 0)
(1.9173 -0.0463683 -4.59273e-19)
(1.80119 0.229019 -9.13046e-20)
(-2.37309 -0.123517 6.78149e-19)
(2.6568 -0.0438689 2.08026e-20)
(-1.74297 1.17246 0)
(-1.63171 0.246884 1.69599e-19)
(2.64517 -0.0696126 0)
(2.3545 -0.508745 1.03963e-19)
(2.45942 -0.24157 -8.61428e-20)
(2.00014 0.028128 -1.20332e-22)
(2.37525 0.733753 -1.31526e-19)
(2.66764 1.33049 -3.11345e-20)
(1.72258 -0.48008 5.24265e-19)
(-0.754746 -0.646338 0)
(1.78563 -2.55481 -8.99907e-19)
(1.30461 -0.91084 0)
(2.70399 0.40446 -4.42527e-20)
(-2.44713 0.157698 1.2208e-18)
(3.68906 -1.0444 7.60853e-19)
(1.67043 -0.195682 -3.0872e-20)
(-1.75846 1.39403 -2.45952e-18)
(1.09815 -0.540245 -2.62075e-19)
(1.27175 -0.369945 -4.39029e-19)
(1.74943 0.161369 4.50453e-21)
(2.06258 -2.39923 7.42132e-19)
(1.12603 -0.498873 3.12975e-19)
(1.33214 -0.394768 4.79115e-19)
(-0.16148 -1.88377 6.97e-19)
(2.6482 -2.39965 -4.97863e-19)
(1.83456 -0.561628 2.47344e-19)
(-1.28264 -0.553157 8.81724e-19)
(2.33915 0.0264182 -7.17789e-22)
(1.19792 -0.560899 -9.46091e-20)
(2.35453 0.45967 -5.16729e-20)
(2.26975 -0.482198 0)
(1.04587 -0.371003 -1.70052e-18)
(2.10766 -0.0396654 -3.13703e-19)
(1.99651 0.121813 0)
(2.67254 0.376857 0)
(1.14899 -2.04022 -3.17785e-19)
(3.55467 -0.325072 -6.4987e-19)
(2.47266 0.244014 -6.0077e-21)
(2.05811 -0.355715 4.2727e-19)
(1.94128 1.01862 1.94084e-19)
(1.41258 -0.0167202 3.29366e-19)
(-2.59472 0.450111 -9.01888e-20)
(1.77455 0.660443 0)
(1.36527 -0.427422 4.56399e-19)
(-0.641606 1.9517 1.97515e-19)
(-1.97237 1.297 1.8809e-18)
(1.70282 -0.642149 8.41865e-20)
(1.52223 -0.679645 8.68018e-22)
(1.67082 -0.00977397 1.743e-19)
(1.75419 -0.178745 1.76586e-20)
(2.7512 -0.481062 4.7474e-19)
(-2.55824 0.338183 -9.11527e-19)
(2.45251 0.235755 7.00597e-21)
(1.95134 0.0647806 1.90787e-19)
(1.1038 -0.202494 -3.81231e-19)
(1.89315 -0.0785847 2.84053e-19)
(1.22782 -0.231084 0)
(2.45139 0.429186 2.55195e-20)
(1.98752 0.0609694 4.27592e-20)
(1.45499 -0.2849 -1.4729e-19)
(1.81546 1.87973 1.71415e-20)
(1.80342 -0.550009 1.88446e-19)
(2.08478 0.0323554 7.9775e-20)
(1.35311 0.151862 -5.78755e-19)
(2.44986 -0.233165 0)
(1.65517 -0.169369 -5.78821e-20)
(2.27485 0.0912693 1.16486e-19)
(2.20197 -0.127987 0)
(1.38367 0.0438756 3.28461e-19)
(2.66246 -0.042319 0)
(1.71684 1.87735 1.56054e-19)
(2.32665 -0.0327741 0)
(2.03101 -0.396346 0)
(2.53181 -0.045488 4.43639e-20)
(2.44266 0.184841 2.13056e-20)
(3.05566 0.316138 -3.6468e-19)
(1.91707 0.152557 -2.15684e-19)
(1.55019 1.22963 -1.52417e-19)
(2.00066 0.0977704 -8.78863e-20)
(2.08166 0.340996 0)
(-0.307484 0.408467 -6.75135e-20)
(2.56129 0.168165 4.80478e-20)
(2.30723 -0.492001 -2.1143e-19)
(2.26642 -0.477494 0)
(2.96318 0.833016 1.61489e-19)
(2.15605 1.71336 7.12568e-21)
(2.30792 0.0138012 -7.00678e-23)
(1.51504 0.163257 0)
(-0.769003 2.49348 1.20315e-18)
(2.04726 0.176775 0)
(2.76312 -0.41227 -2.33801e-19)
(-0.184096 -0.0410434 0)
(2.09407 0.221133 0)
(2.20163 -1.4935 0)
(2.04072 -0.741759 0)
(-1.07201 2.38666 -1.52231e-19)
(-1.87302 0.120333 -3.89078e-19)
(1.86741 -0.0288691 -3.40255e-19)
(-1.83321 -0.584493 -6.52352e-19)
(1.21013 -0.527238 0)
(-1.50668 -1.10566 -5.94658e-19)
(-0.347529 -0.101792 -9.93071e-19)
(1.46041 -0.684515 0)
(1.44603 -0.508573 -4.79566e-19)
(1.55708 0.313998 -7.78441e-21)
(2.34125 0.443141 1.25782e-19)
(2.48606 -0.756658 -4.54665e-20)
(1.85511 0.182891 0)
(2.22006 -0.655053 0)
(3.41468 0.505226 1.74056e-19)
(1.87506 -0.445458 8.26417e-21)
(1.68675 0.109212 -1.51791e-20)
(1.0969 -1.89617 2.77205e-20)
(1.99852 0.00813597 1.88444e-20)
(2.35698 0.495912 -2.78663e-21)
(2.02611 0.183024 2.77613e-19)
(1.59648 -0.186161 3.11692e-20)
(1.88677 -0.498086 0)
(0.423354 -0.200356 0)
(2.37619 0.158951 0)
(1.7791 0.0209019 0)
(1.73039 -0.3024 2.00865e-19)
(2.99396 0.0202704 0)
(-1.02116 2.57858 2.15752e-18)
(3.43395 -1.81887 -2.46627e-20)
(1.29808 -0.411658 -7.20499e-19)
(1.15483 -0.493974 -5.84621e-20)
(-2.15819 -0.165309 -6.92013e-19)
(-0.567128 2.50903 -9.56923e-19)
(1.85466 0.0542165 6.3636e-20)
(-2.60839 0.859268 -9.17842e-19)
(1.55443 -0.190615 5.15005e-20)
(2.56689 -0.0269204 0)
(2.33253 -0.286046 0)
(1.43719 -0.409615 0)
(2.18917 -0.378651 8.09955e-20)
(2.62596 -2.57941 0)
(1.80645 0.667596 0)
(2.00208 0.0111519 0)
(1.76043 -0.419441 2.06215e-19)
(2.08483 0.207708 -2.68577e-19)
(1.64573 0.0281726 0)
(2.41065 -0.812229 -2.6923e-19)
(1.97691 0.185713 -2.62101e-19)
(2.47177 1.02299 -8.9461e-20)
(1.49789 -0.697684 2.71207e-19)
(1.8845 0.715762 8.93538e-22)
(1.85034 -0.608709 -5.85864e-21)
(1.79949 -0.224533 3.90364e-20)
(2.06835 -0.511787 -9.59454e-20)
(2.42513 0.191259 -2.46113e-20)
(1.71186 0.116656 -3.00288e-20)
(1.81691 0.083926 -3.33055e-19)
(2.12411 -0.040774 0)
(0.8007 0.0873448 7.89947e-20)
(1.96936 0.0694937 3.47921e-19)
(0.63263 -0.68856 -8.49966e-20)
(2.12896 -0.272228 -1.09047e-19)
(1.01974 -0.163968 -6.49826e-19)
(2.44261 0.167307 3.34262e-21)
(3.17612 0.604794 3.08297e-19)
(1.99842 0.0830124 0)
(1.54999 -0.213729 -1.23896e-20)
(1.73764 -0.054594 -1.67073e-20)
(2.09523 -0.519901 1.95424e-19)
(-1.79638 0.496614 -1.04976e-18)
(2.06773 0.0373673 1.71856e-19)
(2.36777 0.236993 1.08418e-22)
(2.1694 0.0120985 -3.15766e-21)
(2.33497 0.130156 0)
(1.0051 -0.318512 0)
(1.31888 -0.631509 3.3915e-19)
(-2.1554 1.43133 1.23927e-18)
(1.98421 0.0156087 3.02219e-22)
(1.96781 0.0690063 6.94109e-19)
(1.53797 -0.217516 4.00776e-20)
(1.42145 0.297999 0)
(1.79145 0.107363 0)
(1.58382 -0.33928 -4.57793e-21)
(2.45738 -0.00552854 6.9334e-20)
(1.93432 0.697505 3.99342e-19)
(2.43192 -0.152578 0)
(2.12316 0.0106817 0)
(2.0984 -0.558472 2.77994e-19)
(2.00964 -0.15622 2.55803e-19)
(-0.212978 0.745793 -8.5709e-20)
(1.72957 -0.062565 0)
(1.61812 0.145704 1.56118e-19)
(2.72489 -0.965489 -1.2526e-19)
(-1.92742 2.10028 -1.04217e-18)
(2.03345 -0.0199767 -3.61486e-19)
(3.89019 0.274395 0)
(3.60632 -0.261406 5.22138e-19)
(2.06211 -0.173482 -2.2304e-18)
(-0.050459 0.516201 0)
(1.81512 0.0340051 -1.8642e-20)
(1.91621 0.118099 -2.28197e-19)
(1.77892 0.0143674 -5.01469e-24)
(2.4639 -0.242751 4.94817e-20)
(1.22075 1.04824 3.58273e-19)
(1.85652 0.0466387 0)
(1.00477 -0.367302 -4.88523e-21)
(1.50185 -0.20916 -3.86712e-20)
(1.89321 1.354 -1.64604e-18)
(2.04154 0.315909 2.12973e-19)
(-0.603102 -0.705476 1.1784e-19)
(2.02034 0.025521 -7.89705e-19)
(1.6127 -0.800595 -5.37814e-20)
(1.73723 -0.221041 3.48357e-20)
(1.72408 -0.381528 0)
(1.7538 0.0178613 -8.39716e-20)
(1.05199 -0.486371 2.49995e-19)
(2.26778 -0.0870594 -3.51046e-19)
(1.99176 0.0606971 -3.1352e-19)
(2.74069 -0.405032 2.11268e-19)
(1.65895 -0.152092 7.63486e-19)
(2.26658 0.0177916 1.69001e-21)
(1.77926 0.110217 1.95676e-19)
(1.75576 0.251709 -1.38161e-20)
(3.43578 -0.125844 -6.81459e-19)
(2.39595 1.1372 -4.63361e-20)
(2.1185 -2.0866 1.48222e-18)
(1.87999 -0.0217451 0)
(1.53055 -0.369389 0)
(1.56438 -0.0769123 0)
(1.29684 -0.376329 5.59811e-19)
(2.1521 0.0715008 -5.10898e-19)
(1.784 0.246574 0)
(1.49808 -0.301585 -4.33809e-19)
(1.77729 0.213915 0)
(1.74091 -0.274488 -3.29829e-19)
(2.2822 -0.517937 -2.24293e-19)
(1.86155 -0.469374 -2.74607e-19)
(1.9374 0.0468984 0)
(1.95726 0.0570083 0)
(2.22575 -0.13864 1.21735e-19)
(2.60925 0.342827 3.73817e-21)
(2.90398 -0.0916904 2.36203e-19)
(2.3325 1.80135 -5.28249e-21)
(2.42801 -0.200197 0)
(1.71403 -0.625036 -1.40841e-19)
(-0.297626 0.41168 0)
(0.813994 0.989072 -3.13635e-19)