/*--------------------------------*- C++ -*----------------------------------*\
| =========                 |                                                 |
| \\      /  F ield         | OpenFOAM: The Open Source CFD Toolbox           |
|  \\    /   O peration     | Version:  2306                                  |
|   \\  /    A nd           | Website:  www.openfoam.com                      |
|    \\/     M anipulation  |                                                 |
\*---------------------------------------------------------------------------*/
FoamFile
{
    version     2.0;
    format      ascii;
    arch        "LSB;label=32;scalar=64";
    class       volScalarField;
    location    "3";
    object      p;
}
// * * * * * * * * * * * * * * * * * * * * * * * * * * * * * * * * * * * * * //

dimensions      [0 2 -2 0 0 0 0];

internalField   nonuniform List<scalar> 
13486
(
2.31222
1.83926
0.177052
-0.364591
0.745811
-0.155467
0.330442
1.29234
1.57107
0.764611
-2.18338
0.404763
2.43521
-0.33116
0.593452
0.858433
-7.88495
-0.177773
0.543643
2.08368
-0.298461
2.406
1.80189
-0.804562
0.732872
-0.759559
-2.39226
-0.537934
0.00350953
-0.416824
-0.210905
0.424264
-1.07142
-0.30077
1.29624
0.0238016
0.055404
1.88286
0.0222274
1.57392
0.166101
2.52838
0.0435439
0.740298
0.702392
0.389785
-11.9023
0.0095785
0.0544574
-0.623673
1.33667
-0.00526501
0.2385
1.91559
-0.197482
0.80818
0.0839256
-0.00396332
-1.03422
0.0708327
-1.42882
0.0675941
-3.15705
-0.280548
-0.418033
0.0598004
-0.392296
2.31547
1.56072
0.0323258
-0.393077
-0.206828
1.58511
-5.46469
0.060515
0.0912514
0.0633151
0.578755
-11.6087
-0.048754
0.00684683
1.85814
-3.49136
0.19867
2.32163
0.806354
0.08947
1.26225
1.51968
0.847705
0.225956
1.12354
2.21759
1.97996
1.62576
0.00550253
-2.12943
-0.40238
1.54946
-8.21989
0.0203769
-0.240867
-0.402207
-0.00406459
1.02028
-8.55199
1.54944
0.0229128
-12.075
1.00437
1.49783
0.362852
1.91454
0.0708676
2.72431
1.56882
0.732553
-0.285301
1.59892
0.0503056
-0.217728
-1.3941
1.70058
0.0186213
1.49582
0.00147335
1.11855
0.376638
-0.240177
-0.366866
0.000529642
-11.4291
-4.05967
-5.44586
1.41484
1.21788
2.75826
1.04725
0.0453747
1.33643
-0.926926
0.215332
0.415532
-0.0505196
0.0768429
-2.21676
0.158392
1.71223
-0.679757
0.000253891
0.882904
0.547037
0.00243061
1.89632
0.419892
0.173649
0.819253
0.0418771
1.70761
0.124184
-0.49849
1.70846
0.0697373
2.521
-0.00758175
-0.584645
-0.0847077
3.15842
0.164735
-5.45864
-4.00214
0.435336
1.06335
0.836064
0.00932817
-0.501781
-0.59066
-1.13344
1.55319
0.432459
1.47571
0.0706198
0.669348
-0.385995
0.218958
-0.548481
-0.000196793
-0.398556
0.237252
1.65072
0.049379
0.124783
-0.0207465
1.98109
-0.0379796
-2.22629
-0.378884
-0.507778
2.07429
-0.493236
-0.219893
0.350907
1.88675
0.582143
0.117655
-0.0419436
-0.0943406
1.69711
-0.00833894
0.224255
-0.455049
-0.546591
2.05647
1.54589
-0.157789
-0.188067
-0.443877
0.875183
2.10145
-2.06197
-8.2381
-0.704272
1.37182
-0.518264
0.0852229
2.24946
-0.445876
-0.340676
-0.138926
0.0938477
1.45825
-0.224933
-0.96204
2.57989
-0.362161
2.16069
-0.333107
0.136372
2.18323
0.69659
-1.02774
1.04355
0.0768994
2.0571
0.0471734
1.76723
0.731751
-0.577338
-5.94032
0.842847
-0.42948
2.75713
1.51566
0.0142983
-0.087383
-0.551289
0.402854
-0.183628
0.0700503
-0.953483
1.68195
0.0513752
0.582565
-0.53165
0.831194
-0.390149
-0.144709
-0.246453
1.49267
-1.0794
1.51397
1.50768
-0.463572
0.30164
2.25309
-0.551215
-0.0893335
-0.210796
0.00838003
0.154698
-0.213282
1.29845
1.56127
-1.25691
-1.13586
-5.76461
-0.972196
-0.261478
0.113709
1.50715
-0.35703
0.0819385
1.6249
1.42355
-0.313371
-0.363438
-0.487926
0.301706
1.59573
0.264808
0.0369632
-0.114441
0.159756
0.457979
0.0457297
0.610007
-0.249954
0.768141
0.0841629
0.0565294
-5.07897
-0.356963
-0.313901
0.35988
-1.92709
1.24459
0.0862944
1.52217
1.70572
-0.177807
0.0536788
0.072148
1.53916
1.99084
2.71709
0.267135
0.989408
1.27191
0.253313
0.914372
1.27302
1.07237
0.156271
2.12198
0.315375
1.53504
2.81977
0.584328
0.938098
0.05623
-0.160491
1.96928
0.879722
0.688588
-0.426346
0.00683533
1.05068
2.7195
-2.05268
0.0827518
1.01623
0.262769
0.297522
-1.61184
1.58489
0.0318515
-5.24245
1.09444
0.0846567
-0.535116
0.558983
0.164184
1.71797
1.51461
-0.432924
0.00447082
-0.346156
-10.1488
2.10374
1.1076
0.0319322
1.06875
0.0933079
-0.428098
-0.155951
1.36959
1.56735
0.0706339
-1.86971
-3.31793
1.47168
1.03884
2.43975
1.60734
-10.854
-0.100527
0.129793
0.909706
-6.87785
-0.157252
2.02288
-0.507993
0.649432
2.20451
2.26793
0.0456378
-0.377244
-0.421971
-7.56246
-0.986926
-7.11204
0.313346
1.39218
-0.319473
0.370108
-0.00865015
1.95025
-1.07352
1.12489
1.73162
0.896758
-1.28775
-0.576588
1.59803
1.55591
1.90806
-0.368047
0.855193
-4.31519
0.722163
1.55606
0.222034
2.72923
0.981691
-0.48177
-0.373875
0.336984
1.55754
-2.67503
0.0167101
2.38618
1.40341
0.63208
0.113596
0.681277
-0.658183
2.42782
0.0778623
0.878638
2.27744
-10.8449
-0.472686
-5.6743
-0.578641
0.118277
1.84023
1.79216
2.40051
-3.35231
0.0492137
-0.451176
0.958049
1.55044
-0.609375
-1.4317
1.52929
-0.412255
-0.507259
-1.23596
-2.08713
-0.186175
1.94643
0.013152
0.05006
-0.330293
1.46192
0.00970769
2.99
2.24116
1.58408
1.23925
0.020458
0.0031389
2.80274
-0.109567
0.0458979
-0.465612
1.54907
-6.42381
0.282124
1.08946
0.029137
-0.713603
1.78028
-1.66755
-7.94616
1.00383
-0.169383
3.14697
1.03024
1.35225
1.68721
-0.511852
0.220865
2.52068
0.7444
2.00408
0.318991
0.43359
-0.261358
-0.0428658
0.0519959
-8.74935
1.58184
1.53433
-0.434288
0.0019659
-0.199514
2.29145
1.84563
-0.0998981
1.56401
1.1456
-0.69574
0.830571
1.37142
-4.05178
2.39953
0.0540598
0.0378839
2.51025
1.04969
0.0172967
1.03242
-0.278595
-0.42345
0.625202
0.956889
1.72573
2.2228
-0.567659
0.675523
-0.608395
0.00208434
2.15763
0.421432
-0.374494
-0.406009
0.190135
0.0543984
1.25042
-0.401061
-1.35649
1.5685
2.0991
-0.0592601
1.67993
-2.42992
-0.433229
-1.90651
0.644886
-0.507586
1.71072
0.224544
-1.27908
1.32424
1.82567
-0.928824
-0.528443
1.36211
2.16635
0.453534
2.33185
0.223785
1.02642
0.359905
1.72443
0.0607353
2.10804
-1.84711
0.29057
1.49051
-0.218771
-0.520378
1.51968
-10.3316
0.308959
1.75303
2.39947
-0.290557
0.0403489
0.394839
0.109433
1.40254
1.0603
0.477446
-1.48348
0.0642354
2.2951
0.270407
0.0779341
-0.69492
2.41554
-0.253339
0.0732193
1.4951
1.22004
-0.0438512
-0.442553
1.31321
0.240792
0.0960039
0.600062
-1.52683
2.34324
1.53378
1.08828
1.11507
-0.645077
-0.998032
2.63432
0.461696
2.64117
-0.327839
1.52037
0.0162072
-5.5241
0.91654
0.840698
2.76564
-0.503489
0.995407
0.952541
-2.18738
0.800409
-0.13092
-0.729501
1.51834
-0.492734
-0.503691
-0.664108
-0.352212
-0.233715
1.67296
0.00981295
2.56144
1.55338
0.109111
-0.425038
-0.447092
0.503832
-1.23345
-0.44651
-8.35585
2.1437
-0.000105877
0.0823948
-0.695573
2.44732
0.00755065
-0.0184381
2.50702
1.35712
-0.382314
-0.0462317
1.10022
0.159723
1.47782
0.0734242
-0.328503
0.586082
1.42374
0.461759
1.28263
2.54397
0.0736254
-0.434163
1.5077
0.270203
-0.185052
1.05739
1.14179
0.659265
-0.3788
0.223188
0.0666485
0.248952
2.15455
0.477808
0.243868
0.205499
0.0762374
-0.0596906
1.54122
0.109476
1.44483
1.47555
2.12947
-0.301905
-1.37772
2.62047
0.0399526
-0.418596
1.63085
-0.696076
1.74208
0.0666474
1.50123
-0.31644
-5.6496
-0.651411
0.0111252
-8.10412
0.807817
2.6975
-0.221839
-1.81984
-0.514826
1.57905
-0.713016
0.679017
-0.819653
2.67004
-0.379973
0.802296
-0.650671
0.878463
1.53829
0.520662
-3.11456
-0.249983
2.48117
1.56718
0.642565
1.41017
0.0567348
1.2183
1.23013
0.897941
-5.18183
-0.0910179
1.93209
0.340991
0.000601429
1.27938
-0.422898
-0.21138
0.022267
1.67824
1.63736
-0.39374
0.236528
-0.382889
-0.270683
0.24593
-0.222535
0.171355
1.49317
-0.139058
-1.62197
1.80695
-0.0870548
-0.3154
-0.193986
-0.633461
-0.393742
-0.596677
0.0561644
-0.603915
1.46774
2.43146
0.0463604
-0.312856
2.51358
2.35663
-0.28077
-0.387351
1.59605
-10.3187
0.0743593
-0.544504
0.0426392
0.847918
-7.91069
0.730927
1.03608
-0.562605
-0.235291
-0.9279
-0.147374
1.33548
0.617319
0.997283
-0.415391
1.29018
2.30783
-6.80475
-0.57552
1.73225
0.511501
1.00762
0.0299283
-0.403142
-0.424452
-0.107083
1.58488
2.64753
1.70405
-0.859355
-0.148762
1.54094
2.24668
-0.456435
1.65181
1.5401
2.34367
0.367086
0.056266
0.247226
-0.171142
2.33612
0.238119
-0.190649
1.05797
-0.0888719
0.408487
-0.079578
-1.18927
1.46199
1.10515
1.06961
0.718826
-6.20012
-0.28343
-0.202535
0.855239
-1.61069
-0.933985
0.0736572
-0.775997
-1.29106
0.806217
-0.411999
-5.91491
-4.38352
-0.259499
1.13435
-2.67402
-0.49215
1.74026
-0.294787
2.40905
-0.336997
-5.96125
1.82686
2.17261
0.0622465
0.0782835
0.321669
1.58343
0.860475
-2.22754
-0.0312024
0.0487412
-0.225303
1.50278
0.0808058
0.900302
0.0694488
1.55293
-2.8945
0.0737884
0.0252477
1.88254
-0.773549
-1.85559
-0.6672
2.38693
-0.84969
-0.437729
-2.82522
1.54544
-0.453339
0.0757044
0.408481
0.727181
-0.305651
1.05988
-0.411204
1.22702
1.52051
1.79149
0.691733
0.0367381
-0.24972
1.1579
-0.638377
1.85435
1.01158
-0.057287
0.0149629
-0.112402
-0.0510854
0.0444185
1.75057
0.632133
0.253078
1.53251
-0.168822
1.2365
2.73478
-0.0763631
-1.75285
1.05652
0.0715499
0.0261867
-0.125077
-0.323536
1.54436
0.0747042
0.039528
0.062928
-0.462786
1.97541
-0.38459
0.000814243
1.54283
0.0514418
2.18879
1.76944
2.06406
0.417221
0.922974
0.459815
0.142184
1.14668
1.52309
-0.308218
-0.225747
-4.94506
-0.355804
-0.647955
1.55244
-1.78987
-0.981873
-0.767872
-0.297302
0.0302511
1.54652
0.020045
0.199838
-5.40991
1.55905
2.69693
0.0243026
-1.68257
0.850509
-0.0775479
1.52685
0.115544
0.0411207
1.86101
-0.0176047
2.55224
1.06885
1.53605
-0.400631
2.00762
0.0778685
1.77847
0.052921
-0.963126
-0.594212
-0.534803
1.02654
-0.00562312
-0.162199
2.4021
1.56048
1.65692
2.18818
1.69207
1.87815
-0.196237
1.61037
1.5691
1.58967
-0.17875
-0.434435
-0.623052
-1.60802
0.357765
1.73106
-5.70156
2.35682
-1.61063
0.0767324
2.62596
2.20942
-0.219647
-0.579397
1.56294
0.784869
0.0337029
1.45186
-5.95614
-0.59496
1.529
2.13784
0.036788
1.703
1.98759
0.00599086
-0.486635
1.9957
0.683511
0.0531207
-1.01239
0.198102
-1.13073
1.43346
1.04865
0.0697941
-0.147353
-0.456173
0.367157
0.0270592
0.409057
2.25711
0.00810376
2.92895
1.56106
0.52832
1.74172
-0.392645
-4.55302
-0.44385
1.53759
0.0304441
-5.0748
-0.209512
0.75758
0.878258
0.0577997
1.0847
-8.65406
0.79028
-1.42376
0.0709759
1.24717
0.469144
2.00568
1.57843
1.61157
1.49395
-0.222933
-0.86132
-0.7819
0.214134
-0.313053
-0.299215
1.22315
-0.262592
0.0259009
0.0759678
-0.0218458
-0.845231
1.10273
0.691736
0.149158
-0.474802
0.743355
-0.692483
-0.698708
0.25418
0.0185997
1.70018
1.14277
1.97824
-5.63679
1.3951
0.0684856
2.15864
-0.287811
0.80656
-0.670064
-0.186721
2.50639
2.59629
1.29129
0.82514
1.04193
1.41518
2.53474
1.04959
-0.963161
-0.742798
0.336802
-1.60547
-6.72268
1.54932
1.52512
-0.22221
0.378224
1.28243
1.41695
2.76118
-1.97166
1.20655
-7.99909
-0.29434
2.21308
-0.111116
1.28568
-0.244995
0.504093
0.605487
2.88155
0.122325
-0.622786
0.774015
0.267798
-0.465345
-5.76921
-0.2422
1.70862
0.13482
0.834036
2.3546
2.16591
-0.0491693
-2.94599
0.118342
0.246881
1.80674
1.48659
2.14407
0.945335
-2.71535
2.24877
1.39805
-2.028
1.18118
1.57216
1.94121
-1.62113
-0.299712
0.00200729
1.31609
2.47011
0.808054
-0.0715642
-1.10699
2.77397
-5.39347
-0.932399
2.57937
1.35541
-0.468118
1.23489
-0.380499
0.847992
-0.301153
-5.02958
0.0553349
-0.46012
0.106559
-0.239825
-10.4425
-7.95001
-4.17103
0.120021
-7.2333
-0.42671
1.24255
1.41485
0.787736
-9.41631
0.378154
0.21245
-0.226911
2.91417
1.01089
-0.709409
1.35848
-0.302637
-0.472448
1.25815
1.24557
1.52158
2.95299
0.00544381
-0.109758
-0.797309
0.226738
1.04448
1.5034
-0.573133
2.27167
1.03003
1.63495
-0.260481
-0.0314679
0.0885081
1.59618
1.54851
1.64826
1.53806
2.70554
2.64853
-0.31792
1.36205
1.9665
-0.685916
2.13452
0.0183091
2.61706
2.11405
0.0987973
1.74832
0.745844
1.17158
0.121698
1.55414
-0.849861
1.35302
0.554228
1.02684
-0.14442
1.52803
0.0281991
0.346175
2.52683
2.51962
1.02607
-5.60993
0.407584
0.0489772
-0.0996385
1.22982
2.25892
-5.77703
1.59223
1.4778
0.754367
1.58764
-0.551147
-0.247058
0.0699874
2.75695
0.449076
0.127496
1.76779
-0.135735
0.0881198
0.778106
0.33137
1.16832
0.587619
-0.413037
0.920505
1.2322
1.00811
1.14687
2.6701
2.186
1.91604
1.88141
2.47004
0.734105
0.0150775
-0.137291
-1.88359
2.49737
-0.263543
1.54494
1.38523
-0.407511
0.801631
1.71019
-0.565089
0.770071
0.93816
2.98975
-1.42783
0.684511
-0.283321
1.75859
0.175126
-0.355336
2.45501
2.09076
1.49229
1.53582
-0.339078
0.701782
-9.44972
2.6428
0.0551779
2.86019
-0.180691
-0.123306
-6.07208
0.802237
-5.39098
0.136533
0.0013984
0.563728
0.0795812
0.53346
-0.380184
0.000509121
-0.258848
-5.57365
-0.554443
-2.40899
0.10944
-0.0504768
-0.32982
-1.18473
1.57143
1.60256
1.94716
1.5255
0.618091
0.593485
3.1656
1.50556
-3.3358
0.0110931
-0.134749
1.17755
1.3649
2.27595
-1.00875
-0.980454
1.24396
0.00424315
0.434057
1.92348
-5.6623
-0.42835
-10.157
2.67363
-0.401084
1.08218
1.96956
-0.242762
1.22036
0.0338608
-1.26984
-0.866406
0.110807
1.0274
1.832
1.93413
-2.2516
-5.53619
0.999233
-10.9847
-0.411193
-0.229654
0.210463
-0.291281
0.0781329
-0.403372
-1.2375
-0.816406
2.36566
-0.309476
2.58602
-0.538612
-0.148482
0.579802
-1.23315
2.1839
1.50396
1.8032
0.0864097
-0.303685
-1.51818
2.09886
-5.56301
1.12659
0.0636191
1.84515
2.18162
0.0526031
1.5374
2.48159
1.69309
1.66611
-3.37334
-0.144018
0.638047
-0.660841
0.00709229
0.924785
1.08229
0.184504
-2.27548
0.399822
0.104309
1.33469
1.1302
-0.478149
2.6082
0.223592
0.00358771
0.265251
1.51359
-0.376577
0.0112458
1.67558
-0.829551
0.153434
-0.257808
1.623
1.52296
1.44277
0.0771571
1.4426
1.77633
1.73833
-0.30695
0.077799
0.332025
1.33413
-1.06509
-5.28703
-0.424526
-1.91007
-0.377093
0.0266682
0.00470585
0.0727365
-5.87395
-0.714513
-0.960254
0.104898
-0.309899
0.575999
-0.470724
1.63843
3.17995
0.506718
-0.254953
0.684184
0.169674
0.404525
0.026247
-0.387438
-0.720262
0.223932
2.03283
0.00643818
2.43738
0.0352711
1.44393
1.2583
0.676055
-6.99468
0.870805
2.70098
-0.334894
1.53868
1.4807
2.26671
0.236772
2.08242
1.64805
-5.9078
1.75533
-1.62981
-7.27909
2.12547
1.35276
-2.19884
-0.0575483
1.9946
0.128455
-0.496712
0.0669255
0.0616131
1.16924
0.832224
1.53521
1.43669
1.32256
-3.17981
-0.562089
-0.283168
1.49728
2.85567
-0.428388
-6.29056
-6.48371
1.53495
0.218271
0.220352
0.65064
-0.0574032
1.19479
-0.249439
0.348192
2.40529
0.706517
-0.292555
-0.225704
-0.424682
-0.631762
-8.46148
-0.822415
-0.449609
1.82329
0.833105
-0.591887
2.48088
0.0110674
-1.0854
-0.261889
-6.92793
1.66665
-5.13179
0.517569
1.53747
0.102537
-0.31722
-0.205429
-3.44059
-0.311032
1.66891
-0.942374
0.0281501
-9.58437
1.48468
1.65746
-0.407109
1.95137
1.80519
2.3443
2.40635
1.71318
0.304804
2.76118
-10.7407
1.49542
0.272688
-1.01302
1.86447
-0.407313
2.35133
0.7238
-1.53247
-7.01739
-9.71033
1.64451
-0.425974
-0.330568
0.175833
-1.40615
-0.254825
0.956707
0.317892
1.1192
2.67087
-5.675
-0.760791
-0.914619
1.59448
1.1437
-0.530179
3.14142
0.0183609
0.102719
0.957653
-1.56149
1.48243
1.58647
1.77196
1.78173
-0.314283
0.828258
1.48039
0.379958
-0.299649
0.0252868
1.66409
1.73022
2.12098
-0.301977
0.169187
0.76762
0.940955
0.111578
-0.955399
1.26866
-0.26734
1.33976
1.58694
-7.82584
2.42985
-0.528617
2.64866
1.75289
-0.811552
0.00981474
0.0582608
0.548771
1.61626
-0.672338
2.09132
1.45312
0.77506
0.0527506
0.363639
-0.417006
0.773433
-9.05575
0.940944
-0.294942
1.50259
-4.90232
-0.0553345
-0.270672
1.89882
2.19861
0.710607
-5.13204
0.752026
-0.0553407
0.207404
0.869453
-0.273405
-0.259961
2.58685
-0.817885
-0.208745
-0.804205
-5.49706
-0.116085
1.57401
-8.65102
-0.23584
1.61143
0.986502
1.66027
-0.412011
0.70127
2.6169
-3.0739
1.47548
0.460464
-0.209655
0.546283
0.391376
-1.13759
2.67207
1.7625
0.0118224
2.59091
2.00329
1.88007
-11.5369
-5.3778
0.968693
-1.74479
-0.107113
-2.21179
-1.59187
-2.1276
1.21759
0.59103
0.921734
1.02721
-0.23368
1.14894
1.49685
-4.15837
1.6035
0.954573
1.53658
-0.0558513
0.0333517
-0.405705
-8.97906
-0.419964
-0.28294
1.47945
-1.0431
2.35406
-0.396646
1.4867
0.935164
0.0770074
0.239708
1.58549
0.687245
0.38431
1.38694
0.0642906
-0.148758
2.22545
1.8056
-0.54497
-1.58275
-0.0234308
1.35273
0.0289685
0.668936
-2.09959
0.0669305
-0.0708186
0.120916
1.34669
1.28224
-0.171375
0.678333
-0.0202325
0.0306389
-0.859048
1.89635
-0.427595
1.51713
0.00793715
1.32223
1.64043
0.879683
1.43105
0.0200069
-0.376397
0.0790047
-4.24486
-0.416965
-0.518795
-1.42672
-0.154813
1.22418
-0.0233091
1.50139
-0.0986966
-0.0674117
-2.37165
0.0268277
1.60725
-0.955572
1.50373
0.419541
-0.709452
-0.146492
-0.42293
1.10521
1.62289
0.0329964
0.327321
-4.62583
1.80226
0.125083
0.448166
-0.422705
1.93266
0.76046
0.0375613
1.64879
1.59648
1.86706
0.238313
1.88138
-3.23183
0.109556
-0.211721
1.47994
0.990236
0.436427
0.13618
-0.935977
-0.554453
0.841501
0.156332
-0.62671
2.41998
-3.66841
1.83568
1.11288
-0.334842
0.00260694
0.13951
-0.0200725
0.199088
0.276472
1.43728
0.0841419
1.54191
-2.46288
0.605109
-0.24168
0.37838
-0.964618
1.91259
2.62491
1.68238
0.851635
0.293204
0.978398
-2.88679
0.00498334
0.0906619
-0.0943681
-0.574829
-0.889466
-0.928814
-0.561907
1.36998
1.50911
-2.84477
0.42956
1.73759
-0.58903
-1.89848
1.65002
0.0120458
-1.45265
0.0510645
-0.218851
0.0109054
2.46147
0.0940706
1.47517
-1.48442
-0.862285
-0.575474
1.50326
0.397307
1.26972
-1.32999
-0.750032
0.148772
0.28705
1.77276
1.35687
0.292784
-0.206569
-0.318292
2.73058
-0.287531
1.74792
1.91045
-0.169715
-0.00757083
0.712745
-6.56051
-0.795825
1.33287
0.871431
1.49135
-0.447987
1.6766
0.209465
2.19379
0.300428
1.34752
1.94083
1.27109
0.271331
-0.381729
0.515855
-6.58972
1.31672
0.695498
1.85997
0.175975
2.33678
0.3122
2.48861
-1.02981
1.93556
-0.193413
1.15971
-2.30414
1.47421
0.741123
0.620492
2.3131
1.52082
0.365015
-0.566751
0.884147
1.45627
0.0279778
-7.60821
1.12249
0.132483
1.99797
-0.413573
2.37972
0.397663
3.20241
2.39994
1.11862
0.983608
-2.22862
0.137601
2.55492
0.173295
-0.0209738
-0.0673733
2.55718
0.739419
1.32012
2.1753
-0.882194
1.67133
-0.230122
1.83027
0.0870774
1.72756
1.56935
2.1213
0.00149493
-10.9422
0.476811
-0.425858
0.716106
0.218536
0.126692
1.95468
2.2402
0.0366662
0.497799
-0.211314
2.00254
1.27364
1.41396
0.956059
-0.201164
-4.2962
-0.313147
1.57281
-2.47358
-0.132227
0.0437409
1.08646
0.736957
-0.586277
2.70256
-0.184714
2.35421
0.433137
2.4113
-0.377112
0.337982
0.0772674
0.0878576
1.30777
1.51248
-0.389864
-0.143723
-1.03923
-0.127169
2.22055
-0.507506
0.0612755
-0.231812
-0.173619
0.498712
1.87755
0.723916
0.108505
0.0558268
1.52028
2.86493
-0.424166
0.140707
1.49698
-0.000480065
0.795311
0.062162
1.08603
-0.154392
-6.99867
-0.479456
-0.265488
-0.114355
0.141148
-1.90242
-0.504624
-0.0433283
1.20069
1.64459
1.33542
2.78044
-1.66037
2.53454
-4.31802
2.37479
-0.687719
-0.954753
2.68597
0.62964
-0.340424
1.55221
0.0107129
1.67655
-0.330376
-9.10014
0.313261
-0.526439
-0.58933
0.00721257
-0.0985336
0.616505
1.90638
-0.81787
0.691119
-2.38613
0.3484
-0.206352
0.0281394
0.107261
-0.208239
-1.87322
2.00639
0.0396302
2.2116
0.593024
-1.10332
0.499844
-1.3599
0.077357
1.31841
1.92539
2.79997
1.15656
1.27956
0.719075
-5.74785
2.69778
2.87982
1.67429
-0.872008
-0.446727
-6.5254
1.42687
1.00421
0.560712
1.21803
-0.226685
0.0336568
-3.75653
2.30126
-0.212643
0.220979
-0.363367
1.47809
0.297402
3.09876
2.89628
1.36803
0.0581692
0.419428
-3.63817
0.563538
2.97395
0.19747
0.0752343
1.12916
0.0133814
0.326843
-0.138017
-0.294579
0.384934
0.0673734
0.702249
0.0518709
0.48972
2.14709
0.448715
1.63719
-0.370435
-0.365949
2.59576
-1.46279
0.257997
0.378577
0.658368
0.185446
-0.422352
0.289149
0.113805
0.0899127
3.13222
-6.82454
-2.56843
-0.659334
-1.11889
0.156043
0.374607
-0.398971
-1.94818
0.0375925
-3.14032
-1.25417
-0.661206
0.182428
0.163447
0.172094
3.05288
0.150802
0.466955
-0.116982
0.346471
-5.73537
-0.287795
2.09944
1.52531
0.481785
-0.19597
1.47731
1.64175
0.0231066
-0.790022
0.0898576
2.09061
-0.603461
1.43073
0.110846
2.35851
0.179401
-0.381445
-0.700053
1.675
-0.477692
1.36345
-0.908666
2.93202
-0.395649
-0.268816
-2.651
0.660314
-0.413518
-0.932407
-0.393477
0.265055
0.669091
-0.471201
-0.268927
-0.0401001
0.201466
-0.502916
-1.26484
1.26302
-8.0187
1.33684
-0.39392
1.6956
2.68076
1.43687
-5.89666
1.55013
0.241391
0.26078
-0.0591669
-0.418583
-6.69989
0.138777
-0.310186
0.651469
0.0156046
-1.20922
-0.131807
-2.12631
0.779083
1.55728
-1.76884
-0.420243
-0.499988
0.0492798
-0.187591
0.916635
-3.50141
-0.420707
1.54007
-0.126348
0.861674
-0.937558
-2.43168
-0.518878
-1.64678
3.08359
0.477949
-0.683902
0.377431
2.51916
2.60197
-0.393959
-0.238658
1.52125
0.0335516
0.135595
2.5914
0.864459
1.34865
3.13136
-0.484672
0.436337
0.260892
2.30507
1.59358
1.58749
1.90988
1.09311
0.0569002
0.115726
0.721965
0.381688
-7.94908
2.65048
-0.847191
-0.929005
0.0478861
-0.497422
0.764505
-0.35899
-0.257501
0.349534
1.60667
1.65743
1.75851
-3.2158
2.2657
2.57842
-2.4273
0.97331
-0.0593995
-0.0554593
0.279274
0.8942
-0.142315
-0.60269
-0.986605
2.86887
-1.89356
1.77811
1.56013
2.02992
1.15552
1.22201
-0.170755
0.0529358
0.889767
0.00078086
-6.34041
-2.13612
0.165158
-0.381783
1.89455
-0.456774
0.0612749
0.310748
-5.57026
-0.384876
-9.46625
1.36517
-0.232477
0.098331
0.737347
-0.778275
0.542749
-2.95425
-0.0527121
1.66077
-1.11811
2.64309
0.047168
2.82716
0.0065458
0.0923056
0.26559
1.34701
1.31882
-3.24902
-0.0760701
-0.341483
0.267748
1.08795
3.14552
2.03659
0.52175
-0.581373
0.818287
-0.247212
1.7603
-0.198776
0.90004
-0.312391
-0.374489
-5.26743
0.542112
0.0530844
-5.47166
1.01449
0.987445
2.54874
2.74648
-8.36343
-6.26956
-0.490974
-1.39967
2.6607
0.0807026
-0.7109
0.684671
1.1155
-0.280835
0.133655
0.155663
0.0103901
1.40427
-0.245743
0.44265
-0.0208607
-0.982445
-2.77695
-0.409051
-2.83043
-2.45601
1.70357
-0.408906
-0.368241
-0.241196
-0.127029
2.9136
1.13076
1.44254
-0.266492
0.796492
-0.00812266
0.637873
0.48579
-0.400392
-6.12174
2.65248
1.6387
0.00429645
-6.10526
3.02662
-0.397311
-4.47978
-0.303304
0.785204
-0.41473
-0.278841
2.29415
-0.086486
1.4221
0.62624
-0.365885
0.118276
0.121216
0.755389
-3.08207
0.0481793
0.467407
1.51752
-0.422786
-4.22523
0.0689043
-0.350451
-1.64797
-1.44733
2.84128
1.01312
-0.67779
0.742404
0.40394
2.48598
0.876856
-6.81287
0.928652
1.94799
1.67062
-0.530811
1.35663
-0.154932
2.63014
0.0556753
1.57082
-0.608247
-0.495546
0.0472851
-0.337892
0.91114
0.536284
-7.35317
-0.422543
1.81789
-0.0965549
-0.0514469
2.15084
1.21697
2.0936
1.43027
-0.787476
0.0271409
0.0810318
1.52734
0.00545533
1.90917
1.19325
2.6071
-0.392246
2.03803
0.758515
2.63875
-0.360675
-0.889831
2.69808
-0.392043
1.16383
-2.29233
2.31527
2.59862
1.66584
-2.5912
1.5303
1.99211
-0.484399
0.645575
-0.359114
2.12798
-0.389662
-0.211159
-7.47236
-8.48626
1.95671
0.745852
-9.60553
0.811431
2.595
-0.869545
-0.262882
-9.64589
-1.02315
1.28973
-0.125455
1.46093
1.44905
-9.87222
2.92467
-0.0157664
2.19861
2.17637
0.146857
0.0272532
1.36698
-1.99521
-0.17968
1.3518
1.16298
-0.531175
1.4546
-0.324676
2.3026
1.66202
0.606388
-0.00392784
1.70686
-0.203452
0.924448
2.03737
0.378522
0.0424824
1.97703
1.64819
-0.674462
-5.61112
1.17197
1.72419
2.62669
-5.48
2.77544
2.75586
2.82177
-0.203175
1.92015
-0.53418
1.53812
2.06368
2.01299
1.7079
2.26039
3.09289
1.33247
-5.45962
0.142424
-5.69129
3.06357
0.840296
-0.14763
-0.420919
1.43303
2.27978
1.47485
0.532283
-0.0656151
2.26731
-2.39637
1.64611
-0.419422
0.712636
0.0326849
0.468684
1.01355
-0.395247
-0.417878
-0.164296
-0.3364
-0.196146
1.8815
-0.332988
0.254227
1.44096
-2.16161
0.949126
0.0497661
-2.02318
-0.636765
-5.93395
2.16348
2.32987
-0.390932
0.590146
1.98529
1.78619
0.0358254
-0.636947
1.6866
-7.30934
2.1262
-1.8639
2.07052
0.955053
0.247946
1.92746
1.02592
2.02273
0.566251
0.728681
-0.478168
-5.86163
-3.11299
0.0108251
1.98481
-0.832361
-0.316062
-0.854937
2.20203
2.00211
0.536959
1.14827
2.23042
-2.31935
1.4707
0.0304834
-0.561395
1.46594
-0.379692
-2.5415
-1.33435
-9.43507
-0.261327
-0.764129
0.0415414
-7.05413
-5.95616
1.26921
2.65794
2.90837
2.52116
-0.802591
1.66388
-0.743983
1.43165
2.22117
0.228441
1.94926
-0.86944
0.550642
-0.513354
-0.0618245
2.12095
-1.19329
1.74564
-4.27242
-0.371565
-10.4035
1.7776
1.73187
1.53425
-1.73971
1.45773
-0.266413
-10.4454
-10.8234
0.510182
2.67024
-3.03427
-0.260964
-0.420524
1.52645
1.47198
-0.00404508
0.972773
-2.80744
2.26338
2.04466
-0.296474
-0.29537
2.2066
-0.374104
-1.45295
0.0447782
2.01628
2.26909
-0.449816
1.09269
-0.236446
2.61056
-7.86884
-0.476289
-0.0591638
2.44721
0.0364323
-0.438226
-0.141461
2.10332
1.2223
2.08854
-0.108555
-2.64834
1.71169
3.02677
-5.84837
1.38069
-0.00522148
-9.46552
0.00548803
0.569031
-0.426546
1.06579
-0.339766
1.01408
-0.224954
-0.611708
1.91216
2.28637
1.45012
-1.8425
-0.484189
1.78083
-3.07849
0.576754
-0.600999
0.772338
-5.32999
1.65311
1.7862
-0.0423377
1.67554
2.57653
-0.244364
1.25166
1.75256
-10.6659
0.940652
-0.514328
0.769208
0.555623
1.20606
0.00921263
0.5291
-0.181277
-3.5128
2.1483
0.614132
0.121398
-0.389214
-0.167758
1.59699
-4.16323
2.80952
-1.41503
-11.7151
-0.154091
1.96211
1.74088
2.05404
-7.82081
2.47784
-1.20381
1.20975
0.179854
-2.56368
1.4192
0.709863
-0.217609
1.05817
-4.86771
1.24384
-8.485
-0.392389
0.00863642
-1.69917
-2.00734
1.37468
2.5427
0.124749
-0.59892
1.97748
-2.10866
2.30946
0.692986
0.0786425
0.829495
1.54425
0.813106
-0.169326
0.110947
0.0232982
0.38127
0.559576
-2.60349
-0.419075
0.104808
0.901173
-0.269975
3.08572
1.65885
1.51869
2.3311
0.253037
1.71972
-0.871646
-8.94346
-0.443806
1.54027
3.00395
1.43801
-1.01417
2.1537
1.44544
1.46949
0.0993702
-0.0368971
0.823098
2.82338
0.0928296
-0.621049
2.09251
2.19564
1.62081
1.52717
1.87322
1.09564
-0.308622
-0.535346
1.69069
-5.38262
-5.77911
1.51414
-0.480613
-0.0299328
0.498855
1.66762
1.72883
1.75701
-0.167059
2.05185
2.09841
0.311014
1.8446
1.61429
1.28034
1.14455
1.0354
0.796455
-0.0153024
1.96205
1.82996
-0.375518
1.40252
-0.182596
0.0691005
2.52044
1.90275
0.0139879
-0.478114
-0.250265
1.95765
1.10133
0.286005
0.0334776
0.272845
-0.32076
0.335857
-0.417372
-0.184311
1.12522
-0.220445
-1.35537
-2.05881
2.37819
-0.416249
-4.17413
-0.442349
2.55293
-0.240894
0.320079
0.306548
-8.7153
1.18871
1.44093
0.969059
2.24134
1.23943
0.0636969
-6.90474
-0.453972
0.0448644
1.77822
-0.309081
-0.537468
-8.2905
-0.307553
-4.42786
-0.434904
-2.74445
-0.157795
0.583805
1.51439
1.99731
-0.272916
-0.0453062
2.25239
1.71519
-0.423952
-0.27733
-6.21585
0.949471
0.170847
0.852554
1.30532
-0.0904957
-0.254631
-0.284821
0.407478
-1.04161
-7.54384
0.213822
-0.66209
-9.02548
-8.85636
-0.461406
0.208958
-6.37069
0.793999
-0.561175
1.51445
1.36197
0.421018
1.98525
-0.704497
2.55728
-0.512601
0.113015
-1.29103
1.53194
0.938338
-5.50558
-7.61328
1.56344
1.85538
2.65325
-0.526401
-8.36659
-0.654569
-0.130487
0.00757188
-1.94669
0.553533
-5.49702
0.911036
-0.642769
1.16874
0.144307
-0.0370805
2.3175
1.36628
-1.23268
0.0310578
-1.69324
-5.97792
1.98815
2.90975
-4.2996
1.88044
1.46555
0.00296369
-0.234142
1.93338
1.85054
-2.97062
-0.230512
-0.46028
-0.738227
-1.2285
-4.0105
-1.14902
0.993892
-0.234978
1.69209
-1.31058
-8.83803
1.43428
-1.14094
-7.83383
0.092818
1.15126
-8.88983
-0.633192
-9.33001
-1.2366
-6.89375
2.69357
-8.3928
-0.233976
-0.727503
1.68133
-11.229
-0.196308
-2.2135
-1.85879
-0.513061
1.74118
0.0206667
-2.1685
1.3458
0.0186793
-0.437719
-2.38454
-2.53175
1.09378
1.26555
1.54285
-10.055
2.29612
-0.347895
0.00516441
0.146315
-2.57799
-0.5584
-2.37158
-0.955231
0.295754
0.668441
0.0902598
-0.332921
-0.972332
1.44259
-1.29301
1.60929
-1.91153
0.977191
-0.251172
-0.135727
-0.289697
3.06125
-0.312349
-10.04
-5.77063
-0.800589
1.53808
0.0879991
-0.431576
0.0809991
-7.76795
-0.483935
-5.83096
-3.72384
1.67567
-4.98045
0.247941
-9.28267
-0.0100021
1.34481
0.141778
0.687179
-0.453573
2.01629
-9.19979
-0.607202
2.15749
0.623238
-10.0427
-0.329943
-2.00189
-0.88614
-0.373266
1.97328
-0.408804
0.649825
-7.43863
-1.86761
-3.07825
-4.10061
-4.54897
0.904664
-0.234646
1.52309
0.572309
-1.43788
-0.314466
-0.615766
1.89491
2.27645
-9.47598
0.0636292
1.64708
1.51742
1.20526
-0.769017
-1.35833
-1.46233
1.54135
0.459438
-0.854578
-2.56564
0.87871
1.82205
-0.265278
-0.112837
0.0845642
2.13447
-1.64031
-1.81616
0.0601867
1.3162
0.06473
-0.246877
2.31147
1.91097
0.0815945
-0.815599
1.94837
0.763874
-0.0994445
1.41426
-0.349241
-1.05181
-1.71457
-0.834556
1.86976
1.63844
-0.0609819
-0.604022
-0.42422
-0.0525987
1.68067
-0.790332
1.15319
2.03134
2.17339
-0.303413
1.55316
1.35546
1.70266
1.80573
-0.188221
1.81775
0.00872718
1.53548
0.82318
1.6689
-0.399718
1.93265
1.8447
1.38208
1.0007
-0.542317
1.08946
0.110399
-0.694133
2.07749
2.05065
-0.603794
1.78311
-0.842622
-5.74788
1.66622
1.67032
-1.8722
-0.0569539
-8.44707
-0.742044
-1.43671
-0.38258
-1.85084
-0.422938
1.40814
2.81128
1.93486
-0.292032
-0.327063
1.63526
0.823933
-0.238145
-1.01868
-0.465575
-1.82041
-5.64905
-5.8745
1.4676
-0.452673
0.786259
0.0475029
0.0454129
-0.219242
0.0526284
0.313382
0.792762
1.01673
-0.491907
0.717205
-2.3569
-1.06296
1.07605
0.853176
-0.0428596
0.149861
1.00645
0.00711009
0.590569
-0.545066
1.52407
1.29039
2.44914
1.53965
-0.743015
-0.397683
-0.586966
-0.434602
0.0331035
0.0626766
-0.150235
-0.628953
2.87015
0.192272
-0.0466739
2.27376
-0.4242
-1.01352
-0.229704
-0.413754
-9.65816
0.447796
-1.34975
1.49718
-0.199251
-0.683177
-0.732154
-0.343095
-0.892795
-0.186925
0.133385
1.19762
-0.401522
-0.395161
-1.46952
0.60611
-0.899535
1.66279
2.3319
-0.418726
1.69156
0.881977
1.11896
2.58126
-0.419858
0.932933
0.811907
0.728177
2.20025
-0.495878
-0.127794
-0.180366
1.63656
2.32873
-0.407787
-0.0639215
-0.879264
-0.760717
0.794747
-0.583475
-1.99458
-0.458348
0.602243
-6.88019
0.397346
0.492397
1.34049
0.328796
-5.25298
0.0419975
0.0419685
-0.203357
2.49007
2.79874
2.06737
2.97461
1.35337
0.907198
1.73194
1.50033
1.38119
-0.702774
1.58183
-0.359557
-5.77874
2.28048
-0.197143
-0.944985
2.68001
0.0550579
-0.717458
0.827807
0.725228
1.87739
-5.63531
1.42412
2.46823
-0.42573
-5.629
-1.76637
1.09718
-0.663379
1.97748
-0.102327
1.87994
1.52469
-0.406002
1.80354
-0.598697
-5.9861
-5.34253
-0.497507
1.85664
-0.809989
1.57919
0.00143112