/*--------------------------------*- C++ -*----------------------------------*\
| =========                 |                                                 |
| \\      /  F ield         | OpenFOAM: The Open Source CFD Toolbox           |
|  \\    /   O peration     | Version:  2306                                  |
|   \\  /    A nd           | Website:  www.openfoam.com                      |
|    \\/     M anipulation  |                                                 |
\*---------------------------------------------------------------------------*/
FoamFile
{
    version     2.0;
    format      ascii;
    arch        "LSB;label=32;scalar=64";
    class       volVectorField;
    location    "3";
    object      U;
}
// * * * * * * * * * * * * * * * * * * * * * * * * * * * * * * * * * * * * * //

dimensions      [0 1 -1 0 0 0 0];

internalField   nonuniform List<vector> 
13486
(
(1.45908 -0.23927 5.62587e-19)
(1.68912 0.274371 2.61587e-19)
(2.19604 0.0115951 0)
(0.682437 -0.350098 -1.216e-19)
(2.33633 -0.55336 1.81207e-19)
(2.38699 0.0949236 1.53403e-20)
(2.55796 -0.458533 2.53378e-21)
(1.998 -0.74297 -2.94819e-19)
(1.93193 -0.413225 0)
(2.05081 0.698985 0)
(0.874072 -2.07207 -4.00946e-19)
(2.46063 0.037413 0)
(1.33006 -0.453015 -5.56546e-19)
(2.50211 0.592141 4.64182e-20)
(2.45299 -0.388758 9.74724e-20)
(2.01279 0.697665 -1.45561e-19)
(-2.56504 1.49526 1.30991e-18)
(1.52185 -0.612248 -8.16443e-20)
(2.28551 -0.00977316 2.74958e-21)
(1.62798 -0.071877 -5.69312e-19)
(1.38681 -0.725487 -4.42267e-20)
(1.34784 -0.467699 7.1832e-19)
(1.71191 0.273409 -2.09073e-19)
(2.14879 -0.632494 0)
(2.06226 0.555666 4.73298e-20)
(2.13953 -0.581268 -6.76106e-20)
(-1.0625 0.158647 4.69213e-19)
(2.25117 -0.0742893 2.40323e-19)
(2.03577 0.00924196 0)
(2.06954 -0.229096 -1.26525e-19)
(1.45343 -0.700507 -2.76487e-20)
(2.5762 -0.268197 -1.19246e-19)
(2.50118 -0.38579 2.29025e-19)
(1.97824 -0.0422867 0)
(2.00687 -0.717868 0)
(1.8993 0.000658092 -5.63941e-21)
(1.99314 0.04451 2.38517e-20)
(1.49779 -0.708054 2.84186e-19)
(1.88751 0.0722522 1.55515e-21)
(1.95944 -0.252999 2.87526e-19)
(2.38572 -0.82294 0)
(0.890277 -0.446037 -6.45532e-19)
(2.02573 -0.0201903 0)
(2.08338 0.477736 -2.30862e-19)
(2.10184 0.468476 9.51491e-20)
(2.45156 0.048153 8.90328e-20)
(2.12547 -0.359066 3.76085e-18)
(2.03107 0.00820059 -1.29765e-21)
(1.98987 0.0440988 -1.82346e-20)
(2.44569 -0.0528345 1.33852e-19)
(2.00219 0.0299503 3.18871e-19)
(1.91711 0.0323931 0)
(2.63247 0.108595 -9.08519e-20)
(1.65981 -0.629935 -4.15646e-19)
(1.4071 -0.593173 0)
(2.308 -0.558934 -1.22169e-19)
(2.05736 0.0561204 -1.64543e-20)
(1.89685 0.039404 -1.18237e-21)
(2.49534 -0.381478 2.64791e-19)
(2.00879 0.0769795 0)
(1.09526 -1.71256 -2.91575e-19)
(1.99867 0.072537 0)
(3.37481 -0.529134 -4.7195e-19)
(1.40322 -0.735194 -5.20295e-22)
(1.70157 -0.651014 0)
(1.9949 0.0521792 1.18911e-20)
(0.749178 -0.376042 -1.20999e-19)
(1.44944 0.0236863 1.89895e-19)
(1.93605 -0.438499 -1.65033e-19)
(1.94074 0.00879583 -4.20706e-21)
(0.553089 -0.269011 1.38711e-19)
(1.45382 -0.581733 -5.91874e-21)
(1.9582 -0.128562 2.13161e-19)
(-0.549766 0.177654 -7.52173e-19)
(2.00683 0.0669667 2.85643e-21)
(2.04863 0.0590647 3.7387e-21)
(1.99614 0.0467189 -9.3003e-21)
(2.4561 -0.409289 -3.97613e-20)
(1.80541 -1.02767 -1.91119e-18)
(1.65938 -0.0460942 0)
(2.00661 0.00486992 1.15854e-21)
(1.6419 0.368228 -1.65898e-20)
(3.44345 -0.798514 -4.26466e-20)
(2.23035 0.0259351 -1.52337e-20)
(1.45152 -0.253784 -1.10157e-18)
(1.42599 1.60896 0)
(1.79621 0.395573 2.04943e-20)
(2.00142 0.0498311 -4.77258e-19)
(1.87935 0.243221 -2.11186e-19)
(1.91174 0.942902 -1.49284e-19)
(2.73332 -0.205422 -5.37336e-20)
(2.12378 -0.643026 -1.54602e-19)
(1.51308 -0.351134 1.45252e-19)
(1.6678 0.0718821 1.47538e-20)
(1.85577 -0.601365 6.67557e-20)
(2.02137 0.0037624 2.62059e-22)
(-0.936729 0.00382425 0)
(1.28431 -0.628833 6.19602e-20)
(1.97406 -0.252215 -5.48932e-19)
(-2.4786 1.29186 8.06274e-20)
(2.07129 0.00440807 0)
(2.46566 0.591712 1.37026e-20)
(1.38464 -0.669408 4.42313e-22)
(1.89599 0.0365762 1.17e-21)
(1.39032 1.55157 0)
(-2.44071 1.07747 7.35891e-20)
(1.96679 0.05625 1.32485e-21)
(1.86426 0.0741826 4.47011e-21)
(1.80284 -0.581393 2.55887e-18)
(1.77152 -0.807248 0)
(1.25304 -0.603421 0)
(2.58434 -0.369071 -1.11508e-19)
(1.66533 -0.611448 2.99743e-21)
(2.05888 0.041799 1.22532e-21)
(1.11358 -0.0981062 0)
(1.19854 -0.594842 -2.49477e-19)
(2.06884 0.570216 0)
(2.02788 -0.0434865 0)
(1.94947 -0.133291 0)
(1.99076 0.0429251 1.16933e-20)
(1.35136 -0.636912 5.29415e-20)
(0.942491 -1.68769 0)
(1.82694 -0.545201 0)
(1.88278 0.071658 -3.77695e-21)
(1.90099 -0.693311 0)
(1.90482 0.0252714 0)
(2.20364 -0.288529 6.31289e-21)
(2.18554 0.0369045 8.62265e-20)
(1.92534 -0.00939805 -1.89046e-20)
(1.69723 -0.579168 -3.90782e-20)
(1.92895 0.0312411 1.72042e-22)
(2.33816 -0.309897 -9.50411e-19)
(1.4283 0.143739 8.98885e-19)
(-0.345578 -0.231167 1.09766e-18)
(2.00033 0.0192143 -5.26274e-20)
(1.92626 0.417635 -2.31149e-19)
(0.711611 0.697401 -1.5788e-19)
(1.79768 -0.805964 0)
(1.99698 0.0357756 -3.37105e-21)
(2.02166 -0.605815 -1.05838e-19)
(2.5236 -0.214591 -2.57421e-19)
(2.66772 0.0797791 7.42633e-20)
(2.57806 -0.123002 0)
(1.68042 -0.0387556 0)
(2.06451 -0.00416425 4.90256e-21)
(2.80942 -1.03096 -5.73766e-19)
(2.2055 0.353247 -2.04373e-20)
(0.33527 1.60385 0)
(2.46724 -0.0911898 0)
(2.03674 0.00775718 0)
(2.00769 0.0266714 4.66975e-21)
(2.45085 -0.476244 0)
(2.03038 0.00070508 -1.21618e-21)
(1.62021 0.366638 -1.40794e-19)
(2.18669 0.280642 0)
(2.1775 0.0246579 0)
(1.57009 -0.719882 0)
(0.363653 -0.306137 -1.1843e-20)
(1.7609 -0.721485 5.92929e-19)
(2.04254 0.140456 3.8427e-20)
(2.41206 -0.0188497 8.47958e-20)
(1.76682 -0.701337 -9.00739e-19)
(2.52699 -0.392578 5.90132e-21)
(0.789556 -0.379903 2.83585e-19)
(1.90234 0.0326409 0)
(2.57978 0.553228 -9.58721e-20)
(2.40872 0.552087 -3.48554e-20)
(0.496867 -0.164121 -6.87554e-19)
(2.18948 0.339425 5.36824e-20)
(-0.325306 -0.343675 2.98648e-19)
(1.07468 0.0957457 -7.7845e-22)
(2.17817 0.25553 7.11997e-20)
(1.99517 0.0802975 -3.82881e-19)
(2.34912 -0.215745 9.5096e-21)
(2.01584 -0.00115039 1.89292e-21)
(1.43267 -0.817807 0)
(2.53821 0.904591 1.40193e-19)
(2.62941 -0.27742 3.70923e-19)
(1.988 0.0641943 -5.30903e-19)
(2.57212 -0.0917318 0)
(2.01163 -0.315378 5.80796e-19)
(2.05836 0.0350291 2.53962e-21)
(2.43545 -0.183472 -4.79894e-21)
(0.582768 -0.324526 0)
(2.25943 0.131139 3.87465e-20)
(2.22592 -0.068553 -1.1047e-19)
(2.03512 0.00888916 -2.28792e-22)
(2.07005 -0.132666 -4.0822e-20)
(2.42908 -0.809529 0)
(1.07283 -0.519546 -3.20304e-19)
(2.00421 0.04889 0)
(2.10568 0.0294961 0)
(1.88546 0.042575 0)
(1.36602 0.798882 -2.9141e-19)
(1.87308 0.0313661 0)
(0.593134 -1.97388 -8.02525e-20)
(1.69161 -0.60452 9.02246e-20)
(2.35001 -0.00880214 4.58956e-20)
(1.09308 -0.541732 -1.23194e-19)
(2.54905 0.522918 -4.67288e-20)
(1.45878 -0.698003 2.94974e-20)
(2.20871 0.0512754 -2.52678e-21)
(1.36729 -0.663652 -3.28459e-19)
(1.64999 -0.723373 4.94943e-20)
(2.03985 0.137552 -4.66442e-20)
(1.86077 0.0277898 -8.33086e-21)
(1.44349 -0.573208 -2.16201e-20)
(1.87812 -0.0392415 4.33579e-19)
(1.8714 0.0433181 0)
(2.25608 0.115291 0)
(2.18703 -0.0840072 1.51359e-19)
(1.96536 -0.569157 9.73793e-20)
(1.64431 -0.0541994 5.21043e-19)
(1.96112 0.0572865 5.54481e-22)
(2.39747 0.133231 -1.76753e-20)
(1.76579 -0.223512 1.13758e-20)
(2.09912 -0.219144 0)
(1.90888 0.931421 4.00471e-19)
(1.59857 -0.375825 0)
(3.12393 0.261076 0)
(-2.56469 1.38562 -2.42638e-18)
(2.48612 -0.0780519 0)
(2.00448 -0.599883 2.46043e-19)
(2.42902 0.00652361 0)
(2.67811 0.234798 -1.00085e-20)
(1.28793 -0.614378 2.0001e-19)
(2.51648 0.198411 -5.39003e-21)
(1.49716 -0.717923 2.06523e-20)
(1.8076 -0.109976 2.17926e-21)
(1.80877 0.36029 -4.65597e-22)
(2.01799 -0.305997 -1.86556e-19)
(1.18732 -0.255852 5.9815e-20)
(2.52382 -0.261313 3.24246e-19)
(0.920729 -0.450891 2.20972e-19)
(1.49975 -0.735733 0)
(1.06606 -0.521476 2.36695e-20)
(2.0191 -0.088266 6.66086e-20)
(2.12319 0.0102862 -9.39813e-21)
(0.927007 -0.450662 6.40001e-19)
(2.40745 -0.0957159 0)
(2.46142 -0.425006 0)
(2.00481 0.0734434 5.8428e-19)
(2.06474 0.0274888 0)
(0.931265 -0.464386 2.13854e-19)
(1.88297 0.106628 7.48187e-21)
(1.81356 0.0818282 0)
(2.29745 -0.0290745 -4.02944e-20)
(2.09781 -0.426633 2.26473e-19)
(0.617225 -0.214658 1.97663e-18)
(2.04369 0.461534 0)
(1.41923 -0.690892 -2.76182e-20)
(1.07983 -0.068216 8.11768e-20)
(1.00345 -0.493187 3.15785e-19)
(1.86628 0.0740123 0)
(1.76589 -0.0578854 8.69218e-21)
(1.41084 -0.869141 1.86908e-20)
(2.59389 -0.254033 9.20656e-20)
(1.75978 -0.224087 -1.43828e-20)
(0.252765 -0.262568 1.24415e-20)
(2.42746 -0.416557 1.60288e-19)
(1.80221 0.236557 0)
(1.89158 0.101898 -8.09932e-22)
(2.45622 -0.395032 -2.29178e-19)
(1.41257 -0.845442 -2.33379e-20)
(2.23384 -0.752221 -1.86934e-19)
(0.670149 -0.385656 0)
(1.82791 -0.111835 -2.75454e-20)
(1.46451 -0.717091 -4.35052e-20)
(2.02125 -0.0100341 -2.49729e-19)
(0.970374 -0.931402 0)
(1.60661 0.870372 1.99263e-19)
(1.97625 0.0696782 -1.42955e-19)
(2.11378 -0.232478 0)
(2.50906 0.111152 6.615e-20)
(1.20614 -0.586502 2.6506e-19)
(2.1004 -0.396133 -1.26252e-19)
(1.77953 -0.0471109 0)
(1.49263 -0.514147 0)
(1.85306 0.0678384 2.02112e-21)
(2.24641 0.370194 3.73076e-20)
(1.50547 -0.508421 5.09499e-20)
(2.11828 -0.214798 -2.11649e-19)
(1.93519 0.0994409 3.13034e-19)
(2.28225 -0.904325 -1.63594e-19)
(0.812223 -1.50727 2.7181e-19)
(-2.08042 0.334214 1.85583e-18)
(2.57288 -0.197435 3.06694e-19)
(1.89719 -0.0168019 2.47949e-20)
(2.65828 0.244832 1.33342e-20)
(2.02095 -0.00115249 0)
(1.48225 -0.733148 0)
(1.96646 0.117401 -1.52444e-20)
(1.23511 -0.597878 2.44513e-19)
(1.99375 0.0217189 -5.16366e-20)
(2.01351 -0.0885292 6.11803e-20)
(2.04726 -0.119957 0)
(2.05541 -0.0256867 -1.06582e-19)
(2.46844 0.122172 -5.46769e-20)
(1.92154 0.0836749 -2.8779e-19)
(2.54789 -0.586988 6.10909e-20)
(2.17035 -0.402942 -1.12801e-20)
(1.38029 -0.574557 -1.75793e-21)
(2.23304 0.360796 -3.21123e-20)
(2.55958 -0.266521 1.12572e-19)
(1.99121 0.0402067 -3.95949e-21)
(1.34757 -0.619741 0)
(0.366287 -0.112297 0)
(2.33102 -0.0390408 8.30572e-20)
(1.76487 0.328716 -1.67313e-20)
(2.0008 0.0516433 0)
(2.45109 1.51878 -1.91897e-18)
(0.557391 -0.289507 0)
(2.43322 0.909244 -3.42295e-20)
(2.58661 -0.35897 -1.10205e-19)
(2.0236 -1.6081 0)
(1.91985 0.408895 -1.41023e-19)
(1.96877 0.113277 2.24769e-20)
(1.87847 0.234037 -1.80871e-20)
(1.87715 -0.0331507 -4.76878e-19)
(1.84838 -0.125744 0)
(1.9946 0.0560037 -2.16953e-20)
(1.95547 0.0994455 7.43863e-22)
(1.97432 0.0618586 6.68947e-20)
(1.65099 0.116977 -2.75265e-19)
(0.811334 0.666531 2.92799e-19)
(2.68698 -0.217392 9.07379e-20)
(2.25457 -0.40289 -5.88552e-19)
(2.13131 -0.214321 0)
(2.36927 0.174987 2.01239e-21)
(2.29078 -0.412192 -1.06661e-19)
(1.99606 0.038387 6.92338e-19)
(2.15024 -0.64665 0)
(2.82261 -0.233533 -1.38676e-20)
(1.47917 0.357029 0)
(2.56295 -0.470234 -1.66903e-19)
(1.91866 -0.564439 -1.82388e-19)
(0.722805 -0.342308 2.63329e-19)
(2.43022 -0.490923 -1.55161e-19)
(2.03955 0.178471 0)
(1.90449 0.119462 1.532e-20)
(1.83364 -0.131417 3.11448e-20)
(1.66284 0.125831 2.59927e-19)
(2.3061 -0.418668 4.17824e-19)
(2.42999 -0.1905 1.92531e-19)
(0.927583 -0.726817 -7.64738e-20)
(2.03354 0.014843 -7.05049e-23)
(2.24651 -0.210039 0)
(1.07409 -0.390766 6.36294e-19)
(3.12405 0.243189 0)
(1.9621 0.117431 -8.42052e-22)
(2.25908 -0.112749 3.48592e-19)
(2.43358 0.169608 -5.72485e-20)
(2.49529 0.116302 5.12651e-20)
(-0.644896 -0.0819954 -3.24385e-19)
(1.9344 0.0817711 3.59679e-19)
(1.99192 0.00997943 0)
(-0.685894 -0.145836 -5.84452e-19)
(2.21799 -0.290336 -1.24142e-19)
(1.78578 0.302087 8.78272e-21)
(1.96879 -0.531628 9.18225e-20)
(2.44796 -0.00282119 0)
(2.77942 -0.15419 4.07985e-20)
(1.79803 0.185909 5.51995e-19)
(1.95862 0.0681258 4.34658e-19)
(2.07523 -0.239958 0)
(2.04957 -0.00178299 -6.98504e-22)
(2.03402 -0.104994 -6.25601e-20)
(2.63314 0.0976893 5.24771e-19)
(1.61414 -0.0703588 7.23559e-20)
(2.2113 -0.248685 1.18002e-19)
(2.06599 -0.0204982 -2.1319e-21)
(2.23722 -0.198536 0)
(2.6285 0.300574 -3.15951e-20)
(1.33264 -0.694593 2.56771e-20)
(2.41883 0.29798 3.60165e-20)
(1.99023 0.0279504 2.69245e-19)
(1.37423 0.028601 0)
(1.93815 0.116247 2.40137e-20)
(2.1198 -1.49175 0)
(3.52305 0.641562 -3.42742e-19)
(2.03263 -0.039711 0)
(2.13923 -0.730918 -5.75984e-21)
(1.36261 -0.14257 -1.54972e-19)
(1.5978 0.798759 4.84169e-19)
(2.36855 0.221109 -1.98459e-18)
(1.79889 -0.0649146 0)
(2.29511 0.0594782 -4.07664e-20)
(2.04258 0.18291 -1.47213e-19)
(-0.958321 1.11579 -6.88498e-19)
(1.39988 -0.721944 3.93336e-21)
(1.66979 -0.0682681 -7.86461e-19)
(2.15903 -0.208375 6.79503e-20)
(2.07423 0.15264 9.93989e-20)
(1.49722 -0.490083 0)
(1.40055 0.291325 2.95623e-19)
(2.00006 0.0289406 1.0572e-20)
(0.646043 -0.32922 7.05698e-20)
(1.3631 -0.686507 -9.09235e-20)
(-1.94191 1.7023 -1.49938e-18)
(2.57711 -0.20933 0)
(-1.48741 1.50738 0)
(2.10867 1.08228 0)
(2.07113 -0.0927617 0)
(0.647526 -0.178831 -3.90081e-20)
(2.54742 -0.442428 0)
(2.03589 0.731133 0)
(1.68445 0.0916311 1.07268e-19)
(2.59222 -0.282776 -3.83504e-19)
(2.21305 -0.192585 -2.85459e-19)
(1.73147 0.322284 8.84484e-19)
(2.01229 0.0230908 -7.65505e-20)
(2.51015 1.58734 0)
(2.2308 -0.208451 0)
(1.92062 0.0867505 3.07241e-19)
(2.01187 0.0454179 5.42238e-20)
(1.3818 0.850451 0)
(0.609332 -0.323391 7.16014e-20)
(2.21633 -0.765783 2.10412e-19)
(0.834071 0.537617 0)
(2.40328 -0.0999812 1.89183e-19)
(1.98453 0.0552352 -3.55901e-19)
(1.18612 -0.361229 -3.4561e-20)
(1.06806 -0.37536 0)
(2.02187 0.198566 2.79077e-19)
(2.49095 0.0748057 0)
(2.05952 -0.134933 0)
(2.19916 0.173978 -1.13289e-20)
(1.91564 0.0978286 1.63614e-19)
(-1.20641 0.206905 -6.1455e-19)
(2.36752 0.553883 4.7644e-21)
(1.39037 -0.376441 -2.75662e-19)
(2.06428 -0.0829744 3.68792e-20)
(2.09183 0.140389 7.64554e-20)
(2.61274 0.308158 8.59781e-20)
(2.30617 -0.749378 0)
(2.18756 -0.411979 1.26484e-19)
(1.36655 -0.0840239 0)
(1.95254 0.115098 -1.39119e-20)
(2.32963 -0.220334 0)
(1.47205 0.0421512 4.01285e-19)
(-0.117658 1.38598 -2.95521e-18)
(2.13875 -0.206528 0)
(-0.336608 0.138192 5.28957e-20)
(2.22175 -0.222756 -1.60862e-19)
(1.95068 0.272199 3.35764e-20)
(1.7987 -0.292615 7.53701e-19)
(1.49343 0.78156 -3.09175e-19)
(1.38141 -0.362705 -7.8345e-19)
(3.51778 0.58549 0)
(1.99188 0.0377571 -1.0537e-20)
(0.893077 -0.764107 -1.9856e-19)
(2.03882 0.196053 0)
(1.86494 0.25636 1.9692e-20)
(2.46169 -0.0558015 -2.80192e-20)
(2.85225 0.859385 0)
(2.00538 0.0198302 0)
(0.580363 -0.277609 0)
(1.45578 -0.828159 8.19283e-20)
(2.22325 -0.941279 1.96261e-19)
(2.75485 -0.962787 2.12029e-20)
(2.39066 0.873192 0)
(1.73303 -0.190721 5.11447e-19)
(2.02972 0.0093213 -3.15579e-21)
(2.35554 0.51047 5.4316e-23)
(1.18178 -0.621642 9.788e-20)
(1.93867 0.150066 0)
(2.02734 0.00782797 0)
(0.805963 -0.156352 -4.3278e-19)
(1.47333 -0.482173 -1.92705e-19)
(1.96091 -0.20088 0)
(1.28919 -0.627017 -2.36724e-19)
(2.07926 0.00397463 2.64718e-21)
(2.02852 0.00683941 -3.96401e-22)
(0.815812 -0.384137 0)
(1.89416 0.0107862 1.76056e-20)
(1.99624 0.0375781 -9.77849e-21)
(2.48452 0.064051 9.9634e-20)
(1.90505 -0.583329 0)
(-2.08205 0.363552 -2.89195e-18)
(2.46509 0.146402 5.96454e-20)
(2.01299 0.0877455 6.06542e-20)
(2.01987 0.0226164 -4.29978e-21)
(2.62534 0.512235 0)
(1.70489 0.315015 -2.35559e-19)
(2.96972 0.0256269 -2.19359e-19)
(-2.30089 1.77727 2.83352e-19)
(2.01002 0.0478909 0)
(1.40862 -0.725321 -4.00088e-21)
(0.547585 -0.133942 0)
(2.00429 0.0432008 -2.34469e-19)
(1.99792 0.0686525 1.05892e-19)
(1.87932 0.0553217 -6.0205e-20)
(1.4179 -0.827442 0)
(2.1633 0.019014 -2.61632e-20)
(1.16236 0.426898 8.12815e-19)
(2.27937 -0.74427 0)
(1.65422 0.0736252 3.35491e-19)
(2.5223 -0.594978 -6.95264e-20)
(2.1738 -0.00377725 0)
(1.47166 -0.719092 2.13912e-20)
(1.69395 -0.0184938 -1.04855e-20)
(2.04127 -0.00267082 0)
(-2.18968 0.607939 2.52702e-18)
(1.84861 0.243203 0)
(1.72014 -0.791378 2.41276e-19)
(1.39206 -0.70618 5.34513e-20)
(2.03657 0.0116601 2.79067e-22)
(2.39962 0.109622 -4.60221e-20)
(1.39255 0.276095 1.57164e-19)
(1.78735 -0.318233 -2.78074e-19)
(1.80855 -0.0584128 -1.08876e-20)
(1.7658 -0.802722 2.48988e-21)
(2.19124 -0.25334 1.14688e-19)
(2.62307 0.521428 1.9653e-19)
(1.83677 -0.821321 0)
(1.99833 0.0329884 -2.38746e-19)
(0.795672 0.427868 -4.46324e-19)
(1.39368 -0.0934206 0)
(2.01763 0.0365643 4.30358e-21)
(1.9289 0.0144091 0)
(1.28185 -0.389181 6.76438e-19)
(2.10763 -0.792871 0)
(1.98313 -0.0113021 7.53647e-21)
(2.25684 -0.102629 -1.98482e-19)
(1.48055 -0.70846 3.85172e-20)
(0.645175 -0.306475 9.21828e-20)
(2.37721 0.0142799 -1.65277e-21)
(1.31568 -0.624722 2.12528e-19)
(1.81377 -0.539318 2.67295e-19)
(1.50968 -0.36104 0)
(0.230751 -0.206227 -6.92187e-20)
(2.32957 -0.693243 -4.38279e-20)
(0.207079 -0.25325 -8.34924e-20)
(2.02431 0.0134249 3.33605e-22)
(1.49976 -0.605846 0)
(2.21803 -0.0174444 -1.02891e-21)
(0.67492 -0.349077 0)
(1.44388 -0.694706 1.39661e-22)
(1.27338 -0.407536 4.74383e-20)
(0.0548261 -0.191225 0)
(2.07973 -0.564071 7.85674e-20)
(1.68467 -0.638481 0)
(2.84995 0.776649 0)
(1.4818 -0.70369 -3.18181e-19)
(1.50686 0.325271 2.38525e-19)
(1.49187 -0.0688101 0)
(1.78536 0.207382 -1.50244e-19)
(2.88453 -1.03 6.83131e-19)
(1.27118 -0.717287 1.17921e-19)
(2.92958 1.17226 0)
(2.14741 -0.0490727 0)
(0.773272 -0.834901 -9.60869e-20)
(1.89291 -0.135006 0)
(2.27373 0.0532557 0)
(1.12773 -1.59543 -1.60293e-20)
(2.07539 -0.416241 -3.77118e-19)
(1.77724 -0.450279 2.30988e-19)
(2.38619 -0.463054 2.25456e-20)
(0.276717 -0.211868 1.30745e-19)
(1.99995 0.0607054 1.21722e-19)
(1.54767 -0.391463 0)
(2.2055 0.432559 -3.30555e-20)
(1.44763 -0.219965 0)
(2.17953 -0.00586086 0)
(2.00911 0.120269 0)
(2.19753 0.150236 -9.42552e-21)
(1.86076 -0.0320991 2.21496e-19)
(2.07635 0.0235935 -7.52256e-21)
(1.59245 -0.3965 0)
(-0.79122 0.108095 -3.1746e-19)
(2.13795 1.02915 2.72669e-20)
(1.89878 -0.706926 2.54001e-20)
(1.93462 -0.0249765 -3.85649e-20)
(2.069 -0.380893 2.03161e-19)
(2.05737 0.0500233 -2.02915e-19)
(-0.0821554 1.7246 0)
(2.48209 0.116027 0)
(1.51075 0.806153 0)
(1.26601 -0.58506 -4.8557e-19)
(1.53438 -0.64925 -4.73822e-20)
(0.27756 -0.0820382 0)
(2.223 0.440095 0)
(2.73957 0.175067 2.47132e-20)
(2.01806 -0.0165711 -5.81475e-20)
(1.95818 0.596493 2.23772e-19)
(1.64049 -0.712532 0)
(-0.215581 -0.944454 -1.10162e-19)
(2.3192 0.0631572 7.60768e-21)
(1.44345 -0.446726 -4.60938e-19)
(2.2201 0.0475475 -4.87382e-20)
(2.34818 0.510762 3.40462e-20)
(1.90899 -0.764589 7.79925e-20)
(1.26578 -0.58931 8.48054e-19)
(1.72349 -0.38156 5.74337e-20)
(2.06797 0.0349577 2.76679e-21)
(2.00082 0.0125315 -6.11497e-20)
(1.16714 -0.548313 -7.49955e-20)
(1.71081 -0.0102834 4.12836e-21)
(1.73369 2.02623 3.94181e-20)
(1.3089 -0.627218 1.21657e-19)
(2.31443 0.172288 0)
(1.91924 0.465084 -5.58983e-21)
(2.16853 -0.0448762 -1.89732e-19)
(2.93714 0.411159 1.34913e-19)
(1.41613 -0.411007 -4.20323e-19)
(1.88439 -0.680101 -2.76048e-19)
(2.03255 0.00751538 5.58505e-19)
(2.41059 -0.0278965 -3.18753e-19)
(2.64172 1.01723 1.476e-19)
(2.59914 -0.196667 -1.56231e-19)
(1.19773 -0.197496 -9.17218e-19)
(2.12453 -0.0330783 -1.42039e-19)
(1.18411 -0.258189 0)
(1.49695 -0.709167 -8.78063e-20)
(1.94792 -0.00290781 5.2278e-19)
(1.81814 -0.0184243 -1.86845e-21)
(-0.501887 0.454427 0)
(1.54244 -0.710233 0)
(2.04669 0.43258 1.94894e-19)
(1.06762 -0.193617 5.70186e-19)
(1.69447 -0.755362 -9.7007e-20)
(2.16181 -0.72634 -1.3507e-19)
(2.26959 -0.416402 3.20957e-19)
(3.16052 0.179472 0)
(2.05027 0.457014 1.02313e-19)
(1.4019 -0.589416 -2.18532e-21)
(2.59341 0.887928 1.55907e-19)
(1.98847 -0.282243 -3.30575e-19)
(0.387226 -0.317593 -2.0462e-19)
(2.07068 -0.355024 -1.98747e-19)
(2.16362 -0.430866 6.70095e-20)
(2.37876 1.09951 0)
(1.90052 -0.147368 -2.52648e-20)
(1.8918 0.05843 5.53802e-20)
(2.02091 -0.000735529 1.81996e-21)
(0.82599 -0.402984 7.78288e-19)
(1.9692 -0.277263 4.94983e-19)
(2.02814 0.1311 -1.84193e-20)
(1.29381 -0.698724 -6.75202e-20)
(2.07598 -0.0690804 -7.58464e-20)
(2.23669 -0.0211165 1.2607e-19)
(0.722208 -1.59134 -3.58708e-20)
(2.49405 0.866129 -1.65089e-19)
(-2.23905 0.902255 -2.73757e-18)
(0.960029 -0.471064 -2.57046e-19)
(2.01502 -0.000402638 0)
(2.06175 0.0521328 -1.36013e-20)
(1.19508 -1.07506 -6.15568e-20)
(1.35839 -0.169947 8.34433e-19)
(2.04358 0.0186301 0)
(2.23084 -0.397923 -4.51163e-21)
(1.23566 -0.528092 1.92409e-19)
(2.00447 0.0475606 -5.18871e-19)
(1.00188 -0.512186 -7.09191e-20)
(1.4832 -0.0499561 -3.36122e-21)
(2.21737 -0.201427 1.94193e-19)
(2.27907 0.041711 5.691e-20)
(1.73778 -0.799248 -3.3444e-19)
(2.0674 0.0305526 1.02231e-20)
(1.55268 -0.670966 -1.16925e-19)
(2.11302 -0.0510877 1.77975e-19)
(2.05004 -0.0650709 -1.59366e-19)
(2.14109 0.0806791 -5.16912e-21)
(2.16251 -0.0463395 -3.48149e-19)
(1.17266 -0.533232 -3.71666e-19)
(2.06298 0.0352854 0)
(1.45913 -0.762584 6.07532e-20)
(2.10226 0.0714332 3.88113e-20)
(1.03746 -0.194363 -6.26122e-20)
(2.35425 0.0205999 -2.81435e-20)
(2.21532 -0.433157 -1.97414e-19)
(1.99938 0.0175998 -3.99018e-19)
(2.1299 0.292519 5.7271e-20)
(0.566109 -0.28854 -7.35628e-20)
(2.26173 0.0514525 0)
(1.93521 0.114517 -1.19993e-20)
(2.42185 0.191471 5.85969e-20)
(1.50732 -0.591061 0)
(2.13863 0.0645172 1.01738e-19)
(2.34643 0.188405 7.39057e-20)
(2.22414 0.0391068 7.44212e-24)
(2.41903 -0.814526 -6.09596e-21)
(1.87264 0.0154419 0)
(1.80737 0.36038 4.21824e-19)
(2.04647 0.110158 2.07295e-20)
(1.28224 -0.620534 2.6783e-19)
(2.0236 -0.201552 0)
(1.50318 0.280437 -6.90679e-19)
(1.44667 -0.686376 6.806e-20)
(2.67629 1.34446 -3.78068e-19)
(1.20864 -0.219183 8.91183e-19)
(2.03247 -0.0106647 1.37924e-20)
(0.700925 -0.332137 7.16785e-20)
(1.92305 -0.108092 -3.45785e-19)
(2.23747 -0.385186 -1.88907e-19)
(1.78169 0.177255 -3.18608e-19)
(2.02618 -0.00989943 0)
(1.98794 0.0327919 -2.31825e-19)
(0.0979023 -0.12017 1.83263e-19)
(-0.892911 -0.386462 0)
(2.03811 -0.590213 0)
(2.00888 -0.00580702 0)
(-2.51206 1.73749 0)
(2.04768 0.296927 0)
(1.13766 -0.191481 0)
(1.80608 -0.234728 -1.91043e-21)
(2.63793 -0.910688 -2.80288e-19)
(2.54464 0.205596 0)
(1.78843 0.360753 6.37282e-19)
(0.82273 -0.650525 -3.19567e-19)
(2.06179 0.162642 5.63957e-21)
(1.16246 -1.20978 -3.85626e-20)
(1.15061 0.0491218 -2.46814e-21)
(0.704966 -0.353589 6.3418e-20)
(2.00381 -0.00337522 -1.26077e-19)
(2.44628 -0.0780413 1.83453e-20)
(2.02097 0.273349 -1.37982e-19)
(1.86957 0.222428 -4.23414e-19)
(2.06177 0.962538 -1.19374e-19)
(3.41988 0.641118 0)
(1.37362 -0.736555 1.50557e-20)
(1.30126 -0.403352 -7.41377e-19)
(2.01417 0.0311763 -7.17757e-19)
(2.34168 -0.700978 -2.45864e-19)
(2.05086 -0.0221755 5.53127e-20)
(2.64057 -0.667709 9.27539e-21)
(2.14181 -0.334376 -4.29882e-20)
(2.09383 -0.552668 -2.72136e-19)
(2.02727 0.161561 1.53269e-19)
(2.71665 1.46763 0)
(1.821 -0.0317631 -9.61232e-21)
(1.7028 0.0722449 -9.82925e-20)
(2.56605 -0.418568 0)
(1.85622 0.061029 0)
(1.78664 -0.820223 -3.37363e-21)
(0.916762 -0.431658 7.68915e-20)
(1.78641 -0.24188 -6.00755e-20)
(1.93033 0.0385336 0)
(1.8959 -0.0493589 -4.53617e-19)
(1.82348 0.242287 -8.22236e-20)
(1.48306 -0.739588 3.58636e-20)
(2.28756 0.130923 4.10159e-20)
(0.709013 -0.342247 0)
(1.35432 -0.727163 1.87339e-20)
(2.33192 0.159406 0)
(1.88488 -0.148493 2.58614e-20)
(2.78937 -0.165277 -4.06687e-20)
(1.99615 0.0235053 1.22857e-22)
(2.42897 0.560339 6.32575e-20)
(2.87422 1.0418 -3.97979e-20)
(1.77048 -0.517342 5.5497e-19)
(1.40896 -0.641641 0)
(1.63876 -0.57145 -8.45396e-20)
(1.35595 -0.390985 0)
(2.5831 0.166611 -5.0706e-20)
(1.48354 -0.733989 7.27797e-20)
(2.01609 -0.580171 1.22196e-19)
(1.92242 0.109072 1.02998e-20)
(1.39667 -0.927467 -1.27477e-19)
(1.09929 -0.541298 -3.093e-19)
(1.3432 -0.411944 -4.29492e-19)
(2.00668 0.034945 -3.67647e-21)
(1.65093 -0.554619 6.93584e-20)
(1.21643 -0.550316 3.05714e-19)
(1.39759 -0.44089 4.71685e-19)
(1.52517 -0.643995 5.80528e-20)
(1.72493 -0.576067 -4.4148e-20)
(1.87254 -0.603523 2.75513e-19)
(1.51162 0.985992 2.06834e-18)
(2.07799 0.0238485 6.26828e-21)
(1.00124 -0.614602 2.549e-19)
(2.34913 0.34977 -1.45819e-20)
(2.28209 -0.581332 0)
(-2.12039 1.38088 -2.96617e-18)
(2.0777 -0.0461447 -2.41636e-19)
(2.00524 0.127876 0)
(2.55773 0.170426 0)
(1.53963 -0.529463 -5.99437e-20)
(2.31663 -0.551927 -2.02174e-19)
(2.39607 0.148984 5.66819e-20)
(2.07146 -0.404373 4.94306e-19)
(2.0343 0.92128 1.15625e-19)
(1.581 -0.00838356 3.58549e-19)
(1.46788 -0.741629 -1.2811e-21)
(1.83974 0.614936 0)
(1.42742 -0.473263 4.51683e-19)
(1.3719 -2.45018 3.46679e-19)
(1.39523 -0.898039 9.59028e-20)
(1.75724 -0.685841 9.14808e-20)
(1.44551 -0.654785 -5.80665e-20)
(1.96129 0.00644007 1.82571e-19)
(1.88845 0.080555 -2.80934e-21)
(2.05085 -0.216038 1.34977e-19)
(1.46121 -0.7445 -4.96989e-20)
(2.38385 0.150071 -3.96193e-20)
(1.93754 0.0762063 1.79744e-19)
(1.17888 -0.247903 -3.66224e-19)
(1.89321 -0.109907 2.82689e-19)
(2.5251 1.09371 0)
(2.4145 0.290694 -5.0006e-20)
(1.97774 0.0626271 4.00258e-20)
(1.49696 -0.325922 -1.44781e-19)
(1.98322 1.79771 9.09081e-20)
(1.84321 -0.589467 2.05131e-19)
(2.01538 0.000809104 7.77375e-20)
(1.39954 0.130498 -5.42495e-19)
(2.5491 -0.424046 0)
(1.93405 0.0918954 1.86449e-20)
(2.22609 0.0581425 6.65143e-20)
(1.92735 -0.016549 0)
(1.42912 0.0144075 3.10811e-19)
(2.28852 0.126209 0)
(1.86554 1.8154 -4.00763e-20)
(2.37967 -0.0336656 0)
(1.81014 -0.0390866 0)
(2.44808 0.0418894 4.58279e-20)
(2.36346 0.120592 -1.37739e-20)
(2.72038 -0.0836613 -3.08218e-19)
(1.93796 0.124479 -1.92226e-19)
(1.65168 1.16687 -1.16285e-19)
(2.01226 0.08944 -7.26818e-20)
(2.10279 0.296192 0)
(3.68068 -1.72428 -1.62171e-19)
(2.42104 0.0959836 6.36282e-20)
(1.87461 -0.135134 -5.28353e-20)
(2.28096 -0.575291 0)
(2.96509 0.400076 2.02979e-19)
(2.33907 1.60996 2.45662e-20)
(2.06622 -0.00745038 2.71474e-20)
(1.69002 -0.993189 0)
(1.2692 -1.57428 1.96888e-19)
(2.04286 0.149456 0)
(2.07288 -0.190669 -6.84986e-20)
(0.602142 -0.256585 0)
(3.63741 -1.19504 0)
(1.71487 -0.407444 0)
(2.06564 -0.787525 0)
(0.275876 -1.87986 -8.75322e-20)
(1.46621 -0.813168 -1.77846e-20)
(1.86168 -0.0311927 -3.32274e-19)
(1.4845 -0.715728 -4.8052e-20)
(1.2969 -0.579395 0)
(1.50556 -0.713954 -3.58945e-20)
(0.413172 -0.122892 -1.97029e-18)
(1.51491 -0.715921 0)
(1.50545 -0.553248 -4.8221e-19)
(1.99603 0.0605894 3.2566e-21)
(2.33177 0.339974 2.73317e-20)
(2.42686 -0.829866 5.47998e-20)
(1.85467 0.19479 0)
(2.23037 -0.725373 0)
(3.09882 -0.314548 1.77688e-19)
(1.7274 0.0117982 7.46694e-22)
(1.98468 0.0478795 7.766e-21)
(1.53551 -0.519333 1.09734e-21)
(2.00337 0.00567691 1.72173e-20)
(2.05828 0.0344581 -8.51016e-23)
(2.02486 0.167229 2.21346e-19)
(1.94661 0.101286 -1.13985e-20)
(1.91479 -0.543391 0)
(-1.24885 -0.089203 0)
(2.07024 0.0201753 0)
(1.98031 0.00823805 0)
(1.75656 -0.33573 2.04499e-19)
(2.46083 -0.147971 0)
(0.863746 -1.94146 5.96902e-19)
(1.8556 -0.769091 -6.6526e-21)
(1.36712 -0.457558 -7.0855e-19)
(0.931498 -0.879548 1.71915e-19)
(1.47553 -0.768979 -3.36012e-20)
(1.23397 -2.32328 -4.48589e-19)
(1.94104 0.00681796 6.1922e-20)
(1.41954 -0.760819 -4.82413e-20)
(1.95905 0.107304 -1.96367e-20)
(2.4124 0.0370065 0)
(2.3871 -0.394865 0)
(1.11104 0.624685 0)
(2.21259 -0.449825 1.0433e-19)
(1.71773 -0.617415 0)
(1.87556 0.615136 0)
(2.00248 0.0127653 0)
(1.79444 -0.452082 2.15424e-19)
(2.08089 0.159401 -1.98711e-19)
(1.9513 0.00261569 0)
(1.83726 -0.249588 -5.95237e-20)
(2.00428 0.173006 -2.20553e-19)
(2.58523 0.790809 -3.24986e-19)
(1.55984 -0.732602 2.87153e-19)
(1.95764 0.662353 -3.32848e-22)
(1.64656 -0.0630341 -1.06682e-21)
(1.85704 0.0743519 -1.99486e-21)
(1.78319 -0.092563 -2.00746e-20)
(2.35792 0.127721 2.18825e-20)
(1.98969 0.0357725 1.73212e-20)
(1.82201 0.0863348 -3.12385e-19)
(2.13159 -0.0479691 0)
(1.17428 -0.26537 4.80589e-20)
(1.96917 0.072762 3.20633e-19)
(1.35368 -0.590629 4.15051e-20)
(2.13631 -0.317093 -1.25465e-19)
(1.09672 -0.213056 -6.21874e-19)
(2.3582 0.106624 -4.26693e-21)
(3.00053 0.0369664 3.15549e-19)
(2.00134 0.0508868 0)
(1.99983 0.568455 -7.93035e-21)
(1.91756 0.0425925 1.92925e-21)
(1.78764 -0.0962765 4.35907e-20)
(1.27847 -0.671466 -1.12188e-19)
(2.00411 0.0118871 1.69483e-19)
(2.07413 0.033274 -3.01016e-21)
(2.01807 0.000718127 -1.11744e-20)
(2.07229 0.0251879 0)
(1.743 -0.894798 0)
(1.37055 -0.66016 3.50878e-19)
(0.918445 -0.457401 7.60755e-20)
(2.04884 0.00133316 1.8436e-22)
(1.96697 0.0672068 6.44643e-19)
(2.00997 0.605299 1.78867e-20)
(1.46618 0.265732 0)
(1.8045 0.113418 0)
(1.62396 -0.377048 -3.00068e-21)
(2.40281 0.0508742 7.16823e-20)
(2.00463 0.636899 2.90316e-19)
(2.54853 -0.0997945 0)
(2.04112 -0.0133578 0)
(2.12009 -0.622347 3.73789e-19)
(1.9937 -0.179223 2.66431e-19)
(0.134434 -0.0542372 -2.06423e-20)
(1.8879 -0.0198562 0)
(3.92257 -1.1067 2.96624e-19)
(1.90711 -0.34701 -2.49759e-20)
(1.20016 -1.02467 -7.65556e-20)
(1.98119 -0.0352682 -3.63358e-19)
(2.68758 -0.817439 0)
(2.33853 -0.573729 1.5981e-19)
(1.73277 -0.9586 -1.39137e-19)
(0.0334052 0.00820904 0)
(2.00054 0.00809332 1.37269e-20)
(1.92834 0.123032 -2.08729e-19)
(2.00496 -0.00558582 1.19709e-23)
(2.75808 -0.248774 2.48182e-20)
(1.91638 1.5468 6.0837e-19)
(1.89377 0.0480452 0)
(1.08959 -0.412314 -4.17291e-21)
(2.02485 0.675141 -1.31038e-20)
(2.05219 -1.42413 -3.9758e-19)
(2.03592 0.276684 1.63753e-19)
(1.4041 -0.637081 1.96211e-20)
(1.98908 -0.0137055 -7.97409e-19)
(2.02737 0.137055 1.03839e-20)
(1.87717 0.0956738 -8.22937e-21)
(1.75705 -0.412566 0)
(1.90601 0.00894124 -3.93663e-21)
(1.13948 -0.535326 2.44178e-19)
(2.23292 -0.101478 -3.85006e-19)
(1.96908 0.061459 -2.91437e-19)
(2.06998 -0.171287 6.37124e-20)
(1.68697 -0.17976 7.49143e-19)
(2.06896 0.0166529 -7.52312e-21)
(1.79302 0.116389 1.81447e-19)
(2.02301 0.04402 1.33796e-20)
(2.40797 -0.465249 -2.60924e-19)
(2.54308 0.919024 -2.39148e-19)
(1.71097 -0.77566 7.58187e-20)
(1.98349 -0.0202409 0)
(1.52447 0.538653 0)
(0.981981 -0.225836 0)
(1.36603 -0.420107 5.48484e-19)
(2.1492 0.0664578 -4.72539e-19)
(1.81138 0.25459 0)
(1.53795 -0.343663 -4.30162e-19)
(1.79053 0.223956 0)
(1.76466 -0.309884 -3.36023e-19)
(1.86407 -0.139881 -5.42257e-20)
(1.89177 -0.515854 -3.031e-19)
(1.96807 0.0387558 0)
(1.95016 0.0748903 0)
(1.94085 -0.0330727 3.14883e-20)
(2.50399 0.164773 5.37669e-21)
(2.37842 -0.0889324 1.23592e-19)
(2.55407 1.69739 -9.30777e-21)
(2.63092 -0.178983 0)