/*--------------------------------*- C++ -*----------------------------------*\
| =========                 |                                                 |
| \\      /  F ield         | OpenFOAM: The Open Source CFD Toolbox           |
|  \\    /   O peration     | Version:  2306                                  |
|   \\  /    A nd           | Website:  www.openfoam.com                      |
|    \\/     M anipulation  |                                                 |
\*---------------------------------------------------------------------------*/
FoamFile
{
    version     2.0;
    format      ascii;
    arch        "LSB;label=32;scalar=64";
    class       volScalarField;
    location    "5.3";
    object      p;
}
// * * * * * * * * * * * * * * * * * * * * * * * * * * * * * * * * * * * * * //

dimensions      [0 2 -2 0 0 0 0];

internalField   nonuniform List<scalar> 
13486
(
2.5163
2.01208
0.114331
-0.175798
0.86607
-0.224421
0.406666
1.44938
1.72551
0.896585
-12.3248
0.428781
2.65295
-0.274661
0.680326
0.995493
-5.40124
0.103005
0.599462
2.26486
-0.121698
2.62257
1.97227
-2.08141
0.853032
-1.8951
-6.75646
-0.974242
0.0033859
-0.832264
-0.0987213
0.506041
-1.92682
-0.590136
1.45219
0.0178023
0.0153469
2.07397
-0.10307
1.71741
0.315881
2.75321
0.0360363
0.854581
0.814495
0.405593
-4.61116
0.00603033
0.0146295
-0.949118
1.47116
-0.122502
0.312575
2.10584
0.0407221
0.929827
0.063698
-0.125811
-1.82846
0.0297082
-12.0467
0.0303155
-3.46764
-0.109001
-0.963694
0.0195009
-0.248192
2.50961
1.71582
-0.019655
-0.251028
0.0567323
1.71948
-4.90882
0.0280415
0.0658834
0.0270227
0.666246
-5.57046
-0.217225
0.00822301
2.03486
-3.62347
0.121751
2.52723
0.848043
-0.302804
1.39068
1.67005
0.978935
0.380123
1.26667
2.41878
2.15409
1.79533
0.00362868
-6.9299
-0.408067
1.69049
-5.43587
0.0333025
-0.178594
-0.422238
-0.120423
1.03872
-5.3807
1.68649
-0.112679
-5.26662
1.15989
1.6667
0.408766
2.10423
0.0556221
2.94408
1.74197
0.856383
-0.551026
1.73468
0.0139917
0.100074
-11.7326
1.87324
-0.110801
1.66118
-0.110965
1.23081
0.407356
-0.483679
-0.774479
-0.106435
-4.11618
-5.31602
-4.50329
1.54646
1.36076
2.90096
1.20325
0.0144389
1.48843
-1.52308
0.307614
0.502415
-0.22069
0.0556103
-4.83225
-0.253274
1.69296
-1.03313
0.00141262
0.975902
0.644943
0.00856582
2.07519
0.481383
0.108476
0.974405
0.106821
1.88586
-0.00402109
-0.716223
1.88647
0.310746
2.74523
-0.126704
-0.550404
-0.0206295
3.36721
-0.262788
-4.48915
-5.39535
0.497074
1.17067
0.928162
0.00507608
-2.30903
-0.502354
-1.79748
1.69001
0.512561
1.61607
0.0548695
0.750035
-5.13887
0.101736
-0.974592
0.000232127
-0.772559
0.382581
1.82699
0.0159977
0.094293
-0.154394
2.14032
-0.185545
-11.9375
-0.802827
-0.753375
2.27754
-0.460321
-0.115289
0.383805
2.07835
0.736641
0.00794877
-0.191989
0.078982
1.84164
-0.141609
0.113461
-0.86563
-1.36259
2.2346
1.68557
-0.22295
-0.413963
-0.876281
1.01103
2.29548
-2.15084
-5.37926
-1.05872
1.52502
-0.761709
0.194377
2.46362
-0.528472
-0.441701
-0.336074
-0.288156
1.59661
-0.0528572
-1.59418
2.80596
-0.288492
2.36927
-0.655702
0.0981142
2.39282
0.778269
-1.93145
1.14748
0.0609687
2.25923
-0.0956736
1.92435
0.811428
-1.26494
-4.44523
0.964689
-1.79424
2.9761
1.68554
-0.120299
-0.265979
-3.40538
0.490998
-0.397186
0.123665
-1.84538
1.84489
-0.0859559
0.666231
-3.0775
0.972668
-5.33333
-0.341672
-0.130998
1.59417
0.0459587
1.67142
1.64916
-0.91051
0.314705
2.46757
-1.18885
-0.266649
-0.173209
-0.135232
-0.185671
-0.201905
1.4174
1.70385
-4.00324
-10.5978
-6.00309
-1.47909
-0.507062
0.188238
1.60929
-0.250261
-0.0141314
1.80004
1.56162
-0.6226
-0.708518
-0.721828
0.284979
1.73885
0.387088
0.297695
0.0780825
-0.218383
0.536029
0.00823274
0.765647
-0.0795657
0.849274
-0.244721
0.0165052
-4.41343
-0.16161
-0.220602
0.411619
-10.8473
1.39031
-0.0119042
1.67264
1.84936
-0.393515
0.0179215
-0.025181
1.67825
2.16738
2.87105
0.403642
1.1018
1.38843
0.156683
1.02411
1.40228
1.21481
0.350712
2.30844
0.401174
1.69651
3.05316
0.686259
1.04507
-0.0837402
-0.366146
2.14583
0.989625
0.769955
-5.62824
0.00436323
1.15223
2.94898
-2.16246
-0.0235398
1.11199
0.203701
0.295208
-7.111
1.72558
0.00721979
-5.04556
1.20385
-0.246186
-1.30486
0.61747
0.344199
1.87536
1.65384
-0.869103
0.00332297
-0.676128
-3.50318
2.28832
1.21648
0.0308276
1.17105
0.162423
-2.43411
-0.161562
1.50511
1.71704
-0.0470314
-10.375
-3.37675
1.5772
1.18467
2.64799
1.77191
-3.84929
-0.281856
0.117906
1.01765
-5.34814
-0.0203667
2.19859
-0.992657
0.727277
2.41025
2.4597
0.0183053
-0.199255
-2.24217
-5.37007
-1.54858
-5.36514
0.422391
1.50476
-0.14754
0.444452
-0.0922387
2.12196
-1.73363
1.23015
1.89996
0.994702
-1.20643
-1.08723
1.74142
1.70076
2.06324
-4.60971
0.998325
-5.26713
0.805688
1.68992
0.226923
2.95851
1.09189
-0.630406
-0.732902
0.372314
1.70035
-6.71134
0.0877358
2.60012
1.5093
0.709825
0.153135
0.819919
-1.41151
2.63291
-0.0253567
0.972562
2.46861
-5.30067
-0.928882
-4.51214
-1.10388
-0.773116
2.00893
1.95215
2.61431
-3.4513
0.0133606
-5.95994
1.06535
1.70289
-0.930677
-1.36601
1.67423
-1.60597
-2.3159
-4.30281
-4.44334
-0.0909871
2.11898
0.00423382
0.116381
-0.128858
1.61001
0.00524845
3.21148
2.44884
1.72443
1.40067
0.0184721
0.00316095
3.03627
-0.288516
0.0162854
-0.61752
1.71215
-5.94502
0.26347
1.19566
0.00982363
-0.715538
1.95123
-1.94052
-5.37091
1.10751
-0.0343984
3.35527
1.12849
1.48766
1.83236
-2.61744
0.154581
2.71008
0.883197
2.18008
0.440734
0.483103
-0.161632
-0.214747
0.0353107
-5.56522
1.73638
1.70498
-1.84514
0.00218983
-0.281366
2.48414
2.01584
-0.280357
1.73587
1.25597
-0.679151
0.984731
1.51188
-5.31743
2.60375
0.0283383
-0.0149931
2.73067
1.20002
0.00345127
1.13045
-0.222397
-1.13713
0.69705
1.11256
1.89957
2.42529
-6.77037
0.810296
-6.95798
0.0030274
2.3637
0.480472
-4.84343
-0.498702
0.224762
0.118046
1.39389
-0.876681
-1.29449
1.74108
2.2848
-0.174515
1.83833
-4.85194
-3.10769
-1.77691
0.709944
-6.70013
1.858
0.143623
-11.6604
1.46122
2.00199
-1.87425
-6.49644
1.49322
2.36546
0.540687
2.53609
0.150425
1.13937
0.397867
1.87125
0.0505593
2.30332
-6.94493
0.400122
1.65618
-0.447712
-1.11865
1.67539
-5.36701
0.300994
1.92071
2.61909
-0.343961
0.112581
0.475567
0.241397
1.50805
1.20612
0.631235
-8.72862
0.0363913
2.50479
0.285064
0.148586
-2.29456
2.63545
-0.50569
0.0598504
1.6391
1.38115
-0.216613
-0.508807
1.47609
0.118616
-0.342745
0.669725
-1.57929
2.555
1.70066
1.18788
1.22041
0.0477271
-1.48546
2.8562
0.520171
2.86509
-0.375905
1.61444
0.0139438
-4.93128
1.07176
0.95918
2.99104
-1.50378
1.13902
1.06475
-2.306
0.918981
0.10502
-0.650154
1.6597
-6.41669
-1.06295
-1.46028
-0.255601
-0.484612
1.81945
0.00637269
2.78668
1.6971
0.00664253
-2.84051
-0.853321
0.560751
-10.735
-0.35866
-5.47538
2.35079
0.00170062
0.0654544
-7.47616
2.65739
0.00440167
0.295119
2.72954
1.49105
-3.8675
-0.176947
1.20503
0.155283
1.64586
0.0583576
-0.484608
0.653854
1.53569
0.509648
1.38422
2.76824
0.0577198
-1.15082
1.67321
0.220672
-0.281402
1.17765
1.25874
0.74768
-4.25717
0.144304
-0.0499315
0.179561
2.35995
0.529906
0.131953
0.129305
0.229492
-0.211922
1.70382
0.0458273
1.61141
1.60529
2.31653
0.120018
-1.2675
2.84228
0.0266669
-1.43819
1.76914
-1.43736
1.90218
0.0498016
1.63758
-0.144301
-4.78544
-1.67465
0.00437522
-5.36875
0.909539
2.92068
-0.470027
-4.11545
-0.60619
1.74432
0.00690366
0.758017
-8.94036
2.88014
-4.05987
0.904142
-1.00104
0.987507
1.68593
0.63716
-3.13024
-0.0754865
2.70125
1.71619
0.775109
1.50882
0.194863
1.34074
1.3708
0.998752
-4.39914
-0.262954
2.10243
0.40238
-0.140976
1.44068
-1.12982
-0.451694
-0.0688213
1.81819
1.79545
-0.67248
0.115301
-3.47295
-0.0898971
0.132031
-0.46996
0.351064
1.63232
-0.0743066
-1.52647
1.98587
0.0216168
-0.568085
-0.111799
-0.756397
-0.644409
-1.49153
-0.0614848
-4.55225
1.63492
2.64868
0.0172994
-0.576783
2.73676
2.57006
-0.309211
-0.85047
1.76358
-4.39427
0.0590531
-0.0041423
0.076996
0.973878
-5.3719
0.797866
1.14793
-0.671876
-0.263194
-2.03208
-0.19837
1.47264
0.73937
1.09761
-0.878102
1.4479
2.51882
-10.1759
-4.06587
1.91149
0.665462
1.13399
-0.0973215
-0.801589
-0.971066
-0.152463
1.72231
2.87161
1.85051
0.0406155
-0.159286
1.68255
2.44889
-0.465798
1.82279
1.66014
2.53935
0.436025
-0.049521
0.260521
-0.381826
2.53196
0.117525
-0.204365
1.16369
-0.265679
0.413183
-0.126739
-1.56252
1.605
1.21859
1.17945
0.813389
-5.62745
-0.394755
-0.435997
0.979447
-1.67525
-0.870169
0.0556503
-4.74384
-11.819
0.899043
-0.81206
-4.3961
-4.34178
-0.507611
1.28705
-11.2565
-1.99332
1.88901
-0.245791
2.62846
-0.4477
-4.51996
2.01431
2.37807
0.0311355
0.112906
0.465979
1.73401
1.00076
-2.67318
-0.207458
0.00734025
-0.248192
1.64548
0.0628557
1.00121
-0.0336621
1.7145
-7.04511
0.0560652
0.00354506
2.05756
-1.2526
-12.3952
-2.21379
2.60289
0.0322906
-1.17679
-13.2584
1.66144
-1.55578
-0.0214606
0.389732
0.823488
-0.0736121
1.18173
-0.934857
1.38359
1.6624
1.96555
0.776525
-0.0263689
-0.528523
1.28387
-0.564163
2.04354
1.15624
-0.223271
-0.123341
-0.298554
-0.0870837
0.0107745
1.90583
0.696492
0.245048
1.67492
0.083301
1.35917
2.96038
-0.123903
-2.00109
1.16597
-0.207115
-0.0676076
-0.316335
-0.124757
1.66048
0.0594923
0.0263044
0.0490253
0.140508
2.17322
-3.51378
0.00522195
1.68145
-0.160969
2.37768
1.92998
2.2559
0.425742
1.06268
0.537765
0.0832281
1.28874
1.65571
-0.0995825
-0.45537
-4.06934
-0.762398
-6.88808
1.67
-3.77269
-2.18453
-4.26916
-0.0933855
0.00772155
1.69291
0.0110784
0.368851
-4.6157
1.71052
2.92578
-0.113867
-9.55631
0.956166
0.0322012
1.61697
-0.00249121
-0.0996757
2.0382
-0.133027
2.77671
1.16915
1.67079
-0.785973
2.18494
0.0588803
1.94071
0.027525
-1.91695
-0.496161
-1.69146
1.13618
-0.129544
0.00119539
2.61789
1.70614
1.81844
2.38734
1.85297
2.05121
-0.424928
1.77471
1.72101
1.72869
-0.395978
-0.524342
-1.02573
-1.52327
0.462759
1.90995
-4.87805
2.47456
-1.52637
0.0603611
2.84607
2.40266
-0.449428
-1.71755
1.70134
0.882778
0.176299
1.59965
-4.78227
-0.652098
1.66854
2.33556
-0.0955758
1.87974
2.16169
0.00508591
-0.697364
2.16931
0.76288
0.0142208
-8.388
0.115425
-1.50654
1.57548
1.1659
0.00946599
-0.0353215
-0.949652
0.468642
-0.0570139
0.40319
2.44668
-0.0972132
3.15901
1.68023
0.576836
1.89057
-3.95013
-5.08317
-1.34558
1.65634
-0.0993895
-4.29942
-0.110524
0.844191
0.998823
-0.0749398
1.24103
-3.23992
0.89565
0.03511
-0.0380304
1.36088
0.54525
2.19333
1.71783
1.76849
1.62616
-0.457026
-1.58327
-1.24499
0.132343
-0.417619
-0.273273
1.33576
-0.208008
-0.0284619
0.0127181
0.280367
-9.03996
1.19538
0.80753
-0.0471992
-0.999655
0.828906
-1.0168
-1.47749
0.230813
-0.143635
1.87612
1.26068
2.17593
-4.5217
1.52992
0.0530502
2.34952
-0.190886
0.898324
0.113491
-0.213204
2.7246
2.78557
1.40266
0.969665
1.15797
1.56176
2.75587
1.17961
-1.7148
-8.23356
0.332766
-1.48417
-4.96964
1.69976
1.61996
-0.0847478
0.520053
1.44385
1.53201
2.99104
-4.47908
1.33387
-5.36501
-0.395354
2.40099
-0.297679
1.41956
-0.230834
0.520489
0.677041
3.11096
-0.95887
-1.03601
0.862598
0.254274
-6.30668
-4.76847
0.122004
1.8684
-0.333277
0.972126
2.5664
2.35662
-0.204329
-2.93631
-0.782809
0.308693
1.99263
1.59067
2.3476
1.04311
-13.4415
2.45961
1.55479
-2.41119
1.31938
1.72349
2.13201
-8.9853
-0.08335
-0.000348491
1.4423
2.69293
0.909052
0.283023
-1.50738
3.00352
-11.2703
-1.49666
2.80508
1.4874
-0.0035821
1.3555
-0.215567
0.95569
-0.63345
-11.4826
-0.0695673
-1.84927
0.0775366
-0.508041
-4.86571
-5.37555
-4.77728
0.176958
-5.36864
-1.97309
1.29184
1.5606
0.941032
-3.51022
0.47022
0.273677
-0.463281
3.14342
1.14047
-1.11542
1.48666
-0.638698
-2.10653
1.41455
1.40525
1.61686
3.17445
0.00528864
-0.29016
-2.12247
0.103113
1.17244
1.67253
-0.636971
2.48651
1.17336
1.78106
-0.177172
-0.207713
0.0673793
1.76052
1.68604
1.82484
1.68231
2.91837
2.87646
-0.661992
1.49459
2.13795
-1.07523
2.34169
-0.0718185
2.8433
2.32024
0.0748612
1.90713
0.841367
1.30733
0.0427412
1.71009
-1.52543
1.47619
0.648473
1.17414
-0.223102
1.61182
-0.0511325
0.453279
2.74973
2.74405
1.1416
-4.57744
0.410358
0.196762
-0.271044
1.37081
2.46683
-4.59087
1.73183
1.62448
0.839568
1.7494
-5.06182
-0.243656
0.00844766
2.95413
0.515523
-0.860895
1.93583
-0.2261
0.0679195
0.862221
0.329949
1.29364
0.738287
-0.797901
1.01982
1.37612
1.13978
1.28499
2.89337
2.3768
2.1095
1.88184
2.69279
0.829029
-0.083895
0.0586265
-1.76972
2.71614
-0.220731
1.67906
1.52489
-3.74961
0.905446
1.85543
-1.64553
0.855292
1.07519
3.21357
-7.10023
0.759946
-0.0278508
1.94115
0.105392
-0.302683
2.67311
2.2914
1.63868
1.64729
-0.720677
0.85794
-5.53633
2.87032
0.0318716
3.08861
-0.0208215
0.269963
-5.32328
0.954345
-4.99951
0.341491
-0.144536
0.620412
-0.261147
0.590547
-0.401318
0.00279955
-0.362711
-4.46803
-0.971158
-2.7852
-0.522759
-0.197561
-0.112266
-10.9398
1.74052
1.77286
2.12294
1.66739
0.697995
0.66757
3.34933
1.63715
-7.12198
0.00568254
-0.157767
1.30319
1.488
2.49168
-1.43843
-1.43629
1.40406
0.00187581
0.436033
2.0983
-4.64963
-4.96202
-5.38604
2.90269
-0.394105
1.17893
2.14574
-0.0759583
1.34942
-0.0382212
-8.38817
-7.14252
0.0258571
1.14206
2.01196
2.10401
-2.947
-4.55353
1.14906
-6.6064
-0.848142
-0.459765
0.371941
-0.596729
-0.218717
-0.511505
-7.20902
-1.98813
2.58072
-0.137191
2.80389
-6.96445
-0.285486
0.65902
0.00836318
2.38905
1.6732
1.97806
-0.270117
-0.644113
-9.18169
2.30381
-4.45893
1.24357
-0.0453651
2.02475
2.37937
-0.0574099
1.65146
2.69808
1.86153
1.80417
-3.23075
-0.0337227
0.719144
-1.34978
-0.143095
1.04794
1.23803
0.106388
-10.8951
0.401355
0.0511633
1.49171
1.27956
-0.905301
2.83381
0.110662
0.00291543
0.220743
1.65435
-0.815331
0.00839276
1.83671
-0.859094
0.0820534
-0.352477
1.79817
1.65997
1.58342
-0.210135
1.58481
1.93355
1.90248
-0.637327
0.0620791
0.399642
1.46106
-1.46249
-4.81207
-1.00122
-2.07511
-0.213428
0.0451191
-0.12932
0.0556497
-4.87558
-1.06046
-9.76267
0.0462377
-0.645025
0.644429
-6.42659
1.78459
3.38351
0.593829
-0.364972
0.773196
0.212453
0.40906
0.0242023
-0.796048
-3.65224
0.160923
2.22312
0.00416499
2.65288
0.0292782
1.57991
1.39906
0.757645
-5.4575
1.02576
2.89973
-0.114862
1.68417
1.62108
2.48083
0.164988
2.28179
1.82436
-5.24352
1.9377
-7.40892
-8.34086
2.33221
1.48918
-2.56728
0.0427199
2.16795
0.272934
-1.35591
0.0543329
0.0535167
1.30906
0.923574
1.68875
1.59594
1.43378
-3.25743
-0.98395
-0.593402
1.65064
3.08804
-0.891926
-10.5558
-5.3467
1.70577
0.138107
0.145704
0.787487
0.121146
1.32148
-0.078237
0.412829
2.54258
0.771919
0.0713706
-0.109102
-0.757319
-1.40133
-5.34623
-1.95148
-5.12675
1.99394
0.920168
-1.09174
2.67379
0.00555597
-8.84836
-0.417111
-8.82237
1.82842
-4.39309
0.578423
1.68874
-0.384523
-0.65325
-0.179523
-7.46427
-0.321865
1.82994
-9.80382
-0.0505492
-5.40656
1.62301
1.79602
-0.438579
2.12237
1.97097
2.55806
2.612
1.88421
0.277182
2.95393
-5.45818
1.65233
0.377001
-6.05581
2.03724
-0.821641
2.54879
0.811358
-1.79383
-3.29357
-3.20775
1.79657
-1.01111
-0.658149
-0.261661
-1.2934
0.0728558
1.05913
0.316288
1.24332
2.89973
-4.64876
-1.85721
-0.950554
1.76791
1.28018
-1.23406
3.34337
-0.074239
0.0500899
1.09736
-1.65414
1.61492
1.73977
1.93609
1.96604
0.0934795
0.932485
1.61079
0.366746
-0.124621
0.0079739
1.8348
1.87703
2.32359
-0.0860826
0.103746
0.92328
1.0397
0.319173
-3.9487
1.40157
-0.315399
1.47279
1.73216
-5.38776
2.64961
-1.47048
2.84458
1.92543
-8.26209
0.00567852
0.0222415
0.665614
1.76963
-5.91743
2.28596
1.59773
0.912486
0.0445209
0.336501
-0.36839
0.914263
-5.2945
1.07175
-0.289372
1.64128
-4.56151
0.0818643
-0.568055
2.06751
2.41033
0.833502
-4.23128
0.839864
-0.219581
0.0950923
0.959615
-0.0862297
-0.0574907
2.80749
-0.83393
-0.0969742
-1.45043
-9.47972
0.0294792
1.72523
-5.36541
-0.485992
1.76218
1.09646
1.79932
-1.77329
0.782232
2.82554
-3.12115
1.62746
0.546437
-0.0425138
0.604243
0.383059
-1.2166
2.88786
1.9294
-0.14264
2.78855
2.18986
2.05097
-6.13982
-4.48987
1.12386
-1.9528
0.0399343
-3.82923
-1.70288
-3.51272
1.33813
0.65977
1.04278
1.14511
-0.0657109
1.30079
1.65683
-12.5641
1.77727
1.06485
1.67491
-0.222294
0.00885036
-0.458059
-5.3381
-1.28496
-0.566825
1.63888
-6.67669
2.57286
-3.65105
1.62334
1.07789
0.0131261
0.340617
1.71888
0.789777
0.419066
1.52073
0.167747
0.0835106
2.43807
1.98371
-1.30967
-4.45234
0.105983
1.49106
0.0393223
0.825598
-2.8553
0.0315152
-0.251947
-0.63729
1.46579
1.4428
0.250724
0.781837
-0.0127538
-0.0404079
-5.47129
2.06862
-0.663522
1.60606
0.0030955
1.45366
1.77872
0.975912
1.56764
0.132878
-0.419114
0.000539744
-5.17003
-0.931554
-1.39512
-0.00169681
0.0129412
1.35352
-0.0634668
1.64486
0.0128409
0.10299
-2.47341
-0.0670728
1.74242
-7.22424
1.6346
0.433592
-3.28967
0.0106738
-0.757957
1.19946
1.76769
-0.0392928
0.315746
-5.21241
1.98801
0.1417
0.534481
-5.26695
2.10198
0.844387
0.0171463
1.78638
1.74906
2.03712
0.264026
2.05998
-3.31399
0.0335336
-0.209646
1.64807
1.0953
0.458431
0.265992
-3.12955
-5.43692
0.944528
0.102701
-6.02263
2.58668
-3.51974
2.01079
1.21767
-0.663863
-0.0925751
-0.0892804
-0.197314
0.21459
0.245504
1.57979
0.00756226
1.68202
-2.55144
0.758522
-0.0507194
0.428102
-3.43998
2.10591
2.83793
1.82636
0.997823
0.4308
1.11619
-6.82061
0.0862043
-0.245934
-0.260581
-1.45709
-8.95254
-3.57267
-1.0471
1.50174
1.67595
-4.11105
0.43387
1.89157
-0.94358
-2.32789
1.80141
-0.0919055
-11.3136
0.0416993
-0.328071
0.00483321
2.64697
-0.257905
1.6299
-1.60856
-1.04577
-0.913952
1.64511
0.455717
1.40377
-1.31234
-1.25172
-0.0709
0.338679
1.93231
1.47755
0.325327
-0.136268
-0.617191
2.95227
-0.0774462
1.90914
2.10315
-0.0786692
-0.122196
0.790967
-5.21733
-1.08978
1.47067
0.989475
1.6172
-1.35005
1.8285
0.226357
2.38111
0.341985
1.48854
2.10935
1.4021
0.340569
-4.1281
0.569593
-7.65583
1.47942
0.784651
2.02818
0.166226
2.54941
0.29174
2.71144
-0.0335081
2.12522
-0.214124
1.26678
-8.99035
1.61223
0.826449
0.72091
2.49013
1.66405
0.43224
-0.973762
0.975405
1.5938
-0.0620188
-5.37536
1.22336
-0.268798
2.17274
-0.476401
2.59492
0.444042
3.38169
2.59729
1.26879
1.13829
-9.75376
0.116178
2.77343
-0.230182
-0.0656749
-0.231557
2.70763
0.849755
1.44714
2.29524
-1.09952
1.81048
-0.472422
2.00777
0.0679611
1.90463
1.69983
2.32786
-0.0902942
-5.37877
0.502925
-0.886163
0.799632
0.361488
-0.997508
2.1369
2.441
0.0256771
0.625843
-0.436832
2.20176
1.38348
1.54852
1.05828
-0.193414
-4.7735
-0.161724
1.71803
-2.54323
-0.00920301
0.0898563
1.20724
0.818372
-0.983223
2.91752
-0.00807554
2.57238
0.569365
2.58671
-0.780983
0.406832
0.0212546
0.0632887
1.41963
1.65317
0.0801938
-0.00866464
-0.0295449
-0.0132359
2.43259
-0.506831
0.0236031
-0.0462185
-0.0167012
0.651218
2.06375
0.84145
0.0189186
0.0314895
1.66529
3.09566
-0.985338
-0.0630737
1.64581
0.090744
0.876825
-0.0589507
1.23794
-0.0103082
-2.93913
-0.438527
-0.300483
-0.286729
-0.436708
-3.72812
-1.42373
0.00949437
1.32092
1.78274
1.46849
3.01288
-12.6781
2.69852
-4.90041
2.56028
-5.83457
-1.242
2.91491
0.711547
-0.574482
1.72397
-0.0868307
1.85199
-0.150834
-5.36434
0.283718
-1.00076
-1.20561
0.00612866
-0.280264
0.692525
2.09867
-5.41422
0.768346
-2.51049
0.455467
-0.0299499
-0.0571565
0.27243
-0.0294796
-2.07566
2.17631
-0.0152757
2.39448
0.662077
-7.1634
0.59025
-1.39074
0.025012
1.45043
2.09591
3.0049
1.28054
1.42552
0.832082
-4.54146
2.90017
3.11117
1.82683
-1.00338
-1.32064
-8.06107
1.55953
1.12972
0.639429
1.36989
-0.139156
-0.0364445
-12.8526
2.48357
0.232364
0.2158
-0.365549
1.63502
0.346934
3.30717
3.10343
1.48758
0.163642
0.480092
-3.85688
0.680766
3.18415
0.187364
0.0261103
1.26237
0.00612381
0.35034
-0.22654
-0.439114
0.361184
0.242181
0.791679
0.0265326
0.553729
2.3426
0.600101
1.77095
-0.463216
-0.540786
2.82153
-3.96634
0.332406
0.508777
0.746882
0.294066
-0.533604
0.429641
0.0216559
0.306849
3.32691
-5.49645
-3.91137
-2.01819
-1.04637
0.167622
0.507921
-0.354902
-3.3508
0.0177785
-3.3106
-1.28722
-1.32343
0.290815
-0.0568796
0.171725
3.25723
0.185567
0.503466
-0.282747
0.360891
-4.49028
-0.584205
2.28455
1.64315
0.515385
-0.0263355
1.57702
1.7774
0.101149
-8.30449
-0.219625
2.27638
-1.01725
1.57085
0.0751453
2.56755
0.172147
-0.576914
0.139209
1.81906
-0.897112
1.49717
-1.11425
3.15993
-0.311839
-0.380894
-11.7626
0.781575
-0.570406
-1.31694
-0.367901
0.18158
0.822013
-1.67221
-0.0596669
-0.180948
0.357593
-1.19764
-1.30848
1.34999
-7.85816
1.46682
-0.44216
1.83949
2.88893
1.59139
-4.62578
1.70942
0.167851
0.35083
-0.209243
-0.603336
-5.61945
-1.59668
-0.656023
0.801812
0.0185381
-1.10418
0.0230769
-8.26966
0.877595
1.70334
-1.70983
-0.666343
-0.557653
0.0213432
-0.0379104
1.01537
-3.18118
-0.769053
1.70096
-0.00180242
1.01383
-1.63858
-10.396
-6.82861
-12.8623
3.23776
0.558125
-1.22749
0.490013
2.71546
2.82813
-0.711158
-0.488459
1.66441
-0.034859
-1.72023
2.79156
0.956305
1.51201
3.30793
-0.463705
0.569579
0.27762
2.50043
1.73312
1.75334
2.09086
1.20453
0.0452765
0.0869511
0.80395
0.412103
-5.37888
2.8679
-0.810854
-0.876743
0.0254276
-1.14285
0.851582
-0.383528
-0.535065
0.427057
1.76322
1.80755
1.93763
-6.4944
2.45643
2.79404
-4.05355
1.06896
-0.215246
-0.144191
0.332094
1.00161
0.0183323
-0.958944
-1.10296
3.09607
-7.52613
1.94926
1.67221
2.23098
1.2955
1.33111
-0.0275496
0.0385187
1.044
-0.122097
-10.4497
-2.3999
0.0895313
-0.239767
2.06344
-1.41462
-0.0135594
0.372109
-4.45511
-0.505565
-5.35035
1.49328
-0.475726
-0.326434
0.80799
-2.61537
0.624334
-4.40435
-0.214247
1.79981
-8.25937
2.84608
0.0223615
3.01589
0.00401623
-0.277808
0.228118
1.47858
1.44878
-3.01174
-0.247982
-0.306052
0.209423
1.20645
3.30605
2.23815
0.598723
-0.965898
0.918967
0.0515577
1.94055
-0.0731921
1.01057
-0.195839
-0.339253
-4.368
0.691341
0.0423029
-4.4449
1.11979
1.08339
2.76782
2.95193
-5.35111
-5.63142
0.0855356
-1.50951
2.8887
0.16085
-0.645528
0.758883
1.23012
-0.27004
0.146835
0.158219
-0.0831201
1.56442
-0.189387
0.570007
-0.112313
-1.15563
-2.78555
-0.423363
-2.793
-2.5904
1.87147
-0.861078
-0.480884
-0.513024
0.127547
3.13791
1.28722
1.57753
-0.54322
0.884489
-0.0642081
0.723909
0.535076
-0.350642
-4.11658
2.88069
1.77238
-0.00361409
-5.01709
3.24442
-0.550209
-5.0127
-0.162809
0.900758
-0.677304
-0.239404
2.49121
-0.0972448
1.56393
0.699734
-0.189148
0.198295
-1.00688
0.851028
-2.95069
0.0384215
0.547812
1.6529
-0.869778
-5.31261
0.168699
-0.72977
-1.74581
-1.60461
3.04925
1.12234
-6.72312
0.857891
0.454037
2.70189
0.980577
-4.64241
1.05546
2.11863
1.84904
-1.02372
1.49415
-0.0220202
2.85756
0.0405068
1.71918
-7.50663
-0.942478
0.0234773
-0.265376
1.05217
0.601005
-5.17486
-0.920527
1.98745
0.0199484
-0.123473
2.33858
1.33943
2.276
1.57248
-1.31104
0.019566
0.076272
1.6758
0.0022575
2.09331
1.34625
2.82938
-0.272485
2.21579
0.909649
2.84429
-0.173007
-1.05881
2.91965
-0.316127
1.32196
-8.05429
2.53203
2.8085
1.81007
-2.57963
1.66941
2.17559
-1.12317
0.757707
-0.518103
2.32329
-0.375395
-0.0433426
-5.66446
-5.78607
2.13537
0.880957
-7.93662
0.901501
2.80776
-0.805981
-0.225949
-5.98644
-1.33185
1.45163
-0.305824
1.60334
1.58127
-7.7885
3.13538
-0.120145
2.38668
2.38613
0.000278235
0.00718211
1.50835
-2.32285
-0.397948
1.50163
1.29025
-0.570036
1.58952
-0.1412
2.45104
1.81866
0.686521
0.143823
1.88643
-0.117333
1.04789
2.23507
0.361987
0.022835
2.16354
1.80639
-1.0384
-4.59693
1.3222
1.89086
2.85271
-5.11321
3.00735
2.92019
3.05075
-0.120284
2.09349
-7.05487
1.67842
2.2666
2.18845
1.87106
2.46969
3.30598
1.46926
-5.20321
0.284813
-3.68604
3.27303
0.930154
-0.0227367
-0.580202
1.58853
2.47224
1.57173
0.611457
-0.228799
2.46126
-3.58433
1.81274
-0.665617
0.793271
-0.0431437
0.618363
1.11403
-4.65292
-4.16752
-0.00391246
-0.698364
-0.103684
2.05118
-0.321049
0.174734
1.57072
-7.50427
1.1028
0.0223044
-6.12475
-7.34725
-5.07505
2.3614
2.52827
-0.460892
0.662888
2.15803
1.96106
0.027976
-2.88044
1.84616
-5.42416
2.31187
-4.99451
2.25028
1.07975
0.269428
2.09548
1.13045
2.20923
0.646369
0.811281
-0.896315
-4.65407
-11.7988
-0.176147
2.16662
-3.97061
-0.377114
-3.58554
2.38804
2.19107
0.632286
1.27228
2.42324
-2.53906
1.60826
-0.16069
-0.981339
1.60023
-0.591652
-7.34403
-1.49658
-5.32275
-0.534645
-7.44316
-0.169747
-9.2391
-4.54039
1.39158
2.87762
3.1352
2.73774
-4.35003
1.83273
-8.28184
1.55734
2.40977
0.277052
2.12577
-3.24173
0.632156
-0.952582
-0.0975277
2.31511
-1.14761
1.91487
-6.75161
-0.409273
-5.32706
1.93246
1.89797
1.67682
-8.56688
1.59087
-0.0673209
-6.97389
-6.17291
0.589572
2.89847
-2.92643
-0.534563
-0.782847
1.61228
1.61124
-0.113947
1.07271
-8.66856
2.4579
2.22489
-0.305273
-0.332789
2.40524
-0.614458
-12.4227
0.0308677
2.19129
2.47099
-6.23625
1.23969
-0.183814
2.8258
-9.3071
-1.23089
-0.115424
2.66228
0.0133601
-0.8698
-0.0259136
2.30361
1.3425
2.28043
-0.166815
-2.73295
1.87403
3.24089
-4.84291
1.5449
-0.0316276
-7.46743
-0.00808724
0.649499
-0.871411
1.21511
-0.142569
1.12167
-0.14608
-1.29298
2.08403
2.50108
1.57823
-2.17117
-1.23465
1.96476
-7.83083
0.682264
-0.971587
0.858727
-11.4163
1.81833
1.96652
-0.0544069
1.8532
2.80085
-0.372531
1.40509
1.90249
-5.63615
1.05455
-0.65547
0.855856
0.681412
1.33506
0.0071938
0.610822
-0.400205
-3.20253
2.35612
0.740926
0.299527
-0.736022
-0.367842
1.73435
-10.0082
3.03939
-7.55086
-5.30673
0.00432035
2.13349
1.91377
2.2563
-3.43048
2.69919
-5.9936
1.36818
0.0612401
-6.59946
1.55733
0.79359
-0.455441
1.174
-4.27385
1.37176
-5.35407
-0.724131
0.0123015
-4.11446
-4.95807
1.52461
2.76212
-1.22775
-7.57735
2.16319
-3.17315
2.51927
0.844483
0.0697341
0.964956
1.68997
0.901426
-0.0660873
0.180997
-0.0154533
0.453845
0.6487
-8.01763
-0.821493
0.0779354
1.05457
-0.173196
3.28259
1.82517
1.67202
2.54784
0.309524
1.87337
-2.87008
-2.86429
-1.1951
1.68583
3.20958
1.56399
-1.16952
2.35681
1.61198
1.63304
-0.342095
-0.0446577
0.914864
3.05571
0.146217
-1.2832
2.22476
2.40603
1.79548
1.65873
2.04079
1.18702
-0.092561
-2.76172
1.8491
-5.10362
-4.52047
1.61913
-1.66646
0.120685
0.629418
1.84137
1.90957
1.93096
-0.114049
2.24923
2.30353
0.378522
2.02841
1.77014
1.40256
1.29364
1.19028
0.884705
-0.120313
2.1326
2.01714
0.0904494
1.55804
-0.135505
0.005728
2.73774
2.09011
0.0126584
-5.68809
0.223661
2.15363
1.23725
0.397785
-0.0453611
0.191149
-0.505273
0.31398
-1.62193
-0.272775
1.28261
-0.293751
-4.16275
-8.78645
2.59653
-0.819177
-4.54424
-2.1901
2.77014
-0.229292
0.433673
0.375133
-6.84972
1.33862
1.57702
1.0961
2.45405
1.34659
0.0441345
-4.21442
-4.73063
0.0272947
1.94548
0.140173
-7.0614
-8.86847
-0.582754
-4.53217
-1.64508
-3.65755
-0.361392
0.65547
1.65314
2.19624
-0.466655
-0.136868
2.46187
1.86031
-5.86263
-0.192311
-3.67434
1.05688
0.0866887
0.941791
1.43597
0.0316259
-0.277845
-0.378105
0.482526
-5.28511
-4.84989
0.0957376
-2.80209
-5.36055
-7.81875
-3.64101
0.127594
-2.99742
0.879841
-6.99558
1.6557
1.49331
0.481116
2.15874
-6.72624
2.78135
-1.06947
0.109828
-1.40896
1.65958
1.03152
-4.54473
-2.69848
1.70993
2.0265
2.8807
-6.67363
-5.44606
-5.08469
-0.322224
0.0066933
-7.90252
0.676389
-5.88583
1.00381
-7.80158
1.3264
0.250845
-0.168901
2.51766
1.49496
-1.1302
-0.0131889
-1.98777
-5.30987
2.17026
3.14099
-5.35329
2.07091
1.56355
0.00348699
-0.0674437
2.10221
2.02035
-3.97282
-0.198738
-1.41309
-6.46001
-1.30791
-7.49307
-1.15769
1.13007
-0.0760709
1.84754
-9.27206
-8.27503
1.57252
-1.1892
-5.8433
0.119397
1.29813
-6.03908
-0.713092
-8.21439
-7.44286
-5.69654
2.92348
-2.83387
-0.270725
-8.4642
1.82188
-5.41982
-0.0851011
-3.40929
-13.2627
-0.93755
1.90458
0.0113621
-7.28519
1.45609
0.0196443
-1.03613
-6.66836
-9.53282
1.22672
1.39737
1.68136
-3.56977
2.51227
-0.72126
0.00489237
-0.0172299
-2.62097
-3.33572
-8.51454
-3.07539
0.415817
0.737946
-0.274732
-0.332579
-1.64957
1.5874
-11.7004
1.75835
-8.21991
1.07926
-0.52047
-0.0208146
0.0463908
3.19972
-0.143721
-6.30042
-3.29559
-1.57879
1.68163
-0.182359
0.0652859
0.0563303
-8.4756
-6.12695
-4.5687
-6.78761
1.85404
-11.6929
0.252649
-8.03812
-0.067409
1.46202
0.0205933
0.799686
-0.649288
2.21321
-5.32044
-1.69484
2.36586
0.704111
-5.32672
-0.346856
-6.78249
-1.55228
-0.452282
2.15681
-0.836738
0.748196
-5.39116
-5.53792
-13.2475
-12.3513
-4.626
1.0485
-0.327022
1.6489
0.671022
-8.10483
-0.584081
-4.52796
2.06546
2.49201
-6.77482
0.150338
1.78384
1.65511
1.35755
-2.34523
-3.85444
-3.68317
1.68988
0.512244
-1.74162
-8.84059
0.997262
1.99241
-0.261557
0.103019
0.105126
2.33674
-1.80875
-1.94858
-0.0132589
1.45253
0.164533
0.0265284
2.52763
2.07711
-0.221966
-3.55741
2.13143
0.860485
-0.091106
1.5797
-0.747311
-3.25832
-4.49836
-3.24056
2.03896
1.81094
-0.241759
-0.992726
-0.0241374
0.0468906
1.84578
-3.88712
1.31171
2.22782
2.38281
-0.433932
1.66687
1.50315
1.88198
1.99138
-0.162773
2.00032
0.00646176
1.67881
0.957142
1.81058
-4.36702
2.10025
2.00953
1.51702
1.12775
-1.46713
1.2134
0.040058
-1.26324
2.28138
2.23377
-2.64435
1.86933
-2.91575
-5.02509
1.82181
1.8092
-3.11202
-0.11669
-5.39297
-3.39615
-1.33137
-0.529918
-3.43685
-0.411434
1.53884
3.01184
2.12946
-0.522612
-0.219114
1.7988
0.91058
-0.0597122
-3.36341
-1.16581
-1.90801
-4.83993
-4.6768
1.60561
-0.0613715
0.861529
0.034988
0.0328094
-0.00384304
0.0366654
0.425746
0.906155
1.16004
-1.01383
0.871063
-2.9956
-10.4212
1.17927
0.948029
-0.181581
0.139676
1.13961
-0.0837973
0.686815
-1.01943
1.65372
1.39566
2.66766
1.67995
-2.33393
-0.420333
-0.992805
-1.03136
-0.0385879
-0.00372241
-0.311393
-2.63626
3.06844
0.112499
0.0678644
2.48551
-0.879539
-0.987531
-0.0564741
-4.52378
-4.08917
0.571525
-1.56651
1.65623
-0.392603
-2.06289
0.0766967
-0.570632
-1.31627
-0.0695734
-0.339577
1.32389
-0.353155
-0.575519
-1.69273
0.685368
-1.65625
1.79958
2.55014
-0.973004
1.83428
0.984085
1.23452
2.80184
-1.27185
1.04457
0.904672
0.799213
2.41201
-0.419813
-0.318687
-0.0808282
1.77225
2.54756
-0.863158
-0.134715
-1.9736
-1.49135
0.892385
-1.65089
-2.67517
-1.15537
0.698008
-5.42135
0.387139
0.574327
1.47752
0.296066
-5.15308
-0.183628
-0.0743599
-0.228096
2.71347
3.0318
2.26711
3.17567
1.50205
0.778056
1.91317
1.66737
1.54429
-1.75036
1.7245
-0.403023
-4.70414
2.4818
-0.416927
-1.58966
2.89772
0.0618667
-7.51235
0.92291
0.800632
2.04089
-4.00819
1.55984
2.66506
-0.988478
-4.99677
-2.17468
1.19828
-7.63267
2.17078
-0.165493
2.04767
1.67243
-0.626174
1.96787
-0.898032
-4.82254
-5.12776
-1.96768
2.04258
-1.63979
1.72893
-0.0982028
-7.74309
-0.210735
-0.0430022
-1.53916
-1.38574
-4.29726
2.06962
0.369184
-5.5053
-0.649885
1.1059
0.458762
-3.47997
0.843528
-0.159398
0.867332
-5.69096
1.00635
0.476161
1.07911