/*--------------------------------*- C++ -*----------------------------------*\
| =========                 |                                                 |
| \\      /  F ield         | OpenFOAM: The Open Source CFD Toolbox           |
|  \\    /   O peration     | Version:  2306                                  |
|   \\  /    A nd           | Website:  www.openfoam.com                      |
|    \\/     M anipulation  |                                                 |
\*---------------------------------------------------------------------------*/
FoamFile
{
    version     2.0;
    format      ascii;
    arch        "LSB;label=32;scalar=64";
    class       volVectorField;
    location    "5.3";
    object      U;
}
// * * * * * * * * * * * * * * * * * * * * * * * * * * * * * * * * * * * * * //

dimensions      [0 1 -1 0 0 0 0];

internalField   nonuniform List<vector> 
13486
(
(1.38554 -0.176614 6.12413e-19)
(1.65829 0.308302 2.86184e-19)
(2.46482 0.0285991 0)
(0.346873 -0.233072 -6.01133e-20)
(2.27715 -0.541894 2.10542e-19)
(2.46184 0.128919 2.18898e-20)
(2.49803 -0.466096 4.67267e-21)
(1.93873 -0.715641 -3.30301e-19)
(1.89153 -0.380641 0)
(2.02955 0.771469 0)
(-1.15937 0.617146 -2.13132e-18)
(2.55283 -0.0672563 0)
(1.24572 -0.398405 -6.06319e-19)
(2.51123 0.739484 3.8954e-20)
(2.39632 -0.38997 1.11798e-19)
(1.98511 0.762808 -1.68261e-19)
(0.445841 -0.237845 8.53827e-19)
(1.31322 -0.422788 5.05714e-20)
(2.25158 -0.00947624 3.01562e-21)
(1.59151 -0.0245697 -6.18727e-19)
(0.652177 -0.532077 -2.10944e-20)
(1.26569 -0.413284 7.8206e-19)
(1.68131 0.306058 -2.28766e-19)
(2.79976 -0.986862 0)
(2.07126 0.60775 5.51835e-20)
(2.73948 -0.913618 -1.6841e-19)
(-1.74158 1.3692 1.24962e-18)
(2.58767 -0.144535 4.34727e-19)
(2.04198 0.0372961 0)
(2.35475 -0.371746 -2.52826e-19)
(0.83629 -0.662653 -1.31958e-20)
(2.48508 -0.275948 -1.4074e-19)
(3.01775 -0.302492 4.09106e-19)
(2.0689 -0.0808337 0)
(1.94861 -0.690102 0)
(1.8252 0.00776576 -2.79426e-21)
(1.91543 0.132557 6.65492e-21)
(1.43639 -0.67999 3.13066e-19)
(1.70955 0.00707324 -8.16632e-21)
(1.92831 -0.21922 3.13758e-19)
(2.3015 -0.796851 0)
(0.835202 -0.414435 -7.02697e-19)
(2.01078 0.00377474 0)
(2.0813 0.517936 -2.66619e-19)
(2.10191 0.515417 1.09814e-19)
(2.54928 -0.0665516 9.15032e-20)
(-0.0589923 1.98002 1.43815e-18)
(2.03545 0.0385369 -8.22165e-22)
(1.919 0.126186 -4.97739e-21)
(2.67957 -0.0304744 2.03606e-19)
(1.99967 0.0337653 3.50569e-19)
(1.79043 0.0120041 0)
(2.61153 -0.161988 -1.2168e-19)
(1.59323 -0.589969 -4.56989e-19)
(1.33212 -0.489659 0)
(2.24803 -0.546875 -1.40129e-19)
(2.11305 0.174261 -1.17265e-20)
(1.78356 0.00481827 -3.63102e-20)
(2.99107 -0.287384 4.71289e-19)
(1.92132 0.215159 0)
(-0.915853 -0.261324 -2.33784e-18)
(1.92814 0.21142 0)
(3.68777 0.34608 -5.04779e-19)
(0.690261 -0.543702 -2.08516e-22)
(1.6549 -1.29862 0)
(1.92038 0.147299 3.80591e-21)
(0.250099 -0.227677 -7.69393e-20)
(1.39111 0.0887645 2.05833e-19)
(1.89138 -0.405015 -1.81437e-19)
(1.81112 0.0091061 3.60693e-21)
(0.190817 -0.155089 8.82687e-20)
(1.33793 -0.466198 1.42618e-21)
(1.95837 -0.093403 2.31205e-19)
(-1.02295 -0.481937 -6.99046e-19)
(1.94464 0.16762 1.11173e-21)
(2.1195 0.169556 2.76083e-21)
(1.94979 0.158242 -4.0694e-21)
(2.39783 -0.409853 -4.56982e-20)
(0.0420757 2.39338 -9.58156e-19)
(1.7173 -0.360584 0)
(2.01971 0.00726086 2.12048e-21)
(1.59816 0.411328 -1.81589e-20)
(3.96736 0.32381 4.33368e-20)
(2.56084 0.0732276 -9.07791e-21)
(1.3788 -0.192743 -1.19888e-18)
(1.34843 1.76334 0)
(1.48806 -0.526296 -6.64548e-20)
(2.00082 0.0507849 -5.25775e-19)
(1.86318 0.232661 -2.32054e-19)
(1.88368 1.05383 -1.75606e-19)
(2.54757 -0.262486 -7.86735e-20)
(2.06711 -0.618508 -1.73845e-19)
(1.45229 -0.290924 1.58436e-19)
(1.62575 0.106052 1.60483e-20)
(1.79736 -0.570538 7.36877e-20)
(2.02703 0.0329182 2.38116e-22)
(-2.16841 1.59498 0)
(0.0470938 -0.430651 6.99262e-20)
(1.94465 -0.219615 -5.9881e-19)
(0.28387 0.0435836 -4.23776e-21)
(2.00188 0.0156188 0)
(2.4725 0.738143 1.08049e-20)
(0.0348664 -0.492841 1.13664e-20)
(1.785 0.0102839 4.22709e-20)
(1.32191 1.71465 0)
(-0.101191 0.596258 -6.17713e-21)
(1.96603 0.0715315 7.39329e-22)
(1.69157 -0.0174136 -1.9106e-20)
(-0.0405705 2.41799 1.09946e-18)
(1.69996 -0.775397 0)
(1.20108 -0.579664 0)
(2.5204 -0.343868 -1.26144e-19)
(1.60243 -0.571425 3.28648e-21)
(2.12571 0.0999062 9.6346e-22)
(1.0275 -0.00626126 0)
(1.15124 -0.572236 -2.77041e-19)
(2.06986 0.623731 0)
(2.15835 -0.0658875 0)
(1.94749 -0.0950253 0)
(1.93338 0.100305 3.51808e-21)
(1.3368 -0.41221 -1.96424e-20)
(-1.14191 -0.0704467 0)
(1.76906 -0.511066 0)
(1.70504 -0.0020179 2.68404e-20)
(1.84022 -0.664929 0)
(1.79202 0.0200505 0)
(2.16981 -0.277553 6.94105e-21)
(2.20267 0.0701654 9.37601e-20)
(1.90415 -0.0304784 -3.72455e-20)
(1.72722 -1.09227 -8.10207e-20)
(1.79154 0.0228253 -3.98581e-21)
(-0.117869 1.84838 -3.54816e-19)
(0.607289 0.0757653 1.19878e-18)
(-0.46915 0.215629 9.08871e-19)
(1.99947 0.017136 -5.75807e-20)
(1.90934 0.436935 -2.57946e-19)
(0.589577 0.808649 -1.65763e-19)
(1.72664 -0.774332 0)
(1.93568 0.0943429 -1.13405e-21)
(1.96749 -0.578439 -1.17596e-19)
(2.89196 -0.0950374 -4.25904e-19)
(2.60295 -0.17613 1.01865e-19)
(2.50306 -0.20736 0)
(1.72222 -0.346861 0)
(2.09739 0.00090215 3.88174e-21)
(4.37657 -0.295914 -1.20403e-18)
(2.58346 -0.212546 3.2618e-20)
(0.226356 1.82116 0)
(2.7021 -0.0352284 0)
(2.04098 0.0340528 0)
(2.01162 0.024358 5.15742e-21)
(2.39075 -0.472978 0)
(2.02531 -0.00298858 -2.22597e-21)
(1.57444 0.410508 -1.54109e-19)
(2.20962 0.316351 0)
(2.51125 0.0605833 0)
(1.50396 -0.690048 0)
(0.165395 -0.151414 -2.43175e-20)
(1.69684 -0.691928 6.54783e-19)
(2.04974 0.528084 6.26046e-22)
(2.57013 -0.0113917 1.21636e-19)
(1.70304 -0.670767 -9.94577e-19)
(2.36808 -0.243513 4.77469e-20)
(0.740891 -0.353381 3.08797e-19)
(1.7903 0.0071489 0)
(2.61996 0.700347 -9.19336e-20)
(2.41301 0.677918 -1.55697e-20)
(0.377873 -0.0863531 -7.32388e-19)
(2.62549 -0.180503 -9.96108e-20)
(-0.462183 0.182655 2.4294e-19)
(0.165795 -0.081221 8.15396e-23)
(2.20312 0.291081 8.10718e-20)
(1.99793 0.0968276 -4.21283e-19)
(2.3169 -0.227294 1.05586e-20)
(2.01118 0.0166765 4.73221e-22)
(-0.165449 -1.8754 0)
(2.50317 1.06572 1.17812e-19)
(3.03315 -0.0908397 5.9295e-19)
(1.97459 0.0642227 -5.77899e-19)
(2.50198 -0.192648 0)
(1.97175 -0.281007 6.36356e-19)
(2.12106 0.0921854 1.92183e-21)
(2.39488 -0.213394 -4.82562e-21)
(-2.22779 1.00991 0)
(2.62548 0.114047 1.67798e-20)
(2.46885 -0.136635 -1.98015e-19)
(2.0631 0.0347771 -3.20016e-22)
(2.35271 -0.231492 -7.89333e-20)
(2.35292 -0.787514 0)
(1.03109 -0.499762 -3.54842e-19)
(1.93048 0.11686 0)
(2.25172 0.0271197 0)
(1.7717 -0.0258104 0)
(1.27994 0.891632 -3.15507e-19)
(1.79025 -0.0628436 0)
(-1.35199 1.01759 -5.54735e-19)
(1.67262 -1.16381 1.91341e-19)
(2.45972 -0.0194041 6.8022e-20)
(1.05299 -0.521696 -1.35333e-19)
(2.58936 0.665362 -4.22822e-20)
(0.828004 -0.700472 1.55156e-20)
(2.21373 0.0862732 -2.75744e-21)
(1.31264 -0.638246 -3.61766e-19)
(1.57658 -0.693488 6.35273e-20)
(2.04335 0.490483 -7.39696e-22)
(1.80211 -0.0584774 -3.70452e-20)
(1.20608 -0.478098 1.64169e-20)
(1.87759 -0.0357025 4.70452e-19)
(1.76501 -0.0264724 0)
(2.60533 0.118012 0)
(2.53684 -0.133667 2.88357e-19)
(2.34831 -1.04944 2.44197e-19)
(1.60926 -0.00789991 5.66267e-19)
(1.96036 0.0679312 9.94741e-22)
(2.4623 0.174938 -2.52184e-20)
(1.90929 -0.486024 2.48098e-20)
(2.40443 -0.337839 0)
(1.87908 1.03828 4.61929e-19)
(1.53573 -0.316462 0)
(3.22828 0.608562 0)
(0.449205 -0.19319 -1.6386e-18)
(2.73365 -0.0140603 0)
(1.95044 -0.572684 2.73793e-19)
(2.56681 0.00561273 0)
(2.67045 -0.170066 -1.73017e-20)
(1.22223 -0.576425 2.1902e-19)
(2.60096 0.30277 -6.44657e-21)
(0.653174 -1.08069 2.50915e-20)
(1.89635 -0.317812 3.5008e-21)
(1.3804 -0.484191 5.64927e-21)
(1.98186 -0.274459 -2.04285e-19)
(1.12295 -0.228144 1.3077e-20)
(2.91784 -0.1449 5.34529e-19)
(0.857937 -0.415266 2.40272e-19)
(0.351152 -0.684124 0)
(1.02612 -0.500868 2.59539e-20)
(2.25594 -0.16915 1.3063e-19)
(2.26416 0.0125547 -6.7787e-21)
(0.893075 -0.432922 7.01775e-19)
(2.3871 -0.133664 0)
(3.01185 -0.365743 0)
(2.00556 0.0673573 6.42666e-19)
(2.15049 0.0770805 0)
(0.899236 -0.447958 2.34836e-19)
(1.61742 0.0306005 -1.66261e-20)
(1.78947 0.0937933 0)
(2.30383 -0.0212322 -4.47289e-20)
(2.53386 -0.663104 4.9417e-19)
(0.00391585 -0.436799 1.49393e-18)
(2.04493 0.499202 0)
(-1.00426 -0.440495 -9.07355e-20)
(0.989566 0.0253007 8.76434e-20)
(0.96392 -0.474496 3.51251e-19)
(1.69277 -0.0301541 0)
(1.80945 -0.297154 2.77546e-20)
(-0.340892 -1.97696 1.12271e-19)
(2.48834 -0.274664 1.13386e-19)
(1.88445 -0.493666 -3.13853e-20)
(0.0961479 -0.12012 2.54895e-20)
(2.97479 -0.356896 3.15474e-19)
(1.76617 0.248449 0)
(1.6274 0.0502766 2.69678e-22)
(2.40072 -0.398403 -2.62237e-19)
(-0.260318 -1.84072 -1.4099e-19)
(2.17275 -0.729412 -2.1848e-19)
(-2.20934 0.986605 0)
(1.9092 -0.309553 -6.55684e-20)
(0.74524 -0.68636 -2.2448e-20)
(2.0831 -0.00478421 -2.66955e-19)
(1.48178 -0.369261 0)
(1.54497 0.96585 2.19663e-19)
(1.9713 0.0767279 -1.56207e-19)
(2.42299 -0.354173 0)
(2.59758 -0.0963828 7.01271e-20)
(1.14862 -0.554135 2.90321e-19)
(2.49693 -0.623465 -2.75265e-19)
(1.81416 -0.275037 0)
(1.44123 -0.680645 0)
(1.68689 -0.0670069 -2.24616e-20)
(2.54859 -0.197506 -4.76374e-20)
(1.45562 -0.712854 4.93508e-20)
(2.09785 -0.197921 -2.31013e-19)
(1.93503 0.0986341 3.41148e-19)
(3.55314 -1.24215 -5.46931e-19)
(-1.71338 0.202621 2.51942e-18)
(-1.26517 1.62978 1.80929e-18)
(2.90678 -0.0416657 4.61175e-19)
(1.85032 -0.0437252 4.88472e-20)
(2.72889 -0.158923 2.26159e-20)
(2.07238 0.000918732 0)
(0.400073 -0.644422 0)
(1.7464 0.275212 2.36237e-21)
(1.18649 -0.575177 2.70711e-19)
(1.99754 0.0250798 -5.67e-20)
(2.25184 -0.161404 1.20924e-19)
(2.30329 -0.203331 0)
(2.01145 -0.0377534 -1.56781e-19)
(2.61297 -0.0668986 -5.13574e-20)
(1.92095 0.0783918 -3.13584e-19)
(2.47514 -0.582653 8.64463e-20)
(1.98143 -0.205449 -5.81264e-20)
(1.22685 -0.474857 2.4438e-21)
(2.59983 -0.157034 4.10142e-20)
(2.47055 -0.280781 1.33521e-19)
(1.91184 0.0952229 -4.88932e-22)
(1.28741 -0.592621 0)
(0.38135 -0.0941185 0)
(2.27836 -0.0373555 9.17609e-20)
(1.43832 -0.422905 5.00764e-20)
(1.9267 0.124107 0)
(2.13023 1.40141 -1.65047e-18)
(0.299605 -0.18724 0)
(2.39641 1.05824 -2.17541e-20)
(2.52496 -0.339093 -1.27026e-19)
(3.10282 -1.35778 0)
(1.89649 0.429857 -1.5798e-19)
(1.76181 0.30487 -2.97086e-21)
(1.8634 0.21915 -1.98684e-20)
(1.87788 -0.0294536 -5.17011e-19)
(1.95433 -0.325064 0)
(1.92508 0.141351 -7.04583e-21)
(1.73114 0.200216 5.90413e-23)
(1.98399 0.0625122 7.2969e-20)
(1.60168 0.148156 -2.99806e-19)
(0.698702 0.78193 3.09726e-19)
(2.53486 -0.261316 1.48172e-19)
(2.20554 -0.390177 -6.559e-19)
(2.11068 -0.197797 0)
(2.67804 -0.0114443 3.19605e-21)
(2.23982 -0.401321 -1.20556e-19)
(2.00099 0.0358382 7.6253e-19)
(2.09197 -0.622492 0)
(2.52405 -0.275984 -3.42327e-20)
(1.43133 0.407731 0)
(2.49769 -0.477194 -2.10231e-19)
(1.86667 -0.535206 -2.01652e-19)
(0.652468 -0.30341 2.85278e-19)
(2.3697 -0.487686 -1.81154e-19)
(2.02465 0.202407 0)
(1.60381 0.0740077 -2.3156e-20)
(1.93356 -0.323352 7.12528e-20)
(1.61316 0.158523 2.831e-19)
(2.25495 -0.409128 4.69079e-19)
(2.38792 -0.218255 2.15331e-19)
(-2.36149 0.488306 -1.00028e-18)
(2.03558 0.0358681 1.47157e-22)
(2.21706 -0.21197 0)
(0.97969 -0.330532 6.89698e-19)
(3.23186 0.582238 0)
(1.71679 0.272165 4.38207e-22)
(2.24411 -0.11705 3.8156e-19)
(2.65721 -0.0489682 -4.28556e-20)
(2.61112 -0.0911752 5.07141e-20)
(-2.3407 1.60897 -1.48795e-18)
(1.92873 0.0786658 3.91778e-19)
(2.00669 0.0103942 0)
(-0.818439 -0.274201 -6.49242e-19)
(2.18112 -0.283387 -1.36432e-19)
(1.38768 -0.370989 -2.50541e-20)
(2.33865 -0.964298 2.22272e-19)
(2.48789 -0.0146704 0)
(2.60755 -0.264384 9.32626e-20)
(1.78755 0.174163 6.02638e-19)
(1.96461 0.0839836 4.74885e-19)
(2.37577 -0.382625 0)
(2.02735 -0.00577165 -5.6344e-22)
(2.29665 -0.193351 -1.22693e-19)
(-0.248244 1.24888 2.08558e-19)
(1.57722 -0.0266059 7.86992e-20)
(2.17885 -0.243538 1.29694e-19)
(2.04373 0.0146359 -2.15423e-21)
(2.20829 -0.199747 0)
(2.66488 -0.163423 -5.10604e-20)
(-1.28234 -0.421499 1.42242e-19)
(2.46088 0.377987 3.75392e-20)
(1.9974 0.0326549 2.96341e-19)
(1.37401 0.0293113 0)
(1.65638 0.191315 -1.67458e-20)
(3.36357 -1.4084 0)
(3.53498 1.0298 -3.46861e-19)
(2.07977 -0.0233305 0)
(2.08047 -0.705312 -6.08668e-21)
(1.29324 -0.069724 -1.68243e-19)
(1.53168 0.891796 5.33647e-19)
(-0.142567 1.29549 -6.98029e-19)
(1.84236 -0.270179 0)
(2.37521 0.0584679 -3.96922e-20)
(2.03263 0.209375 -1.64211e-19)
(0.825649 -0.241869 -5.40057e-19)
(0.876142 -0.545453 6.61932e-22)
(1.63519 -0.0206554 -8.54782e-19)
(2.48788 -0.323198 1.33086e-19)
(2.10237 0.19917 1.10864e-19)
(1.43402 -0.437062 0)
(1.3552 0.342837 3.20535e-19)
(1.94988 0.0927707 4.21074e-21)
(0.290164 -0.209812 3.58755e-20)
(-1.24001 -0.268316 -4.40786e-19)
(0.676572 -0.221519 -1.04058e-18)
(2.92322 -0.0488038 0)
(0.865991 -0.221071 0)
(2.07077 1.21161 0)
(2.07373 -0.0784456 0)
(0.633756 -0.161856 -1.79139e-20)
(2.48749 -0.448216 0)
(1.6921 -0.391071 0)
(1.64389 0.122272 1.16727e-19)
(3.00983 -0.0833895 -6.14247e-19)
(2.18443 -0.187943 -3.1227e-19)
(1.6996 0.353046 9.70424e-19)
(2.00574 0.0239432 -8.47542e-20)
(2.4658 1.75832 0)
(2.57768 -0.28092 0)
(1.92042 0.0798123 3.34589e-19)
(2.01979 0.0514758 5.92788e-20)
(1.2939 0.949456 0)
(-2.05363 0.875953 8.51812e-19)
(2.15638 -0.742168 2.45882e-19)
(-0.471832 -0.620865 0)
(2.37828 -0.136424 2.10888e-19)
(1.97271 0.065832 -3.86893e-19)
(0.6075 -0.18936 -4.02583e-20)
(0.973859 -0.31348 0)
(2.0156 0.21494 3.10351e-19)
(2.60956 0.138551 0)
(2.32957 -0.226771 0)
(2.22822 0.193187 -1.25523e-20)
(1.92805 0.101083 1.78536e-19)
(-1.83549 1.38673 -1.63142e-18)
(2.36595 0.672478 1.16119e-20)
(1.31261 -0.318176 -3.00378e-19)
(2.07556 -0.0671988 3.9778e-20)
(2.10699 0.191762 8.57229e-20)
(2.74543 -0.150272 1.1866e-19)
(2.24412 -0.729111 0)
(2.64596 -0.591107 2.6739e-19)
(1.30062 -0.00388708 0)
(1.71067 0.245895 4.23678e-21)
(2.29647 -0.232432 0)
(1.41697 0.0982929 4.35009e-19)
(-0.24815 0.851222 -1.43027e-18)
(2.45389 -0.310872 0)
(-0.172086 0.306056 4.19955e-20)
(2.57276 -0.31065 -3.07601e-19)
(0.879033 -0.0338359 -2.2717e-19)
(1.74942 -0.240424 8.22965e-19)
(1.41958 0.878796 -3.36744e-19)
(1.30405 -0.305683 -8.52984e-19)
(3.61799 0.994893 0)
(1.92517 0.100808 -2.77789e-21)
(-2.32569 0.352793 -2.58282e-18)
(2.02071 0.223975 0)
(1.84491 0.247607 2.16328e-20)
(2.72962 -0.0466634 -4.27209e-20)
(2.83246 1.07892 0)
(2.00342 0.0207353 0)
(-0.889044 0.236573 0)
(-0.0250386 -1.94503 3.90672e-19)
(3.54723 -1.49694 6.61573e-19)
(3.99906 -0.431838 8.2355e-20)
(2.35689 1.01657 0)
(1.69203 -0.136222 5.56665e-19)
(2.00829 0.0162303 -1.29573e-21)
(2.35764 0.61238 -1.40373e-20)
(0.607024 -0.434869 3.79879e-20)
(1.91036 0.178392 0)
(2.03694 0.0366863 0)
(0.697152 -0.0701205 -4.64979e-19)
(1.40702 -0.427969 -2.1058e-19)
(1.93173 -0.157286 0)
(1.23567 -0.601667 -2.67458e-19)
(2.04144 0.0146029 2.3369e-21)
(2.02766 0.0284886 -4.34352e-22)
(0.737398 -0.339416 0)
(1.87417 -0.0322332 4.67744e-20)
(1.93946 0.0899805 -3.33248e-21)
(2.60229 0.122143 1.33328e-19)
(1.85207 -0.55408 0)
(-1.31978 1.80122 -2.79361e-18)
(2.62309 -0.0685186 5.60081e-20)
(2.00315 0.0974466 6.68405e-20)
(1.96447 0.0249546 -1.37107e-21)
(2.68029 0.669668 0)
(1.6737 0.34664 -2.58493e-19)
(3.14201 0.367877 -2.52022e-19)
(0.5421 -0.257485 2.2435e-19)
(2.00982 0.0550596 0)
(0.852751 -0.561997 -6.74709e-22)
(0.424158 -0.0509117 0)
(2.00737 0.0544719 -2.56832e-19)
(1.98925 0.0775075 1.16434e-19)
(1.86702 0.062581 -6.54779e-20)
(-0.333135 -1.80591 0)
(2.29053 0.0383824 -1.85368e-20)
(1.072 0.516641 8.73911e-19)
(2.21719 -0.723587 0)
(1.61021 0.108477 3.64794e-19)
(2.45116 -0.59019 -9.8448e-20)
(2.19276 -0.0167367 0)
(0.718506 -0.727839 1.39011e-20)
(1.71517 -0.328091 -5.21994e-20)
(2.05443 0.00350928 0)
(-0.662653 1.55285 1.62978e-18)
(1.83402 0.233995 0)
(1.65213 -0.76073 2.68125e-19)
(-0.998533 -0.562567 2.45504e-19)
(2.06363 0.0435472 3.46816e-22)
(2.48167 0.138553 -6.37412e-20)
(1.34428 0.326307 1.70268e-19)
(1.74218 -0.269437 -3.03572e-19)
(1.844 -0.247917 -2.95303e-20)
(1.69721 -0.772187 2.63424e-21)
(2.15924 -0.245993 1.25598e-19)
(2.67239 0.679378 1.9042e-19)
(1.76276 -0.78925 0)
(1.99657 0.0288628 -2.62764e-19)
(-0.320367 -0.441042 -6.21959e-19)
(1.32357 -0.0141223 0)
(1.97121 0.112342 2.21187e-21)
(1.7685 0.00541793 0)
(1.19499 -0.332745 7.3613e-19)
(2.04863 -0.766247 0)
(1.90501 0.00573095 2.48654e-21)
(2.25564 -0.110681 -2.17253e-19)
(0.720438 -0.824057 2.85465e-20)
(-0.63318 0.088936 2.38712e-19)
(2.3948 -0.015723 -1.83719e-21)
(1.25974 -0.598194 2.47199e-19)
(1.75505 -0.504661 2.94243e-19)
(1.44835 -0.300113 0)
(-2.3853 1.19219 -7.96002e-19)
(2.26495 -0.675429 -5.09873e-20)
(-2.61097 1.39255 -9.87723e-19)
(2.03099 0.033891 1.74982e-22)
(1.42338 -0.552629 0)
(2.23163 -0.0205202 -1.16584e-21)
(-2.09378 0.872856 0)
(-0.0367952 -0.564115 1.09521e-20)
(0.771656 -0.246902 5.16786e-20)
(0.0327646 -0.0886554 0)
(2.02754 -0.540226 8.75067e-20)
(1.61337 -1.24037 0)
(2.8396 0.983497 0)
(1.42024 -0.675451 -3.53536e-19)
(1.45992 0.376537 2.59547e-19)
(1.64163 -0.425572 0)
(1.80133 0.198443 -1.64582e-19)
(4.15357 -0.205305 1.36473e-18)
(-1.50275 -0.393201 8.4624e-19)
(2.86713 1.38685 0)
(2.18045 -0.0450194 0)
(-2.39194 0.491328 -1.25514e-18)
(1.85979 -0.0869286 0)
(2.61491 0.0639459 0)
(-0.690233 -0.641822 -8.4106e-20)
(2.03145 -0.393838 -4.15881e-19)
(1.71757 -0.406306 2.53392e-19)
(2.96038 -0.448947 4.50956e-20)
(-2.48123 1.20394 1.66561e-18)
(1.98952 0.0647978 1.33438e-19)
(1.48602 -0.332002 0)
(2.20498 0.480581 -3.92086e-20)
(1.37087 -0.156494 0)
(2.32697 0.0398584 0)
(2.00108 0.120263 0)
(2.22249 0.176137 -1.03264e-20)
(1.8615 -0.0245255 2.40424e-19)
(2.13624 0.0481499 -5.95509e-21)
(1.52921 -0.33762 0)
(-1.97274 1.32056 -1.17425e-18)
(2.10122 1.15563 4.24449e-20)
(1.83742 -0.679046 2.82401e-20)
(1.9574 -0.065557 -7.80118e-20)
(2.45792 -0.611863 4.35206e-19)
(2.03716 0.0658061 -2.2346e-19)
(-0.119174 0.599698 0)
(2.60656 -0.075865 0)
(1.43704 0.896363 0)
(1.18429 -0.535845 -5.29426e-19)
(1.12162 -0.983542 -5.40404e-20)
(0.22757 -0.0713078 0)
(2.22835 0.48997 0)
(2.6657 -0.192464 7.03571e-20)
(1.94615 -0.0270462 -6.27423e-20)
(1.92691 0.645002 2.54879e-19)
(1.56683 -0.682464 0)
(-2.54754 1.67146 -5.78807e-19)
(2.41275 0.0624017 1.58961e-21)
(1.37388 -0.389988 -5.0306e-19)
(2.26334 0.0564827 -5.15574e-20)
(2.34946 0.617624 5.4404e-20)
(2.43035 -1.60886 2.58179e-19)
(1.18265 -0.539037 9.24861e-19)
(1.85307 -0.710986 1.15593e-19)
(2.13063 0.0933912 2.25406e-21)
(1.99952 0.0153757 -6.7027e-20)
(1.11731 -0.52457 -8.50761e-20)
(1.71674 -0.312633 2.29753e-20)
(1.68632 2.21813 4.30652e-20)
(1.25502 -0.6018 1.36842e-19)
(2.67965 0.0257222 0)
(1.67459 -0.727803 2.35129e-20)
(2.21166 -0.0430334 -2.11678e-19)
(3.0002 0.658827 1.39936e-19)
(1.34233 -0.352808 -4.58338e-19)
(1.8231 -0.651697 -3.05861e-19)
(1.95377 -0.0120775 6.09978e-19)
(2.38476 -0.0584398 -3.48232e-19)
(1.58903 -0.234855 -1.25809e-20)
(2.9144 -0.0209434 -2.38208e-19)
(1.11566 -0.119863 -9.94738e-19)
(2.13148 -0.0268287 -1.58992e-19)
(1.09748 -0.189172 0)
(0.668628 -1.00517 -1.02852e-19)
(1.92708 0.0134023 5.54389e-19)
(1.68855 -0.00772606 -1.60279e-21)
(-1.10118 -0.656285 0)
(1.47767 -0.681041 0)
(2.05209 0.458901 2.21997e-19)
(0.975617 -0.11072 6.17005e-19)
(1.57989 -1.72143 -2.99666e-19)
(2.10273 -0.701646 -1.54026e-19)
(2.22044 -0.405113 3.57999e-19)
(3.28756 0.552147 0)
(2.06727 0.50213 1.17729e-19)
(1.25348 -0.436396 -2.81956e-21)
(2.56068 1.0563 1.38374e-19)
(1.95547 -0.252512 -3.61269e-19)
(-2.45361 1.20485 -2.6441e-18)
(2.4303 -0.577914 -4.21526e-19)
(2.65066 -0.633007 1.47875e-19)
(2.33392 1.24601 0)
(2.0569 -0.312899 -5.2372e-20)
(1.87597 0.0598197 6.0184e-20)
(2.0149 0.0112602 1.29524e-21)
(0.771242 -0.372891 8.46953e-19)
(1.93489 -0.247759 5.40968e-19)
(1.97758 0.461477 -5.00654e-22)
(-1.48951 -0.229768 -4.6353e-19)
(2.25752 -0.124166 -1.43241e-19)
(2.27134 -0.0273305 1.41331e-19)
(-1.76201 0.263963 -3.21371e-19)
(2.46125 1.02075 -1.30242e-19)
(-0.381912 1.00265 -1.76368e-18)
(0.924434 -0.452765 -2.81726e-19)
(2.02289 0.00488368 0)
(2.12424 0.155865 -1.06922e-20)
(-1.09304 -1.36011 -6.3879e-19)
(1.28645 -0.101415 9.06001e-19)
(2.07855 0.029307 0)
(2.02979 -0.213971 5.2539e-20)
(1.14627 -0.474833 2.09445e-19)
(1.99386 0.0490503 -5.70477e-19)
(-1.89931 0.485296 -6.74005e-19)
(1.64437 -0.419652 -1.34827e-20)
(2.19253 -0.200964 2.12545e-19)
(2.34363 0.05844 5.37827e-20)
(1.66913 -0.768224 -3.72641e-19)
(2.15505 0.0764714 8.20075e-21)
(1.12389 -1.1171 -1.79529e-19)
(2.12119 -0.0413645 1.98564e-19)
(2.07013 -0.0549418 -1.71808e-19)
(2.16436 0.0938392 -6.80615e-21)
(2.1206 -0.0289176 -3.76977e-19)
(1.08501 -0.482596 -4.04551e-19)
(2.13839 0.0881077 0)
(0.0625548 -1.4556 1.62144e-19)
(2.10971 0.07299 4.30674e-20)
(0.670369 -0.130649 -5.55124e-20)
(2.42505 0.0272217 -4.43358e-20)
(2.16462 -0.417754 -2.19639e-19)
(1.99986 0.0203493 -4.39503e-19)
(2.11708 0.328146 6.48242e-20)
(-1.90901 0.708876 -8.79436e-19)
(2.60297 0.0706503 0)
(1.6641 0.162157 8.48449e-21)
(2.66805 -0.0476547 4.38614e-20)
(1.43266 -0.537732 0)
(2.15727 0.0730037 1.12568e-19)
(2.68631 -0.000106561 4.20363e-20)
(2.55785 0.0734328 4.60773e-24)
(2.33103 -0.786918 -2.57769e-20)
(1.82111 -0.0645195 0)
(1.78025 0.385016 4.66125e-19)
(2.06697 0.363938 8.81553e-21)
(1.22898 -0.595685 2.98505e-19)
(2.0038 -0.161942 0)
(1.45611 0.333753 -7.51731e-19)
(1.37178 -0.375195 -2.36233e-20)
(2.61599 1.52729 -3.49061e-19)
(1.12598 -0.146251 9.67197e-19)
(2.08933 0.0111703 9.19154e-21)
(-0.832183 0.147011 2.32078e-19)
(1.92922 -0.0753484 -3.75024e-19)
(2.69965 -0.512245 -3.87908e-19)
(1.77756 0.168605 -3.481e-19)
(1.98814 0.00472624 0)
(1.99932 0.0362415 -2.53456e-19)
(0.110279 -0.10782 8.56586e-20)
(-0.676678 0.0181821 0)
(2.53277 -1.0286 0)
(2.01392 0.0124472 0)
(0.48362 -0.279423 0)
(2.06737 0.333065 0)
(1.05199 -0.110522 0)
(1.96348 -0.496276 -3.78023e-21)
(3.86057 -0.610436 -6.34657e-19)
(2.62717 0.321762 0)
(1.75835 0.385748 7.03343e-19)
(1.51119 -0.398868 3.41244e-21)
(2.09305 0.207393 6.56517e-21)
(-0.953756 -1.21398 -4.1978e-19)
(1.06853 0.142004 -2.90102e-21)
(-1.93539 0.759306 6.40006e-19)
(1.87752 -0.00160221 -1.42057e-19)
(2.68545 -0.0513599 2.85089e-20)
(2.04204 0.319126 -1.55115e-19)
(1.86867 0.211246 -4.64113e-19)
(2.03071 1.08023 -1.4533e-19)
(3.4847 1.01179 0)
(0.757607 -0.525678 3.44016e-21)
(1.21567 -0.347735 -8.06628e-19)
(2.01081 0.0282847 -7.84888e-19)
(2.27701 -0.683644 -2.95575e-19)
(2.00088 -0.0273292 5.91704e-20)
(2.55016 -0.651815 3.86084e-20)
(2.11121 -0.316541 -4.7321e-20)
(2.0421 -0.52976 -3.02943e-19)
(2.03253 0.183271 1.70963e-19)
(2.13759 1.30171 0)
(1.83283 -0.214394 -2.70219e-20)
(1.67338 0.102333 -1.07213e-19)
(2.51165 -0.422033 0)
(1.71454 -0.0526103 0)
(1.71625 -0.788668 -3.49009e-21)
(-0.645347 0.000690385 2.1843e-19)
(1.93741 -0.507188 -1.2766e-19)
(1.80569 0.041133 0)
(1.89695 -0.041503 -4.91323e-19)
(1.79891 0.242427 -9.01558e-20)
(0.252545 -1.16071 7.4825e-20)
(2.63631 0.086043 2.09532e-20)
(-1.74077 0.617915 0)
(0.71815 -0.52009 5.95536e-21)
(2.67273 0.0379145 0)
(2.03367 -0.327574 5.50802e-20)
(2.56132 -0.265127 -7.46463e-20)
(2.00015 0.0333157 -2.89261e-22)
(2.4321 0.69221 2.85717e-20)
(2.82988 1.25541 -3.82076e-20)
(1.70816 -0.479199 6.10195e-19)
(0.996352 -0.556943 0)
(1.57719 -1.02713 -1.54179e-19)
(1.53517 -0.519056 0)
(2.68087 0.29272 -6.10362e-20)
(0.191979 -1.08955 1.10465e-19)
(2.46534 -1.01564 3.01362e-19)
(1.65931 0.118433 -1.04441e-20)
(-0.277125 -2.09636 -9.66242e-19)
(1.0546 -0.520436 -3.44688e-19)
(1.26048 -0.356693 -4.68328e-19)
(1.94829 0.0969304 -1.42185e-21)
(1.63225 -0.993424 1.26491e-19)
(1.12708 -0.497521 3.3261e-19)
(1.32184 -0.384703 5.14269e-19)
(1.11925 -0.937553 6.10179e-20)
(1.79352 -1.11791 -9.52074e-20)
(1.81542 -0.573482 3.04455e-19)
(-0.455013 0.845976 9.20397e-19)
(2.17212 0.0127517 4.72492e-21)
(1.50854 -0.414809 -2.63259e-22)
(2.37371 0.413736 -1.99163e-20)
(2.22101 -0.566684 0)
(0.4662 -0.243583 -2.04135e-18)
(2.10657 -0.0395625 -2.64281e-19)
(1.99986 0.132957 0)
(2.65262 0.277881 0)
(1.45545 -0.779904 -6.6612e-20)
(2.95013 -0.672419 -4.46229e-19)
(2.453 0.199241 7.70904e-20)
(2.02804 -0.38284 5.45274e-19)
(2.00739 1.03469 1.39321e-19)
(1.46118 -0.0117143 3.91546e-19)
(0.041695 -1.22854 -1.88096e-20)
(1.80509 0.677099 0)
(1.35522 -0.418608 4.92717e-19)
(0.110218 1.98208 4.52808e-19)
(-0.324695 -1.89123 7.06598e-19)
(1.6934 -0.654203 1.01024e-19)
(1.38067 -0.626823 -7.45283e-20)
(1.77527 -0.00710512 2.03338e-19)
(1.69195 0.0203913 8.14956e-21)
(2.3327 -0.355133 2.68388e-19)
(-0.0801107 -1.22145 -1.1108e-19)
(2.43298 0.195057 -5.46498e-20)
(1.93693 0.0738858 1.95419e-19)
(1.09285 -0.17657 -3.97276e-19)
(1.86476 -0.0638801 3.06801e-19)
(1.57674 -0.260132 0)
(2.46206 0.371896 -5.41459e-20)
(1.97824 0.0671077 4.36042e-20)
(1.43328 -0.264264 -1.57826e-19)
(1.93763 1.97857 9.39387e-20)
(1.78491 -0.558427 2.26226e-19)
(2.0658 0.0237875 8.36511e-20)
(1.34575 0.184812 -5.87553e-19)
(2.49059 -0.4289 0)
(1.69589 0.132547 -1.54373e-20)
(2.27365 0.0753431 7.00836e-20)
(2.00658 -0.0675135 0)
(1.36958 0.0823475 3.36971e-19)
(2.64519 0.0853728 0)
(1.82997 1.98407 -4.438e-20)
(2.33682 -0.0377374 0)
(1.83251 -0.236593 0)
(2.56441 -0.0252368 4.68959e-20)
(2.42311 0.14991 -2.28148e-20)
(2.97289 0.121538 -4.05162e-19)
(1.9176 0.165996 -2.11096e-19)
(1.60289 1.28704 -1.27713e-19)
(2.00367 0.103859 -8.06454e-20)
(2.0952 0.338383 0)
(2.24851 1.15484 -1.48508e-19)
(2.51923 0.128658 8.78766e-20)
(2.00504 -0.3138 -1.13077e-19)
(2.22081 -0.562287 0)
(3.02999 0.644449 2.10187e-19)
(2.30249 1.76518 2.31849e-20)
(2.16011 0.00847287 2.07149e-20)
(1.72901 -2.72635 0)
(-0.411272 -0.85671 1.79495e-18)
(2.05398 0.178203 0)
(2.36059 -0.310335 -1.35233e-19)
(0.0512012 -0.31273 0)
(3.23215 0.696615 0)
(1.82466 -0.758023 0)
(2.00633 -0.760483 0)
(-1.63771 1.46444 -3.31713e-19)
(0.128423 -1.90737 -7.62867e-20)
(1.8468 -0.0202629 -3.60625e-19)
(0.664141 -0.850416 -3.86096e-20)
(1.21127 -0.526772 0)
(0.747529 -1.10497 -4.54507e-20)
(-0.144792 -0.464733 -1.47514e-18)
(1.45358 -0.688006 0)
(1.43533 -0.500242 -5.27831e-19)
(1.95152 0.173573 1.57495e-21)
(2.35789 0.399337 4.03411e-20)
(2.35738 -0.809771 7.72735e-20)
(1.856 0.201102 0)
(2.16931 -0.702337 0)
(3.42565 0.244071 2.05948e-19)
(1.70955 -0.275918 5.91491e-21)
(1.90704 0.103084 1.2788e-21)
(1.45796 -0.768171 -5.33802e-22)
(1.9986 0.00904869 1.8845e-20)
(2.1214 0.151833 2.64938e-22)
(2.03135 0.187895 2.4621e-19)
(1.70617 0.19706 6.00614e-21)
(1.86345 -0.512486 0)
(-2.21934 1.8385 0)
(2.15061 0.0699139 0)
(1.91312 0.0101262 0)
(1.711 -0.284842 2.23501e-19)
(2.77828 -0.0804626 0)
(-1.10111 0.449053 4.14969e-18)
(2.23925 -1.6718 -3.10273e-20)
(1.28714 -0.402205 -7.72299e-19)
(1.49543 -0.382031 -5.16131e-21)
(0.208536 -1.55065 -9.42503e-20)
(-0.0551007 0.738894 -2.21992e-18)
(1.89437 0.0397043 6.66597e-20)
(-0.405717 -1.31492 -1.81304e-19)
(1.73447 0.229847 5.61606e-21)
(2.5782 -0.0101184 0)
(2.33599 -0.39606 0)
(1.63045 -0.393617 0)
(2.1595 -0.433527 1.16273e-19)
(1.73844 -1.2108 0)
(1.84388 0.681225 0)
(2.00114 0.0130597 0)
(1.73909 -0.410991 2.36256e-19)
(2.09098 0.20606 -2.22485e-19)
(1.82542 0.017127 0)
(2.01903 -0.506208 -1.26288e-19)
(1.98113 0.19526 -2.44438e-19)
(2.56365 0.95606 -2.89912e-19)
(1.49618 -0.704052 3.16419e-19)
(1.92523 0.719509 -2.16132e-23)
(1.7208 -0.38083 -4.24626e-21)
(1.68137 -0.0468028 2.21577e-20)
(1.8527 -0.309747 -5.53446e-20)
(2.40525 0.15878 3.53378e-20)
(1.92003 0.090989 4.41285e-21)
(1.80134 0.0952838 -3.40159e-19)
(2.12415 -0.0397368 0)
(0.695326 -0.148862 4.19171e-20)
(1.96103 0.0787131 3.50842e-19)
(1.30468 -0.447869 -2.22918e-20)
(2.1044 -0.296767 -1.37907e-19)
(1.0071 -0.133813 -6.72623e-19)
(2.42233 0.130737 -6.84716e-21)
(3.16456 0.371235 3.62086e-19)
(2.0007 0.0920473 0)
(1.89319 -0.603562 2.37466e-20)
(1.78648 0.0532973 -6.15601e-21)
(1.86708 -0.319125 1.08588e-19)
(0.61563 -0.475031 -4.33601e-20)
(2.04725 0.02417 1.81974e-19)
(2.14791 0.0857188 -2.39335e-21)
(2.09805 0.0144718 -6.92628e-21)
(2.13405 0.0493635 0)
(1.44164 -0.320678 0)
(1.31516 -0.633817 3.85963e-19)
(-1.78026 0.506679 7.2943e-19)
(2.03542 -0.00421345 5.18622e-22)
(1.95867 0.0754498 7.02432e-19)
(1.73636 -0.48801 -5.94754e-20)
(1.42201 0.317926 0)
(1.78104 0.121727 0)
(1.56322 -0.318479 -3.01833e-21)
(2.50984 0.00962239 7.38213e-20)
(1.97853 0.693327 3.34508e-19)
(2.48981 -0.183154 0)
(2.05396 0.00428352 0)
(2.06292 -0.598472 4.20788e-19)
(1.98185 -0.140848 2.89607e-19)
(0.0757674 -0.0720241 -5.51057e-21)
(1.79494 -0.0370547 0)
(3.10236 0.619498 2.27018e-19)
(2.16267 -0.63584 -5.38596e-20)
(-1.15856 -1.07361 -8.37048e-19)
(2.00199 -0.0171758 -3.9099e-19)
(3.70362 -0.400795 0)
(3.02897 -0.654732 3.53575e-19)
(2.11859 -2.61887 -7.68619e-19)
(-0.000816958 -0.0288902 0)
(1.94169 0.0264518 3.84397e-21)
(1.90995 0.127298 -2.28383e-19)
(1.93484 0.0045798 8.94346e-24)
(2.58504 -0.274009 4.3077e-20)
(1.46723 1.23095 5.16455e-19)
(1.86457 0.0471552 0)
(0.995968 -0.354298 -4.2844e-21)
(1.84443 -0.459588 4.47577e-20)
(3.25887 -1.71187 -2.23831e-18)
(2.05871 0.316718 1.84093e-19)
(1.02239 -0.541766 -5.8414e-21)
(2.00897 0.0029178 -8.44836e-19)
(1.97986 0.500697 2.11025e-22)
(1.63905 0.0122314 1.82877e-20)
(1.70412 -0.368563 0)
(1.81415 0.019647 -3.98079e-20)
(1.05438 -0.486674 2.65823e-19)
(2.22748 -0.113169 -4.2022e-19)
(1.98678 0.065992 -3.17506e-19)
(2.3439 -0.290579 1.24387e-19)
(1.65253 -0.127052 8.15047e-19)
(2.15033 0.00796385 -5.34544e-21)
(1.77454 0.122495 1.97864e-19)
(1.96973 0.118423 7.0434e-21)
(2.98433 -0.451416 -5.14276e-19)
(2.50257 1.08736 -2.05424e-19)
(1.64458 -1.80434 2.31509e-19)
(1.89469 -0.0275794 0)
(1.58669 -0.417235 0)
(0.924762 -0.194986 0)
(1.28628 -0.363819 5.97681e-19)
(2.14853 0.0720524 -5.17446e-19)
(1.78026 0.261913 0)
(1.47474 -0.280671 -4.69346e-19)
(1.77877 0.226942 0)
(1.72126 -0.257506 -3.67038e-19)
(1.98428 -0.330343 -1.1778e-19)
(1.83858 -0.479702 -3.34308e-19)
(1.94539 0.0449899 0)
(1.94283 0.0662964 0)
(2.0232 -0.0747512 6.86184e-20)
(2.59073 0.264872 6.4314e-21)
(2.65852 -0.106734 2.02412e-19)
(2.51294 1.85483 -4.58709e-21)
(2.51207 -0.239304 0)