/*--------------------------------*- C++ -*----------------------------------*\
| =========                 |                                                 |
| \\      /  F ield         | OpenFOAM: The Open Source CFD Toolbox           |
|  \\    /   O peration     | Version:  2306                                  |
|   \\  /    A nd           | Website:  www.openfoam.com                      |
|    \\/     M anipulation  |                                                 |
\*---------------------------------------------------------------------------*/
FoamFile
{
    version     2.0;
    format      ascii;
    arch        "LSB;label=32;scalar=64";
    class       surfaceScalarField;
    location    "3.2";
    object      phi;
}
// * * * * * * * * * * * * * * * * * * * * * * * * * * * * * * * * * * * * * //

dimensions      [0 3 -1 0 0 0 0];

oriented        oriented;

internalField   nonuniform List<scalar> 
7520
(
-1.01379
0.768381
0.245409
-1.31837
-0.246967
1.56534
0.0375809
-1.71443
1.67685
0.242724
-0.0319026
-0.210821
-0.0756329
1.39061
-1.31497
-0.0927643
0.0998121
-0.00704776
-0.285708
2.0685
-1.78279
-0.0966049
-1.62998
1.72658
-1.29781
1.33539
0.922429
-0.135619
-0.78681
-0.208801
-0.122002
0.330803
-0.246568
-1.73509
1.98165
0.720107
-0.103828
-0.616279
-0.103212
0.143166
-0.0399534
-1.7575
0.919328
0.838175
0.135913
1.56404
-1.69995
-0.151774
-0.0244392
0.176213
-0.072649
0.264304
-0.191655
0.0426217
0.0170234
-0.0596451
0.0496937
-0.201467
-0.432539
-0.255214
0.687753
-1.08116
1.21707
-0.0298604
-0.32352
0.353381
0.15242
-0.147852
-0.00456853
-0.0301988
0.0666961
-0.0364973
0.26226
-0.257579
-0.00468132
0.861669
1.11351
-1.97518
-0.035886
0.32664
-0.290754
-0.0385381
0.0811598
0.203912
-0.0322691
-0.171643
-1.14942
1.77896
-0.629535
-0.0499495
-0.0188376
0.0687871
-1.73739
1.91403
-0.176643
-0.325048
0.411771
-0.0867228
-0.241531
-1.24283
1.48436
-0.664656
1.00158
-0.336928
0.291892
-0.564928
0.273036
0.821736
-1.54101
0.719279
0.0936922
-0.329175
0.235483
-0.0460576
-0.104637
0.150694
-0.0294802
0.272204
0.466045
0.237218
-0.703262
0.3
-0.0377396
2.22252
-1.47867
-0.743851
-0.487889
-0.651385
1.13927
-1.51346
1.59344
-0.0799821
0.0400481
0.106103
-0.146151
0.27934
-0.0850007
-0.19434
-1.36188
0.21246
0.284354
-0.0764912
-0.207863
1.78232
0.216869
-1.99919
-0.728138
0.254947
0.473191
0.0932183
-0.115967
0.0227489
1.06164
0.496951
-1.55859
0.015347
-0.108111
-0.773261
0.122127
0.651134
0.38697
-1.29211
0.905135
-0.04213
-0.128141
0.170271
-0.12251
0.07256
-2.2712
1.10828
1.16292
1.51634
-1.08953
-0.426803
-0.0118488
-0.0392558
0.0511045
-1.21829
0.976758
0.850843
-0.130736
-0.0743116
0.16753
0.00422109
-0.107433
1.08842
-2.22269
1.13427
0.135759
1.64656
-1.25355
0.996684
0.256869
0.325962
-0.246125
-0.0798362
-0.513059
0.900029
0.189761
-0.852977
0.663216
0.351008
-0.0972432
-0.253764
0.469376
-0.509248
0.0398729
0.701687
-1.50343
0.801747
0.131738
-0.115401
-0.0163367
2.23818
-0.935333
-1.30285
0.416975
-0.767146
0.350171
1.78539
-1.30019
-0.485197
-0.855679
0.0824185
-1.5132
-0.757996
0.816836
0.316442
-1.13328
0.253261
-0.647389
0.394128
0.0115767
-0.336625
0.230056
-0.302705
0.221417
-0.0175053
0.0227244
-0.0446671
0.0219427
1.18599
1.05219
-1.69091
1.88563
-0.194714
1.16515
0.351185
-0.982136
1.13996
-0.157822
0.0761446
0.159015
-0.23516
1.39092
-1.63749
0.252451
0.204147
-0.110454
0.334465
0.384696
-0.719161
0.00766251
0.0862566
-0.0939191
-0.538622
0.379733
0.158889
1.44645
-0.744765
-0.736063
0.642182
0.0938813
0.848696
-0.885303
0.0366064
-0.0910835
0.114521
-0.023437
0.00905065
-0.0137057
0.00465505
2.20999
-1.35114
-0.858853
0.539102
-0.479884
-0.533906
-1.33766
0.824598
-1.8642
1.57849
0.177212
-0.0817477
-0.0954642
-0.290618
0.0818175
-0.163433
0.162158
0.00127465
-0.263453
0.351103
-0.0876494
1.94602
-1.12429
0.404951
-0.125852
-0.279099
-0.775946
0.343407
-0.0513182
-0.00313431
0.0544525
-0.141259
0.958095
-0.777376
0.439215
0.338161
1.22607
-2.06441
0.83834
0.0462818
0.106139
-0.185356
-0.542782
-0.353478
0.0627814
0.290697
1.11577
-0.193345
-0.532402
0.585879
-0.0534771
-0.029728
0.331709
-0.301981
0.078549
-0.074621
-0.00392796
0.692126
-1.79704
1.10491
0.396798
-0.426658
-0.355735
-0.0648697
0.420605
0.182808
0.222143
0.211864
0.0339343
-0.245798
0.151469
0.0334111
-0.18488
-0.0665366
0.218005
-0.624199
-0.153177
0.159042
-0.690122
0.531081
-0.68785
1.54199
-0.854137
0.372941
-0.402833
0.0298921
-1.1394
-0.198253
-0.0351278
-0.052001
0.0871289
1.44258
-0.380945
-0.655315
0.449516
0.205799
-0.00175562
0.122345
-0.120589
0.299022
-0.0774373
-0.221585
0.196164
-1.91059
0.267351
-1.78081
-2.08997
0.860119
1.22985
-0.8528
-0.400753
-1.20935
0.911402
0.297943
1.79687
0.262363
-2.05923
0.186943
-0.233001
0.0377216
0.714878
-0.752599
-0.353309
-0.468944
0.822253
-0.0434743
-1.16587
-1.75227
0.0148879
0.0128278
0.0098966
0.067399
-0.132087
0.0646882
0.294525
-0.336655
0.771197
0.077499
-0.160707
0.131227
-0.0103437
-0.0202645
0.0306082
0.775066
-0.447563
-0.327502
-0.479578
-1.27793
0.075737
-0.429046
0.0667418
-0.605727
0.538985
-0.0990192
-0.0992037
0.198223
-1.60718
0.912891
0.694285
0.505756
-0.581389
-0.0546134
0.455459
-0.400845
0.0681695
-0.0983683
0.532409
-0.245706
-0.286704
0.91357
-0.579105
0.247281
-0.323772
0.955081
0.275029
-1.23011
0.309512
-0.345398
-0.434223
-1.37664
1.81087
1.26727
0.677177
0.708863
-0.455602
-1.23446
0.569803
-0.700511
0.937296
-0.236785
-0.00449319
-0.0296411
0.0341343
0.276685
-0.329638
0.0529533
-1.08593
0.944676
-0.282239
-0.154199
0.436438
-0.157655
0.058636
-0.849798
0.91654
0.494377
-1.031
0.536623
-0.50569
-0.0329316
0.69719
-0.405299
0.142844
-0.0111058
0.0637763
-0.209389
0.145613
0.0403202
-0.303774
-0.37616
-0.13779
0.51395
0.136534
0.214474
-0.693726
-0.809708
-0.80307
-0.804106
0.0414452
-0.25515
0.213705
1.31963
-0.676331
-0.6433
-1.00554
0.317691
-1.15192
2.16326
-1.01135
0.371343
0.161066
0.0810248
-0.167067
0.0860423
-0.759138
0.573782
0.61202
-1.09991
1.735
-0.0456215
-1.68938
-1.55832
2.01212
-0.453796
-0.0261808
0.0935798
0.421823
1.29795
-1.71977
0.0354401
-0.174216
0.138776
-0.173437
1.80554
-1.6321
0.00165098
0.112527
-0.114178
-0.887082
1.25684
-0.369755
-0.104035
-0.655104
0.0796824
-0.455842
0.275073
-0.166707
-1.64875
1.81545
-0.0765698
0.0935932
-1.62503
0.9313
0.309878
-0.0395403
-0.270338
-0.297103
0.267375
0.148476
1.57407
-1.72255
-0.579243
-0.567478
1.14672
-0.525745
0.420423
0.105321
2.37789
-1.52402
-0.853868
0.458933
-1.03818
-0.271352
0.292152
-0.0207994
0.131612
0.738326
-0.869938
0.0561968
-0.0589606
0.00276387
0.843048
0.814523
-1.65757
-0.220862
-0.515201
-0.0606697
0.171826
-0.111156
-0.927516
0.688516
0.239001
-0.0820957
0.0424129
0.0396828
0.979873
0.339758
1.07015
-2.0865
1.01635
-2.71451
1.20966
1.50485
-1.16191
-1.5526
-0.380354
0.464856
-0.0845015
-0.186035
-0.0281471
0.214182
0.467779
-1.3304
0.862623
0.0433005
1.07345
-1.11675
-0.649641
0.966083
1.13367
-0.178585
1.00132
1.04686
-2.04818
-0.191837
0.0938968
0.0979402
0.0259018
-0.953418
1.862
-0.476634
-1.38537
0.140994
-0.105554
0.0192596
-0.24349
0.219051
1.06567
0.796338
0.236714
0.630896
-0.86761
0.370696
-0.0440564
0.0680553
-0.073933
0.00587766
-0.207467
0.0600277
0.147439
-1.86179
0.902627
0.95916
-0.342896
0.156861
0.87947
-0.720428
0.57263
-0.0391866
-0.533443
0.140047
0.139293
-1.90941
1.8716
0.0378082
1.13832
-0.643945
-0.0377992
0.183201
-0.145402
-0.0116338
0.0435082
-0.0318744
0.121922
-0.219166
1.62955
-0.541127
0.0425133
-0.156308
0.113795
0.00614194
-0.0164857
-0.404147
0.282145
1.08267
-0.697974
-0.656647
0.699947
-0.0944062
0.158182
2.0685
0.0144129
-0.01709
0.00267707
0.227207
0.855463
-0.21379
0.139527
0.0742631
0.0493247
-0.0402741
-0.162664
0.628708
0.910779
-0.873057
0.422685
-0.37639
-0.0462949
0.312292
-1.19937
0.0500431
0.161821
-1.63682
1.47011
-0.231529
-0.0398231
-1.73342
0.227845
-0.2296
-0.0860854
-0.0704234
0.156509
-0.624623
-1.23716
1.24529
0.964704
1.73029
-0.817399
-1.73509
0.188729
-0.721131
-0.0394576
0.316998
-0.27754
0.177762
-0.252844
0.0750828
-1.23119
0.579803
-0.191212
-0.270502
0.461714
0.410291
-0.54591
-0.133205
-1.95232
2.08553
0.975885
0.23072
-1.54515
1.31443
0.857701
1.05633
-0.84468
1.47721
-1.05539
-0.0534546
0.397596
-0.344141
-0.853922
0.751405
0.102517
0.0817222
-0.039209
-0.0855752
0.336166
-0.25059
-0.283601
-0.229032
0.512633
-0.511811
1.77908
-0.275699
-0.381732
0.65743
0.22725
-0.187202
0.262201
-1.24434
-0.112401
0.180456
0.00872859
-1.91018
1.04423
0.865947
0.370656
-0.474484
0.00833466
-0.0424134
0.415355
1.0198
1.35808
1.64004
-0.517872
-1.12217
0.127017
-0.0454626
-0.081554
0.902957
0.882431
0.192602
-0.23206
0.698546
-1.83298
1.13443
0.30068
-0.257315
-0.0433645
0.523827
0.922625
-0.226976
-0.1022
0.75155
-0.514835
-0.57186
1.43353
0.166669
0.0105427
1.89596
-0.669883
0.148348
-0.140685
1.76932
-0.129278
0.105866
0.407343
0.015342
0.0179549
0.308007
-1.64733
-0.859905
0.996556
-0.136651
0.00590238
-0.121304
1.74872
0.0602624
-1.80898
-0.730794
0.455095
0.229499
0.0695226
-0.316841
0.0707158
-0.0293991
-1.27079
1.53353
-1.56948
0.0359458
0.0358229
-0.344273
0.30845
-0.929721
1.45355
-0.844294
1.53642
0.0817437
-0.0459208
0.779994
-0.340779
2.00775
-0.61683
0.00512308
0.123052
-0.128176
-0.0862593
-0.0801584
0.166418
0.124468
0.00254892
0.131068
-0.801903
-0.0349433
0.120304
-0.0853606
0.523663
1.01832
-1.80537
1.37114
0.125181
-0.480917
-0.659131
0.848892
-1.1624
1.3722
-0.209795
0.554203
-1.91541
1.74197
2.12129
-0.935298
1.04372
1.1788
-0.0737429
0.241964
1.29157
-1.34224
0.314552
1.02769
0.256638
-0.288907
-0.248852
-0.0940441
-0.224385
0.157849
0.140124
-1.61879
0.649087
-1.20643
0.557338
-1.58653
0.659275
0.927252
-0.116842
-0.736135
0.0816417
-0.0934904
0.0891046
-0.0359628
0.271461
-0.235498
-0.548654
0.494041
1.15243
0.968863
-1.55832
0.0387212
0.0398278
1.653
-1.46171
-0.19129
-0.392236
1.69018
-1.36125
2.33136
-0.970112
-0.793758
1.01857
-0.224815
0.145469
-1.36376
-0.202548
0.174401
-0.273441
0.437405
-0.163964
-0.0268561
0.0131504
1.34423
0.693164
-1.31315
0.619984
-0.0276967
-1.56398
1.59168
-0.0540583
-0.109374
0.027666
-0.482622
0.454956
-0.942448
1.5299
-0.587457
0.205584
-0.143358
-0.062226
-0.431662
1.03882
-0.607157
-1.95508
1.70811
1.95251
-0.495364
-1.45714
0.177205
-0.125638
-0.0515668
0.000669868
0.177092
0.110443
-0.616133
-0.809686
1.65273
-0.0588533
0.0075351
1.735
-0.966438
1.09805
-0.0233577
0.0233577
-0.173752
0.19299
-1.8839
2.24191
-0.935753
-1.30616
-0.673077
0.851637
-0.17856
0.0976889
-0.183074
0.0853854
1.0423
-1.17549
0.133192
-0.530806
-0.282405
0.81321
0.921511
-1.99762
1.07611
-0.0634638
-0.790458
-0.219106
0.132847
-0.249188
-0.541213
0.790401
0.757419
0.436727
-1.19415
-1.30008
-0.422397
0.692314
-0.269917
-0.0699635
1.26194
-1.19198
1.44315
-1.29467
-0.162329
0.127385
-0.220958
-0.0142573
0.483633
-1.12604
0.852173
0.273869
-1.81086
2.23361
-0.422747
-0.0173339
0.134693
-0.117359
-1.45787
-0.764824
-0.0449282
0.00639011
-1.63384
0.481928
-0.378446
0.292871
-0.292211
-0.501548
0.110779
0.189901
-0.640466
1.64178
0.0438003
-0.367321
-1.5441
0.147192
1.39691
0.752061
-1.19046
0.438396
-0.893184
0.192672
0.216437
-0.579983
0.363546
1.5937
-0.154637
-1.43907
-0.00329207
-0.0857362
0.0890283
-0.352688
0.689933
0.480013
-1.16995
-0.425144
1.34447
0.274533
0.664389
0.778196
-0.0162405
1.58084
0.188479
-1.43223
1.40453
-0.172921
-0.0223587
0.19528
-0.249781
-0.0455212
0.295302
-1.95392
0.592673
-0.226181
0.463399
-0.62292
-0.236986
0.249627
0.881283
-0.361088
-0.520195
0.200148
0.0998519
-1.0904
1.88096
-0.790562
0.161488
-0.241647
-0.080095
0.35678
0.262516
-0.535957
-0.0952216
-0.185687
0.280909
0.257767
0.0702506
-0.328017
0.58612
-0.951521
0.365401
0.00950337
0.0390324
-0.0485357
-0.297341
0.331451
-0.0341092
0.219098
-0.575567
0.356469
0.312236
-0.055598
-0.00870324
0.458511
-0.449808
1.16633
-1.01355
-0.961631
-0.639379
-0.242718
0.882097
0.105265
-0.0116718
-0.292449
-0.233295
1.07319
-0.191904
-0.0673806
-1.23029
1.29767
-0.343407
-0.0100709
-0.0617658
-0.562433
-0.491748
0.0600855
0.173495
-0.171844
-1.67074
-0.0359482
-0.0816161
0.117564
1.26936
-0.994333
1.10571
0.846802
0.527136
0.0454934
-0.146327
-1.60755
1.75388
0.579474
0.57402
-1.15349
-0.21464
-1.02262
0.618208
0.404411
1.26762
-0.515556
0.0327925
-0.198953
0.16616
2.20855
-1.19485
-1.0137
0.139831
-0.314332
0.174502
0.590307
0.512328
-1.10264
0.0745869
0.104238
-0.178825
1.62597
0.0511917
-1.67716
0.231695
0.0326083
-0.259767
0.303567
0.101756
-0.0800431
-0.0217132
0.343148
-0.113092
0.0651927
-0.0421112
-0.0230815
-0.59756
-0.639142
1.2367
1.13559
0.458111
0.978548
-1.04593
0.336989
-1.27944
-1.84651
1.71331
0.0799008
0.251809
0.279313
-0.609064
0.32975
0.788356
0.941934
1.14744
-1.29803
0.150595
1.21552
-0.551135
-0.143463
0.0980007
0.0625709
-0.0579792
-0.00459174
-1.44202
-0.294761
1.73678
-0.390889
0.461625
-0.0707354
-0.00117742
-0.0221803
0.396745
0.99386
-0.141808
-0.0500288
1.10955
-2.11646
1.00692
-0.955515
-0.130806
1.08632
1.6018
-0.531652
-0.106062
0.552466
-1.02141
-0.27014
0.00449922
0.265641
0.0199162
-0.191559
-0.531625
1.22479
0.0165727
0.039624
0.130334
0.120327
-0.25066
0.0560334
0.986263
-0.034742
-0.65538
-0.410599
-0.420425
0.483206
0.657796
-0.950007
-0.317775
0.191924
-0.0322652
0.251316
-1.95112
0.937566
0.050353
0.139078
-0.189431
-0.109244
0.0525213
0.0567224
0.221656
0.851794
-0.0444523
0.00519656
0.0434069
-1.61296
1.56955
-0.0950413
-0.536309
0.63135
-0.0375637
0.0699406
-0.0323769
-0.566767
1.21585
-0.172769
-0.335119
0.507887
-0.28762
0.504057
-0.563419
1.66305
-1.09963
-0.74358
0.537063
0.206518
1.94037
-0.143501
-0.285282
-0.0624243
0.347706
0.271036
-0.237102
-0.182992
-0.266021
1.02532
0.860305
0.352561
-1.2918
0.939243
-0.803184
-0.193988
0.997172
0.34066
0.0050201
-0.34568
0.0817254
0.30542
-0.387145
-0.127339
0.344055
-0.216716
0.162491
-0.274892
-0.954866
0.0655157
0.00118045
0.124163
0.0562929
-0.124909
0.397473
-0.272564
-0.234293
0.269805
-0.0355116
-0.296636
0.0757513
0.220885
0.777307
-0.400368
-0.0478835
0.00321636
-0.260357
-0.545505
0.805863
1.18637
-0.964709
-0.0172292
-0.34969
0.366919
-0.411868
-0.473435
-1.36528
1.50104
0.763971
-0.049093
-1.29051
0.861847
0.428666
0.227311
-0.0970256
-0.130285
1.74309
-1.74309
-1.63049
0.117285
-0.964037
-0.198194
-0.657375
0.855569
0.572904
-0.563241
-0.00966291
-0.0466727
-0.350023
0.133028
0.216996
-0.0115334
0.209552
-0.198019
-0.553866
1.24482
-0.690954
-0.159289
-0.102917
0.262206
0.790051
-0.644581
-1.06469
0.261509
-0.0402013
-0.219694
0.259895
-0.0545925
-1.28765
-0.626951
-1.19203
0.565082
0.805559
-0.0167336
0.23868
-0.221947
-0.27775
0.336548
-0.0587977
-0.233074
0.172405
-0.0848588
-0.183059
0.096974
0.0376118
-0.0501276
-0.0720303
0.122158
-0.0721738
0.0141946
-0.384728
0.376025
0.153935
-0.179657
0.0257216
-0.0783696
-0.0525592
0.130929
-0.400242
0.252344
0.147898
-0.0675768
0.175788
-0.108211
-0.741387
1.29873
0.639172
-1.09464
0.455465
-0.159668
-0.0812023
0.24087
-0.00165577
-2.13336
2.13501
0.893998
-0.618706
-0.275292
0.414114
-0.0552915
-0.197553
-0.0173308
0.0141964
-0.0571323
0.196963
0.347122
-0.95161
0.604488
-0.444713
-1.4647
-0.209485
0.847751
-0.638265
0.27506
-0.0922518
0.414431
-0.27742
-0.137011
0.302153
-0.562511
-0.421375
-0.283359
0.24177
0.0415891
-0.528269
0.337058
-0.136391
0.585908
0.0553985
-0.0670324
-1.44742
0.0962747
-0.293665
0.556182
0.0124891
-0.231595
0.111331
-0.115923
0.293961
-0.310694
-0.0854472
-1.24799
0.506606
2.00101
-0.195469
-1.64875
2.24997
-1.09641
-1.15357
-0.1143
0.494033
-0.102905
-0.752775
0.531659
-0.491338
-0.251946
-0.0181941
-0.597025
-0.419124
1.01615
-0.0483479
-0.0909591
0.139307
0.0156101
-0.86841
-1.90891
-0.324889
-0.330764
0.655652
0.341907
-0.436948
-0.250723
-0.0386951
0.289418
0.475121
-0.078323
0.168855
0.0584558
1.97338
-1.05187
-0.925439
0.328414
-0.257902
-0.0510456
0.308948
-0.0448902
-0.0660678
-1.10942
-0.247927
-0.103137
0.351063
-0.0869117
-0.0355978
0.909767
-1.18263
0.272865
-0.656703
-0.0397031
1.78279
0.185059
-0.730564
1.19198
-2.04684
0.854861
-1.99852
1.26667
0.731843
0.158624
0.105233
-0.263857
0.149955
1.16433
0.0196321
0.844176
-0.863808
-0.0265697
-0.129738
0.220347
-0.0431415
-0.0282506
-0.283569
0.31182
1.27616
-1.42249
0.324363
-0.144464
0.187921
-0.0434576
-1.47435
-0.156134
-0.604463
-1.20834
0.568961
0.111007
0.00355381
-0.114561
-0.621167
0.310972
0.310195
-0.402093
0.348638
-1.07228
-0.594644
1.66692
-0.126307
0.199164
-0.101475
0.444412
-0.546798
0.102386
-0.937534
1.59681
-0.166748
-0.901894
0.228817
0.719189
0.16028
0.801481
-1.35535
-0.0159684
0.0510612
-0.0350928
1.16782
-0.28258
-1.03239
-0.350212
-0.0732886
0.4235
-0.0553701
0.213219
-0.0705511
0.219158
-0.148606
-0.175991
-0.126715
0.0355788
0.8752
-0.301034
0.312712
-0.0654319
-0.42391
0.381496
-0.178232
0.0557851
0.122447
0.254113
-0.10615
-0.147963
-0.150428
-0.0426785
0.193107
-0.106701
-0.064229
0.17093
-0.31769
0.0157085
-0.242396
-0.101876
-0.091715
1.20329
-0.296565
0.0765639
0.220001
0.0499014
0.0307566
-0.080658
0.159986
0.134432
-0.294418
-0.258493
0.25471
-0.677107
0.263588
0.36928
-0.0747552
0.125482
-0.0573121
-0.135834
-0.0383813
1.79215
-0.977629
0.119852
-0.550553
0.430701
-1.60208
0.236805
-0.058416
0.0134203
0.0449957
-0.0434217
-0.0386741
-0.779552
-1.21897
0.368226
-0.0587142
-0.860416
-0.972564
0.278908
-0.148574
-0.0457818
0.490194
1.06479
-0.759607
-0.941384
1.29395
-1.65537
0.213356
0.0339526
-0.126493
0.0925402
-0.0213327
-0.181917
-0.400121
0.582038
0.136603
-0.0228078
-0.566598
-0.689287
1.25589
-0.907507
-0.999978
1.90748
0.615616
0.354156
-0.969772
-0.00808947
-0.0955401
-0.187819
-0.26557
-0.270387
-0.179677
-0.105131
0.284808
0.330207
0.492046
0.282996
0.131435
-0.156829
-0.618554
0.0064896
0.00792334
-1.03669
1.20079
-0.164102
-0.143662
-0.192811
-1.50095
-0.275353
0.0202034
-0.716835
-0.283765
0.0379668
-0.836464
0.116036
-0.154926
-0.917189
-0.335717
1.25291
-0.220347
0.752006
0.274438
0.577199
-0.299968
-1.02078
-0.930342
-1.24609
1.37928
0.0779427
0.175496
0.0248538
-0.079819
0.0549652
-0.637942
0.583153
0.0547889
0.691825
-0.79586
0.305679
-0.255326
-1.17147
-0.119039
-0.0224091
0.151541
-0.129132
0.83707
-0.250951
-1.4032
-0.109137
1.51233
-0.0854187
0.0132449
0.0454929
0.3338
-0.379293
-0.244527
0.402504
0.136598
0.0770016
0.0225645
-0.099566
-1.31372
0.837088
0.134338
0.00226484
-0.180179
-0.134153
-0.333348
-0.185025
-0.13275
0.161365
-0.0494032
0.0817346
-0.103448
0.382581
1.48902
-0.854782
1.8985
1.02837
0.567426
-0.849831
0.00800326
-1.4112
0.213321
-0.335515
0.391656
-0.0561411
-0.0617067
-0.0129143
-0.270123
0.0183303
-0.0575181
0.130078
-0.0785298
1.51876
-1.44023
0.198025
-0.853129
-0.123624
-0.267822
-0.0688325
-0.0113748
-0.289444
0.365941
-0.0764977
0.0114083
-1.46951
1.4581
0.641358
0.246008
0.326896
-0.809479
-0.585097
0.961046
-0.375949
-0.148434
-0.0889218
0.141443
-0.579096
0.597099
-0.0180031
0.206258
-0.502904
0.296646
-0.126578
-0.6597
0.786277
-0.28512
-0.0602777
-2.0007
-0.0426297
0.186519
-0.181396
0.0402995
0.15448
-0.0201418
0.351481
-0.682244
2.15742
-0.945713
-1.21171
-0.134145
0.433302
0.342011
-0.296518
0.0864405
0.155329
-0.183083
-0.0112569
-0.400965
0.412541
-0.387111
0.877477
-1.00405
0.1474
-0.0982001
-0.0492003
-0.379313
-1.79364
0.888457
0.905182
-1.68351
1.68185
-1.1394
0.437153
0.702243
-0.0542451
-0.38218
0.436425
0.514322
0.558866
-0.163537
0.20331
0.463908
0.796102
-0.114775
-0.267775
-0.00964538
1.03795
1.11947
-0.0552904
-0.0186426
1.40836
-1.14599
-0.05547
-1.37633
1.4318
1.17516
0.0281388
-0.299001
-0.0794454
-0.0652667
0.199915
-0.260879
0.149255
-0.398106
0.238448
-1.35715
1.1187
0.225905
2.32801
-1.44333
-0.884684
-0.0834297
-0.0388279
-0.144246
0.94822
-0.00354474
1.46096
-1.34368
1.01686
-1.92437
-1.22838
-0.00870981
1.23709
-0.879026
0.138297
0.740729
0.0912984
-0.0350055
2.09617
0.0137089
-2.10988
-1.3049
1.66378
-0.358885
0.0465557
0.223249
-0.804532
0.734569
0.0301591
-0.261688
-1.38653
0.224133
-0.000963197
-0.0159636
0.0169268
-0.115874
0.222776
-0.106901
0.117258
-0.470135
0.352877
0.541919
0.454637
-0.510132
-0.111035
0.0444309
0.855477
-0.918941
-0.0698196
-0.0622676
-0.26161
0.0537473
-0.0874827
1.00355
-0.916067
-0.0289695
0.587532
-0.558562
0.0584399
-0.427101
0.368661
-0.608065
-1.49387
0.642839
0.851033
-0.0429697
0.856267
0.254242
-1.11051
-0.484348
0.230189
-0.254664
0.0244745
0.175882
-0.037106
-0.254748
0.00402462
-0.296598
-0.860738
-0.0123193
-0.394867
0.801732
-0.406865
-0.817521
-0.416939
1.8025
-0.758268
-0.102256
0.191699
-1.35197
0.00198704
-1.33843
1.33644
-0.143311
-0.13603
0.279341
0.802043
-0.623516
-0.178528
0.142976
-0.0206312
0.0328824
-1.33906
0.521544
-0.630367
1.24857
-0.0926237
-0.311523
0.301036
0.22669
0.0274234
0.829521
-0.374426
0.0110419
0.680783
-0.964847
0.422065
-1.89241
0.892435
1.36522
-1.35381
-1.52069
1.44216
0.259857
-1.47589
0.22123
1.25466
0.604085
0.243665
0.032711
-0.914357
0.716163
-0.121558
-0.128258
0.249816
-1.23129
0.273672
0.957623
0.30534
0.721389
-1.02673
0.0203052
-1.2664
0.766821
0.0979409
-0.864762
0.263037
0.282522
-0.941653
0.363124
-0.0132276
0.0556405
1.54383
-1.49264
0.364893
-1.00231
-0.491558
0.674407
0.0201484
-1.24853
1.1174
-0.261129
-1.74197
0.0068826
-0.313189
-0.916921
0.338675
0.228958
1.84651
0.221985
0.104159
-1.21358
0.141701
-0.10829
0.173178
-0.456779
0.328233
-0.567761
0.239528
0.0404132
-0.0606591
0.0202459
0.300116
-0.36254
-0.21448
0.00701358
-1.12774
1.15379
-0.0260568
-0.748566
0.977766
-1.57026
0.592494
-0.80564
-0.0609242
0.100607
-1.44061
0.122942
1.31767
-0.361049
0.915252
-0.668444
0.684054
0.154261
0.978018
0.615097
-1.0257
-0.817333
-0.188708
1.00604
-0.780167
-1.17626
0.609665
-0.127166
0.130643
-0.00347707
0.0627542
-0.0951311
0.957188
-1.48881
-0.0260481
-0.54175
0.567798
-0.224766
0.182217
0.0425493
-1.1312
0.471497
0.0374722
0.0252214
-0.236043
0.424223
1.91806
0.178117
-0.811448
0.83108
-0.273156
0.0929769
-0.954259
1.56644
-0.612177
-0.0787751
0.0651819
0.0776618
0.375597
-0.0222166
0.952226
1.21104
0.598424
-0.939203
0.296752
-1.82077
-0.169665
0.133717
0.122054
-1.11639
-0.229807
-0.952825
-0.214469
0.0537616
0.799468
-0.375245
-0.843447
0.10438
0.770819
0.189248
-1.68588
0.332644
1.35324
-0.0839378
0.486442
0.627303
-1.21985
-0.33847
0.755841
-0.33785
-0.417991
0.874947
-0.288294
-0.586653
-0.182224
0.0388654
0.653928
-0.66945
0.015522
-1.68054
0.647831
1.03271
1.06268
0.600372
0.000631094
0.110376
0.762736
-0.508026
-1.56475
0.564903
0.999847
-1.81545
1.52069
0.670595
0.825247
-1.49584
0.825894
-0.743475
1.87689
-0.681502
-1.19539
-1.04714
0.182803
-0.0848023
0.0534513
-0.101853
0.19575
-0.044096
0.1265
-0.0824038
-0.245965
-0.263284
-1.46002
-0.169955
0.0673177
-0.0955683
-0.0342456
-0.0247151
1.02812
-0.434707
-0.593411
0.785293
-0.474321
-0.126171
0.12684
-0.126194
1.27363
-0.236275
0.092964
-0.328176
-0.803021
-1.49327
0.57608
-0.0619514
-0.0859004
0.123881
0.062833
0.112829
-0.0879755
-0.50519
-1.14977
0.10502
-0.0829341
-0.0220861
0.1855
-0.227546
-1.24403
1.47157
0.146285
0.0081949
0.409662
1.02496
0.983441
-2.0084
-0.396059
1.01168
0.218049
-0.0868215
0.54377
-0.981133
-0.622652
1.60378
-0.985551
-0.998905
0.579781
0.294254
-0.163222
-0.131033
0.311685
-0.988016
-0.165743
1.35981
-0.382039
-0.18215
0.104712
-0.351087
-0.743551
0.0646504
1.91391
-1.71331
-0.200598
-0.885575
-0.607695
0.161351
0.17054
0.0669405
-1.02342
-0.207317
1.23073
0.23354
0.499264
-0.293006
-1.60495
-1.86561
0.762269
1.10334
-0.162001
-0.00495578
0.166957
0.957004
-0.558238
-0.398766
0.110617
-0.168135
0.0785027
0.0836553
0.922349
-1.99463
0.776027
0.0989201
-0.329714
-0.595725
-0.114345
0.023386
0.154726
0.98069
-1.20824
0.0257121
0.371884
-0.582272
0.568015
-0.0844678
-0.0112601
0.0957279
0.929595
0.947296
0.572479
0.0555339
0.72237
-0.558712
-0.163658
1.91541
-1.58276
0.1757
-0.571051
0.149432
0.0264491
0.17838
0.0250185
0.0971394
0.00400039
-0.131166
0.564288
0.0496165
-1.68703
-0.0200177
-0.141984
-0.0737651
-0.00605393
0.980806
-0.706368
0.887164
-0.516842
-0.370322
0.00392737
0.110593
-0.00575883
0.00479564
0.396572
-0.0884997
-0.239518
-0.695951
-0.25557
-2.06736
0.889241
1.17812
0.208184
-0.049169
0.112713
0.103453
0.117964
-0.273921
-0.306062
0.419618
-1.40075
0.0630735
-0.964209
1.98916
0.630319
-0.107964
-0.522355
-0.736568
-0.472721
-0.0905202
0.0929263
-1.13645
0.459172
-0.717524
0.258353
-0.314225
0.287377
0.0268478
-0.0511882
1.28438
1.04698
-1.5225
1.58276
-1.52503
1.00072
0.524313
1.04136
-2.00557
2.08056
-1.06076
-0.997691
-0.992087
-0.0237371
0.295198
-0.0898094
-0.392813
-1.51721
0.0413261
0.00647175
-1.3045
1.21882
-1.96431
0.745488
-0.0527687
0.239712
-0.4816
0.415924
-0.209406
0.944341
1.38367
-1.60617
0.651912
-0.154195
-0.831355
-1.36662
0.292763
-0.00538548
1.68351
-1.82701
-0.112137
-1.20541
0.0460081
0.948135
-0.258202
-1.45985
1.63138
-0.17153
0.434698
1.70031
0.441511
-0.0686206
-0.37289
1.8775
-0.860636
0.238095
-0.175787
0.693794
-0.75556
0.0940811
0.132609
0.184031
1.02016
-1.20419
-0.682911
-0.456986
1.04093
-1.05673
0.0158002
-0.360975
0.257839
-1.75833
0.844062
0.914265
0.744589
0.0574543
-0.617867
0.0884149
0.884946
-0.724665
0.291374
-0.556944
0.0705221
-0.127834
-0.63891
0.456994
-1.04883
-0.892083
1.94091
0.138166
-0.202395
0.230113
-0.343205
0.999407
-0.77059
0.0976826
1.12951
-1.98429
0.0912256
0.283686
0.231434
-1.19614
0.0536351
0.714746
0.260339
0.0713736
-0.612587
-1.39747
0.456082
-0.027644
-0.142798
0.170442
0.0699401
-0.320531
1.14771
1.10227
1.23005
-0.957187
0.0155235
-0.0706334
0.130661
0.453414
0.209671
-0.336385
-0.712175
-0.954771
1.99613
0.048131
-0.0911007
-0.751734
-1.10852
1.86026
-1.65819
0.353297
-0.0690096
-0.285553
-0.00886446
-1.47192
-0.0721779
-0.183998
0.64317
-1.0398
-1.02756
1.91391
0.599161
-1.40327
1.03409
-0.579457
-0.225129
-0.358034
0.170216
-0.263858
0.246629
-1.6758
0.216473
-0.80157
1.04275
-1.99752
-0.81184
0.0924705
-0.329573
-0.0487722
-1.41108
0.878673
-0.762637
1.36601
0.899592
-1.62778
0.728187
1.71407
-1.06624
1.98165
-0.94972
-0.999966
1.94969
0.508907
1.2473
-1.01376
-0.7106
-1.15501
-0.857212
-0.667823
0.471966
-0.719604
1.67103
-0.951426
-0.13721
1.36165
-1.22444
-0.985866
-0.987673
1.97354
0.928141
0.112791
0.252604
0.376528
-0.552539
0.394187
0.158352
0.0159278
-0.257575
0.490196
-1.37577
-0.832458
-0.391322
-0.24662
0.0356436
-0.319408
-0.0412294
0.704446
-1.96842
0.932629
1.03579
-0.0286076
-1.6378
1.66641
0.0678858
-0.25336
0.0553408
0.620091
-1.85148
1.85148
-0.0459503
-0.0115019
0.0574522
-0.643676
1.0804
0.305667
-0.0129042
-0.786701
-0.425652
0.917698
-1.5225
-0.0291239
-1.24692
0.280483
1.22382
-1.27841
-1.2067
0.183281
0.000904866
-0.28053
0.279625
0.13803
0.515898
0.022216
0.0181972
-0.934629
-1.21772
0.170302
1.04742
-1.39928
-0.0671642
-0.470521
-1.09974
-0.0312775
0.108279
0.16399
-0.241365
0.327805
0.0232217
0.0585129
0.371013
-0.277904
-0.361007
-0.700582
1.51388
-0.813301
0.329691
0.209459
-0.226104
0.413736
-0.187632
-0.413717
0.184685
0.425682
-0.541794
0.116111
-0.972256
1.65599
-0.985395
-1.44535
-1.67096
0.201452
-1.13979
0.0519362
1.02759
1.18096
0.151363
-1.06828
1.08567
-0.2335
-0.379037
0.286414
0.661065
0.625622
0.200272
1.98433
-0.941584
-1.00435
-0.883271
1.88762
1.14615
-0.0384762
-1.10768
0.090606
-0.0598494
-0.195998
0.178664
0.139654
1.36221
-1.50187
-1.39339
1.35381
0.0395789
1.39339
-1.44216
0.216904
-0.269673
-0.664027
0.946548
0.084603
0.314141
-0.298433
-1.68305
0.137901
1.6632
-0.763604
-0.38258
-0.0819306
0.137716
-0.441819
0.958241
0.261399
-0.0868971
0.720647
-0.73865
0.182295
-0.244521
-0.578931
-0.068458
0.872341
-2.07504
0.511056
-0.0674264
0.433768
-0.366342
-1.04064
-0.923668
0.089423
0.577664
0.560658
-0.901002
0.0895543
-0.0995589
-0.327542
0.103034
-1.99713
0.999437
-0.00391046
-0.0515685
-0.259126
-0.0706735
0.232038
0.300167
-1.40921
0.806357
-1.48007
0.673716
0.0595062
0.250744
-0.310251
0.168859
0.148139
-0.987623
1.26811
0.63886
0.372816
1.30594
-1.21985
0.188328
0.0411711
1.62937
-1.89629
0.266923
-0.291644
-0.255154
-0.796875
-0.0678877
0.376443
-0.449732
-0.0359529
-0.0799698
-1.04127
-0.163362
0.000136786
0.163225
-1.50941
0.199396
1.31001
-0.0397725
-0.0456462
0.0442097
-0.0612905
0.0170808
1.2171
-1.19695
-0.0123405
-0.0483186
0.627382
0.228187
-0.110644
-0.0184877
0.26925
-0.361502
0.195346
0.648406
-0.843752
-0.436591
-0.0335438
-0.925158
-1.0141
1.93926
-0.200976
-0.377535
0.808236
-0.969971
1.68185
0.281925
-0.303258
0.0566802
0.0471102
-0.153078
2.0536
-1.01565
-1.27631
0.778016
-0.561543
-0.505668
1.50552
0.199349
-0.287849
0.0726231
-0.0738005
0.156593
0.0634084
-0.298681
0.19355
-0.224089
-0.418527
0.177163
1.04225
-0.224688
0.154015
0.290038
-0.051358
0.0383394
-0.394947
-0.00315967
0.493524
-0.771428
0.212343
-0.242929
0.0305857
-0.285609
0.149579
0.207744
0.889652
-1.0974
-0.249792
0.121534
0.422728
-0.643075
1.417
-0.893339
1.01929
0.903808
0.0331059
0.566179
-1.01369
0.354661
-0.432984
-0.306398
1.0586
0.914783
-1.55872
1.55872
1.77366
-0.835372
1.09757
0.020351
1.45968
-1.48003
0.925404
1.01904
0.912409
-1.96124
0.159458
-1.16351
-1.36975
-0.184714
-1.42344
1.60816
-0.410578
-0.117691
0.0752674
0.795574
0.169132
-0.275282
-0.97819
1.72219
-0.743999
-0.179885
0.273966
-0.0110109
0.506999
0.760618
2.24459
-0.884198
-1.36039
1.61638
-1.49344
1.14456
0.227638
0.0829591
-0.00121541
0.0197716
1.5543
0.581055
1.05333
0.827626
0.0213171
0.199404
-0.220721
-0.352854
0.218701
0.183614
-0.195923
0.0123084
0.163601
-0.219897
0.0562952
0.489724
-0.445293
0.339176
-0.482838
-0.467413
0.656142
0.0298952
-0.0711454
0.0244727
-0.634828
0.599141
0.0356874
0.0876271
-0.0821915
-0.00543562
1.82701
-1.52167
-0.333336
0.376621
-0.0432844
-1.54383
-0.343494
0.268739
-0.956772
1.88218
0.262318
-0.33115
1.97057
-1.05816
0.251099
-0.316531
-0.158526
-0.364454
-1.31812
-0.085688
1.65147
1.29358
-1.06214
-0.103068
0.14935
-0.0505034
-1.51897
-0.297753
0.293072
0.249052
-0.372676
-0.368125
0.291627
-0.0862743
-1.33846
1.28299
-1.45376
1.48971
-1.16224
-0.476904
0.430609
0.660967
0.389911
-0.399556
-0.0655078
0.060234
0.35111
-0.411344
-0.370399
1.43606
-0.985885
-0.982608
-1.94395
-0.0839684
0.080304
0.0036644
-0.00530267
1.45929
-1.45399