/*--------------------------------*- C++ -*----------------------------------*\
| =========                 |                                                 |
| \\      /  F ield         | OpenFOAM: The Open Source CFD Toolbox           |
|  \\    /   O peration     | Version:  2306                                  |
|   \\  /    A nd           | Website:  www.openfoam.com                      |
|    \\/     M anipulation  |                                                 |
\*---------------------------------------------------------------------------*/
FoamFile
{
    version     2.0;
    format      ascii;
    arch        "LSB;label=32;scalar=64";
    class       volVectorField;
    location    "3.2";
    object      U;
}
// * * * * * * * * * * * * * * * * * * * * * * * * * * * * * * * * * * * * * //

dimensions      [0 1 -1 0 0 0 0];

internalField   nonuniform List<vector> 
5098
(
(2.66057 0.862143 0)
(2.19228 0.0135248 -3.41617e-20)
(2.21099 0.102552 -2.68216e-21)
(1.58453 -0.716808 7.37001e-19)
(1.89716 -0.411509 0)
(0.920443 -0.446217 0)
(2.29306 0.00180795 5.10865e-21)
(2.19414 -0.141174 9.38499e-22)
(2.36667 0.0618611 -5.89773e-20)
(2.11937 -0.337361 9.23232e-20)
(1.41295 -0.732194 0)
(2.25687 -0.0281174 1.59361e-19)
(2.53457 -0.421023 -8.81555e-21)
(0.976263 -0.474803 0)
(1.90521 -0.158735 5.39931e-20)
(1.94476 0.017458 1.08266e-21)
(1.19245 -0.587653 -5.49264e-20)
(1.20167 -0.766815 0)
(-0.512681 -0.0813332 5.58704e-19)
(1.05533 -0.517701 6.20134e-20)
(1.84364 0.513143 -7.11936e-20)
(1.93266 0.0210562 4.41532e-21)
(2.14829 -0.837301 0)
(0.806842 -0.00350872 2.82267e-20)
(0.541272 -0.341048 0)
(1.528 -0.626238 0)
(1.9462 -0.0170007 1.19896e-19)
(1.90771 -0.811479 1.94092e-19)
(-0.220211 0.351063 -1.68523e-18)
(1.73765 -0.762435 0)
(2.42688 -0.164044 -1.06502e-19)
(0.746604 -0.362691 0)
(1.93867 -0.00199752 -1.3657e-19)
(1.43635 -0.707459 0)
(2.44532 0.248218 -4.09128e-20)
(3.26908 -0.350017 1.33972e-18)
(1.92251 -0.489906 1.425e-19)
(1.97422 -0.039994 -3.44099e-21)
(1.38924 -0.45495 5.39613e-19)
(1.42487 -0.661909 0)
(1.59266 -0.729112 -3.47011e-19)
(1.70229 -1.73174 -3.57129e-19)
(1.54284 -0.632985 0)
(2.66007 0.245064 3.5555e-20)
(2.39314 0.554366 4.7391e-20)
(2.05576 0.00192677 6.16717e-21)
(1.27105 -0.61275 2.01983e-20)
(1.12926 -0.39457 0)
(2.45334 -0.199864 0)
(1.58559 -0.684998 7.85526e-20)
(2.20908 0.208515 4.08126e-20)
(1.6546 0.456661 -4.40853e-19)
(-1.34558 0.52405 -2.91384e-20)
(2.13119 -0.0755733 1.72432e-19)
(0.985478 -0.494693 -3.2887e-19)
(1.6172 0.103666 0)
(1.91105 0.25473 -2.36171e-19)
(1.68435 -0.694819 0)
(0.884446 -0.435586 0)
(1.95548 0.0226398 -1.10735e-20)
(1.66257 0.329727 7.11715e-21)
(0.609425 -0.290969 -6.54859e-20)
(2.45073 0.308452 0)
(2.50409 -0.406812 0)
(-1.41881 0.40721 1.38135e-18)
(0.841114 -0.421462 4.11401e-19)
(2.06423 0.0616402 4.78012e-21)
(2.33171 0.171736 6.33065e-21)
(2.12212 -0.27245 1.74329e-19)
(1.72599 -0.725461 2.30124e-19)
(1.88749 0.221235 1.41453e-20)
(1.40081 -0.488377 -2.51484e-20)
(1.97718 -0.826511 0)
(1.42201 -0.592806 0)
(1.7962 0.0601713 3.31527e-21)
(1.15605 -0.567214 -3.76459e-19)
(1.87648 0.193747 0)
(1.53601 0.195003 4.14042e-19)
(2.78349 -0.124956 3.4097e-20)
(1.6476 0.125682 0)
(1.78469 -0.0318987 0)
(2.7488 -1.57129 3.65966e-19)
(1.74549 -0.329944 5.04716e-19)
(1.47631 -0.708929 -8.8804e-21)
(1.20625 -0.829259 4.06203e-20)
(1.57249 -0.6928 1.91843e-19)
(0.135744 0.209729 -2.59027e-19)
(1.8863 0.174221 -6.85366e-23)
(2.30273 -0.229469 4.04133e-20)
(1.67768 0.274563 -1.03048e-20)
(2.32041 -0.268484 -7.55987e-21)
(-2.14738 1.48468 1.21655e-18)
(2.43178 -0.0411146 -1.95049e-19)
(1.60242 -0.703005 -3.92994e-19)
(1.37345 -0.482457 9.52625e-20)
(1.40793 -0.632847 5.15743e-20)
(1.07468 -0.539193 -3.16241e-19)
(1.47272 0.262832 3.05841e-19)
(1.78154 0.0970758 -2.06727e-21)
(2.07195 -0.513574 -1.17274e-19)
(1.74884 -0.716883 -4.91091e-20)
(1.0409 -0.51511 -3.90154e-19)
(-0.0397732 -0.104227 -1.37434e-20)
(2.12813 0.135487 -2.02323e-20)
(1.54755 0.177658 -4.70647e-19)
(2.47357 1.01302 0)
(1.92696 0.235541 2.50948e-19)
(2.19028 0.101958 6.76718e-21)
(1.0819 -0.446722 7.35394e-20)
(1.39796 -0.731322 0)
(1.08067 -0.520396 -8.46824e-19)
(2.00008 0.722129 8.2982e-19)
(1.90885 0.0252786 -2.52632e-19)
(-2.3198 1.15908 2.76195e-19)
(1.81041 0.611843 1.01388e-19)
(0.461545 -0.209542 0)
(2.50268 -1.44911 5.30374e-19)
(2.7642 1.28413 0)
(2.00815 0.105045 1.41964e-20)
(0.839794 -0.0496177 -4.33929e-19)
(1.70444 0.449908 3.61988e-19)
(1.66818 1.90156 -6.40549e-20)
(2.12323 -0.404737 -5.75359e-20)
(1.18136 -2.08223 -4.57289e-19)
(-2.00196 1.52543 -1.79887e-18)
(0.548058 -0.267493 7.1741e-21)
(2.14383 -0.0434187 1.41091e-19)
(2.1279 -0.803248 -2.29543e-19)
(1.43172 -0.17453 -1.13217e-19)
(-2.45355 1.257 -5.49695e-19)
(0.49814 -1.171 -1.66811e-19)
(1.1688 -0.519448 -5.42205e-19)
(1.19825 -0.517066 4.54077e-19)
(2.63818 1.34739 -1.37963e-19)
(1.60243 -0.651161 -1.27748e-19)
(2.27653 -0.572252 1.92716e-19)
(2.10522 2.41101 6.06524e-19)
(1.91966 0.235243 1.70184e-19)
(0.904142 -0.443459 0)
(2.11391 -0.128723 -5.5279e-19)
(1.66298 0.531474 -2.92617e-19)
(1.32576 -0.314124 3.10633e-20)
(1.80529 -0.82255 3.70863e-19)
(2.28904 0.0181658 -1.45013e-20)
(2.02666 0.0349487 -3.99595e-20)
(2.05218 0.0982003 0)
(2.1143 -0.267694 1.81658e-19)
(1.78483 -0.437844 0)
(2.40446 -0.143402 2.68269e-19)
(1.68365 -0.773193 1.39342e-19)
(1.97146 -1.26124 -1.49316e-19)
(2.6098 0.478334 0)
(1.80639 -0.475965 4.62525e-20)
(2.01822 -0.00423101 0)
(0.124423 0.117174 -3.24932e-19)
(0.869851 -0.348628 -1.80079e-19)
(1.68156 -0.684258 -4.12491e-19)
(1.73837 -0.662529 -3.56783e-20)
(1.53675 -0.720264 -2.83987e-19)
(-0.375894 0.0597011 1.70371e-18)
(1.99304 -0.474841 -3.89207e-19)
(1.88973 -0.195509 -7.5091e-20)
(2.17663 0.2521 -4.95407e-19)
(1.83985 -0.216512 -3.12153e-19)
(1.04434 -0.700438 -3.70672e-20)
(2.51846 -0.116445 -1.03452e-19)
(1.83683 -0.467539 -1.54014e-19)
(2.38173 -0.585781 0)
(0.615966 -0.431786 5.50615e-20)
(1.74016 -0.57777 -4.50972e-19)
(1.44324 -0.561617 -3.58553e-20)
(1.58992 -0.660925 -2.67682e-19)
(2.24507 0.524932 8.5131e-20)
(1.90378 -0.781955 3.46489e-19)
(2.51708 0.0429841 0)
(1.93875 -0.00620886 0)
(1.74254 -0.308063 -1.95252e-19)
(3.16461 -0.310901 -6.77488e-20)
(1.79887 -0.176232 4.30024e-19)
(0.32608 0.0541857 0)
(1.95391 2.36844 0)
(2.45581 -1.15607 -4.27118e-19)
(1.81384 -0.560895 5.53475e-19)
(1.0125 -0.66232 0)
(1.89119 -0.210926 0)
(2.69096 0.648569 5.32154e-19)
(1.50701 0.308319 0)
(1.93393 -0.472849 4.90791e-19)
(1.01607 -0.497561 7.30824e-19)
(-0.656629 -0.644045 -5.91123e-19)
(2.28901 0.901403 0)
(1.64068 -0.231488 9.99068e-20)
(1.99967 -0.843309 0)
(1.74996 0.0939136 2.95465e-21)
(2.49767 -0.138064 1.14017e-20)
(-2.31897 1.46989 -1.29999e-18)
(2.9686 -1.1426 3.39066e-19)
(2.3248 -0.658147 0)
(1.99255 -0.0216188 -4.26771e-21)
(1.76935 -0.557177 -8.1814e-20)
(0.223783 -0.947673 -3.2165e-19)
(1.67097 0.362577 5.52263e-21)
(2.40957 0.576093 8.88451e-21)
(2.21659 0.00964279 3.94769e-21)
(1.61961 -0.0383946 1.95137e-19)
(0.836223 -0.351458 -1.28812e-19)
(2.48275 -0.0403793 -1.41952e-20)
(1.2324 -0.566578 0)
(2.2201 0.00366995 0)
(1.29852 -0.630988 -3.84373e-19)
(1.98949 -0.179508 -1.58809e-19)
(1.71442 0.325153 2.94661e-19)
(1.72906 -0.264564 -1.00785e-19)
(2.03281 0.0937669 -1.30586e-19)
(2.08324 -0.0695076 -1.39869e-19)
(1.06978 0.244128 -4.57759e-19)
(1.79722 0.0558946 0)
(1.35797 -0.73719 -7.4627e-20)
(-2.16325 1.73275 2.38281e-19)
(1.95163 -0.0217469 1.05355e-19)
(2.35947 -0.285577 -2.8304e-20)
(1.62712 -0.351368 0)
(2.00622 0.00187443 1.32781e-20)
(2.34648 -0.306767 1.44989e-19)
(-2.21049 0.967441 2.92497e-19)
(2.0793 -0.202394 0)
(0.444383 -0.125056 0)
(1.98925 0.0299054 0)
(2.0253 -0.518443 0)
(1.76141 -0.700358 4.23907e-21)
(1.85025 0.418513 0)
(0.640041 -0.277352 -4.70765e-19)
(2.7735 -1.13664 -3.21236e-19)
(2.08325 -0.0203662 -4.34641e-21)
(2.51378 -0.0344058 -6.65257e-20)
(2.34552 0.0149766 0)
(1.53025 1.416 -1.47315e-19)
(-0.43459 -1.18397 -1.46011e-18)
(2.67355 -0.462488 0)
(1.84835 0.0192528 3.09781e-19)
(2.62737 -1.87958 -1.25969e-18)
(2.29442 0.478485 0)
(2.14586 0.0636845 0)
(1.06161 -0.256302 7.93961e-19)
(1.81256 0.484749 -3.68661e-19)
(2.36382 -0.108556 -1.84128e-19)
(1.09846 -0.523474 8.78735e-20)
(1.37702 -0.726238 -5.32818e-20)
(1.37189 -0.670623 0)
(2.29939 -0.150833 5.39206e-20)
(2.24422 0.688391 -4.53892e-20)
(1.91247 -0.808259 3.57799e-19)
(-0.180527 0.48837 7.8533e-19)
(-0.133205 -1.13779 3.72597e-19)
(1.98945 0.0433405 -2.26557e-19)
(-0.139884 -1.54375 1.45172e-18)
(1.65275 -0.618338 1.11483e-19)
(1.35401 -0.444934 -3.9243e-20)
(1.16094 -0.415501 -3.3301e-19)
(1.91612 0.0012109 -1.7661e-22)
(2.69449 0.62852 7.88456e-20)
(-1.67425 0.597832 7.82886e-19)
(0.387141 -0.280153 1.00004e-19)
(1.92512 -0.836252 0)
(2.00125 -0.00938537 -1.22122e-21)
(1.04024 -0.495478 2.26243e-20)
(-0.231966 0.02175 -1.98719e-18)
(1.38237 -0.756364 0)
(1.24764 -0.629022 0)
(1.82028 0.0173387 -2.88077e-20)
(-1.07711 -0.240257 7.26989e-19)
(1.93021 0.0488365 -4.95016e-21)
(-0.0837571 0.114369 -9.01755e-19)
(1.83504 -0.895216 0)
(1.17735 -0.477186 2.28438e-21)
(0.239389 -0.215223 9.26525e-21)
(1.60874 -1.61651 -2.67921e-19)
(2.00158 -1.08081 0)
(2.27992 -0.736443 0)
(1.95989 -0.156733 0)
(0.529439 -1.06754 -9.87198e-20)
(2.14995 -0.1175 1.02418e-19)
(-2.1929 0.906206 -1.1764e-18)
(2.14358 -0.0658335 -1.13776e-19)
(2.04574 -0.544367 -2.91409e-20)
(1.0184 -0.585475 0)
(1.98469 0.0378162 0)
(2.0893 0.12298 -5.85455e-20)
(2.47853 -0.101241 8.33253e-20)
(1.88044 0.0218515 -2.48242e-19)
(1.53669 -2.10001 0)
(-0.258066 1.81917 1.04131e-18)
(1.08996 -0.0462417 -2.32817e-19)
(2.38237 0.389527 3.94205e-20)
(1.98333 -0.644486 3.73114e-19)
(1.49516 -0.312963 -4.30138e-20)
(2.43056 0.105062 0)
(2.48381 -0.158788 -9.32011e-20)
(2.03512 0.0370432 0)
(1.95553 0.112869 -1.42742e-19)
(2.0905 0.123047 4.76765e-20)
(2.45763 0.0316045 9.55638e-20)
(1.62124 -0.423142 5.23245e-19)
(1.82698 0.413261 2.07467e-19)
(0.900785 -0.431003 -3.60363e-20)
(1.83353 -0.74583 -2.19587e-19)
(2.63632 1.78366 -1.60243e-19)
(2.03309 0.0150527 0)
(1.85647 -0.460805 0)
(1.35903 -0.658552 0)
(2.32636 -0.263833 3.687e-20)
(-0.405696 1.14012 7.79506e-20)
(0.845346 -0.421549 4.321e-19)
(1.91762 -0.0037003 -1.71947e-20)
(2.58093 -0.424081 -3.44711e-20)
(0.200889 0.0414706 6.37731e-19)
(1.99588 2.27802 -6.64123e-20)
(2.16989 0.0601397 -1.27155e-20)
(2.26374 -0.131671 5.14384e-19)
(0.915425 -0.394914 0)
(2.76772 -0.0675624 -3.10066e-20)
(-0.24897 2.09415 -1.95547e-18)
(2.64112 -0.319354 -3.66434e-19)
(-1.45515 1.53742 -3.84885e-20)
(1.84586 0.140119 -8.05025e-22)
(1.37231 -0.428504 3.63185e-19)
(2.19447 0.705668 0)
(1.93886 0.0654829 -8.69419e-20)
(1.08914 -0.450529 -7.77464e-19)
(1.99637 0.0968654 -1.29381e-20)
(1.29978 -0.630434 0)
(2.22123 -0.130637 -1.50128e-19)
(1.05831 -0.510887 2.44462e-19)
(2.32174 -0.732481 -1.04635e-19)
(1.75388 -0.733056 -3.11396e-19)
(2.30799 0.101472 -4.32156e-20)
(2.42761 -0.356271 9.60196e-21)
(0.970556 -0.481498 4.7654e-19)
(2.16085 -0.0651599 2.25496e-19)
(1.8825 -0.40447 0)
(1.82525 -0.833477 -3.50941e-19)
(1.70731 -0.729089 -9.41092e-19)
(2.67788 -0.174817 1.81788e-20)
(2.00942 0.0661191 3.67918e-20)
(2.55648 1.41863 0)
(1.84503 0.119104 0)
(2.06128 -0.0602178 -1.75319e-19)
(0.906087 0.541655 4.05015e-19)
(2.7784 1.19549 0)
(2.44134 -0.0914956 1.38835e-19)
(1.55539 -0.690911 -4.11742e-21)
(0.919194 0.343407 -5.69938e-19)
(0.903532 -0.39557 -4.15644e-19)
(0.336019 -0.968926 1.07616e-19)
(1.87455 0.0200025 1.3946e-20)
(0.481321 -0.859516 2.83852e-19)
(2.22075 -0.564481 -1.57517e-19)
(2.29862 0.06989 0)
(1.45169 -0.138649 -9.75545e-20)
(1.26193 -0.370103 0)
(2.01057 0.114537 -4.21499e-19)
(2.03118 -0.485887 0)
(2.28293 -0.0336786 -1.4872e-19)
(1.93074 0.163389 -1.22053e-20)
(2.69054 0.210045 -2.63441e-20)
(1.1507 -0.453147 4.39336e-19)
(1.91731 0.0630883 -3.44936e-19)
(2.03234 0.132829 -3.33405e-19)
(2.01724 -0.867969 0)
(-0.0483627 -1.65357 0)
(1.22894 -0.489143 -4.33288e-19)
(2.77033 0.166028 0)
(3.2918 0.181191 -9.00889e-19)
(1.78094 0.265527 0)
(1.37816 -0.474225 3.36639e-20)
(0.792679 -0.374105 5.78164e-20)
(1.79144 -0.582002 6.5821e-19)
(0.928404 -0.361155 -2.48492e-20)
(2.3636 -0.557622 0)
(1.93753 0.124826 1.08123e-20)
(1.93457 -0.0177845 -2.22118e-19)
(0.581561 -0.289657 -8.10277e-21)
(1.96164 0.0520365 -1.93839e-19)
(2.43169 -0.02602 -6.45398e-20)
(2.43666 0.173942 -3.93452e-20)
(3.18584 0.72245 3.56391e-19)
(2.42381 0.330198 -6.77901e-20)
(-0.271356 -1.45651 -2.02079e-19)
(1.71998 -0.529016 0)
(0.0181998 -0.118146 8.56525e-21)
(2.01406 0.086221 -1.4921e-19)
(2.58539 -0.197189 0)
(1.99934 0.0471534 1.29605e-19)
(1.15393 -0.557295 -3.18258e-19)
(1.70946 1.20775 1.2802e-19)
(3.55482 -1.05607 0)
(1.41084 -0.672863 1.15878e-19)
(3.4698 -0.738257 0)
(2.16535 0.0812436 3.12256e-20)
(2.10497 -0.0595535 -7.78664e-20)
(0.589767 0.233111 9.82312e-19)
(1.05654 -0.0710129 0)
(1.56528 0.276541 2.10709e-19)
(1.9319 0.0288683 1.33915e-19)
(0.532309 -0.254557 0)
(1.73976 0.000310325 0)
(2.06004 -0.196454 0)
(0.155493 -0.0741228 7.50785e-20)
(0.511514 -0.112549 -2.73751e-20)
(2.38474 -0.164983 0)
(1.96447 0.039028 0)
(1.53167 -0.464599 5.49857e-20)
(-1.48795 0.0449088 0)
(2.37291 0.393728 3.11647e-21)
(2.92936 1.02878 2.00586e-19)
(2.0305 0.0611541 8.98034e-21)
(1.8242 0.369923 -5.0763e-21)
(0.927291 0.427304 6.55498e-19)
(2.97718 1.23001 -2.14665e-19)
(2.4206 -0.222555 6.7101e-21)
(2.02395 -0.0397255 1.47735e-19)
(1.61913 -0.164983 -2.35882e-19)
(1.95355 0.950133 -1.47538e-20)
(2.01611 0.0355 0)
(0.581093 -0.933551 -2.74165e-19)
(-2.24596 1.49239 0)
(1.26428 -0.596371 3.77476e-21)
(1.71626 -0.37743 0)
(2.88017 0.351209 0)
(1.3012 -0.622534 -2.61633e-19)
(2.07741 0.0354593 -4.86391e-21)
(-0.350857 0.366425 -1.80815e-18)
(2.06873 -0.00494383 5.47187e-21)
(1.83916 -0.715471 3.54504e-19)
(3.08291 0.894112 2.30556e-19)
(-1.6278 1.89096 1.84567e-18)
(2.05564 0.0151451 3.00399e-20)
(2.10825 -0.849306 1.32444e-19)
(1.96849 0.0511161 -2.35848e-19)
(3.90953 -1.2843 0)
(1.82528 -0.132877 -4.47093e-19)
(1.83863 -0.496838 3.65985e-19)
(2.00436 0.0925248 -5.01834e-19)
(0.865625 -0.433967 -4.47535e-20)
(1.62111 1.20464 -1.28105e-19)
(2.90812 1.12704 3.05188e-19)
(2.58614 -0.590003 0)
(1.92297 -0.123482 0)
(1.3615 0.665028 -7.35344e-19)
(2.12547 -0.138111 9.32235e-20)
(1.40345 -0.678011 0)
(2.31457 -0.114423 -1.27808e-19)
(2.02102 -0.0150547 -2.81047e-19)
(1.17298 -0.597541 -2.8139e-20)
(1.45549 -0.717525 1.13409e-19)
(2.48924 0.19602 -3.95525e-21)
(1.54782 -1.74723 1.9874e-20)
(2.40337 -0.361285 -2.80972e-19)
(1.98006 -0.493552 2.54962e-19)
(3.35836 0.696389 7.93773e-19)
(1.55644 -0.651829 3.39279e-19)
(1.98449 0.0753004 -1.11032e-21)
(0.999536 0.268221 4.77566e-19)
(2.14142 2.11384 0)
(1.73207 -0.496626 2.12753e-19)
(1.30154 -0.748653 0)
(-2.31715 0.868822 -3.51056e-18)
(2.07717 -1.66374 0)
(0.602893 -0.272297 -1.42343e-19)
(1.6495 -0.710595 -4.76391e-19)
(2.75828 0.680847 -3.82146e-19)
(2.0814 -0.857529 0)
(1.4799 -0.650147 0)
(2.59071 -0.470521 0)
(2.01513 0.106107 1.09385e-19)
(3.62577 -1.00781 -2.4559e-18)
(-0.0247048 0.0373969 1.36322e-18)
(1.60804 -0.334715 -7.72252e-21)
(3.47148 0.688602 -8.66676e-19)
(2.0655 0.269083 0)
(1.2602 1.92462 2.14278e-19)
(2.53828 1.23511 1.36323e-19)
(2.56537 -0.450368 -6.17513e-19)
(1.56124 -0.729186 2.94309e-19)
(2.95133 0.184527 -3.78818e-21)
(1.16925 -0.568658 5.33722e-19)
(2.273 0.444106 0)
(2.05545 -0.0693744 7.5126e-20)
(1.46391 -0.480644 3.21971e-20)
(1.92628 -0.0502306 2.90524e-20)
(3.28315 0.384201 -4.67086e-19)
(1.73141 -0.419257 0)
(2.50692 0.694753 0)
(3.38537 -1.41285 0)
(-1.87493 1.48366 0)
(1.91224 0.0195521 0)
(1.4486 -0.541174 1.45979e-19)
(3.75926 0.473138 6.36466e-19)
(1.48627 -0.624493 4.03873e-19)
(1.98937 0.025209 2.36496e-19)
(1.22578 -0.750812 0)
(2.07685 -0.872565 2.76593e-21)
(-0.562197 -0.326221 0)
(1.26532 -0.820406 -7.39378e-20)
(-0.589812 -0.0123158 7.44653e-19)
(4.06857 0.210322 -4.03344e-19)
(1.95303 0.102745 2.49344e-19)
(1.98158 0.345843 -7.8701e-20)
(3.45381 -0.697746 -4.07636e-19)
(2.34443 -0.046162 0)
(-1.90369 1.75607 1.70522e-18)
(2.01626 -0.0112504 0)
(1.56162 0.856998 1.67043e-20)
(2.50428 -0.0959154 0)
(2.06952 0.158142 -1.01778e-19)
(2.08969 -0.100359 0)
(0.955378 -0.374242 -2.93355e-19)
(-0.738136 -0.119299 6.08887e-19)
(1.9896 -0.0472021 -9.24772e-20)
(1.39886 0.320389 4.2398e-19)
(0.28054 -0.137905 -1.53899e-19)
(1.85452 -0.385187 0)
(1.03647 -0.226376 -1.12351e-18)
(1.99286 0.0925254 6.04635e-21)
(3.79429 -0.176856 -1.28747e-18)
(1.89421 0.0109778 5.37414e-21)
(2.56214 -1.16592 7.63869e-19)
(3.78748 0.401001 0)
(1.79327 -0.807958 -7.58817e-20)
(1.4659 -0.668708 0)
(2.59545 -0.177213 1.11346e-20)
(0.498445 -0.155416 7.2075e-20)
(0.956199 -0.903794 0)
(2.37726 0.316206 0)
(1.62625 -0.662388 -7.48354e-20)
(2.47517 0.649884 0)
(1.78843 1.73147 6.27014e-20)
(2.99318 0.741844 -3.58342e-19)
(-2.45051 1.20794 -1.08804e-18)
(1.41406 -0.690237 -4.65514e-20)
(1.95275 0.0874221 -7.71152e-21)
(1.06628 -0.628178 -6.33273e-22)
(-1.00469 0.182953 -4.55012e-19)
(1.86472 -0.017533 4.7552e-19)
(1.09746 -0.549532 3.19528e-20)
(0.438688 -0.206407 0)
(2.3609 0.181552 -7.71036e-20)
(1.54031 -0.679067 9.604e-20)
(0.440457 0.189617 7.80552e-20)
(3.60122 0.0278757 9.51389e-19)
(2.89584 1.52066 0)
(1.84066 -0.52426 -3.67673e-19)
(1.95167 0.351651 1.14632e-21)
(3.43214 0.527358 -1.01365e-19)
(2.50828 -0.129725 -2.62127e-19)
(1.4451 -0.730687 2.94575e-20)
(0.748778 -1.24773 2.18729e-19)
(1.50003 -0.611454 -9.74517e-20)
(1.44093 -0.7174 1.22051e-21)
(2.39097 -0.211914 -2.15405e-19)
(1.42907 -0.734808 -3.30018e-20)
(1.79654 -0.350297 0)
(1.91555 -0.165819 -4.34742e-19)
(0.0451995 1.85683 0)
(1.37461 -0.701664 -2.87233e-20)
(1.14237 1.0823 2.54848e-19)
(-0.921723 1.58224 1.13969e-18)
(1.98806 0.115348 -3.56411e-21)
(0.47907 -0.276179 1.00602e-20)
(-0.648201 1.04091 0)
(2.20567 -0.819113 3.50541e-19)
(2.18253 -0.859849 8.39946e-20)
(-0.663195 1.72377 -9.44724e-19)
(1.78789 0.507897 0)
(1.72173 0.493049 0)
(0.237225 0.301996 0)
(1.52822 -0.519527 -3.42678e-20)
(1.89412 -0.0245624 -4.24961e-19)
(1.383 0.129534 0)
(1.77423 -0.744431 0)
(2.26532 0.194226 -7.35712e-21)
(1.88329 -1.20508 5.74371e-21)
(2.11117 0.138236 -2.95696e-19)
(1.66734 -0.377998 -4.01699e-20)
(1.79649 0.0386651 4.17826e-20)
(1.96464 0.0565324 -1.46549e-20)
(1.96639 0.130803 -2.01727e-20)
(2.00424 0.515571 -2.33456e-20)
(1.96312 1.16824 0)
(-0.804438 0.105823 3.67604e-20)
(-1.45265 1.70787 0)
(1.02913 0.14435 0)
(2.80084 0.0667518 -4.32893e-19)
(1.09129 -0.796809 0)
(2.45839 0.299849 0)
(1.93328 -0.154791 6.69482e-19)
(1.89247 -0.835766 0)
(1.97221 0.10929 3.48143e-19)
(3.36231 0.2096 4.65218e-19)
(3.1552 0.292015 1.57079e-19)
(1.98816 0.114035 1.39922e-21)
(1.18461 1.28216 2.37785e-19)
(2.22355 -0.856675 4.03908e-21)
(1.98567 -0.790724 -6.328e-21)
(1.20249 -0.468433 4.2336e-19)
(1.13549 -0.641995 0)
(0.967956 -0.477632 0)
(0.841594 -0.564812 -1.24829e-19)
(-0.629573 -0.154132 -8.08014e-19)
(1.46159 -0.669942 0)
(1.11103 -0.602794 5.73487e-20)
(-1.14461 0.302958 0)
(-1.77697 1.95079 1.80921e-18)
(1.15524 -0.534278 -5.48761e-19)
(3.34007 0.00784807 -2.14108e-20)
(3.10081 0.494851 3.76957e-19)
(1.25099 -0.425914 8.56786e-20)
(2.39252 -0.132334 1.18955e-19)
(2.3887 0.878723 0)
(2.53534 0.781179 0)
(1.09877 0.016782 0)
(0.197303 -0.085874 -7.57534e-19)
(1.4487 -0.550526 0)
(2.37019 0.550465 0)
(2.02427 -0.00786424 0)
(2.48716 -0.383082 -5.54765e-20)
(-2.10589 1.24163 5.79464e-19)
(2.05227 -0.79738 -1.922e-19)
(1.49031 -0.54147 8.71463e-20)
(1.74648 0.319585 0)
(0.910211 -1.06654 0)
(1.98097 -0.613023 -3.40374e-19)
(1.61645 0.528899 6.2534e-19)
(0.460108 -0.389945 -8.79552e-20)
(2.1062 0.167464 -8.99068e-21)
(1.76785 -0.475424 3.89642e-19)
(1.00647 0.44997 -1.02834e-18)
(-0.773609 -0.291601 0)
(1.25183 1.28886 -5.59274e-19)
(0.418587 0.338344 -6.46108e-19)
(3.14815 0.0763912 0)
(2.32587 -0.0753393 0)
(1.75972 0.00901745 0)
(2.03272 0.0322532 -4.17983e-19)
(1.43668 0.260965 -4.34513e-19)
(1.67958 0.10866 0)
(3.53303 1.31411 1.78591e-18)
(1.83002 -0.820204 3.55787e-19)
(2.5071 -0.350588 6.828e-20)
(1.03178 -0.513716 4.6428e-20)
(2.05542 -0.303046 0)
(2.44603 0.137358 5.17984e-20)
(1.80599 -0.434042 0)
(1.51097 -0.693735 -9.34999e-20)
(1.76947 -0.803435 0)
(2.1494 -0.784561 4.24165e-19)
(1.52313 -0.312671 -2.08869e-22)
(2.03169 0.0633604 -1.06426e-20)
(2.49753 -0.366445 0)
(1.85478 -0.795272 0)
(1.6255 -0.700457 -4.97589e-19)
(2.33718 0.352738 -3.44202e-21)
(1.32822 -0.787469 3.71749e-20)
(0.885659 -0.425555 4.29667e-19)
(1.93289 -0.0533184 0)
(1.59465 0.20785 -6.60153e-19)
(2.23176 -0.00172314 -4.22435e-20)
(1.54592 -0.505083 -3.67737e-20)
(2.03973 0.0866801 -1.48376e-20)
(2.05625 0.104659 0)
(1.2111 -0.358955 6.023e-19)
(0.974381 0.194166 -6.58675e-19)
(3.71038 0.343297 1.02445e-20)
(1.84322 0.261093 -7.41189e-19)
(1.08224 -0.524829 4.13029e-20)
(0.701429 0.352385 -1.59024e-18)
(1.62772 -0.303112 -4.30296e-21)
(2.06234 -0.00889152 -3.91147e-20)
(2.06391 0.346395 1.5258e-18)
(-0.553434 0.0704142 1.31201e-20)
(1.19721 -0.632229 7.6477e-20)
(1.28494 -0.795532 7.76482e-20)
(1.7813 0.0001135 1.7685e-20)
(2.39343 -0.194172 0)
(4.13263 -0.94395 2.26274e-18)
(1.17 -0.569958 2.4126e-19)
(1.68436 -0.253515 2.32739e-19)
(-0.780752 -0.0803385 0)
(1.65907 -0.385986 -6.25138e-20)
(2.00234 0.000402945 1.67026e-21)
(1.91132 0.0916167 0)
(-1.52916 0.212493 5.46055e-19)
(1.48372 -0.820762 2.52009e-20)
(1.80383 0.247969 0)
(1.08647 -0.419163 0)
(1.60068 -0.481493 -5.31894e-20)
(1.60595 -0.57238 -1.14779e-20)
(2.74677 0.0632232 1.54505e-19)
(0.349941 -0.28379 0)
(2.03043 0.0687648 -3.72902e-19)
(1.98389 -0.410821 -5.06834e-20)
(2.21425 -0.758041 2.42586e-20)
(1.2558 -0.486365 5.32582e-19)
(1.15133 -0.707839 -6.40315e-20)
(1.1749 -0.875054 5.04698e-20)
(3.61429 0.279563 -8.87217e-21)
(1.91273 -1.0309 0)
(2.70246 0.767953 -1.40824e-18)
(1.61184 -0.650886 2.49103e-19)
(2.11562 1.95798 1.86155e-19)
(0.861108 0.606482 0)
(1.17951 -0.244298 -5.32212e-19)
(1.25997 -0.532091 -6.46376e-19)
(0.913645 -0.688373 8.31281e-20)
(-2.05241 1.51463 -1.8244e-18)
(2.55415 1.63768 0)
(-0.531543 -0.246927 -8.59077e-19)
(2.31654 0.429833 0)
(-0.531351 1.54492 -1.54745e-18)
(0.0730346 -0.292398 1.41431e-18)
(-0.0709385 -1.38253 0)
(1.00708 -0.784693 2.91009e-20)
(1.64651 -0.116455 -9.63813e-20)
(-2.3736 1.34663 6.63004e-19)
(1.70901 -0.67357 4.5168e-19)
(0.694656 -0.512075 -2.20794e-19)
(1.22677 -0.558845 0)
(2.01655 0.0332073 1.3377e-19)
(2.37543 0.353611 0)
(2.25768 0.212737 -2.5655e-21)
(-0.393619 0.143201 -1.63874e-18)
(0.599458 -0.242042 2.80755e-19)
(2.05784 0.118011 0)
(1.93126 -0.777662 -3.39366e-19)
(2.5979 -0.333869 1.05072e-19)
(1.06201 -0.923115 1.28333e-19)
(1.48556 -0.792357 0)
(1.09453 -0.879221 -1.14136e-19)
(3.56065 0.472959 -9.74852e-19)
(1.64226 0.19261 8.44579e-19)
(1.82452 -0.331653 0)
(2.08413 -0.0797912 2.21929e-19)
(-0.0713875 0.903706 9.48804e-19)
(-2.28888 1.02141 -3.55837e-19)
(2.22368 -0.588024 1.32171e-19)
(1.17837 -0.560902 0)
(1.71217 -0.10073 -2.1215e-20)
(2.008 0.0460098 5.93893e-22)
(2.55609 -0.358313 1.05804e-19)
(2.21081 0.0534049 0)
(0.908164 -1.15147 9.00545e-20)
(1.6912 -0.468502 -2.35877e-22)
(1.31461 -0.389404 6.61006e-20)
(3.161 0.229079 0)
(2.07909 -0.814437 -1.50243e-19)
(0.820858 -0.649885 1.52669e-19)
(1.76897 -0.424625 -4.87317e-19)
(0.118903 0.2458 0)
(1.65167 -0.742221 3.77146e-20)
(2.09954 -0.791149 1.23289e-19)
(1.12864 -0.594414 -7.78568e-20)
(1.83956 0.399728 0)
(-2.18108 1.16453 2.24815e-18)
(1.59689 -0.500677 0)
(0.516482 -1.2888 2.70248e-19)
(1.67967 -0.619799 0)
(1.86425 -0.126273 -2.47272e-19)
(2.21454 -0.248012 -2.52337e-19)
(3.17523 1.15015 -9.03064e-19)
(1.51622 -0.404649 0)
(2.0373 -0.874839 -2.32368e-19)
(2.06492 0.00401963 0)
(2.32804 0.353984 0)
(2.12055 -0.874513 6.68964e-20)
(0.728182 -1.12851 9.48545e-20)
(0.619219 -0.0880847 1.76622e-19)
(2.14659 -0.571305 -7.93125e-20)
(1.68867 0.298132 2.73416e-19)
(1.20216 -0.671481 -1.10073e-20)
(2.13787 0.277543 1.38344e-19)
(-1.01557 -0.318382 -9.87388e-20)
(1.89168 -1.56893 0)
(2.38518 0.210517 0)
(-0.469692 -0.344026 0)
(1.42629 -0.720524 1.25221e-19)
(1.21613 -0.427523 -3.74098e-19)
(1.51431 0.139181 0)
(0.823689 -0.396013 1.31294e-19)
(2.32357 -0.134826 -1.75687e-19)
(1.0911 -0.519363 -4.76632e-20)
(1.43265 -0.514041 -1.21515e-19)
(2.20262 -0.879413 0)
(-2.30049 1.06783 1.81306e-18)
(-1.70633 0.348091 -1.46184e-18)
(-0.626018 -0.851617 0)
(-0.692985 -0.15588 -1.1295e-18)
(2.02971 0.0307645 1.93161e-22)
(2.54898 0.274584 5.81064e-20)
(1.98422 0.0347966 2.48283e-19)
(2.86251 0.902855 -3.8978e-19)
(2.36528 0.19359 7.4252e-21)
(0.63545 1.58423 0)
(1.98524 -0.787345 0)
(0.654305 -0.315567 1.30623e-19)
(-1.57131 1.51899 0)
(1.64938 -0.348933 -6.32622e-20)
(2.18779 -0.791557 -2.22511e-19)
(1.0199 -0.47943 4.505e-19)
(2.02101 -0.0982126 -6.92806e-20)
(1.7537 0.371326 -2.7046e-19)
(1.57503 -0.641441 -2.45116e-19)
(1.65857 -0.663435 -4.5429e-19)
(1.58366 -0.556126 0)
(1.76412 -0.681533 4.30636e-19)
(1.97778 -0.0532609 0)
(2.5488 -0.385056 -5.43816e-21)
(2.09142 1.24222 7.58043e-21)
(1.73216 -0.719861 -4.50388e-20)
(2.25367 -0.413662 -2.13435e-19)
(-1.69651 1.7626 -1.42146e-18)
(-1.04072 0.0170203 0)
(1.61049 -0.761857 -3.01023e-20)
(1.34204 -1.53695 -2.1589e-19)
(2.13693 0.579013 -1.40368e-19)
(1.87921 -0.758402 3.97261e-19)
(2.16457 0.00943124 -3.66055e-21)
(-2.20571 1.33062 6.68168e-19)
(1.84107 -0.774054 -7.74205e-20)
(0.399352 0.089805 0)
(1.197 -0.570144 1.40635e-19)
(1.80972 -0.391132 2.57553e-19)
(1.98733 0.00306997 -1.0681e-22)
(1.22967 -0.536727 9.48456e-19)
(-0.485859 1.74874 -3.23452e-20)
(1.69707 0.581748 0)
(1.4638 -0.722513 -5.06137e-20)
(0.942683 -1.03646 -9.81179e-21)
(1.12537 -0.35603 -7.14853e-19)
(1.42791 -0.69252 5.59531e-20)
(3.12223 0.644902 -3.99097e-19)
(2.1692 0.595348 1.83805e-21)
(1.00634 -0.418726 3.23676e-19)
(1.8237 -0.370964 0)
(2.38178 0.0248597 -1.29528e-19)
(2.18592 0.0731817 -3.69534e-21)
(3.06557 0.611252 -3.83319e-19)
(1.45735 0.88595 0)
(3.40562 0.588142 3.73757e-20)
(-0.780782 1.44469 1.49066e-18)
(1.66035 -0.721585 9.6367e-19)
(1.63332 0.887692 1.69238e-20)
(3.15919 -0.780365 -1.28107e-18)
(-2.27656 1.02 3.73857e-18)
(2.0364 -0.778032 3.93649e-19)
(2.09014 0.0162817 -3.78639e-21)
(-0.132595 0.51693 4.67746e-21)
(2.41833 -0.0791105 2.94313e-20)
(0.915181 0.118554 0)
(2.04348 -0.000536687 0)
(2.3249 0.358048 0)
(1.81589 -0.69589 -3.73749e-19)
(1.7049 -0.643086 7.31648e-20)
(-0.361757 1.22852 0)
(1.27114 -0.386236 -1.54874e-19)
(0.396529 -1.84665 0)
(3.01166 -0.795662 0)
(0.0154786 1.65632 0)
(1.95877 0.0322604 0)
(-2.22629 1.27214 -7.11558e-19)
(-1.24188 -0.243464 0)
(2.31614 -1.17623 3.3532e-19)
(1.70631 -0.0589182 0)
(1.99461 0.0405696 0)
(1.93679 0.166786 1.22786e-21)
(-0.995821 -0.107033 0)
(1.88761 -0.854542 0)
(-0.317504 0.598944 0)
(2.23751 0.0449938 2.04345e-20)
(2.13023 0.38348 0)
(2.20958 -0.859751 -8.57083e-21)
(1.19247 0.714737 -3.15951e-20)
(-2.08434 0.877945 -5.08014e-19)
(2.01972 0.0304396 5.985e-19)
(-0.186457 0.000755251 -3.44407e-20)
(1.10408 0.856236 -5.43535e-19)
(1.49989 0.664857 0)
(2.44057 -0.348113 8.27584e-21)
(1.64483 -0.186134 -2.27245e-19)
(1.64724 1.60364 1.29768e-19)
(1.82237 0.36756 3.75822e-19)
(0.832132 -0.308935 -6.80957e-19)
(1.56471 -0.693912 -3.78369e-19)
(2.1031 -1.44375 4.72479e-20)
(1.544 -0.811674 0)
(2.39896 -0.507082 2.49269e-22)
(1.60374 -0.78936 3.55078e-20)
(2.56031 0.131096 -7.07e-20)
(0.541336 -0.462093 0)
(1.87487 0.0543506 -2.79944e-19)
(3.18594 0.573273 -1.09125e-18)
(1.40928 -0.564711 4.90596e-19)
(1.28687 -0.581927 -5.92703e-19)
(1.70913 -0.789309 0)
(1.81927 -0.800862 0)
(2.09554 -1.1127 2.90387e-19)
(2.30507 -0.398984 -1.33348e-19)
(3.1665 -0.125366 -5.48278e-19)
(1.86205 0.0213991 9.0403e-21)
(1.2519 -0.355725 -1.43834e-19)
(1.75668 -0.533166 4.12654e-19)
(2.42298 0.230513 0)
(2.36066 0.258242 2.38639e-20)
(-1.99881 0.553883 -2.40645e-18)
(1.76791 -0.884819 1.94666e-19)
(1.07958 -0.21717 -2.84651e-20)
(-0.463725 0.337491 9.04996e-19)
(3.08044 -0.0740834 4.57837e-19)
(2.54075 0.620656 8.50479e-20)
(2.34374 0.489828 0)
(1.37792 -0.759886 0)
(2.26535 -0.862178 -1.50553e-21)
(1.1913 -0.270826 0)
(1.89033 -0.406362 1.71469e-19)
(1.66313 0.252049 4.75772e-19)
(1.70261 0.48442 -1.37414e-19)
(1.63124 -0.672501 9.84689e-19)
(2.00651 0.0640161 -3.62708e-22)
(1.77937 0.0468773 0)
(1.91202 0.011256 -3.88958e-21)
(0.154878 1.30242 -8.84739e-19)
(2.13915 0.245068 0)
(2.64075 -0.387199 0)
(1.96176 -0.796804 1.45056e-19)
(1.94108 0.483158 1.98666e-19)
(1.11965 -0.181506 0)
(2.14776 -0.697804 1.64312e-21)
(2.31267 -0.0278973 1.15457e-19)
(2.29352 0.300613 1.76055e-20)
(1.76993 0.478713 4.05204e-19)
(1.45918 -0.724065 -6.26622e-20)
(1.40535 -0.375473 0)
(-1.37029 1.84258 -3.36253e-18)
(0.55505 -0.246915 1.01796e-18)
(2.04658 -0.0119521 1.58784e-20)
(-1.19246 1.78846 -1.54501e-18)
(1.85384 -0.768798 2.81584e-20)
(2.51963 0.184409 1.91302e-19)
(1.87134 -1.45182 0)
(1.98655 0.145063 2.28447e-21)
(1.84401 0.0258089 8.76081e-20)
(2.25585 -0.00196368 -1.58581e-19)
(2.23808 0.567507 -9.43198e-20)
(2.24515 -0.820832 0)
(1.3847 -0.689097 0)
(2.35916 0.00507245 0)
(2.36287 0.355966 -4.16149e-20)
(1.09561 -0.51192 7.06739e-19)
(2.48925 1.67735 -1.12599e-19)
(1.51986 -0.127239 0)
(-0.211258 -0.337746 -7.48441e-20)
(1.41271 -0.740474 5.70011e-20)
(-0.124499 -1.29393 0)
(1.93834 0.238398 -1.23592e-19)
(1.69763 0.234429 -1.59417e-19)
(2.47461 -0.367401 -5.15433e-20)
(2.03386 0.077329 -1.11517e-20)
(0.729831 -0.269973 0)
(2.13118 0.193587 -1.39981e-19)
(2.05762 -0.46432 0)
(2.04145 -0.28182 8.46062e-21)
(1.0032 0.0616284 0)
(2.29602 0.739499 5.06942e-20)
(1.73273 -0.693479 -4.40205e-19)
(2.50509 0.699728 0)
(1.86034 -0.0914264 -4.32256e-19)
(2.04475 0.104764 1.64074e-20)
(1.70566 -0.183806 0)
(1.18056 -0.561185 0)
(0.568876 0.16354 -8.66386e-20)
(2.5563 -0.15609 -1.14356e-20)
(1.52718 -0.744941 -4.13056e-20)
(0.750135 -0.477378 -1.67448e-20)
(2.40356 -0.127623 1.65191e-21)
(2.03234 0.590165 6.51184e-19)
(1.75875 0.399709 -1.75067e-21)
(2.19552 0.560983 0)
(3.43238 0.438793 4.93811e-19)
(1.75868 -0.802533 0)
(1.55397 -0.715206 -4.1384e-19)
(1.86094 -0.806744 -5.07943e-19)