/*--------------------------------*- C++ -*----------------------------------*\
| =========                 |                                                 |
| \\      /  F ield         | OpenFOAM: The Open Source CFD Toolbox           |
|  \\    /   O peration     | Version:  2306                                  |
|   \\  /    A nd           | Website:  www.openfoam.com                      |
|    \\/     M anipulation  |                                                 |
\*---------------------------------------------------------------------------*/
FoamFile
{
    version     2.0;
    format      ascii;
    arch        "LSB;label=32;scalar=64";
    class       volVectorField;
    location    "9.6";
    object      U;
}
// * * * * * * * * * * * * * * * * * * * * * * * * * * * * * * * * * * * * * //

dimensions      [0 1 -1 0 0 0 0];

internalField   nonuniform List<vector> 
5098
(
(2.26078 0.902258 0)
(2.05008 0.0659594 -8.27586e-20)
(2.46091 -0.0408673 -1.8168e-21)
(1.77397 -0.78403 2.91792e-19)
(3.9183 -0.970118 0)
(1.10787 -0.529847 0)
(2.46655 0.0192016 1.84185e-19)
(3.11793 -0.0801106 1.64695e-21)
(2.6545 -0.0584548 -3.99012e-20)
(1.48901 0.000127841 2.95763e-19)
(-3.13412 1.15908 0)
(1.9265 -0.00659366 4.68099e-20)
(2.27756 0.566117 2.6795e-20)
(1.14534 -0.561119 0)
(2.79101 -0.525936 1.88385e-19)
(1.78636 0.0744869 -1.88672e-21)
(-0.703329 -0.0456718 -1.45521e-18)
(-2.28431 1.1643 0)
(-0.207368 0.175046 1.15338e-19)
(-0.460332 -0.0710903 1.65717e-18)
(1.78106 0.398156 -9.17906e-20)
(1.7231 0.0642724 -7.46814e-21)
(2.67954 -0.764896 0)
(0.984533 -0.151479 2.53826e-20)
(0.283758 -0.128742 0)
(1.69344 -0.687131 0)
(1.99137 -0.0217306 1.21031e-19)
(2.20168 -0.845539 -3.96826e-20)
(-0.295867 0.15157 -3.57433e-19)
(2.64959 -1.01831 0)
(2.2357 -0.00330757 -2.85938e-20)
(0.911774 -0.447304 0)
(2.1195 0.0353766 -9.70586e-20)
(-2.53432 2.38103 0)
(2.40472 0.391706 3.9961e-20)
(3.55175 0.66218 4.53055e-19)
(2.118 -0.406376 3.56443e-20)
(2.14233 -0.0103594 -1.28401e-21)
(1.54083 -0.529593 3.53181e-19)
(1.95598 -0.841907 0)
(1.79411 -0.803257 -1.1867e-19)
(-0.259022 2.46949 -6.34641e-19)
(1.7205 -0.689274 0)
(2.33576 -0.395105 1.05162e-19)
(2.28078 0.628709 -1.02522e-19)
(2.01517 0.0328596 1.12158e-20)
(-1.23924 0.132881 4.3264e-19)
(1.29422 -0.466861 0)
(2.22398 -0.00691956 0)
(1.76818 -0.747946 3.21011e-20)
(2.15458 0.109785 1.67557e-19)
(1.67286 0.287031 -4.63008e-19)
(0.237709 -0.0937462 4.43614e-22)
(2.15868 -0.0582677 7.64917e-20)
(1.16777 -0.579446 -1.80852e-19)
(1.68599 -0.00594723 0)
(1.88446 0.164668 -2.43138e-19)
(1.87958 -0.73555 0)
(1.06598 -0.525639 0)
(2.15387 -0.058679 -4.47452e-20)
(1.65013 -0.598843 -1.98511e-20)
(0.0948419 -0.198426 -1.07873e-18)
(2.40345 0.406516 0)
(2.15323 0.57457 0)
(0.329948 -0.103241 9.05004e-19)
(1.01597 -0.51115 2.84261e-19)
(2.67801 0.0639376 -5.59453e-21)
(2.22031 0.154358 4.3392e-20)
(2.26383 -0.133454 1.41673e-20)
(1.94078 -0.785534 5.11509e-20)
(1.9147 0.102226 6.44181e-21)
(0.793408 -1.40424 -3.2793e-20)
(2.34321 -0.845142 0)
(-0.520944 1.12835 0)
(1.92423 -0.407512 2.40155e-20)
(1.37272 -0.665968 -1.58435e-19)
(1.74385 -0.259717 0)
(1.61421 0.0636372 3.62456e-19)
(1.96273 -0.253629 1.25008e-19)
(1.7163 0.0356612 0)
(1.83137 -0.128009 0)
(0.464737 1.39112 8.68025e-20)
(1.89698 -0.337699 2.7708e-19)
(-2.65354 2.63585 -2.76452e-19)
(-2.27909 1.35591 4.67973e-19)
(2.4594 -0.948774 -1.08302e-18)
(0.364077 0.0237698 -2.59582e-19)
(1.7663 -0.249957 1.68096e-21)
(3.07353 0.0739383 5.40448e-20)
(1.54125 -0.581219 -1.52075e-20)
(2.28269 0.0119642 9.41104e-22)
(0.841054 -0.540388 2.90903e-19)
(2.46628 -0.029771 -6.26789e-20)
(1.78888 -0.765166 -1.55201e-19)
(1.5211 -0.55446 6.20318e-20)
(0.395268 -0.786207 -6.87916e-20)
(1.32836 -0.650506 -5.83504e-20)
(1.55841 0.133895 2.78544e-19)
(1.87878 -0.386575 8.60354e-21)
(2.33935 -0.341358 3.29507e-20)
(1.76414 0.61259 -9.4913e-19)
(1.23275 -0.606138 -1.97833e-19)
(2.42349 2.75178 -1.66511e-18)
(2.43578 -0.112254 4.20509e-21)
(1.63082 0.0504038 -4.12008e-19)
(2.15638 0.93102 0)
(1.94132 0.143218 2.62681e-19)
(2.29906 0.0988087 1.13175e-19)
(1.23881 -0.515349 5.69506e-20)
(-2.90755 1.08863 0)
(1.30998 -0.621199 -2.36661e-19)
(0.70894 0.258002 1.57218e-19)
(1.9741 -0.00872469 -1.52078e-19)
(0.963444 -0.533107 8.3212e-20)
(1.73582 0.466386 1.34722e-19)
(-0.485793 0.280579 0)
(0.96389 1.40885 3.86673e-19)
(2.2588 1.24821 0)
(1.5833 -0.187794 -2.74179e-20)
(1.02239 -0.188523 -3.81864e-19)
(1.71919 0.267058 3.80378e-19)
(1.34624 1.42277 -5.71751e-19)
(1.39404 -0.0796635 -1.91943e-19)
(-0.757591 2.0216 -3.21791e-19)
(0.236459 -0.637188 -3.8998e-19)
(0.711549 -0.571148 2.01306e-19)
(2.32095 -0.0352067 5.99312e-20)
(2.6117 -0.729961 3.55429e-19)
(1.53231 -0.253207 -8.44857e-20)
(0.891928 -0.506615 -1.48968e-19)
(-0.94678 1.73607 -4.46134e-19)
(1.33725 -0.600765 -3.93725e-19)
(1.3618 -0.597259 3.26409e-19)
(2.18281 1.24181 3.68987e-20)
(0.141821 -0.671145 -3.36868e-18)
(3.66032 0.324959 4.33872e-19)
(1.58906 1.79403 -3.3476e-19)
(1.91967 0.144529 1.8562e-19)
(1.07308 -0.528392 0)
(2.17117 -0.0455628 -2.59749e-19)
(1.62443 0.360557 -3.15382e-19)
(4.30812 0.718911 1.20829e-18)
(2.16391 -0.922225 -1.71062e-19)
(2.42063 -0.0324844 -8.46812e-21)
(2.0392 0.0400488 -7.97037e-20)
(2.42777 -0.0372382 0)
(2.24903 -0.147333 3.62761e-20)
(3.33067 -1.59101 0)
(2.8491 0.0634202 2.00418e-19)
(2.19238 -0.935284 -1.56481e-19)
(0.924992 1.94478 -5.79103e-19)
(1.22508 0.889983 0)
(3.77233 -1.43515 4.92609e-19)
(2.07603 0.0371447 0)
(0.371499 -0.0398287 -3.10139e-19)
(1.02672 -0.427699 -1.50757e-19)
(1.8811 -0.739304 -1.18141e-19)
(1.57655 -0.270846 -7.16087e-19)
(1.75037 -0.803181 -1.04555e-19)
(-0.110982 0.0618808 3.90498e-19)
(2.18737 -0.37124 -4.38716e-20)
(2.81484 -0.576722 -2.35526e-19)
(0.444388 0.748731 -1.80262e-19)
(1.96162 -0.181698 -1.65231e-19)
(-1.47323 0.996753 -3.1511e-19)
(2.17739 -0.0602583 -6.12557e-20)
(3.98434 -1.15514 -1.73392e-18)
(2.83216 0.0462075 0)
(0.00610345 0.110495 3.14762e-19)
(1.93566 -0.604548 -1.59461e-19)
(0.332777 -0.908889 4.89781e-20)
(1.76895 -0.716313 -1.12749e-19)
(2.09741 0.462395 2.56239e-19)
(2.18236 -0.798789 -8.88231e-20)
(2.54809 -0.030946 0)
(1.93869 0.00400632 0)
(1.92529 -0.328309 -9.69e-20)
(3.04288 0.68222 -2.45547e-20)
(1.89911 -0.179308 2.65968e-19)
(0.522753 -0.123746 0)
(1.48252 1.8305 0)
(1.26469 1.28224 -1.83135e-19)
(2.0195 -0.5703 1.40742e-19)
(-1.29838 1.02439 0)
(1.99306 -0.186354 0)
(2.44789 0.785004 -1.73727e-19)
(1.59861 0.153081 0)
(2.13794 -0.400829 9.49199e-20)
(1.21934 -0.589661 2.83309e-19)
(0.19725 -0.0068014 -1.94141e-19)
(0.791475 0.530963 0)
(1.45514 0.834493 -6.93142e-20)
(2.37906 -0.87473 0)
(1.9465 -0.429769 2.57351e-20)
(2.19661 -0.041555 6.35645e-21)
(1.04146 -0.520491 -3.53304e-19)
(1.83822 0.494127 2.37897e-20)
(3.99449 0.485821 0)
(2.123 0.0330161 5.07977e-21)
(1.97892 -0.581791 -2.02656e-20)
(-0.47306 1.03432 -7.02085e-19)
(1.73019 0.225174 5.67523e-21)
(2.28054 0.62878 -7.4985e-20)
(2.34368 0.0188561 9.22679e-21)
(1.56393 0.00667624 9.75712e-20)
(0.996766 -0.42638 -1.06621e-19)
(2.64633 0.141238 1.03109e-21)
(1.41021 -0.652462 0)
(2.41979 -0.0298688 0)
(1.75637 -0.815058 3.01359e-19)
(2.08007 -0.123748 -7.75529e-20)
(1.76289 0.196878 2.97545e-19)
(1.6295 0.976393 7.28098e-20)
(2.05994 0.0533264 -3.00554e-19)
(2.54538 -0.0579111 -2.41863e-19)
(-0.134097 0.206147 -9.38894e-20)
(2.01083 -0.460427 0)
(-2.69282 0.922745 -1.22567e-18)
(0.435429 -0.555176 5.23699e-20)
(1.99834 0.0362089 1.78528e-19)
(2.26657 0.0336575 3.39029e-21)
(1.7733 -0.379023 0)
(2.67746 0.055573 -9.63111e-21)
(2.29979 -0.0289545 -4.29302e-20)
(0.93769 -0.309805 1.02014e-19)
(2.1532 -0.111045 0)
(0.635066 -0.233673 0)
(1.99179 0.00716718 0)
(2.2832 -0.383651 0)
(2.99726 -0.879747 -1.02702e-19)
(1.80036 0.302507 0)
(0.811436 -0.373207 -4.1007e-19)
(1.31283 0.656519 -5.85148e-20)
(1.85843 0.0551515 5.75687e-21)
(2.52127 -0.0710366 -4.51227e-20)
(2.24183 -0.0683175 0)
(1.3699 1.08187 -3.53408e-19)
(0.314789 0.226061 -7.61904e-19)
(3.07428 0.454849 0)
(1.92958 -0.0471106 2.22075e-19)
(0.189764 1.43687 -3.26941e-19)
(2.12194 0.498469 0)
(2.71723 -0.0236084 0)
(1.24253 -0.352778 6.47066e-19)
(1.79109 0.33619 -4.39778e-19)
(2.26929 0.000105517 -4.18908e-20)
(1.27687 -0.610058 5.77013e-20)
(-2.81014 0.947414 -9.60639e-19)
(-1.53678 0.284487 0)
(2.33387 -0.0100694 1.36232e-20)
(2.03518 0.674143 -2.56992e-19)
(2.23055 -0.834505 -1.38688e-19)
(-0.702633 0.162706 1.73445e-19)
(-0.0489373 0.541735 3.73026e-19)
(2.02273 0.0112343 -1.6554e-19)
(0.310743 0.330482 7.12135e-19)
(0.864708 -0.594861 2.93826e-18)
(0.789307 0.427658 -1.84749e-19)
(1.33026 -0.487564 -2.51306e-19)
(1.67673 0.0181628 1.81759e-20)
(2.4508 0.784016 -3.6948e-20)
(0.485753 -0.126939 4.15085e-19)
(0.356476 -0.206732 4.58022e-19)
(2.28904 -0.892206 0)
(2.21531 0.0881719 2.15694e-21)
(-0.767895 0.175487 3.04838e-19)
(-0.07996 0.0532243 -4.59653e-19)
(-3.21035 1.29643 0)
(0.357059 -0.498224 0)
(1.93547 -0.0453112 -2.04854e-20)
(0.405813 0.0612587 2.39033e-19)
(1.75749 0.0722667 -1.78472e-19)
(-0.187825 0.0724487 -2.0495e-19)
(0.536046 -0.532473 0)
(1.33823 -0.550323 2.87476e-21)
(2.14954 2.79572 -1.04304e-18)
(-0.472912 2.39108 -9.00176e-19)
(1.52895 1.94464 0)
(2.8814 -0.40141 0)
(2.07706 -0.0983997 0)
(-0.986244 1.52504 -2.54111e-19)
(3.02944 -0.131894 1.69248e-19)
(1.02912 -0.270032 -4.37593e-19)
(2.92416 -0.0768426 -1.88057e-19)
(4.32849 0.482197 -1.13439e-18)
(0.314759 1.48872 0)
(2.01461 -0.00121636 0)
(2.67879 -0.0788396 3.41406e-20)
(2.24896 -0.0749151 4.97102e-20)
(1.50512 -0.00120595 -7.88081e-20)
(-0.498717 2.13693 0)
(-1.24123 -0.496417 2.89955e-19)
(1.24879 -0.197657 -1.9587e-19)
(2.28785 0.499236 -1.12619e-19)
(2.32816 -0.570749 -1.00983e-19)
(1.16634 -0.0546877 -1.58146e-19)
(2.46391 0.133252 0)
(2.21841 -0.0324766 -3.77106e-20)
(2.03805 -0.0141646 0)
(2.09154 0.0159489 -9.89041e-20)
(2.31041 -0.139374 -2.83055e-20)
(2.69363 0.114477 1.03223e-21)
(1.77579 -0.465909 2.91571e-19)
(1.8574 0.311634 2.52712e-19)
(-0.501945 0.0732018 -4.91008e-19)
(2.07864 -0.774883 1.07011e-21)
(2.08065 1.53957 2.25435e-20)
(2.07602 -0.00460553 0)
(2.04058 -0.404486 0)
(-1.47918 0.203495 0)
(2.28882 -0.0487318 -1.82272e-21)
(-0.890288 0.0955954 1.91654e-20)
(1.02852 -0.507949 2.20073e-19)
(2.1028 -0.0648577 -8.94752e-20)
(2.34735 0.638328 1.65045e-19)
(0.421566 -0.122099 6.14949e-19)
(1.59006 1.76032 1.05804e-19)
(2.66412 0.0580964 1.09859e-20)
(2.27639 -0.0325586 1.21054e-19)
(1.0737 -0.469732 0)
(2.04716 -0.271255 -1.57029e-19)
(-1.16819 -0.482979 -5.34748e-19)
(3.126 0.319445 -2.72596e-19)
(-0.0725859 -0.398415 -1.43483e-20)
(1.85244 -0.356427 8.15714e-21)
(1.51905 -0.498794 2.51935e-19)
(2.01506 0.728066 0)
(1.99969 0.0423889 -8.54593e-20)
(1.25374 -0.518891 -5.95986e-19)
(1.67016 -0.224997 2.68285e-20)
(1.56255 -0.738769 0)
(2.33152 -0.0377909 -3.79403e-20)
(1.24191 -0.598806 1.57004e-19)
(3.01417 -0.448376 4.72912e-19)
(1.97561 -0.780163 -4.92934e-20)
(2.25662 0.0753571 -1.64353e-19)
(2.27982 0.163821 -2.20787e-20)
(1.16982 -0.57689 2.03711e-19)
(2.20611 -0.0354558 7.43756e-20)
(2.0515 -0.359826 0)
(2.18773 -0.930547 1.65855e-19)
(1.9188 -0.78658 -2.20941e-19)
(2.0039 -0.174826 3.28783e-20)
(2.00567 0.00917401 3.25418e-20)
(1.37254 0.951147 0)
(1.81558 -0.313626 0)
(2.1785 -0.0186264 -7.48897e-20)
(0.314248 0.244778 9.04302e-20)
(2.31239 1.21272 0)
(2.21874 -0.0153126 4.68259e-20)
(2.64537 -1.08051 -1.65856e-20)
(1.07107 0.119314 -5.45532e-19)
(1.06859 -0.469272 -3.38437e-19)
(-0.648721 1.2259 2.58191e-19)
(1.99019 -0.0806348 5.60518e-20)
(-0.805374 1.25507 1.00298e-18)
(4.13608 0.316348 -6.50309e-19)
(1.88999 -0.0139381 0)
(1.56051 -0.216594 -7.50043e-20)
(1.04678 -1.61394 0)
(1.98064 0.0356623 -4.03206e-19)
(2.23542 -0.31267 0)
(1.97576 0.0129016 -4.25373e-20)
(1.72731 -0.223084 1.72305e-20)
(2.35499 -0.365018 -8.94736e-20)
(1.31528 -0.525811 3.31508e-19)
(1.9915 0.00535403 -3.02364e-19)
(1.99474 0.157411 -5.05296e-19)
(2.79971 -1.01398 0)
(0.121721 0.486581 0)
(1.38894 -0.563945 -3.11571e-19)
(2.26301 -0.3966 0)
(3.11475 0.986242 -3.6223e-19)
(1.58614 -0.456031 0)
(0.485908 -1.33164 4.39141e-20)
(-0.191835 -0.15425 9.49718e-19)
(1.9976 -0.609768 1.78298e-19)
(1.11527 1.05012 -8.47416e-21)
(2.76151 0.00537735 0)
(1.7059 -0.252654 -1.93607e-20)
(1.77817 0.0208239 -1.22769e-19)
(0.673583 -0.467089 -2.03511e-19)
(1.9845 -0.00701454 -1.51992e-19)
(2.73059 0.108946 -7.76588e-21)
(2.48665 -0.210505 -3.45752e-20)
(2.63317 1.10553 4.05356e-20)
(2.33004 0.441173 1.27051e-19)
(0.239441 0.247317 -1.5853e-19)
(1.90365 -0.539195 0)
(2.75764 2.93561 1.70163e-18)
(1.99191 0.0548072 -1.53228e-19)
(2.0071 -0.0680387 0)
(1.99937 0.00446989 1.15175e-19)
(1.39054 -0.660595 -9.62229e-20)
(1.52604 0.953394 2.75454e-19)
(2.27555 0.382896 0)
(1.60779 -0.755894 5.42222e-20)
(-0.891241 -0.999827 0)
(2.14265 0.04761 7.13622e-20)
(3.00958 -0.341077 -2.22085e-19)
(0.21072 0.839493 5.40149e-19)
(1.2147 -0.208608 0)
(1.62443 0.141351 1.98744e-19)
(1.98355 0.0111137 1.27645e-19)
(-0.412206 0.242737 0)
(1.57228 0.0198714 0)
(2.12492 -0.116907 0)
(0.268203 -0.14631 8.94035e-19)
(1.19314 1.16295 1.55628e-20)
(2.95796 0.13932 0)
(1.99181 0.0113097 0)
(1.35086 -2.07726 8.58807e-19)
(0.776359 -0.0545691 0)
(2.23791 0.407939 9.50167e-20)
(2.43783 1.17956 -2.59619e-20)
(1.87549 -0.592413 -8.85553e-20)
(1.81119 0.272611 -6.41429e-21)
(1.05728 0.192922 6.26376e-19)
(2.411 1.31955 -1.4975e-20)
(2.24652 0.00536506 1.38574e-22)
(2.19371 -0.0363242 6.87698e-20)
(1.74232 -0.223963 -1.67816e-19)
(1.26193 -0.651349 1.43072e-21)
(2.01087 -0.00568247 0)
(-1.04667 1.39859 -9.71433e-19)
(0.702537 -0.569569 0)
(-1.00821 0.984677 -3.25231e-20)
(2.88542 -1.94098 0)
(1.78405 -0.462494 0)
(1.65516 -0.765981 5.73166e-20)
(2.39007 0.0906183 9.95807e-21)
(-0.228495 0.0688024 -4.0498e-19)
(2.15221 0.00731486 -6.51299e-21)
(2.08167 -0.742034 2.83677e-21)
(2.57504 1.14687 -4.63102e-21)
(-0.241327 -0.400668 3.61256e-19)
(2.66058 0.00711507 5.11547e-21)
(2.59904 -0.849925 -2.31232e-19)
(1.9619 0.0121207 -2.69427e-19)
(0.154393 -0.558413 0)
(1.926 -0.135861 -2.74361e-19)
(2.06464 -0.465387 9.23355e-20)
(1.994 0.0729753 -6.33022e-19)
(0.130071 -0.333273 -1.40959e-18)
(1.46957 0.93102 -1.92449e-19)
(2.37689 1.21559 -1.32055e-20)
(3.31426 0.646985 0)
(2.69036 -0.549753 0)
(0.0112122 0.0893245 -1.38387e-19)
(2.18675 -0.0561662 4.12815e-20)
(-1.79999 0.306929 0)
(2.28185 -0.0107352 -2.98605e-20)
(2.003 -0.0137483 -2.58668e-19)
(-0.625585 0.0381211 -8.8158e-19)
(-2.64975 0.877407 3.00342e-18)
(2.43082 -0.249207 -2.03743e-21)
(-0.685796 2.39896 -2.58706e-20)
(2.3269 0.0749106 2.12579e-19)
(2.17159 -0.373968 1.48607e-20)
(2.88632 1.22309 1.8875e-19)
(1.73175 -0.709385 1.57316e-19)
(1.61672 -0.27066 4.41e-21)
(1.14775 0.0764959 4.44928e-19)
(1.67073 1.7566 0)
(1.90513 -0.508521 9.35393e-20)
(-2.49844 0.950818 0)
(1.07996 -0.367178 -1.12212e-18)
(0.128626 2.28188 0)
(-0.107992 -0.128734 -2.08e-18)
(1.84762 -0.767591 -1.48195e-19)
(0.472541 0.422934 -6.4685e-20)
(2.83893 -0.961965 0)
(-2.15416 0.967698 0)
(3.16747 0.490495 0)
(1.99601 0.0561241 1.12856e-19)
(-0.139672 -0.831846 -4.60251e-19)
(-0.1076 0.365543 2.89502e-19)
(1.74652 -0.364916 -7.8467e-21)
(2.81347 1.26322 -2.59105e-19)
(2.03262 0.19656 0)
(1.1398 1.37379 5.30947e-19)
(2.12303 1.14666 -9.0764e-20)
(-0.795621 -1.12532 -1.78729e-19)
(2.02683 -0.892639 -2.33339e-19)
(2.11037 -0.454661 1.15673e-20)
(1.44904 -0.684832 4.79316e-20)
(2.1584 0.390786 0)
(2.99436 -0.334722 2.09104e-19)
(0.515892 0.370751 2.39343e-19)
(2.02928 -0.0294016 7.35213e-21)
(3.08464 1.13009 -1.6741e-19)
(3.38279 -1.81942 0)
(2.31375 0.735931 0)
(-0.0189047 0.0193206 0)
(0.556863 -0.479388 0)
(1.73078 0.0381623 0)
(1.60236 -0.616788 8.87156e-20)
(3.0996 1.2849 2.96694e-19)
(1.64626 -0.688579 2.13905e-19)
(2.09435 0.045477 1.84666e-19)
(-2.2364 1.00831 0)
(2.59898 -0.91299 1.77598e-21)
(-0.266892 0.405891 0)
(-2.54047 1.3713 -9.27558e-19)
(-0.205574 0.188638 1.68769e-19)
(2.87719 0.944524 -2.10488e-19)
(1.97961 0.0564886 3.1811e-19)
(1.99608 0.181915 -1.19181e-19)
(2.72929 0.506174 -8.05633e-20)
(2.511 0.0134559 0)
(-0.127958 -0.656284 3.73734e-19)
(2.00416 -0.00592554 0)
(1.50754 0.643246 1.67914e-20)
(2.23436 -0.0905061 0)
(2.04934 0.171724 -1.68404e-19)
(2.13481 -0.0421204 0)
(1.10641 -0.443839 -2.39912e-19)
(0.361834 -0.300174 7.53973e-19)
(2.78319 -0.249464 -1.53859e-19)
(1.44948 0.210566 4.08191e-19)
(0.256317 -0.153492 -1.8079e-18)
(3.80143 -1.06758 0)
(1.21157 -0.327782 -9.16667e-19)
(1.62454 -0.237518 -9.35033e-21)
(2.98461 0.574892 -5.49926e-19)
(1.63325 0.0303592 -7.11768e-21)
(1.69345 0.692839 2.0427e-19)
(1.71585 0.877732 0)
(2.11504 -0.888672 1.69885e-20)
(2.27293 -0.951854 0)
(2.08913 -0.0854763 1.31522e-20)
(0.690135 -0.271824 6.53679e-20)
(-1.65871 1.58155 0)
(2.27736 0.410624 0)
(-0.28841 0.248713 -1.7985e-18)
(2.27687 0.681096 0)
(1.49211 1.33779 5.17487e-19)
(2.526 1.03777 -1.93165e-20)
(1.06372 -0.40352 -3.54414e-19)
(-1.79972 0.49681 -1.36615e-18)
(1.98616 0.00623129 -1.86904e-21)
(0.723616 3.12453 -2.63576e-19)
(0.247094 -0.171249 -4.76904e-19)
(1.96294 -0.0394763 3.25802e-19)
(-0.289492 -0.113368 1.00563e-18)
(0.308116 -0.192696 0)
(2.37045 0.210156 1.06056e-19)
(-1.33097 0.608392 2.29358e-18)
(0.636442 -0.0116525 7.40098e-20)
(3.10426 0.805727 3.84358e-19)
(2.27858 1.45765 0)
(2.05321 -0.515655 -9.48319e-20)
(1.61122 -0.360926 6.18604e-22)
(1.03092 0.681064 -2.67844e-20)
(2.9329 0.0634262 -2.21994e-19)
(-3.17536 1.52077 7.18164e-19)
(-1.26732 1.88587 5.91318e-19)
(1.66116 -0.673675 -5.29108e-20)
(-2.62959 0.846182 -7.36036e-20)
(3.05528 0.0515896 -2.97162e-19)
(-3.12765 1.29248 -8.07918e-19)
(3.34501 -1.45915 0)
(2.01987 -0.149119 -2.35398e-19)
(-0.993365 0.00739795 0)
(-1.06237 2.95314 -1.34953e-18)
(-0.622151 0.257359 1.34886e-19)
(-0.890042 0.0603894 3.01863e-19)
(1.76261 -0.229872 5.74593e-21)
(0.302432 -0.130651 6.51296e-20)
(-0.846153 0.330536 0)
(2.79575 -0.725062 -8.45936e-19)
(3.00056 -0.930656 -4.40154e-19)
(-0.980409 0.197456 -2.87351e-19)
(1.76346 0.374966 0)
(1.68247 0.327806 0)
(0.441912 0.0981499 0)
(0.426194 -1.62817 -5.3623e-19)
(1.98576 -0.0671612 -2.87722e-19)
(1.43373 0.0207165 0)
(1.95094 0.372573 0)
(2.20864 0.159655 -5.04359e-20)
(0.723302 2.06948 -8.23618e-21)
(2.04724 0.234466 -5.24399e-19)
(4.07091 1.3596 -1.79164e-18)
(1.59141 0.0294123 1.30261e-19)
(2.12941 -0.110703 -7.1575e-20)
(1.71357 -0.251717 2.79626e-20)
(1.89467 0.407367 -3.42576e-20)
(1.70395 0.951445 0)
(0.260115 -0.199133 5.33556e-22)
(-0.689255 -0.772748 0)
(1.18992 -0.0389088 0)
(2.80205 0.497515 -8.58422e-20)
(-1.99001 1.25838 0)
(2.35746 0.443674 0)
(2.02963 -0.12104 3.67453e-19)
(2.44446 -0.945338 0)
(2.00096 0.162418 5.12823e-19)
(3.06248 0.967212 1.67275e-19)
(2.86759 0.933054 4.94252e-20)
(1.61108 -0.270258 -3.52426e-21)
(1.15531 0.863821 3.15596e-19)
(2.89289 -0.832213 -1.71404e-20)
(3.29339 -0.895623 7.7465e-20)
(1.36281 -0.54314 3.12593e-19)
(-0.173363 1.35679 0)
(1.1521 -0.57011 0)
(-0.625013 0.625581 -8.3993e-19)
(0.372367 -0.313834 -1.00307e-18)
(-2.00662 2.03404 0)
(-0.130352 0.856427 2.50267e-18)
(0.220334 -0.109975 0)
(-0.457801 -0.583309 3.60074e-19)
(1.32697 -0.619645 -3.84888e-19)
(3.19368 0.828338 -7.83812e-21)
(2.78731 1.03589 9.1888e-20)
(1.40723 -0.498465 6.15456e-20)
(2.99192 0.0227178 1.16644e-19)
(2.1195 0.815376 0)
(2.18392 0.810565 0)
(1.23832 -0.147114 0)
(-0.597684 0.324071 -1.74426e-19)
(1.60397 -0.614647 0)
(2.1267 0.622162 0)
(1.60538 0.032906 0)
(1.9364 0.6528 6.69428e-20)
(0.654846 -0.523187 1.50413e-19)
(2.46113 -0.755894 1.93688e-19)
(0.0251959 -1.36316 1.6061e-18)
(1.75549 -0.521109 0)
(-1.45607 1.79744 0)
(2.33111 -0.501254 9.25762e-20)
(1.59433 0.372197 6.71377e-19)
(0.242332 -0.0764421 -4.0439e-19)
(2.51762 -0.102838 2.7021e-21)
(1.93979 -0.477297 1.5684e-19)
(1.11603 0.233775 -1.01225e-18)
(0.401954 -0.309713 0)
(1.19238 0.954766 -7.59817e-19)
(0.59692 0.0791673 -6.29813e-19)
(2.9231 0.828631 0)
(2.22154 0.00243735 0)
(2.36366 -0.0241997 0)
(2.04195 0.0260324 -3.58775e-19)
(1.51366 0.136798 -4.08429e-19)
(1.72781 0.0189722 0)
(1.93661 1.18522 3.9425e-19)
(2.12251 -0.88732 -6.72337e-20)
(2.08004 0.276167 -2.65791e-20)
(-0.749674 0.36749 5.09721e-19)
(2.22709 -0.183181 0)
(2.45811 0.111568 -1.01977e-19)
(1.9759 -0.41637 0)
(-1.10033 0.584279 -2.22906e-18)
(2.04268 -0.877703 0)
(2.63071 -0.667177 -6.52011e-19)
(3.85203 1.34273 2.30882e-20)
(2.28471 -0.464239 9.58347e-20)
(2.1396 0.29441 0)
(2.11998 -0.835246 0)
(1.8161 -0.766301 -1.86254e-19)
(2.22582 0.356288 -1.04976e-19)
(-2.87918 1.37215 5.42288e-19)
(1.0557 -0.510244 3.28094e-19)
(2.02464 -0.093362 0)
(1.64036 0.0791974 -5.94046e-19)
(2.37458 0.0157217 -1.31697e-19)
(0.82942 -1.98634 -7.50285e-19)
(2.09739 -0.660276 5.38574e-20)
(2.01578 -0.359112 0)
(1.37715 -0.441519 4.52046e-19)
(1.14229 -0.00671606 -6.01908e-19)
(2.9571 1.10826 4.58251e-21)
(1.83466 0.131541 -7.23815e-19)
(-0.87229 0.279101 5.05099e-19)
(0.0254091 0.730705 -8.9549e-19)
(2.80732 1.75824 1.47307e-18)
(2.15451 -0.0253558 -2.1044e-20)
(0.221317 0.309134 3.08359e-19)
(-0.168427 0.10791 -2.54466e-21)
(-1.3583 0.593566 8.91476e-19)
(-2.62904 1.26846 9.90127e-19)
(1.94234 -0.19849 8.63919e-20)
(2.23763 0.00417295 0)
(0.270365 -0.520219 3.59982e-19)
(1.46731 -0.696062 5.68887e-21)
(1.84988 -0.282008 1.43007e-19)
(-0.21363 0.275178 0)
(1.8043 -0.42431 -3.45157e-20)
(1.70241 0.091503 -2.62603e-21)
(2.10432 0.0195107 0)
(0.672599 -0.120677 3.32303e-19)
(-2.15098 1.71732 4.50073e-19)
(1.78073 -0.416822 0)
(1.24416 -0.487034 0)
(1.31217 -2.21192 -8.31168e-19)
(1.31154 -1.96627 -2.97941e-19)
(2.74435 0.462966 2.69315e-20)
(-0.402632 0.303725 0)
(1.96315 0.00830776 -1.82149e-19)
(4.02018 -0.719833 -3.59013e-19)
(2.75409 -0.541681 -6.15687e-20)
(1.41425 -0.563704 3.77602e-19)
(-1.78237 0.934619 -6.32074e-19)
(-2.23252 1.49275 4.86371e-19)
(3.28896 1.12755 -3.9684e-21)
(1.7596 1.58575 0)
(1.47316 0.767597 -3.0594e-19)
(1.79766 -0.701685 1.04882e-19)
(1.6986 1.53927 -2.94074e-20)
(0.990173 0.334098 0)
(1.33212 -0.331728 -4.24258e-19)
(1.42329 -0.610774 -4.50361e-19)
(-1.19888 1.0587 6.08876e-19)
(0.321893 -0.624072 -4.59685e-19)
(1.82817 1.30908 0)
(-0.138816 0.452606 -1.8318e-19)
(2.18106 0.467151 0)
(-1.17078 -0.8712 -3.35947e-19)
(-0.07286 0.815817 4.76614e-19)
(-0.0034693 0.204241 0)
(-1.66232 1.23921 2.47802e-19)
(1.77115 -0.161737 -6.87459e-20)
(0.931094 -0.546124 1.91837e-19)
(1.91715 -0.722243 1.2735e-19)
(-0.183514 0.330079 -1.31866e-18)
(1.39754 -0.643261 0)
(2.00058 -0.00913345 1.28148e-19)
(0.559629 0.523866 0)
(2.18632 0.190994 -9.88867e-21)
(-0.607252 0.474921 -3.98568e-19)
(0.761952 -0.336157 2.47705e-19)
(1.78053 -0.192153 0)
(2.22889 -0.775719 8.46198e-20)
(3.08578 0.499152 6.91643e-20)
(-1.9357 1.55492 1.05214e-18)
(-2.13598 1.34778 0)
(-1.96483 1.49296 -9.40129e-19)
(2.44548 1.04335 -4.43219e-19)
(1.69589 0.0786714 7.62205e-19)
(3.16962 -1.22667 0)
(3.00687 -0.228602 3.90335e-19)
(-0.480072 0.567629 4.17516e-19)
(1.00598 -0.419578 -8.73225e-20)
(2.58485 -0.290792 -1.57213e-19)
(-1.01768 0.20543 0)
(2.38754 -1.02447 -1.10013e-19)
(1.35889 -0.225164 -3.21918e-21)
(1.9727 0.348319 -1.22397e-20)
(2.34645 0.00847392 0)
(-1.48478 1.88962 3.87507e-19)
(1.85666 -0.488947 4.15901e-21)
(1.45866 -0.456625 4.66202e-20)
(0.96849 0.663077 0)
(2.51238 -0.782192 2.11262e-19)
(-0.948612 0.93149 9.80298e-19)
(1.95471 -0.426909 -2.01502e-19)
(-0.225447 0.0730128 0)
(0.937836 -0.414518 -1.73175e-19)
(2.54508 -0.720182 -1.44216e-19)
(-1.1482 0.560045 -8.55062e-19)
(1.60525 -0.461452 0)
(0.973171 -0.481243 6.52078e-19)
(1.7862 -2.05846 0)
(-0.952921 1.68148 4.92193e-19)
(1.48791 -1.06762 0)
(2.00692 -0.130723 -1.41327e-19)
(2.25046 -0.0770775 -4.1847e-20)
(2.19351 1.20921 -1.96979e-19)
(1.2014 -2.04254 0)
(2.55549 -0.947435 3.7969e-19)
(2.00746 0.00857154 0)
(2.25551 0.400079 0)
(3.00813 -0.950081 -3.8429e-19)
(-1.26239 1.86986 3.68497e-19)
(0.793397 -0.220614 1.59424e-19)
(2.50634 -0.367258 6.65331e-20)
(1.74384 0.177071 2.66528e-19)
(0.502821 3.1742 -7.97258e-19)
(2.03433 0.216804 2.38352e-19)
(0.50788 -0.228921 -7.56246e-20)
(0.253916 2.20568 0)
(2.38382 0.313999 0)
(0.38711 -0.323823 0)
(-3.29453 1.63558 3.1995e-18)
(1.37918 -0.501675 -2.77324e-19)
(1.59742 -0.00168796 0)
(-0.0961044 -0.15512 2.65652e-18)
(2.26308 -0.00454996 -3.13676e-20)
(-0.789456 0.0822849 -7.55137e-19)
(1.58708 -0.585002 -7.37525e-20)
(2.92246 -0.845798 0)
(1.11929 -0.445916 6.1144e-19)
(0.712611 -0.110836 -7.54911e-19)
(0.0451145 0.0337363 0)
(-0.293061 0.437871 -2.59928e-19)
(1.62205 0.0166761 -1.98756e-20)
(2.61744 -0.344037 1.38061e-19)
(2.00364 0.0184898 1.94682e-19)
(2.39476 1.06532 3.18163e-20)
(2.33943 0.252748 -2.17882e-20)
(-1.03998 -0.29729 0)
(2.32378 -0.76287 0)
(0.331519 -0.481149 3.03012e-18)
(-0.31519 -0.709826 0)
(1.80264 -0.39389 -3.57173e-20)
(2.73705 -0.675462 5.10382e-19)
(1.19529 -0.56433 3.35932e-19)
(2.66615 -0.28284 -1.46545e-19)
(1.78551 0.224397 -2.73104e-19)
(1.75599 -0.695579 -1.13667e-19)
(1.85524 -0.715504 -1.64372e-19)
(0.500517 -1.23256 0)
(1.98548 -0.720221 8.59575e-20)
(2.21178 -0.266771 0)
(2.08394 0.480523 -1.03142e-20)
(1.78345 1.01117 6.48296e-20)
(0.493139 -0.335455 2.06995e-19)
(2.3633 -0.04725 8.17805e-20)
(-0.104021 -0.559109 -2.83572e-19)
(0.318341 -0.202801 0)
(-0.787322 0.662586 -5.84813e-19)
(-0.93724 2.41553 -6.58801e-19)
(1.99106 0.41874 -2.74673e-19)
(2.14358 -0.771182 -4.34067e-20)
(2.10639 0.0046037 -8.55565e-21)
(0.491705 -0.635557 1.53182e-19)
(2.9317 -0.982221 6.4728e-19)
(0.598192 -0.0687131 0)
(-0.977192 0.106632 2.34318e-18)
(1.98797 -0.37221 1.11888e-19)
(2.23002 0.0866251 1.25841e-22)
(1.39805 -0.618616 6.64386e-19)
(-1.10828 -0.0758596 3.51192e-20)
(1.69999 0.425175 0)
(-3.07589 2.0363 -1.36492e-18)
(-1.59876 1.80544 -5.89847e-20)
(1.2909 -0.428723 -5.57818e-19)
(-3.00793 1.735 1.51276e-18)
(1.75274 0.91483 -8.39355e-20)
(2.01448 0.403451 4.86901e-21)
(1.16395 -0.487778 2.56832e-19)
(2.01627 -0.369475 0)
(2.47102 0.213222 7.27497e-20)
(2.70029 -0.0246843 -3.84023e-21)
(2.65983 1.01257 -6.24843e-20)
(-0.922788 -0.561821 0)
(3.05154 1.28001 -5.00988e-21)
(-0.853312 -0.807006 3.21715e-19)
(1.86676 -0.790895 3.02292e-19)
(0.113795 0.245747 8.88706e-21)
(-0.801226 -1.11288 -2.5765e-19)
(1.18265 -0.37593 1.19945e-18)
(2.42019 -0.720248 -2.84845e-19)
(2.39649 0.0409576 2.68925e-21)
(-0.572825 0.0855249 -8.717e-21)
(2.89059 0.151172 2.26008e-20)
(0.350223 0.817066 0)
(2.0001 0.0205362 0)
(2.23187 0.443452 0)
(2.0541 -0.725647 -3.46226e-20)
(1.32573 0.101439 1.70371e-18)
(-0.914475 0.263294 0)
(1.42201 -0.458761 -1.13862e-19)
(0.0565477 0.411985 0)
(3.08069 0.563367 0)
(-0.957591 0.0998975 0)
(1.79615 -0.0150281 0)
(1.0724 -0.467306 -2.05193e-19)
(0.710642 -0.108223 0)
(1.75891 1.24212 4.5673e-19)
(1.11894 -0.0061182 0)
(1.48554 -0.222602 0)
(1.93748 0.117313 2.54373e-21)
(0.420921 -0.253299 0)
(2.58939 1.13372 0)
(-0.779894 0.339018 0)
(2.52719 -0.0193207 1.09661e-20)
(1.6012 -0.33833 0)
(3.2122 -0.79897 5.96027e-20)
(1.15886 -0.697755 5.88241e-21)
(0.806409 -0.220695 -2.13011e-19)
(1.98615 0.00438199 5.73066e-19)
(0.140573 0.0942627 -1.57284e-18)
(1.13514 0.542573 -5.82719e-19)
(1.45843 0.507183 0)
(2.23981 0.123394 -1.87645e-20)
(1.83454 -0.230521 -1.39633e-19)
(1.47334 1.20734 2.15558e-19)
(1.8209 0.266339 4.32434e-19)
(0.986524 -0.389335 -5.80563e-19)
(1.74518 -0.760258 -1.65328e-19)
(1.0801 1.78387 5.62247e-20)
(-1.54569 1.25964 0)
(3.08161 1.16963 -5.26406e-19)
(-0.783237 1.06995 6.89592e-19)
(2.56046 0.395484 2.95209e-20)
(0.0988522 0.057439 0)
(1.93324 -0.00948159 -2.1768e-19)
(2.01291 1.031 -3.92239e-19)
(1.57101 -0.639302 3.0134e-19)
(1.45752 -0.664855 -3.87023e-19)
(1.98495 -0.878043 0)
(2.07817 -0.860327 0)
(1.95587 1.59988 8.42892e-19)
(2.39932 0.00615767 1.10036e-19)
(3.17803 0.677198 -1.90975e-19)
(1.8383 -0.0315271 4.51209e-20)
(1.40174 -0.426703 -1.08963e-19)
(1.94538 -0.542278 1.44975e-19)
(2.37198 0.314894 0)
(2.30318 0.297124 -8.26663e-20)
(1.17521 -0.194319 -9.68459e-19)
(0.871062 1.59306 2.4736e-18)
(4.19775 0.696647 -1.34296e-18)
(-0.707445 0.488354 2.50626e-19)
(2.95334 0.73663 1.59448e-19)
(2.34075 0.717976 -9.92559e-20)
(2.24408 0.528265 0)
(-3.14971 1.36282 0)
(3.06171 -0.737722 4.42962e-20)
(1.3517 -0.353112 0)
(2.07595 -0.382596 4.48748e-20)
(1.69773 0.130029 4.5179e-19)
(1.70955 0.312119 -1.49136e-19)
(1.81775 -0.726508 3.61691e-19)
(1.3694 -0.350578 1.64261e-21)
(1.41051 -0.0940121 0)
(2.14777 -0.104099 -7.89835e-21)
(-0.771864 0.415269 -4.52618e-19)
(2.08251 0.236961 0)
(1.87354 0.50919 0)
(2.28193 -0.807007 -7.1153e-20)
(1.89869 0.401137 2.82262e-19)
(1.26874 -0.29348 0)
(4.13943 0.646837 1.68781e-19)
(2.83928 0.056413 5.59858e-20)
(2.25677 0.292794 1.23889e-19)
(1.78545 0.318954 4.36151e-19)
(-2.7124 1.10558 -1.67102e-18)
(1.04269 -1.77584 0)
(-0.413516 -0.45943 -6.58881e-19)
(0.713266 -0.329867 8.85917e-19)
(2.01719 0.0130863 1.21532e-20)
(-0.65325 -0.645054 -3.08994e-19)
(2.10599 -0.800101 -1.0741e-21)
(2.49403 0.436157 -1.07987e-19)
(0.206308 2.28121 0)
(1.98837 0.0861538 2.62202e-21)
(1.91466 -0.0284098 6.54599e-20)
(1.93053 -0.00287161 -4.31924e-20)
(2.06803 0.41936 -2.84034e-19)
(2.9104 -0.671278 0)
(-1.61975 0.626647 0)
(2.52962 0.0262198 0)
(2.20316 0.3665 -2.0539e-19)
(1.27304 -0.599414 5.1383e-19)
(2.01117 1.44719 4.12532e-20)
(1.64027 -0.184147 0)
(0.41619 -0.263331 -1.7844e-19)
(-3.35369 1.46656 1.25674e-18)
(0.0162781 0.415927 0)
(1.91033 0.169982 -1.35049e-19)
(1.71534 0.118352 -1.46223e-19)
(3.27065 0.261576 -6.06858e-20)
(2.01768 -0.706863 4.62294e-20)
(0.887713 -0.35604 0)
(2.11436 0.162483 -3.01878e-19)
(2.25126 -0.294008 0)
(2.24663 -0.161582 1.33702e-20)
(1.17736 -0.105802 0)
(2.08576 0.718266 2.86939e-19)
(1.94299 -0.744267 -9.13012e-20)
(2.22357 0.73464 0)
(1.94853 -0.131361 -2.76644e-19)
(1.99536 -0.559376 -3.77812e-20)
(2.3703 -1.25188 0)
(1.36519 -0.644295 0)
(0.742539 -0.0265388 -8.21531e-20)
(2.08609 -0.0751536 -7.80672e-21)
(-1.55759 1.10365 -8.96615e-19)
(1.23405 2.56409 3.51357e-19)
(2.86423 0.0260366 -1.05704e-20)
(0.711425 0.805547 3.73506e-19)
(1.77949 0.258842 -1.81299e-21)
(1.97034 0.425277 0)
(2.91664 1.13541 1.60781e-19)
(2.05692 -0.88881 0)