/*--------------------------------*- C++ -*----------------------------------*\
| =========                 |                                                 |
| \\      /  F ield         | OpenFOAM: The Open Source CFD Toolbox           |
|  \\    /   O peration     | Version:  2306                                  |
|   \\  /    A nd           | Website:  www.openfoam.com                      |
|    \\/     M anipulation  |                                                 |
\*---------------------------------------------------------------------------*/
FoamFile
{
    version     2.0;
    format      ascii;
    arch        "LSB;label=32;scalar=64";
    class       surfaceScalarField;
    location    "0.9";
    object      phi;
}
// * * * * * * * * * * * * * * * * * * * * * * * * * * * * * * * * * * * * * //

dimensions      [0 3 -1 0 0 0 0];

oriented        oriented;

internalField   nonuniform List<scalar> 
20045
(
0.525006
-0.591507
0.0665009
-1.10328
0.430446
0.672831
0.284352
1.61586
-1.90021
0.249601
-0.320236
0.0706355
-0.894027
0.860474
0.0335536
-0.476847
2.04932
-1.57247
-1.0953
0.455837
0.639468
0.0707329
0.45756
-0.528293
0.484166
0.447784
-0.93195
-0.736782
-0.198143
0.934926
-0.119352
0.580582
-0.461229
2.04307
-1.06761
-0.975462
0.400113
-0.397884
-0.00222965
-1.26444
0.965659
0.298783
-0.313343
1.10465
-0.79131
-1.07668
0.339895
-0.175362
0.167882
0.00748031
0.244695
0.0203265
-0.265022
-1.63089
2.35311
-0.722222
-0.755529
0.00720874
0.748321
0.453016
-0.434536
-0.01848
0.140447
0.259666
-0.183525
-0.919752
0.576863
0.584967
-1.16183
0.885997
0.120875
-1.00687
-0.635888
1.21275
0.290292
-0.300146
0.00985414
-0.982679
1.92709
-0.944412
1.75622
0.238569
-1.99479
-1.89171
1.16535
0.726355
-0.160531
-0.364337
0.524868
1.4831
-1.15391
-0.32919
-0.68626
1.2168
-0.53054
2.15075
-1.25745
-0.893298
-0.589191
0.659923
2.26937
-1.11545
-1.15391
1.43222
0.293675
-1.7259
-0.069791
0.421978
-0.352187
-2.14741
0.854658
1.29275
0.629541
0.51663
-1.14617
0.0577008
0.439154
-0.496855
0.177637
-0.248614
0.070977
2.12976
-2.16422
0.0344678
1.45857
-0.477131
-0.981436
0.627606
0.83096
1.03359
1.00949
0.851906
-1.05643
0.204523
1.21484
0.593644
-1.80849
1.88527
-0.453048
0.109537
1.63449
-1.74402
1.29596
-2.18268
0.886716
1.91589
-1.4125
-0.503387
-0.821708
-0.991263
1.81297
-0.0948309
-0.326485
0.421316
0.21927
0.0528178
-0.272088
-0.729669
-0.164358
0.147563
1.41071
-1.55828
1.73309
0.0889602
-1.82205
0.670338
-1.3566
2.14237
-1.49775
-0.644615
-0.0608453
0.526642
-0.465797
0.818173
1.32419
0.940533
-1.49992
0.559387
0.399839
0.0531772
0.491989
0.353002
-0.844991
1.63147
0.298242
-1.92971
-0.084968
0.311259
-0.226291
-0.676686
0.108556
0.56813
0.883096
-0.39893
1.93983
-1.97269
0.0328589
-0.218511
0.133543
-0.184941
0.404211
-0.267411
-1.03335
1.30077
0.352622
-0.0404322
-0.31219
1.77655
-0.236454
-1.5401
1.38256
-1.23499
-0.161855
1.93841
0.493454
-0.806798
-0.457258
0.857657
-0.400399
0.768366
-1.35672
0.588351
1.00376
1.20054
-2.2043
0.907254
-0.763072
-0.144182
1.21952
-0.278985
-2.04061
0.336512
1.7041
-0.000593299
0.5256
-0.465283
0.612926
-0.147643
1.13452
-1.60016
0.46564
-1.60028
0.0756954
1.52458
1.02132
0.199576
-1.2209
-0.894056
0.74338
0.150676
-1.63613
0.0466751
1.58945
0.763581
-0.135971
-0.62761
0.4276
-0.632906
0.205306
-0.214035
-0.793565
1.0076
0.62543
-0.662306
0.036876
1.45502
0.410412
-1.86543
0.255172
0.0351193
0.026558
-0.346395
0.319837
1.25238
-0.622838
-0.213105
0.0885374
0.124568
1.54818
0.721183
-0.55153
-0.712913
-0.394003
0.420561
-0.310808
2.04389
0.0898522
-0.555135
0.0296085
-0.242714
0.438154
1.22746
-1.66561
1.31151
-1.95597
0.644453
0.394648
-0.496042
0.429312
0.0667304
-0.273672
0.344805
-0.0711322
1.35125
-1.05336
-0.297899
-0.529508
0.434677
1.33863
-2.09952
0.76089
-0.223554
0.363165
-0.139611
0.0568306
-0.334369
0.277538
1.13405
-0.248052
1.61836
0.53239
-1.18704
0.919625
1.36917
-2.03544
0.666271
-0.310925
0.55562
0.439827
-0.500672
-0.818688
0.66852
0.150168
-0.835896
0.103787
-0.620382
0.516595
1.36675
0.54914
1.12796
-1.46542
0.337454
1.59512
0.159785
-1.7549
-2.0499
1.61832
0.431573
-0.561681
-0.450814
1.01249
2.02139
-0.654644
-0.919743
-0.136685
1.27582
-0.89259
-0.383228
-0.0586738
0.0764532
-0.0177794
1.13385
0.817524
-1.95138
1.22414
-1.13025
-0.0938952
-0.325688
0.141612
0.184076
-0.350267
-0.145775
2.27817
-0.908995
-0.683359
0.728734
-0.0453746
1.10076
-1.79182
0.691069
0.59286
-1.41457
0.925952
0.638597
-1.56455
1.44589
-0.677523
1.94744
-0.273255
-1.67418
0.192413
-0.988938
0.796525
1.87622
-1.33867
-0.537542
-0.297642
0.429975
-0.132333
0.0598045
1.76156
-1.82137
2.094
-0.337785
-1.63817
0.0321284
1.60604
-1.01689
0.8717
0.145195
1.97353
-0.969764
0.281331
0.625922
-1.28332
1.5126
-0.229281
-1.32717
1.61152
0.0276229
-0.40701
0.379387
0.361539
-0.4085
0.0469611
-0.0364361
-0.397373
0.433809
1.71014
-0.0441866
-1.66595
2.39121
-1.15138
-1.23983
-0.471974
0.435538
1.37185
-1.81996
0.448113
0.213155
-0.0355172
-1.72331
-1.01534
1.27653
-0.261192
-1.27768
1.03257
0.245107
-0.0264188
-0.0893026
0.115721
0.664832
1.21138
0.00417397
-0.0628477
0.860539
0.415279
-1.37269
0.0893674
-1.4415
1.85686
-0.415355
-1.37175
1.52382
-0.152077
-1.22027
-0.829642
2.04991
0.114637
-0.570429
0.455792
0.792073
-0.965392
0.173319
1.2877
0.263724
-1.55142
0.00552772
-1.48919
1.48366
-0.864005
1.78996
0.409469
-1.12757
0.718101
-0.758582
2.09722
-1.64339
1.1504
0.492994
-0.207374
0.237183
-0.029809
0.755765
-2.00204
1.24627
-1.62572
0.643037
-1.22274
-0.797614
1.81463
-1.18619
-0.628436
-0.571695
0.629396
0.333274
-0.353612
0.0203382
-1.52721
-0.430893
1.9581
-1.49024
2.10274
-0.612506
1.95797
-1.35827
-0.599694
0.0734027
-0.460778
0.387376
-0.441025
-1.06066
1.50169
-0.472475
0.353123
-0.846815
0.285134
-1.23769
-0.420641
1.65833
0.235973
0.0606804
-0.296653
0.092118
-1.10746
0.313555
-0.474086
1.69543
-0.100308
-0.3427
0.272909
-0.353454
0.424929
-0.0714752
-0.317893
2.02803
-1.6028
1.16177
0.190131
0.241001
-0.431132
-1.41687
0.306835
1.11003
0.693128
1.26484
2.0918
-1.33604
1.27117
-2.04741
0.776249
0.590235
-1.26609
0.675853
0.0942752
-0.849805
-0.959991
1.39814
1.27969
-1.75654
0.263472
-1.26365
1.00018
-2.05159
1.06518
0.986411
-0.135773
-0.758284
0.370663
0.316396
-0.687058
1.16493
-0.186364
-0.97857
-0.0868245
-1.20458
1.26438
-0.532866
-0.150493
1.15352
1.65947
-1.58921
-0.0702646
-0.0239258
-0.292935
0.316861
1.31863
0.103323
-1.42195
0.331701
0.272125
-0.603826
0.024638
1.13356
-1.1582
-0.549099
1.68362
1.16886
-0.759395
-0.141209
0.433568
-0.292359
1.4916
-0.390843
0.238043
-0.0200787
-0.217965
0.361317
0.11354
-0.474858
-0.273887
0.284419
-0.0105321
1.83877
-1.21509
-0.623676
0.476718
-1.96695
-0.301826
0.0279386
-1.67214
0.474477
1.19767
1.70727
-0.490466
0.486854
-1.92836
2.42854
-1.15426
-1.27428
-0.0341746
0.270148
1.90347
-0.814928
-1.08854
-1.21924
0.2448
0.974437
-1.91632
1.92266
-0.00634372
0.607145
-1.34891
0.741768
0.331659
0.178803
-0.510462
-0.974588
1.23541
-0.260822
0.0677704
-0.426979
0.359208
-0.333469
0.109915
-0.325274
0.0516013
-1.35839
-0.59758
1.05994
-1.54799
0.488057
0.36259
-0.602443
0.239853
0.980387
0.502718
1.05603
-0.792556
0.0738749
0.287664
1.02532
0.681949
-1.04956
0.0896965
0.959866
0.62786
1.27561
0.822437
0.282216
0.561978
-0.199387
-0.59713
-0.0454133
0.642543
0.0387859
-0.24616
-1.20664
1.23128
-0.439084
0.586961
-0.147877
-1.80895
1.72529
0.0836665
-0.0750807
1.17906
-1.10398
-0.353605
-0.288652
0.642257
1.52719
-1.65043
0.123231
-1.16083
-0.890763
2.2165
-1.57666
-0.639842
-0.230105
0.206179
1.49771
-0.890563
-0.56736
1.6273
0.0496021
-0.534089
0.484487
1.79002
-0.236936
-1.55309
1.92114
-0.385904
-1.53524
-0.590026
0.639629
1.68906
-0.990278
-0.698783
-0.341438
1.57606
-1.23462
0.69642
-1.06853
0.372113
-0.499413
0.0796751
0.419738
-0.346793
0.118299
0.228493
2.02443
-1.55529
-0.469135
-1.10654
-0.943358
1.35912
0.30035
-1.63506
-0.173894
-0.110278
0.471596
0.474202
-1.68044
1.20623
0.0085324
0.324742
-1.07418
2.20803
0.619543
1.21922
1.96816
-1.29196
-0.676208
-1.82438
1.40374
1.39681
-2.0714
0.674586
-1.23773
-0.0893231
1.32705
-0.497102
-0.368511
0.865613
1.66995
-0.298102
-0.115828
0.305959
0.582469
-0.172395
-0.981519
-1.40757
2.0183
-0.610727
-0.411294
0.05784
-0.157111
0.0159017
0.244201
-2.16052
1.2212
-1.7703
0.358064
-0.572134
0.808912
-0.236779
-0.0116379
0.261238
-1.02488
0.657784
0.367094
0.842812
0.508442
-0.177742
0.655019
-0.477278
0.964777
0.259365
-1.2242
1.6984
1.15343
-0.132107
-0.436888
-0.979978
1.95554
-1.29896
-0.65658
1.92515
-1.94278
0.717088
1.22569
1.57656
-1.72524
0.148678
-0.917368
0.703333
-0.265383
-0.0603043
-0.453043
-1.18309
0.600962
-1.12163
0.520669
0.853694
0.835367
1.2908
-1.87736
0.586556
0.485559
-1.11406
0.628503
-1.9551
0.354822
0.0237182
0.739863
-1.41841
1.74329
-0.324889
-0.469788
0.643688
-0.1739
-0.879745
-0.215559
-0.272593
-0.466264
0.738857
0.224802
0.000921519
-0.225724
-0.688299
-0.328596
0.755871
0.896434
-1.6523
1.81267
-1.18481
0.7489
-0.902532
-0.0148365
0.970684
-0.485125
-1.3679
-0.275492
-0.311597
0.430533
-0.118936
1.90258
-0.687737
-0.941846
1.51262
-0.570771
-0.263012
0.310365
-0.0473537
1.41073
-0.245798
-0.59905
-1.08139
-1.01866
1.83832
-0.819663
1.19068
-1.90254
0.711863
0.844185
1.37231
-0.269531
0.237966
0.031565
0.220233
-1.45796
1.37837
-2.10594
0.727564
-0.184182
0.536805
-0.164293
1.29226
-0.387355
1.60855
-0.661842
1.25208
0.361451
-1.99234
-1.70192
1.209
0.492917
1.30611
-0.248202
-1.05791
1.86489
-0.337695
-0.826532
-1.04707
-0.9648
0.753074
1.22052
-1.0029
-0.21762
0.644541
-0.637333
-1.44959
1.2853
1.71485
0.414909
-1.58948
0.647631
1.6567
-0.297574
0.323946
-0.442776
0.11883
-0.0943898
-1.12034
1.21473
-1.82479
0.355785
1.469
1.6191
-1.6191
-0.651489
1.8309
-1.17941
0.573347
-0.751089
1.26538
-0.885757
-0.379621
-1.85761
1.91695
-0.0593371
0.708841
-0.0936139
-0.615227
0.551096
-0.200775
-0.350321
0.273381
-0.626986
0.300774
1.10569
-1.67305
-1.61074
1.91653
-0.305786
-0.583128
1.339
-0.534161
-0.00946425
0.543625
-0.292428
0.451807
-0.159379
-0.752065
0.84634
1.83885
-1.42227
-0.416582
-0.187119
-1.03563
1.22275
-0.501713
0.535925
-0.0342116
0.304766
-0.579682
0.274916
-2.11497
0.900605
1.21437
-0.233046
-0.0871898
0.44519
-0.121245
-0.179678
0.464874
-0.285196
0.815507
1.20892
-0.400844
-0.133316
-0.201477
-0.496799
0.698275
-0.975952
1.56578
-0.589829
-0.0319473
0.22684
-0.194893
0.929912
-0.474076
1.59193
-0.123257
-1.46867
0.0666803
-0.860246
0.00372375
1.28397
0.874561
0.597096
-1.47166
0.972874
-0.808891
-0.163983
-2.00839
0.37022
-0.816769
0.414651
0.402118
0.656353
0.994238
-1.65059
-1.25989
1.17056
0.113499
-1.79347
1.67997
-0.301389
0.374792
-0.207857
0.233598
-0.0257418
0.047074
-0.644204
-1.24416
0.44316
0.800997
-1.33895
-0.33319
1.23299
0.377363
0.178334
-0.555697
-0.285394
0.0223821
0.347405
-1.42599
1.07858
0.304167
1.04999
-1.35416
0.522669
-1.41419
1.69096
-0.276769
-1.4379
1.09646
-0.145503
-0.154643
-0.832867
-0.444813
-0.549108
0.130785
0.418323
-1.7159
0.739953
1.3107
-1.49782
0.421499
1.2352
-0.628126
0.634799
-0.00667253
0.442471
-1.40923
0.966756
0.344988
-0.566265
0.221277
1.07071
-1.66976
-1.28786
-0.083886
-0.662368
-0.014318
-0.235095
-0.479137
0.714232
0.678024
0.150225
-0.145824
-0.0044005
1.51868
-0.862323
-1.51494
1.93474
-0.419807
0.522695
0.398688
-0.921382
-0.736593
0.435204
-0.475877
-0.0732311
0.543556
0.721822
-0.557644
-1.4778
-0.449057
0.13746
1.24384
0.84739
0.306037
-1.55576
1.66529
0.0327376
-0.786267
0.75353
-0.183664
-1.65807
1.84173
0.23147
-0.240937
0.00946642
0.632811
-0.518174
-0.380317
1.07674
1.1205
-0.92809
-0.76305
-0.261828
-0.0109578
-0.828108
0.839066
0.819853
-2.04012
-0.115897
-0.993926
1.10982
0.0702723
-0.393308
0.323036
-1.31176
0.0827214
1.22904
1.91108
-1.31743
-0.020146
0.199137
-0.178991
-0.455113
-0.0465995
0.382589
0.714436
-1.09703
0.268158
-0.333403
0.0652445
1.33149
0.761834
-2.09332
-0.816139
2.27115
0.215273
0.00952982
-0.520664
-1.11143
1.6321
0.830809
1.44736
1.64765
-1.34349
-0.734423
0.461829
-0.17963
-0.167163
-0.598271
1.99509
0.264272
-1.52051
1.25624
1.9033
-0.28004
-1.62326
-0.724074
1.3301
-0.606027
0.789349
-0.453538
-1.0019
1.45544
-0.167257
0.377578
-0.21032
-0.558036
-0.99275
1.55079
0.145482
-0.43791
0.100495
-0.126914
1.00617
-1.5642
-1.34961
-0.407778
1.75739
-0.0904291
-0.985604
1.07603
-0.00845151
2.14699
-2.23233
0.0853414
0.448152
-0.258754
-0.189398
0.0131089
-0.641235
0.503297
0.504303
-0.665973
0.168871
-1.51523
1.93012
-0.414887
0.057339
-0.496423
0.989201
0.456688
-1.67451
-0.489713
0.231457
-0.367037
0.13558
1.07422
-0.226826
-0.431643
0.475808
-0.0441652
-0.370478
0.438249
-2.29137
1.06863
1.76323
0.286086
-0.221401
0.526166
-0.432172
0.954867
1.65744
-0.551748
-0.445565
0.013922
-0.206529
-1.24306
0.552461
0.486198
-0.458575
-1.87335
0.0485549
-0.383617
0.44121
-0.0962218
-2.01275
1.2379
0.774857
1.59694
0.342888
0.415906
-0.142491
-0.273415
0.576301
-0.540288
-0.0360134
-1.78365
0.668199
-2.0335
1.01485
-0.569776
0.460229
0.109546
0.0317982
-0.222477
0.190679
2.02611
0.0360333
-2.06214
0.37523
0.0215976
-0.396828
-0.276623
-0.542065
0.484416
-0.0568158
-0.192025
0.195856
-0.00383123
0.806415
-0.120047
-0.686368
0.0240208
-0.216046
1.69756
-1.28715
-0.0594857
-0.305791
0.365277
-1.9089
0.393668
0.0293261
0.0898812
-0.483884
-0.456114
0.833477
0.131488
-0.0576127
0.508479
0.324671
-0.83315
0.777922
-0.285933
0.74855
-0.715812
0.455901
-0.39907
0.187899
-0.657686
1.5064
-0.421059
-1.08534
1.09912
-0.115103
-0.984022
-0.830226
-0.158713
0.35717
0.0651962
-0.422366
0.6669
-0.881138
0.214238
2.17131
-0.0439526
-2.12736
0.373155
0.0829095
-0.456064
-0.975763
1.32731
-0.351543
0.879134
1.07991
-1.95905
0.0729293
0.453713
-0.548541
0.887401
-0.33886
0.454087
0.186706
-0.640794
-1.49469
0.765662
0.729026
0.182739
0.0131172
-1.64642
0.296807
0.642686
-0.382092
-0.260594
0.875317
-1.20696
0.331646
-0.198054
-0.393454
0.313289
1.8337
1.68085
-0.324732
-1.35611
-1.64124
0.227052
0.657879
-1.09477
1.29012
-2.10383
0.813711
-0.221773
0.592436
-0.0143585
-0.801342
0.599865
-0.335054
0.43884
-0.207729
-1.53922
1.74695
0.7841
0.713608
-1.40432
1.51148
-0.107163
0.345279
-0.580375
-1.22722
-0.463212
-0.254148
0.284503
-0.0303552
0.256824
-0.624742
0.367918
0.200422
0.0417552
-0.242178
-0.243419
1.11874
-1.14916
-0.483207
1.63237
-1.50255
-0.509966
2.01252
0.92392
-0.759254
-0.164666
-0.445044
0.0471732
0.397871
0.31398
0.119192
-0.433172
-1.90424
0.0857859
1.81845
0.0470692
0.400329
-0.447399
1.55835
-1.7439
0.185556
-0.948765
0.626582
0.388655
-1.01524
0.0246515
-0.2788
-0.596783
-0.561452
1.15824
1.24622
-2.00481
-1.89857
1.63945
0.259111
0.317687
-0.0495283
1.44204
-0.452843
-0.164528
-0.408995
0.573523
-0.0211382
0.334084
-0.312946
-0.473768
1.5478
-1.07403
1.72368
-1.33349
-0.390198
1.94119
-1.89902
-0.042171
1.52968
-0.762829
-0.766847
0.0826684
-0.471945
0.389277
-0.602027
-0.0183548
-1.90355
1.65574
0.247808
0.123783
-2.02733
-0.367733
1.37291
-1.00518
-1.03185
-0.523438
0.419262
-0.348739
-0.0705231
-1.47124
-0.437661
-0.394952
0.271833
0.123118
0.543665
-0.211964
-1.81059
1.69836
0.112233
-0.452163
0.2808
-0.321232
0.402753
-0.0275228
-1.16696
0.192369
0.309927
-0.352368
0.0424412
-0.67107
0.724784
-0.0537147
0.745332
-0.0364912
-0.5131
1.00194
0.408793
0.75828
-0.0581992
0.216349
-0.158149
-0.313496
1.10557
-1.24941
0.7973
0.45211
0.189563
-0.0068239
1.50234
-0.718243
1.14281
-0.700335
-0.356719
-0.428132
0.784851
0.485693
-1.45581
0.970116
1.13252
-1.22295
1.96309
-0.845111
-1.11798
-0.0105711
-1.04162
-0.207794
-1.41304
1.97316
-0.560114
-0.0856063
-0.473966
1.74513
-1.97326
0.502024
-0.45816
-0.041253
-0.307608
0.261066
0.29323
-0.00881078
-0.967914
-1.04165
2.22449
-0.841935
0.360989
-0.54564
0.184651
0.109698
0.441399
-1.30155
-0.722671
2.02422
1.2598
0.410149
-0.00810914
-0.303041
0.311151
1.65175
0.28306
0.0207156
-0.303776
1.13698
0.369419
-0.714916
-1.94904
0.338299
-0.451369
0.0232711
0.428098
1.11356
1.31498
0.411729
0.239303
-0.651032
1.86043
0.0807591
1.17672
-1.69748
0.520766
-1.63794
-0.0110241
1.64897
-1.5674
2.03669
-0.46929
0.296135
-0.0108805
-0.285254
-0.73608
1.9823
0.127067
0.521715
-0.648782
0.091075
-1.49539
0.753563
-0.133714
-0.619849
-1.75381
2.2867
-0.532893
-0.490841
1.10323
-0.612392
2.31993
-1.01552
-1.30441
0.0348996
-1.20108
1.16618
0.212968
0.0206301
-0.820088
1.69922
1.11163
-1.76312
1.8359
-0.645219
-0.380278
0.320792
-1.72198
0.0840415
1.98502
-0.694217
0.00200516
-2.04261
0.49277
-0.0536163
0.522156
1.15127
-1.67343
1.12359
-0.297365
-0.826224
1.21765
-1.90131
0.683656
-0.334361
0.0218917
0.312469
-0.408783
-0.944505
1.35329
0.729783
-0.541884
-0.50982
0.926379
-0.416559
0.344118
0.474543
-0.818662
0.159034
0.260227
-1.64402
1.92921
-0.285186
0.2143
0.0171706
0.870688
0.438184
-1.30887
0.741351
0.746425
-1.48778
0.344003
0.962106
-0.0319615
1.9794
-0.00221846
1.57528
-1.57306
-0.0195242
-0.0124231
0.339032
-0.305618
-0.0334143
1.26762
-1.03046
-0.237165
0.894323
1.06877
0.256234
-0.0372006
-0.219033
-0.52992
1.58901
-1.05909
0.0077207
0.349448
-0.357169
0.49189
-1.31449
0.822603
-0.828752
-0.321298
1.15005
1.49272
-0.17409
0.564623
0.558966
-0.338635
-0.843877
1.18251
0.562291
-1.59792
0.132518
0.417953
-0.550471
0.389429
-0.125003
-0.264426
0.00717248
0.205796
-0.19411
1.69238
-1.49827
-0.202479
1.83696
1.51459
-1.24787
-0.266721
1.28184
-1.08227
-1.05568
0.408662
0.64702
-0.108798
-0.77696
-0.423435
0.355936
0.067499
0.13129
0.284616
0.296316
1.44565
-1.74197
0.431315
0.3751
0.266097
-1.76865
-0.911166
0.365931
0.545236
-0.64723
-0.486023
1.13325
0.975699
-0.46722
-1.66606
1.08293
0.771284
-0.655986
-0.115299
-1.13031
1.62355
-0.493237
-0.856743
0.923423
-0.941776
1.18987
-0.248095
-1.38928
1.937
-0.547712
-0.0460523
0.433607
-0.387555
0.31673
-0.284931
-0.771763
-1.28871
1.97743
-0.688728
-1.05637
1.3632
1.00243
-1.05431
0.0518842
-0.113617
-0.429092
0.542709
-1.97538
1.38835
0.587026
0.00966704
-0.200872
0.191205
-0.0235961
1.05951
-1.53328
1.3495
-0.863804
-0.444969
-1.25695
-1.39601
1.39379
0.938519
0.0940547
0.623879
0.377801
-1.00168
-0.671381
0.626169
0.045212
0.58347
-0.552129
-0.031341
0.382939
-0.838315
0.455376
-0.673401
0.878473
-0.205072
-1.48176
-0.305728
1.78749
0.398062
-0.51168
0.869983
0.397641
-1.92327
1.404
0.519267
0.468098
0.140157
-0.608255
0.0104438
0.379184
-0.481316
0.102132
-1.28417
-0.480589
0.863528
0.288026
0.409246
-0.326577
0.553126
-0.296302
0.49814
-0.948954
0.0654494
0.55998
0.494753
-1.18577
0.691021
-1.11188
-0.81089
1.92277
0.462466
-0.801101
-1.0214
-0.0971199
1.11852
0.262825
0.369052
-0.631877
0.0889766
2.17543
-1.3857
-0.789734
0.400932
1.27991
0.0109609
0.859865
-0.664787
-0.195077
-0.544874
1.25723
-0.712358
-1.11951
-0.400312
1.51982
-0.919037
0.370497
-0.742337
-0.313345
2.26927
-0.88999
-1.37928
-0.490891
0.0552155
0.435675
0.709197
0.171941
-0.881138
-0.346875
0.393944
-0.0497456
0.599388
-0.549642
-0.134345
-0.04891
-0.423064
-0.0201151
1.38522
0.884043
-0.989486
1.84414
-0.504492
1.66985
-0.493863
0.00297235
-1.60184
0.482335
1.43788
-1.21765
-0.235918
-1.25455
0.278782
0.933901
-1.30163
1.29255
-1.38694
1.61928
-0.0427189
-0.392081
-0.240825
-0.472824
-0.219061
0.691885
-0.601107
-0.0611984
1.40244
0.258325
-1.66076
0.0046553
-0.505092
0.500437
-0.011864
0.755157
-1.96189
1.20673
1.68277
-0.124423
-1.76724
1.79896
-0.0317269
0.417239
-0.308682
-1.76617
-0.209207
-0.637352
1.67603
-0.0202899
0.527133
1.98089
-0.779514
-1.20138
-1.14848
-0.125728
1.27421
0.100074
0.969514
-1.06959
-1.38254
0.0707822
-0.391874
-0.202345
0.594219
-0.913114
1.17739
0.331585
0.982866
-1.31445
-0.81669
-0.0472416
0.863932
-1.72083
0.139427
1.5814
0.260081
1.08942
-0.466844
0.912647
0.617029
-0.488577
-0.328192
1.4033
-1.67656
0.215186
-0.728117
0.512932
-0.500169
0.573099
1.33586
0.0977813
-1.43364
1.18867
-1.69316
-0.109385
0.441044
-0.395885
1.13005
-0.734161
-1.12752
0.530738
-0.0308194
0.551557
-0.520737
0.382271
0.0498175
-0.432088
0.480797
0.152015
-0.524808
1.18269
-0.0967151
-0.47306
-0.314325
0.338977
0.688304
-0.416179
0.536287
-0.357484
-0.395488
0.378352
0.0171354
0.411925
-0.460423
0.0484978
-1.38259
1.14614
0.165741
-1.18714
-0.0245162
-0.547179
0.000577374
1.10168
-1.10226
0.642398
-0.687811
0.666015
-1.32651
0.660496
-0.897705
1.45532
-0.557619
0.518225
-1.9258
0.269838
-0.0364568
-1.86211
0.851191
1.3733
-1.45337
-0.212688
-1.31262
-0.63016
-0.822237
0.355973
-0.260777
-0.0823448
0.343122
2.17777
-1.0642
1.83643
-0.458055
-0.450431
-0.314178
0.764609
-1.79379
0.711557
1.08223
0.532492
0.0480894
-0.343421
0.970003
0.323839
-0.183391
-0.918958
0.587232
-0.460165
-0.058442
0.522536
-0.464094
-0.230661
1.6331
0.357846
-0.480332
0.122486
1.78779
-2.24636
1.07335
1.173
0.44466
0.420607
-0.865266
1.2757
-1.04256
-0.233142
-1.04006
0.54922
-0.493813
-0.055886
0.765083
1.76782
-1.95148
0.802873
-0.348786
-0.779105
1.3414
-2.02601
1.42807
0.597934
0.549249
-1.38335
0.834101
-1.36979
1.4448
-0.0750106
0.720798
-1.03429
0.0264901
0.381831
0.542089
-0.108792
-1.24793
0.431638
-1.84475
0.705498
1.13925
0.485814
-1.63429
1.46066
-0.0647126
-1.15452
0.272293
0.931897
2.01266
-0.682568
-1.33009
-0.164614
0.514024
-1.16125
0.317648
-1.82476
1.69903
-1.21678
0.763239
0.943743
-1.62392
1.20484
0.419082
-1.86313
1.22836
0.634763
-0.711191
-0.259237
0.329509
-1.93005
1.35088
0.579172
1.2132
-1.94928
-1.63158
-0.0124392
2.08183
-0.791712
1.56239
-0.671755
-0.890639
-0.0473558
-0.300054
0.34741
0.292727
0.926458
1.05267
-1.34942
-0.274502
0.298408
0.431374
0.399685
0.710182
-1.10987
0.753044
-0.436648
-0.0819953
-1.89031
1.9723
-0.694847
0.669358
-1.53336
-1.12381
-0.742
1.86581
0.490528
-0.626499
-1.31724
0.420259
0.896984
-0.0313658
0.0909162
-0.0595504
1.67238
-1.88011
0.717253
-1.11314
0.977059
0.342832
-1.31989
0.527272
-0.166282
-1.5488
0.449915
1.09889
-1.20541
0.376657
0.700759
-1.24563
0.782335
-0.567149
0.00866844
-0.0400342
-0.0833933
1.98669
-1.16424
1.46284
-0.298603
1.91676
-0.00524562
-1.91152
-1.37173
0.019404
-0.591538
0.0620176
1.55708
0.249069
0.0612958
0.24251
-0.0122291
0.585576
0.984672
0.0882359
0.495234
-1.66382
-0.146767
-1.73094
0.856749
-1.67168
0.348539
0.358972
-0.707511
1.7316
0.0993759
-1.83097
-0.222408
0.211528
-0.64156
-1.39195
-1.50908
-0.216163
-0.563427
1.7521
-0.627362
0.888386
-0.261025
-1.63369
0.521813
-0.564255
0.963939
-0.805817
-1.20694
-0.46937
-0.527337
0.700656
-0.888396
0.217327
2.00391
-0.327876
1.26451
-1.02118
-0.243334
0.206097
0.227471
0.509968
1.91426
-1.80077
-0.0471358
-0.431525
0.636831
-0.928012
1.01771
-0.882603
-1.03888
0.410341
0.343979
-0.75432
-1.63025
0.0111544
-0.259032
1.48466
-1.22563
-0.231359
-1.53588
-1.31083
1.41416
2.15143
-0.931459
-1.21997
-0.192472
0.607123
1.61737
-0.73454
-0.882828
0.5099
-0.55881
-0.038843
0.377875
-0.353757
0.0264142
0.327343
-0.342992
0.966871
-0.765505
1.97871
-0.0365964
-0.312142
-0.522957
-0.180204
0.703161
-0.0285386
1.70092
0.480883
0.191156
-0.672039
-0.714403
1.09699
0.767588
0.821419
-0.694402
-0.216765
0.99815
-0.356617
-0.641533
-0.141686
0.150828
-0.00914112
0.0898099
-1.36458
1.27477
-1.77433
0.265252
0.420913
-0.820017
1.67677
-0.0118953
0.521796
0.259149
-0.88651
-1.99379
1.02899
-1.74532
0.593942
-0.87324
0.121175
-0.696334
-1.10309
1.79942
-1.90869
-0.0132911
-0.360248
0.373539
1.52811
-1.1916
1.20466
-1.10458
0.280589
1.01451
-1.29509
0.323555
-0.715429
-1.33808
-0.530604
1.86869
-0.19011
0.547105
-0.356994
-0.827136
1.50635
-0.679213
1.61405
-1.17017
-0.443874
1.65893
0.0445931
-1.70352
-0.880783
-1.36557
-0.599258
-0.0631096
0.737901
1.28349
-0.0232743
0.190957
-0.167682
-1.23759
-0.311211
1.32171
1.0314
-1.0036
1.22043
-0.216836
0.365754
-0.345039
0.356655
0.808315
-1.16497
-0.108116
0.465962
-0.187337
-1.74272
-1.8095
0.860484
-0.0891997
-0.277166
0.590721
0.181125
1.36339
-1.54452
-0.981532
-0.185426
1.23549
0.577183
0.138667
-0.488935
1.24562
-1.17353
-0.0720894
0.170929
-0.703687
0.532758
1.15546
0.0235957
0.518283
1.5709
-0.717208
1.63988
-0.970522
-0.224546
-0.47342
0.697966
1.39864
0.17742
0.0199052
-1.27265
0.863862
1.43369
-1.46223
-0.787912
-0.732412
1.52032
-1.03931
-0.75448
-1.77269
1.81098
-0.0382865
-0.213014
-0.702384
0.483323
1.06436
0.506541
0.139261
-0.55688
0.417619
-0.662742
-1.30995
-0.383137
-1.38977
1.77291
1.68035
-0.420553
-0.468844
0.601363
1.09809
-1.73965
0.828429
-0.707554
-0.823639
1.8821
-1.05846
0.675208
0.88999
0.615729
-1.50572
1.81961
-1.13454
-0.685075
-0.667876
-1.30214
1.86292
-0.560776
1.04551
0.218999
-0.545513
0.533618
0.803141
1.51678
-0.416034
0.368678
0.142201
0.00802401
1.80039
-0.982869
0.852033
1.32573
-0.78646
0.423719
0.362741
0.489578
-0.846297
1.41986
-0.0839971
1.13114
0.431251
-1.28316
-0.0927978
1.37596
0.362349
-0.0523536
-0.309995
0.299327
0.148826
0.302322
-1.86972
-0.533014
0.580088
1.27103
-1.13111
-0.139924
0.29512
0.70303
-0.291705
0.149214
0.464737
0.450946
-0.915683
-0.776715
1.44705
-0.127686
-0.810971
1.93167
-1.1207
-0.45599
0.800108
-0.0177975
-0.798893
1.97628
-0.991136
-0.643922
1.0818
0.193899
0.567124
-0.59164
-0.336457
0.290404
-0.539188
-0.272478
-0.0129152
0.799205
-0.271984
1.53018
-1.2582
-0.362152
0.182474
-0.626236
0.217241
-0.621459
0.0222004
-1.76498
1.24432
0.43863
0.448771
0.198543
-0.614988
0.416445
0.441137
0.171789
1.4733
0.808556
-2.28186
-0.203828
-0.0310999
0.234928
-0.0132804
-1.50166
1.41911
0.732324
1.48742
-1.3063
-1.90041
-0.0759015
-0.180529
-0.820744
0.850922
1.15516
0.585775
-1.74094
0.701545
-0.0591475
-0.0536221
-0.597798
-0.188662
-1.08064
-0.952294
0.843496
0.677452
1.25729
1.09097
-1.02373
-0.0672354
0.364883
0.0134697
-0.132324
0.474552
-0.0626266
1.48536
0.347993
-1.83336
-0.646432
0.58799
-0.432856
0.265638
0.167219
-0.645486
0.00643007
0.639056
0.810857
0.584096
-1.39495
0.432807
0.542892
1.28242
-0.0292317
-0.500276
0.668954
-0.681184
-0.226031
0.322276
-0.0962443
-1.79855
1.00094
1.56194
-1.24825
-0.313686
0.0308796
-0.279326
0.248446
1.58079
-1.7749
1.4024
0.277951
0.340378
0.86428
-0.254965
-0.0175137
0.55052
-0.528098
-0.0224225
-0.976317
-0.242487
1.98502
-1.00767
-0.977355
1.58548
-0.654798
-0.930684
0.757675
-1.30347
0.545798
0.0782131
0.972834
-0.00215023
-0.0947937
0.892942
-0.798148
0.0554756
0.495045
-0.687784
-0.413221
-0.0671102
1.68352
0.000124321
-1.68364
-0.765244
0.907861
-0.413108
-0.135042
0.0978413
0.16601
0.964037
-0.278845
0.479267
0.0640298
0.0182118
-0.200413
0.290265
-0.717981
0.99857
0.0284237
0.457774
0.242724
-0.469418
1.44981
0.00383492
1.08713
-0.261789
-0.227102
-0.446579
0.911316
-0.368044
1.40514
-1.0371
-1.47727
-0.169154
-0.622389
1.38122
-0.758835
0.104756
-0.517978
0.576223
-0.118663
-0.0393012
-0.442176
0.481477
-1.48009
0.488958
0.231518
-0.251664
0.85348
-2.15503
0.615342
-1.72678
-0.500993
1.08596
-0.613683
0.937497
-0.486551
0.024439
-1.17904
1.26885
0.000391619
-0.293327
0.189764
-0.949019
-0.181105
-1.09054
1.27164
0.517568
0.544339
2.17914
-1.39625
-0.782894
-0.411896
0.13009
0.424314
0.0415307
-0.465845
-1.44258
0.278337
0.360339
0.0290893
-0.0129135
-0.244624
0.257538
0.844142
-1.46653
0.174479
0.799471
0.0938547
-0.893326
-1.55908
1.19104
0.279887
0.0712716
-0.351159
0.658698
-1.9474
-0.268136
-0.00397532
0.272111
0.361566
-0.0816793
0.0122915
1.31728
-0.973273
1.09917
0.910434
-0.477627
-1.66535
0.54154
-1.21101
1.00851
0.202494
0.744425
-1.53234
-0.880407
-0.559568
1.43997
0.138255
0.733445
-0.549173
0.455559
1.93991
-0.263341
-1.67657
-0.0065173
-1.65731
1.50253
0.156395
0.924463
0.692905
-0.296322
-0.00671942
0.282505
-0.510677
-0.610954
0.0978587
-0.0880486
-0.00981012
-0.00453365
-1.71461
1.71915
-0.0875109
0.530224
-0.442713
0.528941
-1.64009
1.11115
-0.144698
-0.98555
-0.0547842
-0.0479657
1.17885
-0.605353
-0.361859
0.967212
-0.671545
-0.667409
0.804069
-0.460089
-0.47201
0.0531831
0.418827
-0.417856
0.616399
-1.72122
-0.22587
-0.0983754
0.324246
0.267543
0.546592
-0.814135
1.17516
-1.77385
0.598695
0.0756723
-0.995424
0.258185
-2.012
-0.921882
-1.0811
2.00298
-1.68517
0.0959736
1.5892
-2.03819
-1.40814
0.0383504
-0.50572
0.522151
-0.016432
-1.74962
-0.610139
2.0955
0.678613
-0.353942
0.150277
-0.596856
-0.306801
0.849693
0.278925
0.185173
-0.70813
0.0323431
-0.267065
0.234722
-0.362134
0.064492
-0.1802
0.21108
-0.497344
0.942004
-1.94362
1.21881
0.724812
-0.380612
0.264784
1.0447
0.375788
-0.013439
-0.432562
0.571823
-0.840333
-0.47691
-0.979749
0.355809
0.623939
-0.0504084
-0.358921
0.40933
-0.7309
0.901829
-0.179062
1.28909
1.05155
-0.570666
0.925488
-1.59703
0.809225
-1.00297
0.193741
0.209157
-0.0100206
0.252764
-0.0147986
-1.80531
1.10897
0.714051
0.871431
0.0268039
-0.367596
0.340792
-2.21281
0.885644
-0.35788
0.47142
-0.350026
-0.0312225
-0.398465
0.429688
-1.00209
0.396735
-1.79738
1.61004
1.49343
-0.51637
-0.396337
0.355902
0.0404347
-0.0641775
-0.30286
-0.281049
-1.96337
0.786283
1.17709
-0.26483
0.23373
-0.167933
0.591371
-0.423438
1.42752
-0.0251205
0.0290207
0.0602032
-0.0892239
-0.475376
0.5038
0.250798
-0.43498
1.29833
-1.62622
1.7107
0.149734
-0.983131
-0.617032
1.7032
-0.0457419
-1.65746
0.10669
0.357945
-0.464636
1.00179
-1.96971
0.590116
0.231803
-0.821918
0.0258413
-0.0303348
0.00449346
-1.45324
1.46442
-0.0111771
-0.388788
1.0548
0.804262
0.919423
1.78816
-0.620538
-1.16762
-0.0240416
-0.283364
0.307405
0.519502
-0.564719
-0.0373085
-0.551303
-0.0134159
0.0972783
-0.591688
0.494409
-0.141756
1.68949
-1.54774
-1.5558
0.513079
1.04272
0.521243
1.50487
0.0650586
0.0879106
-0.152969
0.977295
0.456234
-1.43353
0.00577095
-0.266548
-0.683226
1.76926
-1.08603
-1.39911
0.115952
1.17282
0.505043
-1.38545
-0.00216555
-0.202453
0.204619
1.44548
-0.25767
-1.18781
0.413629
0.394306
-2.09486
1.05321
1.79704
-1.87903
-0.893216
0.166491
0.726725
-0.268578
-0.00846024
-0.374357
0.382817
0.363983
-0.35913
-0.0048522
-0.0154909
0.221351
-0.20586
-0.339622
0.352122
-0.0125001
-0.982233
2.08033
-0.532463
0.521505
0.218609
-0.386542
0.650015
-0.97195
0.321935
-1.1761
-0.849902
0.422719
-0.108739
-0.21079
-0.0101643
0.220954
1.96833
-0.692008
-1.27633
0.176601
1.09443
-0.434477
-0.236904
-1.00738
0.179268
0.301775
0.897604
-1.19938
-0.0598977
-0.0112507
0.0711484
-0.042164
0.618465
-0.564405
-0.156233
0.720638
1.54489
-0.828427