/*--------------------------------*- C++ -*----------------------------------*\
| =========                 |                                                 |
| \\      /  F ield         | OpenFOAM: The Open Source CFD Toolbox           |
|  \\    /   O peration     | Version:  2306                                  |
|   \\  /    A nd           | Website:  www.openfoam.com                      |
|    \\/     M anipulation  |                                                 |
\*---------------------------------------------------------------------------*/
FoamFile
{
    version     2.0;
    format      ascii;
    arch        "LSB;label=32;scalar=64";
    class       volVectorField;
    location    "7.4";
    object      U;
}
// * * * * * * * * * * * * * * * * * * * * * * * * * * * * * * * * * * * * * //

dimensions      [0 1 -1 0 0 0 0];

internalField   nonuniform List<vector> 
5098
(
(2.53817 1.0692 0)
(2.1292 0.0987507 -4.59978e-20)
(2.5573 0.00386913 -1.94636e-21)
(1.51122 -0.678805 7.32774e-19)
(2.70381 -1.08486 0)
(0.88857 -0.427765 0)
(2.51228 0.00542316 2.78193e-20)
(2.81397 -0.276485 2.10594e-21)
(2.73041 -0.025091 -4.22812e-20)
(1.88916 -0.281659 1.5879e-19)
(-2.19015 0.137497 0)
(2.13 -0.0285771 1.62244e-19)
(2.41125 -0.32141 -5.76897e-21)
(0.924076 -0.447527 0)
(2.32849 -0.42683 1.48375e-19)
(1.88672 0.0787601 -5.37823e-22)
(-1.91858 0.549551 -5.75291e-19)
(-2.65766 1.11706 0)
(-0.259436 0.191996 3.5124e-19)
(-1.9568 0.575546 6.56685e-19)
(1.82202 0.581467 -8.58192e-20)
(1.86338 0.0644337 -1.33421e-21)
(2.08995 -0.782197 0)
(0.744051 0.0395599 2.98916e-20)
(-1.94661 1.28547 0)
(1.45691 -0.581528 0)
(1.98557 0.024193 1.34863e-19)
(1.82368 -0.767681 1.78191e-19)
(-0.3526 0.273806 -1.07604e-18)
(1.71996 -0.739421 0)
(2.4018 -0.183414 -1.02848e-19)
(0.705443 -0.34043 0)
(2.07254 0.0436857 -1.41564e-19)
(-1.28418 -0.289175 0)
(2.54737 0.383771 -3.34306e-20)
(3.65186 0.436531 1.22888e-18)
(1.83406 -0.447161 1.39244e-19)
(2.06624 -0.0100227 -2.67661e-21)
(1.3247 -0.431355 5.55995e-19)
(1.38545 -0.638055 0)
(1.51797 -0.692674 -3.42476e-19)
(0.715136 1.39057 -1.89819e-18)
(1.47307 -0.586186 0)
(2.58154 -0.169938 6.86482e-20)
(2.43069 0.752157 9.57161e-21)
(2.04364 0.0735587 8.15348e-21)
(-2.15341 0.612997 2.54949e-19)
(1.06957 -0.354926 0)
(2.36842 -0.210325 0)
(1.51479 -0.643962 7.82235e-20)
(2.25109 0.132297 7.59274e-20)
(1.59624 0.488094 -4.99082e-19)
(0.331468 -0.171146 1.66227e-21)
(2.07338 -0.034463 1.72655e-19)
(0.951387 -0.475109 -3.33788e-19)
(1.54773 0.13682 0)
(1.8219 0.295362 -2.68891e-19)
(1.60908 -0.661562 0)
(0.832673 -0.407039 0)
(1.94345 -0.0101894 -4.02333e-20)
(1.65022 -0.355929 6.52624e-21)
(-2.17677 1.04973 -8.96319e-19)
(2.52397 0.426918 0)
(2.34911 -0.297293 0)
(0.365797 -0.175658 1.72299e-18)
(0.801202 -0.400683 4.25351e-19)
(2.32802 0.020797 5.37949e-21)
(2.3081 0.175385 1.51593e-20)
(2.13403 -0.230315 1.64344e-19)
(1.65259 -0.698642 2.23125e-19)
(1.89239 0.222319 1.438e-20)
(0.990992 -0.758371 8.33764e-21)
(1.89882 -0.778639 0)
(-0.188661 -0.651167 0)
(1.77876 -0.256136 3.83157e-20)
(1.11538 -0.546301 -3.75826e-19)
(1.54665 -0.186292 0)
(1.49815 0.224047 4.49411e-19)
(2.50054 -0.25735 7.2175e-20)
(1.60352 0.193537 0)
(1.68853 -0.0621258 0)
(2.19179 1.05841 6.37084e-19)
(1.67199 -0.302464 5.13974e-19)
(-1.22841 -0.596485 -8.8663e-20)
(-2.50653 0.711685 7.51432e-19)
(1.56323 -0.675579 7.76817e-20)
(0.0569809 0.286901 -2.7259e-19)
(1.56136 -0.20934 -3.89339e-21)
(2.92575 -0.185499 7.86981e-20)
(1.56635 -0.324369 1.00138e-20)
(2.27963 -0.221047 -6.93687e-21)
(0.906365 -0.258904 7.22585e-19)
(2.48887 -0.0812569 -2.04578e-19)
(1.52982 -0.663378 -3.90646e-19)
(1.30781 -0.45691 9.7957e-20)
(0.937911 -0.593847 -4.38842e-20)
(1.03892 -0.52154 -3.05564e-19)
(1.43762 0.297247 3.34097e-19)
(1.71957 -0.246344 1.74203e-20)
(2.00753 -0.45022 -1.0685e-19)
(3.05914 -2.28901 -5.79362e-19)
(1.00307 -0.49556 -3.93767e-19)
(-0.330796 0.266666 -1.54488e-19)
(2.73984 0.0667893 1.50426e-20)
(1.51364 0.195283 -5.10861e-19)
(2.39355 1.16313 0)
(1.92769 0.280973 2.86234e-19)
(2.34768 0.099409 2.3838e-20)
(0.997391 -0.395304 7.68264e-20)
(-2.21339 0.119738 0)
(1.0439 -0.502439 -8.28331e-19)
(1.07021 0.442388 5.12746e-19)
(1.94655 -0.01703 -2.58495e-19)
(0.832853 -0.117172 1.5772e-19)
(1.76486 0.658646 1.23414e-19)
(-0.303063 -0.0434036 0)
(2.51177 0.819691 1.76152e-18)
(2.6165 1.48416 0)
(1.25212 0.202876 -7.12419e-20)
(0.775635 -0.0135915 -4.58414e-19)
(1.65617 0.470289 4.098e-19)
(1.55737 2.01403 -1.62231e-19)
(1.9695 -0.301285 -1.00308e-19)
(-0.456778 2.24442 -9.43633e-19)
(0.793192 -0.29508 -9.80868e-19)
(-1.83431 0.758118 5.32275e-20)
(2.22659 -0.0263385 1.40207e-19)
(2.07254 -0.747125 -1.77286e-19)
(1.33728 -0.106363 -1.18695e-19)
(0.891184 -0.107804 -3.0783e-19)
(-1.86499 2.18038 -1.25545e-18)
(1.08742 -0.475086 -5.63155e-19)
(1.12133 -0.476146 4.71022e-19)
(2.51496 1.50486 -8.8801e-20)
(1.09284 -2.52035 -1.34035e-18)
(3.38482 -0.6001 5.79456e-19)
(1.94795 2.49169 4.70862e-19)
(1.89991 0.291779 1.96561e-19)
(0.861101 -0.420806 0)
(2.09458 -0.0361376 -5.5719e-19)
(1.5686 0.581272 -3.31304e-19)
(1.57685 -0.24366 1.3207e-19)
(1.72769 -0.782185 3.30427e-19)
(2.52734 -0.0247097 -1.05894e-20)
(2.03768 0.0590584 -5.49007e-20)
(2.94234 0.271432 0)
(2.10586 -0.237264 1.73733e-19)
(2.34753 -1.39306 0)
(2.8409 -0.0579483 4.46465e-19)
(1.62687 -0.740087 1.14411e-19)
(2.64617 0.330417 -1.2409e-18)
(1.87674 0.773886 0)
(2.51329 -1.39503 2.15525e-19)
(2.05198 0.0439824 0)
(0.0443323 0.181315 -3.43171e-19)
(0.779709 -0.295129 -1.89258e-19)
(1.61412 -0.654863 -4.03755e-19)
(2.26636 -2.34002 -2.98296e-19)
(1.46491 -0.685665 -2.81477e-19)
(-0.19259 0.138683 1.14103e-18)
(1.93339 -0.423365 -3.72609e-19)
(2.34852 -0.41598 -1.99626e-19)
(0.525358 0.579038 -4.50978e-19)
(1.79733 -0.202175 -3.18124e-19)
(-2.64231 1.42124 -6.44979e-19)
(2.43421 -0.192492 -1.04791e-19)
(2.72386 -1.33593 -8.0011e-19)
(2.33147 -0.489373 0)
(-2.19435 1.46508 7.12521e-19)
(1.65893 -0.541599 -4.45435e-19)
(0.906733 -0.623073 3.12385e-20)
(1.52273 -0.618703 -2.66901e-19)
(2.22785 0.561352 1.48812e-19)
(1.8203 -0.739874 3.16052e-19)
(2.63017 -0.0267448 0)
(1.93564 0.00839074 0)
(1.68733 -0.292919 -1.97701e-19)
(3.37411 0.514837 -1.68464e-20)
(1.74591 -0.14345 4.46987e-19)
(0.23786 0.116675 0)
(1.68402 2.16747 0)
(3.13227 0.512665 -1.19897e-18)
(1.71596 -0.535752 5.39595e-19)
(-2.58532 1.5097 0)
(1.84457 -0.203667 0)
(2.68342 0.866515 3.81094e-19)
(1.48815 0.338091 0)
(1.86769 -0.430432 4.75717e-19)
(0.98354 -0.480593 7.26171e-19)
(0.0275484 0.565941 -3.20286e-19)
(1.03526 0.661553 0)
(1.49923 -0.180541 1.37541e-19)
(1.92461 -0.79791 0)
(1.7579 -0.267265 4.03034e-20)
(2.44087 -0.182479 1.15546e-20)
(0.737239 -0.185645 -7.60373e-19)
(3.57671 0.488108 4.70134e-19)
(3.58861 -0.449458 0)
(2.02764 0.0300953 -3.89431e-21)
(1.68416 -0.52307 -7.95655e-20)
(-1.91859 2.17084 -1.84814e-18)
(1.65332 0.420293 6.22728e-21)
(2.45096 0.735481 -1.50496e-20)
(2.33052 0.0266722 6.03711e-21)
(1.50181 -0.00616064 2.00842e-19)
(0.751238 -0.301008 -1.35213e-19)
(2.73593 0.103899 -1.84721e-20)
(1.15574 -0.525834 0)
(2.38265 -0.0886524 0)
(1.26148 -0.609514 -3.30026e-19)
(1.95401 -0.150201 -1.61333e-19)
(1.69341 0.365861 3.31614e-19)
(1.63606 -0.181467 -1.37762e-19)
(2.06732 0.107899 -1.99303e-19)
(2.23388 -0.0767055 -3.09992e-19)
(-0.0657466 0.208987 -2.93388e-19)
(1.80573 -0.279211 0)
(-2.44268 0.541171 -1.26118e-18)
(1.01989 -0.322152 1.3878e-19)
(2.01229 0.0564951 1.4033e-19)
(2.29615 -0.233984 -2.5915e-20)
(1.55634 -0.308139 0)
(2.42558 0.102163 3.08585e-21)
(2.2854 -0.274694 1.29875e-19)
(0.339814 -0.14341 1.97184e-19)
(2.03184 -0.15807 0)
(0.361741 -0.083481 0)
(1.97327 0.0212692 0)
(1.96309 -0.458451 0)
(1.78613 -0.681025 -5.30472e-21)
(1.80571 0.483958 0)
(0.563692 -0.23141 -4.96251e-19)
(2.98362 0.578578 -7.45624e-19)
(1.99002 0.034955 -1.25436e-21)
(2.65647 -0.0459005 -5.97547e-20)
(2.39364 -0.0459284 0)
(1.43015 1.52541 -2.04801e-19)
(-0.933522 2.32784 -1.63566e-18)
(3.2627 0.110555 0)
(1.86148 -0.0173792 3.26214e-19)
(1.8168 1.22337 -2.13695e-18)
(2.25961 0.591408 0)
(2.6881 0.0586467 0)
(1.01666 -0.225743 8.33985e-19)
(1.76884 0.534378 -4.39218e-19)
(2.29973 -0.120238 -1.80711e-19)
(1.03844 -0.490805 9.04639e-20)
(-2.4236 0.333521 -7.99996e-19)
(-1.97717 0.416133 0)
(2.3993 -0.109073 4.98134e-20)
(2.18308 0.853778 -1.16129e-19)
(1.8319 -0.762279 3.21609e-19)
(-0.393157 -0.171391 4.8472e-19)
(-1.38505 2.32366 8.71791e-19)
(1.96796 0.0335084 -2.42063e-19)
(-1.00442 2.23061 1.49742e-18)
(2.05925 -2.46291 1.13744e-18)
(0.520232 -0.325317 -1.04248e-19)
(1.10147 -0.376624 -3.47133e-19)
(1.73171 0.0355772 1.40189e-20)
(2.67846 0.873118 5.73838e-20)
(0.384494 -0.210008 7.87881e-19)
(-1.55423 1.10563 9.95067e-19)
(1.84688 -0.791356 0)
(2.06248 0.0307317 -1.50206e-21)
(-2.50297 1.12967 3.47456e-19)
(-0.165769 0.11519 -1.33691e-18)
(-2.11756 -0.268001 0)
(1.00665 -0.46842 0)
(1.83458 -0.0120723 -3.01268e-20)
(0.0440232 0.620117 3.93894e-19)
(1.84311 0.0849841 -2.6957e-20)
(-0.186679 0.142489 -6.02338e-19)
(1.11367 -0.398437 0)
(1.1015 -0.433237 2.51596e-21)
(-0.449047 0.286729 -9.17141e-20)
(0.886075 1.24977 -2.29924e-18)
(3.16147 -0.284311 0)
(2.23904 -0.664004 0)
(1.93143 -0.107732 0)
(-2.12238 2.15695 -7.06184e-19)
(2.68889 -0.195477 2.18905e-19)
(0.381171 -0.195556 -8.26344e-19)
(2.67358 -0.180127 -2.43236e-19)
(2.21251 -0.443426 -1.23894e-19)
(-0.893111 0.280228 0)
(1.94111 0.0411507 0)
(2.92049 0.0740198 1.12952e-19)
(2.46206 -0.166324 8.43989e-20)
(1.65233 -0.0134879 -2.50824e-19)
(-0.30407 2.30518 0)
(-1.07106 -0.777986 5.66653e-19)
(1.01693 -0.00738051 -2.45203e-19)
(2.4386 0.576718 3.36933e-21)
(1.92469 -0.58991 3.40792e-19)
(0.838788 -0.1872 -8.06595e-20)
(2.57659 0.145282 0)
(2.40686 -0.187697 -9.30909e-20)
(2.03136 0.0398536 0)
(2.07075 0.0373273 -1.49272e-19)
(2.83627 0.181413 -9.48156e-20)
(2.7369 0.0851815 1.17837e-19)
(1.54998 -0.396161 5.32838e-19)
(1.86232 0.482662 2.4416e-19)
(-2.46606 1.19557 -5.67482e-19)
(1.7522 -0.712463 -2.06875e-19)
(2.48954 1.89065 -1.11458e-19)
(2.06826 0.00394906 0)
(1.77351 -0.425349 0)
(-2.19273 0.544179 0)
(2.26776 -0.231145 3.42021e-20)
(-0.565542 -0.194712 4.9272e-20)
(0.821131 -0.408963 4.36402e-19)
(1.89632 -0.0285653 -8.84866e-20)
(2.4508 -0.313759 -1.5901e-20)
(0.130556 0.0954527 6.73812e-19)
(1.90817 2.31228 -3.02216e-20)
(2.42045 0.0998844 -2.48976e-21)
(2.23532 -0.136772 5.01213e-19)
(0.828853 -0.34304 0)
(2.65998 -0.256565 -8.66114e-20)
(-1.05835 -0.760548 -1.1736e-18)
(3.23338 0.121071 -6.15285e-19)
(0.547078 -0.527175 -2.09443e-20)
(1.76498 -0.226445 1.66989e-20)
(1.30517 -0.401251 3.76063e-19)
(2.17282 0.905145 0)
(1.98958 0.0928852 -9.71967e-20)
(1.00951 -0.401854 -8.11162e-19)
(1.36065 0.242257 6.23306e-20)
(1.2479 -0.60661 0)
(2.30072 -0.127184 -1.46405e-19)
(1.00389 -0.481034 2.51e-19)
(2.28913 -0.662118 -4.94468e-20)
(1.67634 -0.702302 -2.99207e-19)
(2.29812 0.0880937 -6.77951e-20)
(2.337 -0.29011 4.92578e-21)
(0.941421 -0.466624 4.76323e-19)
(2.12464 -0.0654612 2.1059e-19)
(1.80047 -0.379709 0)
(1.75074 -0.794828 -3.12137e-19)
(1.63349 -0.698706 -9.15187e-19)
(2.55603 -0.255559 2.56617e-20)
(1.97158 0.043293 4.04467e-20)
(1.58111 1.07584 0)
(1.63203 -0.239206 0)
(2.08128 -0.0349932 -1.72237e-19)
(0.361535 0.279967 2.65215e-19)
(2.66101 1.41174 0)
(2.27153 -0.0809124 1.47985e-19)
(1.56509 -0.681202 -5.58835e-21)
(0.86778 0.384199 -6.1055e-19)
(0.823869 -0.348656 -4.35946e-19)
(-2.0708 2.1015 6.78021e-19)
(1.81641 -0.05222 5.03191e-20)
(-2.26594 2.00604 2.67309e-18)
(3.49146 -0.36397 -6.34656e-19)
(2.13377 -0.00107094 0)
(1.36887 -0.0750132 -1.02753e-19)
(1.40224 -0.801874 0)
(1.95723 0.107971 -4.69824e-19)
(1.97479 -0.42507 0)
(2.04817 -0.0140049 -1.42126e-19)
(1.46104 -0.200823 3.77254e-20)
(2.69068 -0.163783 -5.6863e-20)
(1.0799 -0.410211 4.58018e-19)
(1.9635 0.067625 -3.76104e-19)
(2.03429 0.238062 -4.41024e-19)
(1.97485 -0.831853 0)
(-0.794137 2.53765 0)
(1.15628 -0.449982 -4.49377e-19)
(2.67588 -0.197667 0)
(3.45984 0.849897 -7.92811e-19)
(1.60575 -0.307871 0)
(1.0069 -0.80833 -1.1165e-20)
(-2.287 1.01602 7.82855e-19)
(1.70252 -0.557343 6.43187e-19)
(0.172625 -0.01421 -3.20197e-20)
(2.3139 -0.467312 0)
(1.44433 -0.225278 -3.75944e-20)
(1.74969 0.00553145 -2.2836e-19)
(-1.83755 0.758821 -8.38192e-20)
(1.93994 0.0426413 -2.0942e-19)
(2.77816 0.0402112 -7.93242e-20)
(2.63255 -0.100373 -3.36809e-20)
(3.0438 1.12471 2.77862e-19)
(2.46899 0.490327 -2.59015e-20)
(-1.22253 2.42265 -3.88391e-19)
(1.63694 -0.480967 0)
(-0.510767 0.364015 1.63326e-19)
(1.97945 0.11759 -1.6973e-19)
(2.46305 -0.25524 0)
(1.98538 0.0451558 1.41813e-19)
(1.1155 -0.538388 -3.12715e-19)
(1.60033 1.31986 1.78362e-19)
(3.45915 0.366513 0)
(1.34619 -0.63905 1.16404e-19)
(-0.776728 -0.0863033 0)
(2.20669 0.043292 4.53037e-20)
(2.58606 -0.35272 -2.08851e-19)
(0.22496 0.641067 1.12793e-18)
(0.983391 -0.0333181 0)
(1.53124 0.315641 2.31904e-19)
(1.98803 0.0656522 1.51359e-19)
(-0.24492 -0.0218235 0)
(1.6448 0.0273755 0)
(2.01555 -0.152465 0)
(-1.05461 0.533489 1.20832e-18)
(0.186861 0.0500948 -3.87715e-20)
(2.89195 -0.0270901 0)
(2.00951 0.00809105 0)
(1.5397 -1.35472 1.53708e-19)
(0.20116 0.106829 0)
(2.35367 0.476484 2.54998e-20)
(2.80605 1.3162 1.44831e-19)
(2.01077 0.660369 -1.17115e-20)
(1.80706 0.447171 -4.89122e-21)
(0.870763 0.477273 7.0213e-19)
(2.81571 1.49785 -1.57057e-19)
(2.33601 -0.227712 6.20876e-21)
(2.10184 -0.0507265 1.48456e-19)
(1.58759 -0.133458 -2.47055e-19)
(1.37396 -0.226949 1.84154e-21)
(2.02059 0.0396806 0)
(-2.29592 1.98714 -2.57281e-18)
(0.971934 -0.281027 0)
(0.0608275 -0.807201 1.80623e-20)
(2.09317 -1.27523 0)
(2.17251 -0.192265 0)
(1.25375 -0.597989 -2.39987e-19)
(2.16183 0.0264744 -1.96699e-21)
(-0.263554 0.196026 -1.1971e-18)
(2.07212 0.0121304 4.99304e-21)
(1.75974 -0.687477 3.34328e-19)
(2.96575 1.23227 1.73014e-19)
(0.43403 -0.539998 1.09292e-18)
(2.62966 0.105667 6.69418e-21)
(2.04674 -0.799579 1.00446e-19)
(1.95916 0.0579357 -2.72681e-19)
(1.22044 0.369951 0)
(1.77006 -0.0911503 -4.64221e-19)
(1.75459 -0.46216 3.56968e-19)
(2.00215 0.142279 -6.10242e-19)
(-1.75033 0.665728 -4.15931e-19)
(1.52788 1.32721 -1.54577e-19)
(2.74818 1.38659 2.19246e-19)
(3.5112 -0.0638605 0)
(2.2863 -0.372954 0)
(0.0509335 0.171583 -4.51643e-19)
(2.0917 -0.066879 9.31175e-20)
(-2.0854 0.47503 0)
(2.25974 -0.137682 -1.26494e-19)
(2.00647 0.0261929 -3.12761e-19)
(-1.71842 0.467375 -2.6193e-19)
(-1.99374 0.178864 1.35461e-18)
(2.58105 -0.126198 -3.54238e-21)
(0.160577 1.74468 -4.87567e-20)
(2.31822 -0.299045 -2.34073e-19)
(1.90316 -0.444173 2.42569e-19)
(3.36752 1.21042 6.61364e-19)
(1.48582 -0.606391 3.40599e-19)
(1.50292 0.336627 3.01184e-21)
(0.955526 0.315509 5.11528e-19)
(2.00201 2.01358 0)
(1.63832 -0.453248 2.12877e-19)
(-2.53521 0.770422 0)
(0.653419 -0.1429 -2.12473e-18)
(1.6358 1.18615 0)
(-2.31637 1.11037 -2.12002e-18)
(1.57739 -0.675202 -4.67813e-19)
(0.972045 0.601768 -2.12862e-19)
(2.04429 -0.816124 0)
(-0.700902 -0.999442 0)
(3.30786 -0.00382996 0)
(1.98524 0.100408 1.21886e-19)
(0.153379 -0.286515 -7.68343e-19)
(-0.141906 0.362248 8.88595e-19)
(1.54495 -0.287653 -8.13183e-21)
(3.30788 1.24235 -7.58442e-19)
(2.02873 0.338233 0)
(1.15862 2.02361 2.79521e-19)
(2.42293 1.39672 7.32934e-20)
(-0.963683 -0.405902 -2.36198e-19)
(1.50464 -0.698126 2.52463e-19)
(2.50629 -0.192735 4.77713e-21)
(1.12549 -0.547598 5.08668e-19)
(2.30548 0.460628 0)
(2.57202 -0.332024 1.9526e-19)
(0.550293 -0.31708 1.20608e-19)
(1.97884 -0.0112799 2.42506e-20)
(3.48951 0.999885 -4.1983e-19)
(2.26386 -1.29625 0)
(2.51795 0.866818 0)
(1.60664 0.296006 0)
(0.980792 -0.369031 0)
(1.85043 0.00870702 0)
(1.37943 -0.510702 1.49203e-19)
(3.71313 1.1868 6.32317e-19)
(1.40886 -0.578736 4.08851e-19)
(2.08372 0.0553015 2.49369e-19)
(-2.62597 0.903147 0)
(2.01494 -0.825424 3.09405e-21)
(-0.311899 0.379662 0)
(-2.46663 0.720881 -1.33565e-18)
(-0.296535 0.238317 4.92537e-19)
(3.61087 0.815859 -3.65817e-19)
(1.99477 0.127244 3.05924e-19)
(2.04224 0.293032 -1.00114e-19)
(3.4321 0.558634 -3.62715e-19)
(2.57792 0.00158486 0)
(0.533682 -0.331139 9.35817e-19)
(1.98998 0.00733441 0)
(1.49705 0.934767 1.65218e-20)
(2.45138 -0.160266 0)
(2.10353 0.273476 -1.30529e-19)
(2.06808 -0.0671881 0)
(0.864279 -0.320081 -3.08012e-19)
(-0.358805 0.54037 1.47623e-18)
(2.43762 -0.240953 -1.77151e-19)
(1.32968 0.419996 4.65318e-19)
(-1.5102 0.839554 -2.49794e-18)
(2.55099 -1.14774 0)
(0.985051 -0.193541 -1.18033e-18)
(1.26329 -0.117596 -2.58462e-20)
(3.48405 0.451998 -1.01218e-18)
(1.78839 0.019577 1.55093e-21)
(3.64509 0.461565 1.85721e-18)
(2.58153 0.94987 0)
(1.71403 -0.76726 -6.95036e-20)
(1.45522 -0.655457 0)
(2.48697 -0.229869 1.33944e-20)
(0.412692 -0.108671 7.60679e-20)
(-2.46575 1.49817 0)
(2.38324 0.472169 0)
(1.43547 -2.3967 -1.00052e-18)
(2.46851 0.82894 0)
(1.68076 1.8376 1.57798e-19)
(2.8646 1.07728 -2.74986e-19)
(0.57267 -0.137022 -6.95951e-19)
(-1.87818 0.251861 -5.02024e-19)
(1.99149 0.0290637 -6.5141e-21)
(-0.493797 -0.0515258 -2.65988e-20)
(0.21656 -0.0573756 -9.31263e-19)
(1.8904 -0.022238 5.00301e-19)
(-1.79266 0.493145 2.98856e-19)
(-2.08 0.966377 0)
(2.47908 0.184532 -6.71246e-20)
(0.491411 -2.19422 1.24503e-18)
(0.34856 0.251684 8.25873e-20)
(3.51376 0.604725 8.36645e-19)
(2.72905 1.72425 0)
(1.74773 -0.495026 -3.58957e-19)
(1.82942 -0.333253 -8.74183e-22)
(1.7845 0.805499 -7.75673e-20)
(2.86636 -0.0400181 -4.43263e-19)
(-1.90179 -0.165885 3.80186e-19)
(-2.07093 2.08627 1.66424e-18)
(1.42678 -0.567319 -9.88381e-20)
(-2.11409 0.224226 5.45977e-20)
(2.90339 -0.176112 -4.41316e-19)
(-2.00177 -0.19521 -4.26794e-19)
(2.32368 -1.07114 0)
(1.86778 -0.148817 -4.46151e-19)
(-1.16503 -0.604767 0)
(-0.76284 -0.24978 -2.62299e-19)
(-0.667697 -0.371923 2.4522e-19)
(-0.647377 -0.314571 7.35297e-19)
(1.2194 0.0285252 1.90894e-20)
(-1.84622 1.15156 1.32275e-19)
(-0.897539 -0.115966 0)
(2.1587 -0.761399 2.40209e-19)
(2.15005 -0.81268 3.43483e-20)
(-1.09448 -0.32288 -6.54106e-19)
(1.76275 0.554526 0)
(1.64481 0.529629 0)
(0.166545 0.37164 0)
(1.25392 -1.74703 -1.08185e-19)
(1.90438 -0.0414274 -4.44178e-19)
(1.27756 0.182663 0)
(2.84017 -2.07574 0)
(2.27022 0.207623 -1.76165e-20)
(2.19684 0.0705041 -1.00003e-19)
(2.07464 0.302162 -3.94323e-19)
(1.85671 -0.239607 -2.03556e-19)
(1.6711 0.047753 6.05432e-20)
(1.96831 -0.0349759 -6.2017e-20)
(1.30489 -0.183251 9.39479e-20)
(1.93849 0.559083 -2.96231e-20)
(1.84124 1.27105 0)
(0.139281 -0.0108568 -9.81337e-21)
(-0.0471749 -0.409203 0)
(0.974439 0.186321 0)
(2.96853 0.370498 -4.65147e-19)
(-2.68976 1.34749 0)
(2.47217 0.475809 0)
(1.86891 -0.106584 6.87891e-19)
(1.83532 -0.796967 0)
(2.04441 0.236717 4.51907e-19)
(3.41174 0.767672 4.18027e-19)
(3.19878 0.839142 1.45675e-19)
(1.39807 0.342584 -5.49744e-21)
(1.05979 1.40003 2.76264e-19)
(2.17909 -0.803165 2.04079e-21)
(1.99678 -0.761393 1.25558e-21)
(1.13436 -0.430366 4.40334e-19)
(-0.950174 0.170282 0)
(0.920307 -0.451956 0)
(-2.63475 1.62822 -1.83839e-18)
(-0.445669 0.692203 -1.99139e-18)
(-0.517963 -1.04373 0)
(-1.23182 0.225668 4.04512e-19)
(0.306187 -0.170565 0)
(0.212692 -0.512691 9.86255e-19)
(1.08192 -0.495525 -5.67995e-19)
(3.46511 0.634174 -1.9091e-20)
(3.15011 0.988197 3.22693e-19)
(1.19388 -0.396493 8.88716e-20)
(2.83756 -0.0921641 2.07053e-19)
(2.32174 1.02826 0)
(2.40827 0.987526 0)
(1.01471 0.0538972 0)
(-0.548491 -0.0244348 -4.65108e-19)
(1.37625 -0.513145 0)
(2.28516 0.743056 0)
(1.67539 0.0492225 0)
(2.29925 -0.285656 -5.14629e-20)
(0.922304 -0.0828782 3.10212e-19)
(1.98514 -0.744103 -1.59782e-19)
(1.02493 -1.76934 3.36927e-19)
(1.63221 -0.299238 0)
(-2.1643 1.6482 0)
(1.92299 -0.555975 -3.10755e-19)
(1.54126 0.591498 7.06291e-19)
(-1.9927 1.41803 -8.9649e-19)
(2.76377 -0.0572889 1.06733e-20)
(1.67477 -0.438032 3.87892e-19)
(0.947801 0.5029 -1.11109e-18)
(-0.373368 0.707368 0)
(1.15897 1.37672 -6.41605e-19)
(0.344117 0.413393 -6.84137e-19)
(3.23592 0.684639 0)
(2.20451 -0.0551668 0)
(2.00341 -0.0623871 0)
(2.02706 0.0567537 -4.52529e-19)
(1.38456 0.308677 -4.75797e-19)
(1.61655 0.162265 0)
(2.43514 1.3683 1.24715e-18)
(1.74833 -0.779433 3.27327e-19)
(2.36964 -0.301287 6.2496e-20)
(-2.59405 1.30649 8.00179e-19)
(2.07813 -0.253633 0)
(2.49927 0.109127 3.7308e-20)
(1.72202 -0.405927 0)
(0.0626135 -2.03334 -1.23766e-18)
(1.6896 -0.765826 0)
(2.09593 -0.726272 3.27696e-19)
(1.8025 -0.177538 -1.60352e-22)
(2.15734 0.571513 1.71515e-20)
(2.3908 -0.311202 0)
(1.77067 -0.754965 0)
(1.5561 -0.664713 -4.9298e-19)
(2.33075 0.434253 -2.81723e-20)
(-2.30309 0.277099 6.79646e-19)
(0.829369 -0.395076 4.48392e-19)
(1.88442 -0.0557013 0)
(1.5437 0.247396 -7.19846e-19)
(2.41412 0.0251262 -6.12104e-20)
(1.38169 -1.90439 -1.609e-19)
(2.12719 0.802998 4.00945e-20)
(2.35113 0.797536 0)
(1.16512 -0.330371 6.28126e-19)
(0.927973 0.236605 -7.01016e-19)
(3.4923 0.960425 9.50108e-21)
(1.79336 0.233367 -8.27297e-19)
(-2.54386 1.23849 6.89861e-19)
(-0.118923 0.318609 -1.80243e-18)
(1.85347 -0.0824572 1.41738e-19)
(2.08178 -0.0341394 -3.97007e-20)
(0.487241 0.323481 9.78431e-19)
(-0.254015 0.191735 -4.97057e-22)
(-2.61944 1.23199 1.29119e-18)
(-2.41361 0.364698 1.41382e-18)
(1.80756 -0.0807249 7.48481e-20)
(2.35615 -0.200284 0)
(0.749545 0.206575 7.86869e-19)
(1.1284 -0.549013 2.27789e-19)
(1.64732 -0.232853 2.40566e-19)
(-0.257846 0.302098 0)
(1.57779 -0.361411 -6.36942e-20)
(1.8718 0.0916865 -2.67642e-22)
(2.06857 0.0390672 0)
(0.34495 -0.126614 6.33921e-19)
(-1.22638 -1.26141 4.94791e-19)
(1.64918 -0.289468 0)
(1.01073 -0.372256 0)
(1.55126 -1.53587 -1.48728e-19)
(1.52028 -2.2538 -9.88872e-20)
(2.91386 0.348485 1.6653e-19)
(-0.366338 0.112827 0)
(1.90881 -0.0112537 -3.82267e-19)
(2.86241 -1.08183 -2.20216e-19)
(2.16837 -0.693369 1.61625e-20)
(1.18732 -0.451531 5.51599e-19)
(-2.66228 1.28006 -1.13787e-18)
(-2.51991 1.01228 9.2061e-19)
(3.77296 0.939805 -8.22991e-21)
(3.25269 -0.218475 0)
(1.98667 0.933844 -9.64975e-19)
(1.54804 -0.612127 2.48408e-19)
(1.98911 2.06055 1.40873e-19)
(0.786331 0.652436 0)
(1.11641 -0.19762 -5.57676e-19)
(1.18131 -0.491226 -6.68289e-19)
(-2.60206 1.63817 1.31703e-18)
(0.850429 -0.188094 -1.0051e-18)
(2.12648 1.46871 0)
(-0.177928 0.43366 -5.60448e-19)
(2.31227 0.554188 0)
(-0.690996 -0.625326 -7.45079e-19)
(-0.10248 0.646432 1.23096e-18)
(-0.506978 1.57489 0)
(-2.62426 1.36037 5.05955e-19)
(1.6055 -0.0808711 -1.00955e-19)
(0.895686 -0.189099 3.86277e-19)
(1.64182 -0.649376 4.41842e-19)
(-2.54125 1.69199 -2.94477e-18)
(1.14907 -0.517671 0)
(2.00925 0.0487761 1.47051e-19)
(0.602224 0.0498809 0)
(2.2509 0.234901 -4.58917e-21)
(-0.737545 0.167857 -1.05574e-18)
(0.523389 -0.198039 2.96418e-19)
(2.45488 0.641052 0)
(1.85127 -0.73316 -3.09779e-19)
(3.20148 0.173631 1.67566e-19)
(-2.54471 1.29603 2.20533e-18)
(-0.472015 -1.58046 0)
(-2.47325 1.12034 -1.96827e-18)
(3.17568 0.905728 -9.62119e-19)
(1.59336 0.244214 9.22739e-19)
(2.33173 -0.839121 0)
(2.61461 -0.230987 4.51374e-19)
(-0.752897 0.10951 9.4394e-19)
(0.815675 -0.11246 -1.39249e-19)
(2.16301 -0.51776 1.05476e-19)
(-2.46925 1.0679 0)
(1.98479 -0.586049 -6.30284e-20)
(1.77179 0.35414 -5.65256e-22)
(2.43089 -0.320115 1.05256e-19)
(2.3553 0.0261198 0)
(-2.21665 1.86004 1.03868e-18)
(1.61407 -0.431508 4.29357e-22)
(1.2498 -0.359159 6.85208e-20)
(1.38858 0.581714 0)
(2.01535 -0.762506 -1.18448e-19)
(-2.53115 1.63936 2.24374e-18)
(1.68752 -0.398333 -4.85949e-19)
(-0.251121 0.156917 0)
(1.37903 -0.299894 -6.95856e-20)
(2.04132 -0.736254 1.00314e-19)
(-2.61015 1.2598 -1.33533e-18)
(1.50781 -0.3086 0)
(0.560688 -0.177929 1.3887e-18)
(1.80989 -1.72447 0)
(-1.87051 2.20292 1.38359e-18)
(1.92855 -2.43354 0)
(1.85638 -0.096396 -2.55068e-19)
(2.19463 -0.211436 -2.40617e-19)
(2.65977 1.34807 -6.24555e-19)
(1.42284 -1.13387 0)
(1.97088 -0.829615 -1.78976e-19)
(1.99831 0.0224659 0)
(2.36999 0.481472 0)
(2.08617 -0.83451 2.54824e-20)
(-2.06313 1.94858 9.95233e-19)
(0.526816 -0.0330856 1.86671e-19)
(2.08814 -0.506978 -6.69182e-20)
(1.6862 0.345464 3.04678e-19)
(-0.554114 -0.0989858 -1.19299e-19)
(2.0466 0.31156 1.8264e-19)
(-0.178065 0.565052 -1.45608e-19)
(1.92745 1.03032 0)
(2.50509 0.299342 0)
(-0.727322 0.98053 0)
(-1.59694 -0.625317 1.55401e-18)
(1.15962 -0.395172 -3.89281e-19)
(1.47048 0.133195 0)
(-2.15591 0.813673 1.58612e-18)
(2.31908 -0.140854 -1.66541e-19)
(-2.42685 0.975498 -7.01453e-19)
(1.36444 -0.484747 -1.2427e-19)
(2.15657 -0.829625 0)
(0.533796 -0.146166 1.19402e-18)
(0.414505 -0.218112 -1.42994e-18)
(-0.158719 1.00031 0)
(-0.379856 0.359995 -7.48895e-19)
(1.69411 0.0321505 -1.53305e-20)
(2.74759 -0.133916 9.48091e-20)
(1.92669 0.0439163 2.68241e-19)
(2.72039 1.18003 -2.80742e-19)
(2.4487 0.246499 3.1068e-21)
(-1.44418 -0.754445 0)
(1.90933 -0.737711 0)
(-2.01794 0.875037 1.4804e-18)
(0.291793 -0.32646 0)
(1.5859 -0.326385 -6.46265e-20)
(2.14187 -0.73259 -1.5481e-19)
(0.951749 -0.44239 4.68733e-19)
(2.34663 -0.230903 -1.65123e-19)
(1.72158 0.37443 -3.04345e-19)
(1.50946 -0.597826 -2.46049e-19)
(1.59432 -0.63246 -4.49337e-19)
(1.49019 -2.15367 0)
(1.69217 -0.65975 4.1638e-19)
(2.0924 -0.0892116 0)
(2.41557 -0.319567 -3.81982e-21)
(1.96215 1.34431 2.48618e-20)
(0.897187 -0.277299 8.31366e-20)
(2.21554 -0.331502 -1.89082e-19)
(0.483857 -0.464521 -8.14726e-19)
(0.153143 0.0305277 0)
(0.998486 -2.50402 -5.21806e-19)
(-0.364411 1.78438 -1.83239e-18)
(2.0762 0.54571 -1.99668e-19)
(1.79703 -0.718995 3.69126e-19)
(2.11613 0.0181732 -5.59799e-21)
(0.90307 -0.134386 3.51294e-19)
(1.83505 -0.750484 -1.12218e-20)
(0.302612 0.146821 0)
(-2.40216 0.932935 2.04579e-18)
(1.73793 -0.366375 2.5802e-19)
(2.07805 0.0419554 -1.04242e-22)
(1.1486 -0.4936 9.81119e-19)
(-0.867887 -0.396492 2.75675e-20)
(1.67666 0.631158 0)
(-1.57752 -0.430137 -5.87422e-19)
(-2.29738 1.66483 -1.46809e-19)
(1.07334 -0.319353 -7.47821e-19)
(-1.36945 -0.595343 6.2779e-19)
(2.32452 1.02778 -2.66674e-19)
(2.10913 0.534497 4.30278e-21)
(0.921354 -0.366956 3.3873e-19)
(1.76567 -0.35939 0)
(2.58738 0.188539 -1.36002e-19)
(2.51977 -0.0536645 -6.63401e-21)
(2.98594 0.992722 -3.18285e-19)
(-1.21136 -0.861131 0)
(3.54403 1.21133 1.84278e-20)
(-0.279339 -0.424152 7.14419e-19)
(1.59099 -0.68963 9.46057e-19)
(0.0141358 -0.341576 1.34536e-20)
(-0.720248 0.163065 -4.16843e-19)
(0.535895 -0.15314 2.31025e-18)
(1.96746 -0.722811 3.395e-19)
(2.22349 0.0385624 -3.39367e-21)
(-0.184815 -0.201798 -5.37887e-21)
(2.87673 0.0415335 4.87578e-20)
(0.35204 0.604281 0)
(2.0158 0.0367066 0)
(2.37729 0.513129 0)
(1.74005 -0.672511 -3.5662e-19)
(2.53181 -2.49572 8.94315e-19)
(-1.20394 -0.286815 0)
(1.21597 -0.358303 -1.61111e-19)
(-0.788696 2.24959 0)
(3.71661 0.485714 0)
(-1.42141 -0.534078 0)
(1.95143 0.00920511 0)
(0.50021 -0.153905 -4.29765e-19)
(0.0696739 0.309117 0)
(3.47079 0.380087 1.44634e-18)
(1.2984 0.019673 0)
(1.68188 0.292828 0)
(1.93366 0.230917 2.92434e-21)
(-0.274202 0.545262 0)
(3.67599 -0.927577 0)
(-0.911323 -0.0881749 0)
(2.61879 -0.0143578 1.25123e-20)
(1.68725 -0.168093 0)
(2.18575 -0.811022 -2.25259e-21)
(1.34827 -0.304737 1.62014e-21)
(0.312761 -0.177953 -4.0348e-19)
(1.97516 0.0572667 6.67169e-19)
(-0.205239 0.0224123 -1.42621e-19)
(1.04341 0.946963 -5.9702e-19)
(1.43983 0.757464 0)
(2.34242 -0.294681 4.36008e-21)
(1.63765 -0.168919 -2.34891e-19)
(1.53244 1.71905 1.59412e-19)
(1.81861 0.421825 4.41456e-19)
(0.745108 -0.257761 -7.16884e-19)
(1.49002 -0.650501 -3.78525e-19)
(2.76779 0.647452 2.04167e-19)
(0.358732 -1.91916 0)
(2.41812 -0.302776 -5.48074e-20)
(0.788561 -1.80781 6.14389e-19)
(2.70738 0.369459 -7.0274e-20)
(-2.27828 1.64079 0)
(1.86428 0.038982 -2.99713e-19)
(2.65326 1.02276 -1.00388e-18)
(1.33441 -0.526563 5.01933e-19)
(1.20622 -0.539395 -6.09345e-19)
(1.63108 -0.753324 0)
(1.73678 -0.763981 0)
(3.4136 0.0808466 1.72683e-18)
(2.26164 -0.319418 -1.10704e-19)
(3.42656 0.544726 -5.37791e-19)
(1.75137 -0.0189672 4.39504e-20)
(1.19171 -0.322032 -1.5006e-19)
(1.66009 -0.491054 4.07471e-19)
(2.50713 0.329139 0)
(2.40859 0.354162 3.63779e-21)
(0.472818 -0.256781 -1.77724e-18)
(2.59115 -1.21973 2.86659e-18)
(1.3166 -0.162401 -1.37173e-19)
(-0.832957 0.13845 6.3214e-19)
(3.25735 0.536829 4.49107e-19)
(2.53168 0.850392 4.30061e-20)
(2.37324 0.62881 0)
(-2.14582 0.0434565 0)
(2.22774 -0.80615 1.57381e-21)
(1.12983 -0.226872 0)
(1.82819 -0.384308 1.67978e-19)
(1.63038 0.304399 5.25878e-19)
(1.61513 0.506492 -1.57087e-19)
(1.56499 -0.635756 9.74643e-19)
(1.71425 0.432246 5.66048e-22)
(1.37238 -0.00486783 0)
(1.85316 -0.0807566 -9.21001e-21)
(-0.959653 -0.0788115 -8.78443e-19)
(2.18309 0.290403 0)
(2.45685 -0.337096 0)
(1.88278 -0.751314 1.2881e-19)
(1.93618 0.563469 2.48814e-19)
(1.04808 -0.135213 0)
(3.88381 -0.714432 1.22602e-19)
(2.84593 0.00880278 1.91982e-19)
(2.34919 0.369615 4.28472e-20)
(1.7232 0.483212 4.64692e-19)
(-1.93045 0.104622 -7.54498e-19)
(1.29046 -0.879495 0)
(0.191743 -0.574044 -1.94814e-18)
(0.493125 -0.210888 1.07235e-18)
(1.95184 0.0246748 1.66447e-20)
(-0.0752641 -0.50617 -8.41416e-19)
(1.76977 -0.732556 2.63856e-20)
(2.65327 0.426042 1.8191e-19)
(1.45459 0.768124 0)
(1.97757 0.161258 2.77402e-21)
(1.81345 0.0198566 9.26078e-20)
(2.07185 -0.0323051 -1.45173e-19)
(2.18955 0.51769 -1.64905e-19)
(2.20252 -0.761235 0)
(-1.77356 0.270555 0)
(2.58733 0.0208597 0)
(2.31996 0.443396 -9.03884e-20)
(1.02331 -0.472771 7.33628e-19)
(2.34849 1.80601 -6.88988e-20)
(1.49933 -0.0677685 0)
(-1.10093 1.215 -3.74713e-19)
(-1.85083 -0.528606 8.13648e-19)
(-1.50052 2.42251 0)
(1.9137 0.292306 -1.41909e-19)
(1.63917 0.281025 -1.74673e-19)
(3.27433 -0.0724697 -1.14331e-19)
(2.03477 0.708056 3.34385e-20)
(0.644401 -0.21873 0)
(2.16204 0.184636 -1.94754e-19)
(2.0106 -0.402691 0)
(2.05772 -0.238353 1.05401e-20)
(0.954112 0.0994021 0)
(2.24677 0.897188 1.29735e-19)
(1.66255 -0.669354 -4.26069e-19)
(2.42757 0.894291 0)
(1.81944 -0.0539656 -4.4846e-19)
(2.20406 0.798563 -8.38883e-20)
(1.92851 -0.682419 0)
(1.11892 -0.526196 0)
(0.490558 0.218447 -9.16732e-20)
(2.44255 -0.224672 -1.20551e-20)
(0.202394 -2.28108 -6.4121e-19)
(-0.351007 0.0413619 2.83405e-20)
(2.82173 -0.104246 -2.00223e-21)
(1.11623 0.405806 7.26028e-19)
(1.73083 0.422167 -1.98293e-21)
(2.05075 0.569234 0)
(3.33826 1.00724 4.44298e-19)
(1.68002 -0.764547 0)
(1.47888 -0.67573 -4.11753e-19)
(1.77805 -0.766067 -4.67187e-19)