/*--------------------------------*- C++ -*----------------------------------*\
| =========                 |                                                 |
| \\      /  F ield         | OpenFOAM: The Open Source CFD Toolbox           |
|  \\    /   O peration     | Version:  2306                                  |
|   \\  /    A nd           | Website:  www.openfoam.com                      |
|    \\/     M anipulation  |                                                 |
\*---------------------------------------------------------------------------*/
FoamFile
{
    version     2.0;
    format      ascii;
    arch        "LSB;label=32;scalar=64";
    class       volVectorField;
    location    "5.1";
    object      U;
}
// * * * * * * * * * * * * * * * * * * * * * * * * * * * * * * * * * * * * * //

dimensions      [0 1 -1 0 0 0 0];

internalField   nonuniform List<vector> 
5098
(
(2.58779 1.05212 0)
(2.14122 0.09695 -3.57468e-20)
(2.53326 0.0898546 -2.5135e-21)
(1.51547 -0.678076 8.28018e-19)
(2.08707 -0.725365 0)
(0.877174 -0.422775 0)
(2.39941 0.0207504 -4.20584e-21)
(2.46428 -0.265686 1.55597e-21)
(2.64676 0.0675699 -5.40812e-20)
(2.04028 -0.233668 1.39443e-19)
(0.148475 -0.990449 0)
(2.23176 -0.0314484 1.91116e-19)
(2.49758 -0.438872 -1.24338e-20)
(0.91772 -0.446462 0)
(2.06449 -0.285494 8.85858e-20)
(1.96203 0.0385835 3.31699e-22)
(0.170883 -0.409315 -3.93803e-20)
(-0.62364 -0.787682 0)
(-0.335797 0.368637 4.79696e-19)
(0.0849517 -0.310267 4.46399e-20)
(1.83272 0.571295 -7.96772e-20)
(1.9012 0.0410393 1.14314e-21)
(2.08385 -0.808083 0)
(0.727945 0.0833671 3.08477e-20)
(-1.90585 0.825276 0)
(1.46488 -0.580712 0)
(1.97338 0.0343637 1.3431e-19)
(1.83591 -0.7761 2.24532e-19)
(-0.176186 0.583318 -1.44664e-18)
(1.67104 -0.734706 0)
(2.40596 -0.209665 -1.24598e-19)
(0.702946 -0.34092 0)
(2.09404 0.0472636 -1.4704e-19)
(0.760811 -0.794806 0)
(2.54829 0.278753 -4.7679e-20)
(3.36999 0.225598 1.52691e-18)
(1.86132 -0.454283 1.61284e-19)
(1.95446 0.018989 -2.46103e-21)
(1.32561 -0.429938 5.97339e-19)
(1.37047 -0.637424 0)
(1.52235 -0.692484 -3.90812e-19)
(1.43805 -1.74092 -1.91319e-18)
(1.4795 -0.586179 0)
(2.57511 -0.177882 6.15246e-20)
(2.44699 0.712463 3.66486e-20)
(2.05399 0.0692428 7.15938e-21)
(-0.0330873 -0.42255 2.79516e-20)
(1.05962 -0.353749 0)
(2.39466 -0.224674 0)
(1.52072 -0.64273 8.81872e-20)
(2.24842 0.131374 5.22412e-20)
(1.63807 0.450396 -4.89619e-19)
(-1.43708 0.973897 -3.54375e-21)
(2.0914 -0.0566632 1.89937e-19)
(0.94066 -0.469583 -3.65936e-19)
(1.55526 0.126519 0)
(1.82918 0.286904 -2.62621e-19)
(1.62047 -0.664988 0)
(0.832452 -0.40967 0)
(1.89315 0.0108753 -2.35971e-20)
(1.37023 -0.333898 5.22131e-20)
(-0.404691 0.0468074 -1.45551e-19)
(2.55358 0.330561 0)
(2.45303 -0.41391 0)
(-1.6661 1.22666 2.60933e-18)
(0.792548 -0.397626 4.53889e-19)
(2.15646 0.0250007 7.23402e-21)
(2.29988 0.130477 7.17848e-21)
(2.0899 -0.249352 1.97148e-19)
(1.66128 -0.698841 2.60417e-19)
(1.89583 0.23353 1.54209e-20)
(1.39724 -0.432516 -7.33218e-21)
(1.90702 -0.792905 0)
(1.13202 -0.556731 0)
(1.66749 -0.0496683 2.33086e-20)
(1.10908 -0.542596 -4.22542e-19)
(1.63679 0.227264 0)
(1.52732 0.202769 4.56553e-19)
(2.55059 -0.232302 7.13732e-20)
(1.59255 0.185203 0)
(1.7235 -0.0215965 0)
(3.75766 -0.947564 1.03402e-18)
(1.7139 -0.279561 5.61568e-19)
(0.736079 -0.851567 -1.78227e-21)
(-0.691989 -0.841687 2.08751e-19)
(1.51173 -0.667306 2.76572e-19)
(0.0238862 0.333411 -2.75729e-19)
(1.64778 0.212794 1.29209e-21)
(2.61778 -0.24477 5.93119e-20)
(1.32258 -0.392337 7.06194e-20)
(2.27946 -0.276146 -8.85303e-21)
(0.324851 -0.190076 8.78198e-19)
(2.40996 -0.0950338 -2.35265e-19)
(1.53592 -0.662604 -4.41526e-19)
(1.30917 -0.457418 1.05373e-19)
(1.38713 -0.398074 -7.41436e-21)
(1.03387 -0.519325 -3.58842e-19)
(1.51067 0.284792 3.37217e-19)
(1.61142 -0.0344733 1.25815e-20)
(2.01778 -0.47757 -1.36261e-19)
(1.64111 -1.28616 -1.15119e-19)
(0.994502 -0.490018 -4.35424e-19)
(-0.0298914 -0.0994789 3.86082e-20)
(2.31436 0.31279 -1.16941e-20)
(1.52531 0.198236 -5.18959e-19)
(2.38054 1.16647 0)
(1.93838 0.275532 2.78826e-19)
(2.2938 0.0884074 3.11004e-21)
(0.99843 -0.400478 8.08687e-20)
(-0.0136673 -0.842477 0)
(1.03809 -0.499813 -9.56052e-19)
(1.39182 0.64556 7.03579e-19)
(1.86854 0.0169608 -2.78286e-19)
(-0.549218 0.889489 2.01821e-19)
(1.74432 0.656941 1.13564e-19)
(0.323498 -0.426142 0)
(3.75331 -1.24168 1.91976e-18)
(2.70207 1.47372 0)
(1.94576 0.261998 6.98783e-21)
(0.757884 0.0264522 -4.74706e-19)
(1.70903 0.435772 4.02043e-19)
(1.64473 2.123 -3.81956e-20)
(2.0563 -0.267308 -8.85786e-20)
(0.292128 -0.309841 -1.55846e-18)
(-0.0655007 0.476904 -1.1287e-18)
(-0.0358121 -0.0749482 8.36366e-22)
(2.16861 -0.0839312 1.60338e-19)
(2.06985 -0.775044 -2.82656e-19)
(1.35777 -0.135194 -1.24799e-19)
(-0.498381 0.806 -3.76066e-19)
(-1.56156 -0.161171 -1.15813e-18)
(1.08779 -0.480956 -5.97407e-19)
(1.11861 -0.480608 5.00387e-19)
(2.60248 1.52102 -1.32123e-19)
(1.38224 -1.07364 -2.45085e-19)
(2.72626 -0.709248 3.75135e-19)
(2.07884 2.64042 7.2183e-19)
(1.91672 0.282778 1.89698e-19)
(0.851121 -0.416627 0)
(2.09564 -0.0708439 -6.12491e-19)
(1.59646 0.562224 -3.24161e-19)
(1.24575 -0.298661 -9.47678e-21)
(1.73365 -0.788372 4.35101e-19)
(2.49477 0.0428739 -1.33779e-20)
(2.0755 0.0823789 -4.8059e-20)
(2.21903 0.274893 0)
(2.09213 -0.252673 2.02483e-19)
(1.92588 -0.757562 0)
(2.64198 -0.0416361 3.75301e-19)
(1.619 -0.743647 1.68621e-19)
(3.10115 -2.41797 -7.23752e-19)
(2.3904 0.460592 0)
(1.94171 -0.76215 9.01898e-20)
(2.04153 0.00143418 0)
(0.00552901 0.214811 -3.51157e-19)
(0.786337 -0.296375 -1.97428e-19)
(1.62509 -0.6564 -4.65617e-19)
(1.57991 -1.26545 -7.32809e-20)
(1.46786 -0.68589 -3.19613e-19)
(-0.387646 0.363192 1.50265e-18)
(1.94513 -0.433938 -4.4237e-19)
(2.05722 -0.271474 -1.21527e-19)
(0.65099 0.28573 -5.0649e-19)
(1.81388 -0.156601 -3.48002e-19)
(-1.31844 -0.119315 -2.70977e-19)
(2.47268 -0.183268 -1.26445e-19)
(2.04093 -0.801002 -3.10637e-19)
(2.32432 -0.574904 0)
(-1.92872 0.662025 4.90789e-19)
(1.69105 -0.550181 -5.07297e-19)
(1.55999 -0.380496 5.35623e-21)
(1.53247 -0.618976 -3.00213e-19)
(2.22238 0.502887 1.07139e-19)
(1.83693 -0.748974 4.01959e-19)
(2.62283 -0.0270909 0)
(1.98155 0.00386774 0)
(1.71899 -0.265062 -2.18266e-19)
(3.47962 0.271064 -4.71831e-20)
(1.77446 -0.138861 4.78317e-19)
(0.219264 0.147451 0)
(1.80102 2.3033 0)
(3.93402 -1.47107 -1.23011e-18)
(1.75496 -0.546862 6.25939e-19)
(-1.34551 -0.136542 0)
(1.83392 -0.163944 0)
(2.74268 0.751979 5.04473e-19)
(1.55116 0.308368 0)
(1.88904 -0.437472 5.56195e-19)
(0.976206 -0.476899 8.21518e-19)
(-1.2818 2.05703 -5.46e-19)
(1.50283 0.772655 0)
(1.53571 -0.241054 1.19374e-19)
(1.93025 -0.809892 0)
(1.66749 -0.0730969 2.92059e-20)
(2.43742 -0.214376 1.38757e-20)
(0.235899 -0.0579339 -9.31325e-19)
(4.17763 -0.415944 6.54475e-19)
(2.87049 -0.780824 0)
(1.99687 0.0210593 -7.06297e-21)
(1.71673 -0.533549 -9.24254e-20)
(-2.12486 0.548578 -2.11171e-18)
(1.70395 0.364842 6.12328e-21)
(2.41783 0.707235 3.05648e-21)
(2.24087 0.00308393 4.94673e-21)
(1.52118 -0.0127951 2.19479e-19)
(0.759447 -0.305302 -1.41264e-19)
(2.58647 0.0296065 -1.82483e-20)
(1.15257 -0.528347 0)
(2.31067 -0.0932612 0)
(1.25013 -0.608021 -4.58583e-19)
(1.93182 -0.154865 -1.77767e-19)
(1.73682 0.329975 3.26464e-19)
(1.65168 -0.254688 -1.1922e-19)
(2.10535 0.0579747 -1.66654e-19)
(2.09589 -0.0657346 -2.23936e-19)
(0.406646 0.402624 -4.1605e-19)
(1.71745 -0.097266 0)
(-0.134813 -0.933185 -2.10488e-19)
(0.261083 -0.0145235 1.64541e-19)
(1.99403 -0.000251332 1.25368e-19)
(2.31295 -0.284479 -3.32051e-20)
(1.57195 -0.311839 0)
(2.15951 0.0323161 1.2998e-20)
(2.29623 -0.332075 1.71479e-19)
(-0.460308 0.500326 2.67719e-19)
(2.00143 -0.162377 0)
(0.352291 -0.0686322 0)
(1.92487 0.0408195 0)
(1.97432 -0.477442 0)
(1.69004 -0.67635 9.55485e-21)
(1.85989 0.460139 0)
(0.568472 -0.229971 -5.15213e-19)
(4.15206 -0.942697 -8.37775e-19)
(2.03467 0.024081 -4.57165e-21)
(2.66577 -0.063115 -6.85948e-20)
(2.43984 -0.0282776 0)
(1.47692 1.58076 -1.56529e-19)
(-1.56842 1.24518 -3.04969e-18)
(3.13232 -0.276052 0)
(1.8838 0.0190874 3.40226e-19)
(3.35618 -0.9897 -3.57627e-18)
(2.24527 0.539517 0)
(2.40775 0.102054 0)
(0.997851 -0.208702 8.72166e-19)
(1.83138 0.516682 -4.14738e-19)
(2.32133 -0.114662 -2.14314e-19)
(1.03178 -0.490257 9.71316e-20)
(-0.150642 -0.752813 -1.17769e-19)
(0.134121 -0.4684 0)
(2.39007 -0.112007 5.9939e-20)
(2.17343 0.774648 -6.61044e-20)
(1.84153 -0.773166 4.17824e-19)
(0.459384 -0.338394 6.90797e-19)
(-2.02639 0.929268 1.38819e-18)
(1.92587 0.050882 -2.5565e-19)
(-1.62961 1.54917 2.83273e-18)
(1.43965 -0.94616 2.11802e-19)
(1.09871 -0.35457 -8.0262e-20)
(1.08952 -0.375759 -3.66497e-19)
(1.87145 0.0147424 4.04564e-21)
(2.69306 0.710702 7.759e-20)
(-1.45709 1.13608 1.17643e-18)
(-2.04755 0.924537 8.60046e-19)
(1.85422 -0.802194 0)
(1.97451 0.0117984 -1.80748e-21)
(-0.70224 0.0250584 7.99765e-20)
(-0.402455 0.284656 -1.74583e-18)
(0.131541 -1.07344 0)
(1.40374 -0.383874 0)
(1.8095 0.0262497 -3.14264e-20)
(-1.3111 1.95739 6.64071e-19)
(1.86905 0.106768 4.07541e-21)
(-0.128319 0.226734 -7.8693e-19)
(1.44239 -0.305964 0)
(1.09618 -0.436511 2.43164e-21)
(0.121245 -0.151157 5.36991e-20)
(1.37361 -2.2625 -1.63635e-18)
(3.16562 -2.20997 0)
(2.21938 -0.715751 0)
(1.96957 -0.108378 0)
(-1.72987 0.368256 -6.96302e-19)
(2.42593 -0.162346 1.59715e-19)
(-0.726063 0.763416 -1.12065e-18)
(2.45153 -0.140105 -1.77503e-19)
(1.93731 -0.525565 8.88762e-21)
(0.638052 -0.466327 0)
(1.95933 0.0315985 0)
(2.30559 0.320589 -3.67758e-20)
(2.4712 -0.152765 1.01901e-19)
(1.79721 -0.0394891 -2.9222e-19)
(0.264293 -0.290611 0)
(-0.543606 0.72938 6.0536e-19)
(1.03455 0.00579864 -2.55027e-19)
(2.42445 0.521424 3.15229e-20)
(1.95743 -0.620647 4.33091e-19)
(0.995159 -0.128996 -6.41651e-20)
(2.49404 0.0919146 0)
(2.42591 -0.196713 -1.09979e-19)
(2.00399 0.0359894 0)
(2.03429 0.0934146 -1.57269e-19)
(2.24481 0.312935 3.00283e-20)
(2.61816 0.0294819 1.21712e-19)
(1.57178 -0.383899 5.82526e-19)
(1.87004 0.458384 2.30231e-19)
(-0.657305 0.082564 -1.29e-19)
(1.76792 -0.716946 -2.5145e-19)
(2.61316 1.93454 -1.58987e-19)
(2.04788 -0.0124818 0)
(1.80308 -0.434386 0)
(-0.0501837 -0.458671 0)
(2.27994 -0.282743 4.28841e-20)
(0.211962 -0.291982 6.92182e-20)
(0.809214 -0.402606 4.82312e-19)
(1.83809 -0.00914552 -5.26552e-20)
(2.53984 -0.43497 -5.19715e-20)
(0.104437 0.125492 6.87866e-19)
(2.00466 2.42904 -7.36058e-20)
(2.23765 0.0536549 -1.27826e-20)
(2.23835 -0.145351 5.90648e-19)
(0.837311 -0.348845 0)
(2.7027 -0.236099 -8.3884e-20)
(-0.497865 0.580034 -1.39089e-18)
(2.99714 -0.131827 -5.52819e-19)
(0.563573 -0.191699 -1.03234e-22)
(1.63062 0.00713615 9.61448e-21)
(1.3048 -0.39918 4.01118e-19)
(2.22432 0.830609 0)
(1.98272 0.116029 -9.60037e-20)
(1.00982 -0.407593 -8.54938e-19)
(1.92572 0.244695 -6.711e-21)
(1.24662 -0.605607 0)
(2.26993 -0.149621 -1.71774e-19)
(0.995188 -0.478993 2.70283e-19)
(2.25974 -0.711395 -1.44742e-19)
(1.68676 -0.705072 -3.53302e-19)
(2.3691 0.0798161 -4.41618e-20)
(2.37056 -0.357547 9.64882e-21)
(0.932545 -0.461483 5.34821e-19)
(2.12004 -0.113607 2.44931e-19)
(1.81929 -0.383774 0)
(1.75546 -0.800362 -4.11767e-19)
(1.64109 -0.699553 -1.06545e-18)
(2.59254 -0.246494 2.78164e-20)
(1.95403 0.0852569 4.09465e-20)
(1.93411 1.21635 0)
(1.576 0.0612096 0)
(2.02046 -0.0229663 -1.95912e-19)
(0.546829 0.3631 3.48595e-19)
(2.74115 1.40296 0)
(2.29106 -0.0801962 1.70254e-19)
(1.49239 -0.664606 -4.17261e-21)
(0.873084 0.434138 -6.19908e-19)
(0.831267 -0.354766 -4.56265e-19)
(-2.01366 0.426092 7.45343e-19)
(1.82608 -0.0147794 2.94969e-20)
(-1.87816 0.203398 2.20635e-18)
(2.67779 -0.686567 -3.32574e-19)
(2.20747 0.0300621 0)
(1.38345 -0.0968215 -1.07442e-19)
(1.50936 -0.424383 0)
(1.96462 0.107516 -4.66943e-19)
(1.97386 -0.436058 0)
(2.11814 -0.0262032 -1.67526e-19)
(1.70493 0.300599 3.53808e-21)
(2.79715 -0.152371 -4.7944e-20)
(1.07422 -0.413258 4.8355e-19)
(1.96956 0.0728564 -3.80128e-19)
(2.01987 0.310972 -4.09366e-19)
(1.94441 -0.837954 0)
(-1.0803 1.42825 0)
(1.14877 -0.452461 -4.77398e-19)
(2.74115 -0.171773 0)
(3.45083 0.469591 -8.73037e-19)
(1.29928 -0.128281 0)
(1.55179 -0.449963 9.81361e-21)
(-0.409591 -0.000643426 1.27907e-19)
(1.73802 -0.567543 7.43579e-19)
(0.573449 -0.252309 -3.3267e-20)
(2.31008 -0.544332 0)
(1.72317 0.310777 -9.6748e-22)
(1.8028 0.00157066 -2.47206e-19)
(0.017525 -0.133575 -6.25795e-21)
(1.92738 0.0517323 -2.15709e-19)
(2.5708 -0.0286581 -7.94819e-20)
(2.6625 0.0166205 -3.50617e-20)
(3.17403 0.947549 3.46863e-19)
(2.51306 0.398112 -6.05043e-20)
(-1.73539 1.31241 -6.45747e-19)
(1.66689 -0.481997 0)
(-0.0154496 -0.096752 -5.01687e-20)
(1.97203 0.110026 -1.67278e-19)
(2.51217 -0.250878 0)
(1.97748 0.0765265 1.41504e-19)
(1.10961 -0.535607 -3.59325e-19)
(1.64844 1.33874 1.44939e-19)
(3.86933 0.25045 0)
(1.3455 -0.636649 1.29702e-19)
(1.34403 1.17637 0)
(2.16518 0.0434959 3.67079e-20)
(2.22801 -0.289513 -1.32082e-19)
(-0.376412 -0.0802481 1.14886e-18)
(0.991677 -0.0178041 0)
(1.60436 0.269165 2.31958e-19)
(2.0199 0.0439872 1.51292e-19)
(0.369027 -0.342552 0)
(1.72063 0.0129475 0)
(1.97388 -0.159664 0)
(-0.476522 0.209604 3.46504e-19)
(0.285759 -0.107337 -3.40827e-20)
(2.6283 -0.133802 0)
(2.03925 0.0299547 0)
(1.49592 -0.604277 6.89241e-20)
(-2.18907 1.70139 0)
(2.36256 0.415705 7.31708e-21)
(2.87981 1.27507 1.92493e-19)
(2.0416 0.176938 7.65981e-21)
(1.82437 0.421109 -4.68379e-21)
(0.874822 0.521605 7.13184e-19)
(2.92062 1.43817 -2.05084e-19)
(2.3565 -0.254382 7.84838e-21)
(1.97713 -0.0689791 1.65075e-19)
(1.56705 -0.119495 -2.60872e-19)
(1.88812 -0.29172 3.30464e-21)
(1.99419 0.0178443 0)
(-1.87552 0.125898 -2.1068e-18)
(0.196877 -0.0137803 0)
(1.20981 -0.54578 5.56705e-20)
(1.83404 -0.690011 0)
(2.25039 -0.180855 0)
(1.25037 -0.597881 -3.03072e-19)
(2.05814 0.0413424 -8.61628e-21)
(-0.291974 0.498945 -1.58268e-18)
(2.02141 -0.00214443 9.05578e-21)
(1.77818 -0.691236 4.05589e-19)
(3.03062 1.17088 2.20929e-19)
(0.606711 -0.157913 1.35916e-18)
(2.34491 0.118986 2.40098e-20)
(2.04193 -0.818204 1.64887e-19)
(1.94589 0.0343264 -2.60603e-19)
(2.97988 0.354718 0)
(1.80179 -0.0945958 -4.97405e-19)
(1.78717 -0.471314 4.1372e-19)
(2.01737 0.158427 -5.80418e-19)
(0.237934 -0.287801 -1.45935e-20)
(1.56688 1.35784 -1.40559e-19)
(2.84187 1.33535 2.94734e-19)
(3.14893 -0.548518 0)
(2.03952 -0.231612 0)
(0.60989 0.456962 -6.21118e-19)
(2.06322 -0.123694 1.03081e-19)
(0.0459726 -0.531779 0)
(2.27885 -0.145206 -1.49179e-19)
(2.01142 -0.0128698 -3.13866e-19)
(0.327042 -0.456047 -1.01513e-20)
(0.195586 -0.781547 1.05594e-19)
(2.66107 -0.0528484 -6.69823e-21)
(0.981985 -1.77481 6.20817e-20)
(2.35401 -0.364857 -3.42664e-19)
(1.91258 -0.450506 2.91028e-19)
(3.34836 0.976922 7.93484e-19)
(1.49272 -0.605438 3.79843e-19)
(1.92115 0.206162 -7.58996e-22)
(0.973206 0.35727 5.21466e-19)
(2.11918 2.09547 0)
(1.67207 -0.447097 2.38451e-19)
(-0.40429 -0.799899 0)
(-1.02258 1.18605 -2.78103e-18)
(2.70757 -1.67306 0)
(-0.563396 0.135801 -4.28029e-19)
(1.58424 -0.676369 -5.3695e-19)
(1.88735 0.743892 -3.33921e-19)
(2.01288 -0.830284 0)
(1.12136 -0.844971 0)
(3.0424 -0.338304 0)
(1.96713 0.104378 1.20541e-19)
(2.28729 0.902548 -1.71771e-18)
(0.0964579 0.24899 1.26311e-18)
(1.55615 -0.294924 -8.09718e-21)
(3.47407 0.992066 -8.95997e-19)
(2.05193 0.337164 0)
(1.18926 2.14224 2.04555e-19)
(2.48904 1.40242 1.27248e-19)
(0.958762 1.25902 -2.79953e-19)
(1.49961 -0.700805 3.51473e-19)
(2.55047 -0.16876 4.59218e-21)
(1.12263 -0.546428 6.08151e-19)
(2.25699 0.410919 0)
(2.2438 -0.305501 1.25013e-19)
(1.11488 -0.316165 9.05018e-20)
(1.84442 -0.0340447 2.5519e-20)
(3.43894 0.629071 -4.70329e-19)
(1.85002 -0.690005 0)
(2.48962 0.79435 0)
(3.39353 0.233402 0)
(0.403734 -0.238473 0)
(1.92379 0.00121041 0)
(1.3854 -0.509482 1.61874e-19)
(3.70069 0.925992 6.37224e-19)
(1.41287 -0.577162 4.50316e-19)
(2.06923 0.0493367 2.56157e-19)
(-0.699228 -0.538824 0)
(2.00781 -0.841407 3.09754e-21)
(-0.446848 0.156211 0)
(-0.38824 -1.11096 -3.33649e-19)
(-0.531746 0.383388 6.58078e-19)
(4.02972 0.455118 -3.48571e-19)
(1.98563 0.147441 2.93438e-19)
(1.99634 0.289141 -9.18807e-20)
(4.1304 -0.0520112 -5.30458e-19)
(2.45648 0.0215988 0)
(0.00992249 0.395829 1.07352e-18)
(1.97245 0.0507807 0)
(1.52165 0.919779 1.74231e-20)
(2.48151 -0.157625 0)
(2.1082 0.248693 -1.14426e-19)
(2.05265 -0.0965953 0)
(0.869061 -0.32241 -3.22126e-19)
(-2.53615 1.41424 2.20188e-18)
(2.29291 -0.186694 -1.26324e-19)
(1.3623 0.416825 4.66256e-19)
(-0.77859 0.321948 -7.2609e-19)
(2.04982 -0.706079 0)
(0.968092 -0.174003 -1.2342e-18)
(1.84416 0.25793 1.35596e-21)
(3.57383 0.646187 -1.18606e-18)
(1.88468 0.00805975 5.65265e-21)
(4.04646 -0.901721 2.08057e-18)
(3.1926 0.749669 0)
(1.7212 -0.77322 -8.78725e-20)
(1.40927 -0.643617 0)
(2.52459 -0.227298 1.48459e-20)
(0.406594 -0.0936767 7.85093e-20)
(-1.22172 -0.583154 0)
(2.3873 0.410885 0)
(1.44179 -1.20618 -1.59675e-19)
(2.45763 0.784971 0)
(1.75856 1.91608 4.66384e-20)
(2.99153 0.963817 -3.46467e-19)
(-0.0396587 0.238153 -8.7504e-19)
(0.248795 -0.596165 -2.87317e-20)
(1.98964 0.0231014 -8.79787e-21)
(0.778029 -0.469051 1.12125e-20)
(-2.23377 1.28522 -1.396e-18)
(1.86315 0.0260495 5.26146e-19)
(0.250776 -0.367711 1.15434e-20)
(-0.451228 0.0977038 0)
(2.47989 0.101587 -1.02436e-19)
(1.35918 -1.24197 1.7042e-19)
(0.320884 0.303434 8.44062e-20)
(3.46176 0.691336 9.21229e-19)
(2.85397 1.71265 0)
(1.78121 -0.503669 -4.15552e-19)
(1.14483 0.0263634 -9.37124e-21)
(2.67379 0.733502 -9.89911e-20)
(2.62219 -0.0634082 -3.69626e-19)
(0.392048 -0.990819 3.29469e-20)
(-1.50594 -0.225475 1.5368e-18)
(1.43367 -0.566263 -1.08588e-19)
(0.0354694 -0.633115 1.58903e-20)
(2.58369 -0.232516 -3.3864e-19)
(0.19902 -0.905589 -3.6939e-20)
(1.94563 -0.621186 0)
(1.88441 -0.127989 -4.85457e-19)
(-0.769073 0.172416 0)
(0.829277 -0.625131 2.11494e-20)
(-0.550156 -0.432914 2.3023e-19)
(0.168014 -0.181405 1.00264e-18)
(1.9149 0.281823 -1.49594e-21)
(-1.75999 0.696985 8.41323e-20)
(-0.208083 -0.337509 0)
(2.14275 -0.79208 4.47927e-19)
(2.11314 -0.834529 1.19434e-19)
(-0.555111 -0.176832 -8.51931e-19)
(1.75569 0.540714 0)
(1.68301 0.505772 0)
(0.136509 0.431394 0)
(1.43008 -0.664203 -3.60467e-20)
(1.93868 -0.0459009 -4.66191e-19)
(1.33494 0.209512 0)
(1.77737 -1.45153 0)
(2.28552 0.170235 -8.34286e-21)
(2.65329 -2.35797 -6.06504e-20)
(2.11814 0.266658 -3.39023e-19)
(1.57392 -0.368074 2.3994e-20)
(1.73814 0.0392924 4.20993e-20)
(1.92676 0.00728519 -3.83102e-20)
(1.81344 0.330792 -2.14775e-21)
(1.95084 0.570299 -2.67898e-20)
(1.90409 1.28475 0)
(-2.12465 1.24795 2.7991e-22)
(-0.404911 0.948063 0)
(0.999071 0.218231 0)
(2.8835 0.225161 -5.22114e-19)
(-0.983582 -0.650444 0)
(2.4855 0.376311 0)
(1.88936 -0.0910571 7.46451e-19)
(1.82526 -0.80632 0)
(2.02348 0.262166 4.18796e-19)
(3.33889 0.684584 4.67307e-19)
(3.33135 0.585094 1.63782e-19)
(1.92845 0.235313 7.96693e-22)
(1.07254 1.4795 2.60414e-19)
(2.15723 -0.830048 5.54586e-21)
(1.90907 -0.763981 -1.10226e-20)
(1.12701 -0.432711 4.66225e-19)
(0.66036 -0.506097 0)
(0.911045 -0.449272 0)
(-1.66432 0.335025 -1.04362e-18)
(-2.40056 1.32401 -3.0075e-18)
(1.07407 -0.773394 0)
(0.55801 -0.470596 -8.7677e-21)
(-1.5973 1.07806 0)
(0.27822 0.0507589 1.15691e-18)
(1.08022 -0.499414 -6.05112e-19)
(3.36957 0.468403 -2.16802e-20)
(3.24427 0.681679 3.7017e-19)
(1.18391 -0.396223 9.44244e-20)
(2.58156 -0.178071 1.7149e-19)
(2.28713 1.00816 0)
(2.39165 0.941526 0)
(1.04604 0.0689047 0)
(0.156121 -0.471841 -6.38002e-19)
(1.38177 -0.514168 0)
(2.28211 0.69085 0)
(1.856 0.0450655 0)
(2.43274 -0.375104 -7.38645e-20)
(-0.589115 1.03421 3.73391e-19)
(1.99045 -0.766771 -2.31233e-19)
(1.41818 -0.659359 1.07338e-19)
(1.31603 -0.212636 0)
(-1.42975 -0.751233 0)
(1.95902 -0.585474 -3.95074e-19)
(1.56974 0.570752 6.91816e-19)
(-2.09657 0.773289 -7.70775e-19)
(2.37896 0.379356 -2.42067e-21)
(1.70505 -0.431724 4.37305e-19)
(0.960215 0.537671 -1.11827e-18)
(-2.41279 1.45544 0)
(1.18476 1.43178 -5.99279e-19)
(0.316953 0.486647 -6.94335e-19)
(3.38174 0.484464 0)
(2.24019 -0.0654111 0)
(1.73159 -0.0967682 0)
(2.01674 0.0328062 -4.55881e-19)
(1.44882 0.315695 -4.78613e-19)
(1.62054 0.151763 0)
(2.92554 1.41046 1.63029e-18)
(1.75668 -0.78487 4.11327e-19)
(2.44677 -0.360962 8.57311e-20)
(-1.01752 0.115544 2.48105e-19)
(2.0207 -0.265611 0)
(2.39234 0.0374173 5.76777e-20)
(1.75499 -0.402366 0)
(1.2869 -1.3481 -1.70841e-19)
(1.69727 -0.7692 0)
(2.09173 -0.758279 5.21829e-19)
(1.42123 -0.30521 -2.42302e-22)
(2.06456 0.171614 -8.83508e-21)
(2.47405 -0.377839 0)
(1.78289 -0.760906 0)
(1.56231 -0.663673 -5.59438e-19)
(2.31742 0.381288 -8.0825e-21)
(-0.0803719 -1.21059 1.37984e-19)
(0.830908 -0.398682 4.72777e-19)
(1.88371 -0.0514586 0)
(1.56133 0.227025 -7.24597e-19)
(2.32433 -0.00939734 -4.25636e-20)
(1.41735 -0.739936 -5.00053e-20)
(2.05822 0.224641 -1.25838e-20)
(2.08733 0.266799 0)
(1.1502 -0.32367 6.63335e-19)
(0.938613 0.278938 -7.19902e-19)
(3.68792 0.691523 1.02419e-20)
(1.76327 0.259116 -8.18888e-19)
(-0.825624 -0.000872212 1.8417e-19)
(-0.861065 -0.162973 -1.81062e-18)
(1.50746 -0.307943 -8.15895e-20)
(2.06222 -0.0595759 -4.3236e-20)
(1.17967 0.382695 1.39435e-18)
(-0.431023 0.416779 6.91065e-21)
(-0.927411 -0.173233 3.6013e-19)
(-0.404415 -0.951951 3.44903e-19)
(1.75827 -0.00739336 4.62316e-20)
(2.37454 -0.22312 0)
(2.32642 0.533251 1.84411e-18)
(1.12443 -0.547645 2.75731e-19)
(1.65143 -0.187778 2.59255e-19)
(-0.337703 0.339684 0)
(1.60367 -0.346934 -6.9657e-20)
(1.95924 0.0237719 7.89412e-22)
(2.08655 0.066872 0)
(-2.20766 1.74104 9.84235e-19)
(0.775708 -1.87909 7.65179e-20)
(1.17103 -0.0816554 0)
(1.0063 -0.373889 0)
(1.5198 -0.665441 -6.66798e-20)
(1.39771 -0.879311 -2.06381e-20)
(2.84647 0.209533 1.87435e-19)
(-0.0437693 -0.382137 0)
(1.97412 0.0332184 -4.20775e-19)
(2.1935 -0.762253 -1.01091e-19)
(2.15599 -0.734115 3.11414e-20)
(1.17958 -0.453515 5.87065e-19)
(-1.02075 -0.372623 -3.99441e-19)
(-0.647224 -1.01617 3.13924e-19)
(3.66165 0.652934 -8.8705e-21)
(2.60519 -2.18516 0)
(2.28359 0.942479 -1.30602e-18)
(1.56001 -0.613845 2.79405e-19)
(2.09318 2.14933 1.98728e-19)
(0.778697 0.696918 0)
(1.11278 -0.192426 -5.84395e-19)
(1.1774 -0.495343 -7.12725e-19)
(-1.53063 0.07062 6.61781e-19)
(-0.318282 0.747279 -1.17382e-18)
(2.32614 1.54638 0)
(-0.221688 0.0573298 -8.01173e-19)
(2.27507 0.518841 0)
(-0.589615 1.29237 -8.1468e-19)
(-0.382859 -0.341276 1.43182e-18)
(-0.976017 1.739 0)
(-1.25545 -0.392571 2.11696e-19)
(1.56319 -0.0614291 -1.06454e-19)
(-0.199195 0.346565 4.89388e-19)
(1.65524 -0.651285 5.0994e-19)
(-1.85981 0.558286 -1.9222e-18)
(1.14675 -0.521103 0)
(2.0343 0.0363689 1.47111e-19)
(0.507633 -0.0391183 0)
(2.23903 0.17892 -3.04384e-21)
(-0.357086 -0.534057 -1.39461e-18)
(0.525682 -0.192942 3.0712e-19)
(2.09998 0.301882 0)
(1.86813 -0.745444 -3.93524e-19)
(2.98773 -0.157076 1.53944e-19)
(-0.970342 -0.821621 9.06851e-19)
(0.956042 -1.79555 0)
(-0.961906 -0.792196 -8.06232e-19)
(3.52486 0.550204 -9.80671e-19)
(1.59519 0.218719 9.2776e-19)
(1.97701 -0.518364 0)
(2.40081 -0.200441 3.20713e-19)
(-0.980324 -0.116687 1.01461e-18)
(-1.08032 1.35677 -1.87295e-19)
(2.17573 -0.582367 1.60072e-19)
(-0.609984 -0.139557 0)
(1.79273 -0.327817 -4.0565e-20)
(1.97462 0.147659 3.89771e-22)
(2.52927 -0.364935 1.36579e-19)
(2.28007 0.0116436 0)
(-1.1522 -0.791445 7.00362e-19)
(1.63934 -0.416647 -7.15661e-22)
(1.24496 -0.357259 7.29385e-20)
(1.95832 0.494433 0)
(2.0176 -0.784155 -1.84027e-19)
(-1.64767 0.20791 1.30245e-18)
(1.7227 -0.385631 -5.46634e-19)
(-0.140036 0.300249 0)
(1.49764 -0.295285 -4.57622e-20)
(2.04187 -0.763017 1.49342e-19)
(-1.04932 -0.0296328 -4.09142e-19)
(1.00483 -0.147264 0)
(0.24668 -0.0698531 1.72521e-18)
(1.52857 -0.708391 0)
(-1.88275 0.201912 1.6071e-18)
(1.46182 -1.06522 0)
(1.86816 -0.0888768 -2.74894e-19)
(2.13453 -0.236379 -2.86807e-19)
(2.91914 1.34036 -8.16577e-19)
(1.51596 -0.560114 0)
(1.96573 -0.84269 -2.87726e-19)
(1.98377 0.0237163 0)
(2.38274 0.409005 0)
(2.04649 -0.84598 9.66918e-20)
(-1.46467 -0.514939 7.45931e-19)
(0.516962 -0.00539269 1.92713e-19)
(2.10911 -0.569212 -9.45029e-20)
(1.70421 0.335852 3.01345e-19)
(0.843484 -0.52556 2.68997e-20)
(2.05995 0.225327 1.58119e-19)
(-2.35261 1.57769 -2.36548e-19)
(2.25338 -2.06631 0)
(2.44793 0.210704 0)
(-2.52545 1.36798 0)
(0.621182 -1.05952 9.8487e-20)
(1.1475 -0.394409 -4.11924e-19)
(1.49594 0.149987 0)
(-0.177852 -0.148955 1.83307e-19)
(2.29387 -0.165576 -2.00213e-19)
(-0.51288 -0.106305 -1.24155e-19)
(1.37012 -0.484385 -1.34817e-19)
(2.13323 -0.851336 0)
(-0.259207 0.46368 1.49075e-18)
(-1.9137 1.50327 -2.13535e-18)
(-0.793484 1.91308 0)
(-0.678338 -0.228806 -9.94518e-19)
(1.90874 0.0495216 -4.42461e-21)
(2.69545 -0.156212 7.92444e-20)
(1.92916 0.0718039 2.76296e-19)
(2.82403 1.11635 -3.75431e-19)
(2.43154 0.216078 8.46226e-21)
(-0.948302 0.537838 0)
(1.92351 -0.756081 0)
(-0.0599949 -0.109775 1.25554e-19)
(-0.278953 0.978973 0)
(1.60307 -0.317419 -7.04678e-20)
(2.13071 -0.764743 -2.82733e-19)
(0.953425 -0.447443 4.95717e-19)
(2.16876 -0.124778 -1.14444e-19)
(1.75402 0.357385 -2.99643e-19)
(1.51974 -0.598392 -2.74401e-19)
(1.60665 -0.634329 -5.11054e-19)
(1.39802 -0.781561 0)
(1.70806 -0.662021 4.87897e-19)
(1.94845 -0.027595 0)
(2.52104 -0.399043 -6.20184e-21)
(2.034 1.36279 1.14669e-20)
(1.25283 -0.256232 5.46545e-20)
(2.23195 -0.395128 -2.50904e-19)
(0.194247 0.135141 -9.67022e-19)
(-2.26001 1.44413 0)
(1.40076 -1.77934 -8.82704e-20)
(0.147421 -1.65759 -1.44107e-18)
(2.08096 0.534991 -1.69441e-19)
(1.81455 -0.726976 4.57389e-19)
(2.10913 0.0265115 -4.58692e-21)
(-0.357915 0.767503 3.9301e-19)
(1.76935 -0.746706 -1.22535e-19)
(0.276881 0.183323 0)
(-0.440606 -0.217471 3.34211e-19)
(1.77289 -0.354914 2.88497e-19)
(1.99958 0.0108787 -1.10322e-22)
(1.14636 -0.498525 1.0456e-18)
(-0.106211 -0.0533982 -1.07092e-20)
(1.71539 0.635125 0)
(0.576083 -0.932118 -3.02352e-20)
(-1.12137 -0.97003 -8.10405e-20)
(1.05904 -0.314619 -7.86232e-19)
(0.807118 -0.972181 2.59968e-20)
(2.75928 0.884933 -3.71367e-19)
(2.11774 0.467715 4.45262e-21)
(0.925082 -0.372296 3.55565e-19)
(1.7998 -0.361426 0)
(2.57706 0.0978398 -1.63996e-19)
(2.34638 -0.035722 -5.39942e-21)
(3.13104 0.856791 -3.73667e-19)
(-0.107955 0.296168 0)
(3.46801 0.931733 3.73221e-20)
(-0.379914 1.3009 7.80288e-19)
(1.59606 -0.688411 1.08547e-18)
(-0.013264 -0.511557 1.04287e-20)
(1.5014 1.15351 -8.19885e-19)
(-0.491252 0.708118 3.01405e-18)
(1.97714 -0.747958 4.67155e-19)
(2.1266 0.0187665 -4.01429e-21)
(0.608718 -0.310707 -8.00213e-21)
(2.6739 0.0196128 4.1434e-20)
(-0.368174 -0.0140337 0)
(2.00037 0.0336812 0)
(2.3269 0.488602 0)
(1.75805 -0.675205 -4.25886e-19)
(1.52385 -1.12759 1.67106e-19)
(-0.47658 -0.258243 0)
(1.20623 -0.355564 -1.70593e-19)
(-0.972687 1.51345 0)
(3.80951 -0.169307 0)
(-0.864587 -0.0197294 0)
(2.07249 -0.0121383 0)
(0.181007 0.00044233 -5.38467e-19)
(-2.25342 1.7283 0)
(3.73739 -1.46743 1.07702e-18)
(1.47332 0.012532 0)
(1.94642 0.14229 0)
(1.95671 0.209738 2.39862e-21)
(-2.4506 1.48267 0)
(2.32196 -1.62647 0)
(-0.119607 -0.458465 0)
(2.41924 0.0690361 2.14295e-20)
(2.60967 0.18506 0)
(2.13445 -0.834123 -1.28955e-20)
(1.52859 -0.393902 3.13469e-21)
(-0.743617 0.641555 -5.50628e-19)
(1.99363 0.0580478 6.63493e-19)
(-0.156752 -0.0380319 6.40791e-21)
(1.05901 0.992296 -5.90355e-19)
(1.47036 0.740868 0)
(2.38924 -0.356641 9.32472e-21)
(1.62341 -0.127731 -2.53126e-19)
(1.57356 1.79561 1.40379e-19)
(1.86234 0.406353 4.20581e-19)
(0.749105 -0.255704 -7.46119e-19)
(1.49443 -0.648393 -4.2434e-19)
(3.17779 -1.93597 1.87768e-19)
(1.1858 -2.01841 0)
(2.2901 -0.509927 2.78594e-20)
(1.56511 -2.02881 1.04054e-19)
(2.63546 0.289472 -8.63042e-20)
(-2.02771 0.730419 0)
(1.81792 0.013447 -3.09891e-19)
(3.05242 0.759199 -1.12648e-18)
(1.33216 -0.526227 5.43681e-19)
(1.20353 -0.541531 -6.55014e-19)
(1.63754 -0.75558 0)
(1.7466 -0.767007 0)
(3.33178 -1.84151 9.3658e-19)
(2.28079 -0.39046 -1.61063e-19)
(3.36597 0.33518 -6.25868e-19)
(1.80535 -0.0180538 2.67368e-20)
(1.1826 -0.318414 -1.58269e-19)
(1.69604 -0.498499 4.64264e-19)
(2.47955 0.247183 0)
(2.41447 0.290917 2.33615e-20)
(-1.65701 1.68329 -2.53475e-18)
(2.15675 -2.13849 7.59553e-19)
(1.00473 -0.205027 1.23697e-20)
(-0.41741 -0.518713 8.19797e-19)
(3.35912 0.387771 5.22641e-19)
(2.54331 0.744117 7.52023e-20)
(2.36631 0.580329 0)
(0.147603 -1.22953 0)
(2.19693 -0.836946 -3.8395e-21)
(1.12226 -0.220369 0)
(1.8566 -0.395606 1.93732e-19)
(1.6773 0.271284 5.23019e-19)
(1.68096 0.473424 -1.52329e-19)
(1.57544 -0.637032 1.10743e-18)
(1.99127 0.161616 -2.13301e-22)
(1.60154 -0.0138585 0)
(1.8427 0.0101089 -6.53901e-21)
(-0.838525 -0.0772896 -8.80868e-19)
(2.15147 0.269344 0)
(2.60816 -0.380176 0)
(1.89729 -0.764005 1.70326e-19)
(1.89222 0.568878 2.26052e-19)
(1.04956 -0.125804 0)
(2.68947 -0.975713 2.04199e-20)
(2.64127 -0.00130144 1.75037e-19)
(2.33857 0.319903 2.40853e-20)
(1.78192 0.485078 4.49736e-19)
(0.243862 -0.703328 -5.7081e-20)
(1.53793 -0.462348 0)
(0.414827 -0.0154214 -2.42214e-18)
(0.497397 -0.211532 1.11367e-18)
(1.95844 -0.00240021 1.72125e-20)
(-0.0944002 0.64879 -9.83469e-19)
(1.78581 -0.737749 3.22869e-20)
(2.63469 0.321681 2.31355e-19)
(2.2663 -2.10163 0)
(1.96872 0.190294 2.56151e-21)
(1.81153 0.0450469 9.6446e-20)
(2.15805 -0.0275394 -1.72406e-19)
(2.17446 0.453498 -1.18735e-19)
(2.18244 -0.795483 0)
(0.313145 -0.546793 0)
(2.47496 0.0154836 0)
(2.29993 0.431218 -5.76361e-20)
(1.02401 -0.477787 7.78243e-19)
(2.45374 1.84775 -1.07718e-19)
(1.46038 -0.0756682 0)
(-2.45933 1.22321 -4.7669e-19)
(0.420823 -1.12241 8.09919e-20)
(-1.91087 1.05529 0)
(1.89928 0.270347 -1.36678e-19)
(1.62195 0.260615 -1.74804e-19)
(2.88812 -0.360109 -9.10431e-20)
(2.04749 0.201063 -8.18616e-21)
(0.648438 -0.215155 0)
(2.16849 0.191729 -1.5832e-19)
(2.0152 -0.425334 0)
(2.04634 -0.263605 9.25661e-21)
(0.965855 0.126377 0)
(2.21924 0.858379 7.38369e-20)
(1.67527 -0.671007 -4.98551e-19)
(2.36713 0.862889 0)
(1.82147 -0.0660548 -4.78347e-19)
(2.06085 0.241068 1.21087e-20)
(1.75121 -0.374622 0)
(1.1109 -0.523722 0)
(0.471557 0.274832 -9.36869e-20)
(2.49257 -0.225282 -1.42042e-20)
(1.22185 -1.65741 -9.44945e-20)
(0.523174 -0.353175 -4.06393e-20)
(2.62367 -0.163154 3.36292e-22)
(1.74804 0.018205 7.2067e-19)
(1.78938 0.405593 -1.93964e-21)