/*--------------------------------*- C++ -*----------------------------------*\
| =========                 |                                                 |
| \\      /  F ield         | OpenFOAM: The Open Source CFD Toolbox           |
|  \\    /   O peration     | Version:  2306                                  |
|   \\  /    A nd           | Website:  www.openfoam.com                      |
|    \\/     M anipulation  |                                                 |
\*---------------------------------------------------------------------------*/
FoamFile
{
    version     2.0;
    format      ascii;
    arch        "LSB;label=32;scalar=64";
    class       volScalarField;
    location    "4";
    object      p;
}
// * * * * * * * * * * * * * * * * * * * * * * * * * * * * * * * * * * * * * //

dimensions      [0 2 -2 0 0 0 0];

internalField   nonuniform List<scalar> 
13486
(
38.1127
31.1289
6.45892
-73.0173
18.9323
0.234997
20.7929
24.3435
28.88
17.7119
-78.842
9.92315
39.7254
1.75602
19.2978
18.6042
-61.4459
-90.1743
13.4187
35.0181
-71.4023
39.4098
30.6125
-32.1218
15.4559
-30.0555
-66.1822
-8.8145
0.409482
-6.51131
-93.9012
13.7077
-24.0558
0.324786
24.4521
0.308664
-3.58998
32.4923
-54.054
28.9038
6.33264
40.9368
1.72018
15.685
15.4469
9.60925
-51.6632
0.416234
-3.40873
-10.2186
23.8948
-4.90826
2.53783
33.0085
-91.5698
19.3373
2.01277
-8.70171
-22.122
-7.20061
-80.1726
-5.64815
-40.6449
-70.3104
-50.989
-3.65711
-75.9625
37.9898
28.7289
-8.06939
-75.6883
-96.7263
29.147
-52.3442
-3.28809
1.70015
-1.3363
19.4201
-57.5943
-0.369553
0.187922
31.414
-41.9743
6.90635
38.241
20.8895
-19.0503
22.7709
26.8355
20.6915
3.89732
22.5705
36.9145
33.3063
29.1853
0.241111
-66.7279
-78.7574
28.8741
-62.8932
0.363938
2.69618
-81.0716
-11.9926
26.4726
-63.2338
27.2143
-39.723
-54.4337
20.21
27.73
18.2962
32.9908
2.58106
43.5065
27.7192
16.0257
1.08003
29.3033
-0.96792
-101.975
-78.6406
30.2745
-45.8304
27.3012
-7.2175
23.7184
8.82934
3.2482
-38.1582
-6.7001
-50.022
-44.6102
-52.5578
24.8612
22.5244
44.1305
20.6024
-0.922941
25.354
-17.5671
3.0793
10.4617
-1.11967
2.94723
-59.6599
2.37212
39.5833
-10.9351
0.300056
16.5323
18.8408
0.145399
32.0599
10.1044
6.47909
16.8303
4.37659
30.1201
-3.03743
-6.96485
30.1279
-6.84621
40.5191
-5.80058
-2.45717
4.83008
49.735
2.93712
-52.6141
-49.1215
10.1872
19.3575
20.1663
0.258573
-75.0413
0.227239
-21.2022
27.3762
10.2904
27.9805
2.23283
17.1475
-73.2805
7.42344
-8.75905
-0.102454
-3.95513
6.97065
29.488
-1.92252
5.29044
-9.30213
35.1202
3.17978
-76.8896
-40.2384
-6.55497
35.4474
-0.972594
-100.359
8.55014
32.4499
13.9552
-1.52375
2.84054
-56.5036
30.1806
-7.19589
7.44073
-6.2688
-28.6142
34.632
27.1644
0.16922
3.97802
-7.53772
21.0138
35.5042
-23.03
-62.0254
-11.1981
25.7918
-7.2957
-1.4031
37.3259
-3.3001
-115.914
14.5849
-18.3407
27.7719
-8.08141
-18.5799
41.8101
-88.0249
36.3037
-1.12016
5.65961
36.6839
16.817
-24.3581
19.1754
2.54873
35.0628
-108.614
30.4525
17.1785
-17.9014
-53.1574
17.1758
-75.1366
43.8956
26.4603
-33.8445
12.7775
-70.2643
12.6126
5.11404
10.3918
-24.2292
29.0746
-147.018
19.2359
-71.3593
17.7758
-73.6746
6.3439
-94.8031
27.7257
-128.272
28.8965
26.5868
-7.71509
6.88513
37.4847
-15.8343
9.44319
-54.4182
-17.2896
2.03319
-45.357
25.812
27.4839
-56.1027
-76.927
-61.4501
-17.937
2.56363
-0.961921
27.7832
-85.4333
-75.501
29.1652
24.9453
-0.181764
-2.45336
-7.18989
7.23939
28.0982
14.7105
-8.34128
-61.9917
2.25804
14.5319
-2.92612
12.5522
3.27183
17.5548
-17.9246
-2.10413
-34.2478
-71.7007
4.1633
17.6117
-103.425
22.8436
-65.905
26.8355
30.1855
6.25557
-3.22031
-112.906
27.1063
33.454
44.7094
3.45734
22.2468
25.5298
6.92945
21.5818
22.9431
21.9031
-0.144371
35.4769
18.8175
28.1351
45.0869
18.7664
17.7961
-150.617
7.59797
33.0765
21.3353
17.574
-74.1694
0.181279
22.84
43.5777
-23.2981
-101.58
22.1758
6.45108
6.72674
-68.4449
27.9216
-0.129246
-53.2147
23.7073
-20.1195
-21.7134
13.6598
-1.17259
29.594
26.6583
-7.40865
0.077016
-1.43718
-46.1115
35.2711
23.9481
1.42181
22.9757
-2.21536
-74.2471
2.08986
24.1635
27.0243
-173.116
-101.554
-33.2609
27.5699
20.7985
39.6549
29.5803
-46.7168
12.839
5.04028
17.4802
-54.9902
-55.338
34.1668
-8.63494
13.129
36.7748
37.4172
0.150526
-74.145
-74.076
-56.8361
-18.5147
-55.6333
12.8383
26.9044
-11.6025
19.8817
-16.0509
33.0684
-20.3016
23.5859
29.875
16.7168
-2.21448
-10.9956
28.1049
26.9304
33.9799
-73.8301
18.0816
-50.1355
17.2311
27.3465
18.8056
43.6785
18.5115
-5.07082
-3.26071
8.38399
27.4445
-65.9869
5.82194
39.1934
26.9056
12.847
-1.13856
15.9546
-18.046
39.4691
-105.233
20.4704
37.4428
-53.613
-8.51609
-52.9173
-11.2874
-16.8635
32.1954
32.6982
39.2825
-33.7356
-1.87361
-74.1527
18.1721
27.1986
-9.85734
-9.46314
26.3371
-75.2246
-73.5415
-56.4412
-56.568
5.26398
33.4887
0.276531
6.13842
-70.1031
25.9028
0.660628
47.0896
37.2156
29.1048
22.9505
0.49583
0.193128
44.9148
7.23506
-0.400395
-5.56539
28.2322
-61.6086
6.71682
19.8498
-0.474072
-4.41197
30.2842
-20.9827
-58.3326
18.6561
-58.2238
49.3741
18.8643
24.0651
29.4405
-72.0109
7.03256
40.9239
16.6805
33.6721
14.5215
9.8453
-100.739
2.59353
1.72669
-64.2189
27.5573
27.5547
-74.5324
0.219581
-0.60126
37.7203
32.2827
12.609
27.9712
24.167
-3.93119
16.9073
24.2611
-49.3539
39.1062
0.55735
-8.25907
40.7438
20.7773
0.0514404
22.3981
-115.25
-75.8968
15.1335
19.0117
30.5038
37.071
-72.2517
16.2513
-72.128
0.319051
36.1702
9.56816
-73.7768
-80.6303
14.9474
12.2234
24.4083
-52.0854
-9.26181
27.9269
35.1336
-14.6561
29.0798
-60.1179
-74.1475
-14.074
12.4117
-74.1178
30.4542
7.17563
-80.0292
25.924
31.9008
-25.0181
-72.4586
24.183
36.251
11.3094
38.3377
6.87789
18.8773
8.55447
30.2033
2.60655
35.5512
-67.2353
13.239
27.2187
4.64935
-14.2223
27.1488
-52.8606
7.23143
33.2109
39.3071
-97.8641
19.7739
10.5768
-3.25673
26.8289
20.7095
10.6895
-71.8443
3.66933
37.9478
7.23082
6.43377
-51.6758
39.4245
-9.06731
2.31196
25.9672
22.0693
3.49188
12.2402
24.5856
7.34274
-12.2597
11.8971
-14.4098
38.6086
27.8032
22.7301
23.3682
-25.337
-18.1208
42.3233
10.4718
42.4043
-117.074
27.7845
0.378088
-52.1672
18.8777
17.0023
44.0766
-61.0444
20.3475
21.91
-24.1825
16.8024
-65.3799
-1.16278
28.4673
-72.649
-12.2947
-20.1395
5.57772
4.45902
29.3402
0.185918
41.4956
28.7395
-5.20043
-73.8441
-5.44088
10.7771
-76.8824
2.09524
-64.1248
36.2275
0.0295956
1.95243
-75.2631
39.8407
0.563132
-15.8473
40.7599
24.0488
-74.1461
-15.6736
23.3748
5.42415
26.9317
2.80583
-89.7069
11.7568
27.086
10.1765
25.4717
41.2063
2.62009
-87.6394
27.0537
26.348
-0.609134
22.9493
20.6282
13.7419
-74.1465
7.16117
-173.669
6.07863
36.1032
10.3618
6.66381
6.87953
4.19799
4.76064
27.4662
-0.749484
26.0445
27.8707
35.579
-121.234
-5.59963
42.1121
1.29202
-75.3058
29.363
-17.3993
29.9848
2.90863
26.0688
-13.8788
-54.714
-28.9044
0.177178
-59.8819
15.9736
43.1062
4.23025
-52.4441
-4.24308
27.739
-131.754
13.6032
-76.7703
42.6183
-73.937
18.7346
-10.5757
16.9775
26.9289
15.8771
-30.504
-62.792
40.3928
26.6906
16.0225
26.8977
10.9177
24.8931
24.3025
17.1637
-48.0096
10.6399
32.7217
20.7231
-19.747
23.9541
-75.7634
3.78207
-14.0263
29.7833
28.3303
-97.9028
7.57093
-74.0825
-65.0234
7.22157
5.10432
-0.983833
25.9844
4.59422
-11.1646
31.6629
-62.7102
-45.0733
-70.7103
-6.31814
-96.2283
-28.2587
-183.566
-70.4543
27.0203
39.7313
-0.269966
-36.3781
40.7789
38.756
-99.2292
-37.5422
28.8528
-48.4713
3.49087
-134.761
4.89477
19.3579
-59.1452
13.2455
19.0453
-5.16142
-49.167
-28.2085
0.765288
26.0528
16.5198
21.4864
-90.9666
24.3938
38.0061
-73.4402
-69.8877
30.5058
11.7561
22.1747
-76.705
-4.91454
-86.7564
1.09399
27.9523
42.5314
30.3167
-32.9913
1.77944
27.17
37.2791
8.70881
29.5103
27.8672
38.5722
21.0756
-166.206
6.86928
6.71
38.0751
7.59407
15.9849
22.5462
12.8959
10.5634
1.6589
-16.9692
25.8343
26.7156
19.6629
14.6943
-59.0605
-2.15722
5.39013
19.5147
-15.5605
1.52004
2.96299
-69.6341
-80.771
15.6333
-5.44888
-53.2602
-47.5902
-14.1367
21.9655
-74.5946
-76.4331
30.4579
-113.548
39.4604
-116.107
-53.3779
31.6643
36.3652
-1.04995
5.39851
9.46237
27.6574
18.605
-31.5365
4.50017
-3.24034
-43.2
26.0118
2.1423
17.0695
-144.827
28.3608
-66.6124
2.6699
-0.0479793
32.7587
-14.1857
-78.9023
-51.2111
39.2202
-135.267
-88.1978
-83.2615
27.8292
-78.7999
-109.3
10.1282
19.9861
-48.2198
22.9207
-43.9
23.7113
26.2465
31.5624
13.8931
-10.0606
1.64086
21.1326
-0.661463
32.0533
20.6936
-2.8852
-31.5769
13.3693
2.19262
-1.88161
30.2386
12.3673
23.5675
26.9799
-87.6574
25.1953
43.6621
1.55093
-21.4131
19.2217
-10.6615
-26.7213
6.00726
-70.9036
27.93
2.56111
1.342
2.45421
-112.035
33.8982
-74.2564
0.0924341
27.0664
-10.233
36.1551
30.3567
35.0018
10.6108
19.7193
11.1295
6.28323
22.8755
28.4274
-52.061
4.41462
-49.1225
-3.33373
-74.7104
28.3659
-47.9125
-30.3283
-69.799
-36.5536
-0.462056
27.1521
0.463314
2.1498
-52.0058
27.0501
43.2573
-9.20014
-96.6247
16.6622
-61.8619
27.9019
-6.35588
-102.166
32.3246
4.0713
41.2646
22.7096
26.9747
-4.13019
34.159
3.58039
30.4669
0.393436
-25.7067
0.385627
-62.2664
21.9876
-28.3599
7.89389
39.4178
26.9584
28.7056
36.6029
29.3012
32.6925
6.61428
29.1101
26.9788
28.0993
5.27222
-3.61885
-11.0563
-3.17222
8.3737
30.501
-53.2332
42.7519
-11.6669
2.57857
42.1922
36.7268
4.34319
-43.8388
28.9272
15.7435
8.79932
27.2861
-53.9395
-4.34132
26.9203
35.9286
-99.8603
30.0991
33.8991
0.146768
-6.5993
33.8222
16.1892
-2.03351
-72.4732
6.84785
-16.4982
25.2907
23.7804
-21.7504
-76.7216
-9.76047
10.7541
-17.9108
10.3728
37.1237
-8.19776
46.4792
28.4055
13.0179
30.7628
-74.1553
-50.4106
-80.073
27.9188
-81.5288
-53.9176
-97.6773
14.5471
17.3941
-175.285
21.049
-43.5705
20.4469
-114.009
-142.506
25.3056
11.4485
34.2625
27.7249
28.0715
28.1065
4.22351
-19.7018
-14.0684
7.0309
-96.7458
8.875
25.0528
-120.12
-8.66124
-21.2447
-23.7767
-76.4058
23.2227
15.1469
3.28487
-10.0417
18.3174
-10.6506
-19.0258
5.48719
-22.363
30.0917
20.6994
33.8654
-54.9755
24.5993
2.73314
36.0384
6.79723
15.6468
-113.897
0.819266
40.5752
41.8897
25.203
17.4628
19.4559
26.9605
41.0196
22.1626
-21.6775
-75.7754
8.35822
-8.09755
-52.1526
26.9868
27.8165
-44.3196
10.2046
23.7212
27.1019
44.1438
-57.1626
21.8174
-56.8022
9.71483
36.548
7.07087
25.327
-90.582
19.0868
14.8715
45.6906
-8.88988
-10.913
14.8256
5.95503
-74.0989
-53.1545
-103.717
29.488
-2.47049
18.3599
38.7013
36.1167
4.43604
-29.1048
-12.3441
7.84744
31.3777
27.6056
35.9814
20.7252
-87.9279
37.3814
26.1572
-27.6527
23.6705
27.5489
33.3051
-95.6309
-30.5871
0.105645
23.3223
40.3222
18.7343
-33.7445
-16.8623
44.2417
-75.7919
-17.2163
41.5988
23.9871
-24.445
24.9481
-75.6351
21.0247
-9.42555
-76.7388
-178.06
-76.1728
4.39944
1.6134
-50.8027
-60.4237
-52.3609
21.583
-56.2429
-74.1876
30.9115
25.1112
16.4651
-43.9056
11.6946
7.49142
3.94977
46.2001
21.6115
-12.0893
23.9801
-0.477518
-75.7039
23.8986
23.4277
27.7644
46.6915
0.337781
7.22564
-33.3874
7.48091
22.2508
27.3211
-4.23654
37.6641
20.3762
28.6605
-107.969
1.31469
4.00385
28.9121
27.3115
29.2155
27.0306
43.0747
42.6983
-1.32334
24.0752
33.4155
-11.5788
35.9997
-18.4606
42.1656
35.8489
4.28105
30.0492
15.0953
23.6642
5.64225
27.2602
-18.576
26.4427
19.0599
20.5654
0.210411
27.595
-13.2775
7.46999
40.9669
40.7344
22.6022
-53.3807
10.7254
5.36237
9.8965
22.3231
37.4523
-53.715
28.1172
27.8658
17.7873
28.8554
-73.1718
-83.6368
-24.0314
44.0295
19.016
-11.1691
30.2995
-0.157279
1.80084
14.59
7.79763
21.1997
13.1198
-4.55251
20.6769
24.2561
21.7025
23.196
42.7818
36.4139
32.8774
43.1403
40.6172
20.0461
-13.0398
-70.3378
-13.7342
40.509
-119.815
28.6696
26.6995
-74.1811
20.5717
30.3513
-44.4687
18.1058
18.9189
47.202
-68.7315
16.2093
-27.6445
30.7141
6.59394
-92.5383
40.0106
35.2886
28.0372
27.8473
-9.94371
13.5116
-65.291
42.5429
0.943077
45.397
-0.497414
-38.2755
-51.9787
16.8199
-53.4735
-4.07252
-13.1794
11.2265
-15.7891
11.0569
-88.1756
0.0567735
-39.2625
-55.4268
-8.58205
-31.991
-10.9628
4.49948
-65.012
-77.9263
28.3229
28.7531
34.1665
26.4685
16.0759
14.7591
49.6415
28.2518
-66.2101
0.307718
1.57929
21.3202
26.5547
37.5629
-16.2009
-16.3282
23.3634
0.0418157
10.7798
32.5386
-55.0585
-74.1913
-63.586
43.0277
-77.6513
22.9262
33.7512
-4.13631
24.5969
-14.2342
-71.55
-70.7073
-2.22077
19.1901
31.9204
33.2693
-34.8787
-54.5187
20.0363
-62.7358
-7.98421
3.96854
1.95063
-11.4525
-23.3365
-82.8001
-69.7001
-28.9698
38.7857
-76.8774
41.6106
-74.5064
-2.07388
16.7969
-107.571
36.5521
27.2729
31.2234
-7.99489
-10.467
-72.2624
35.6418
-52.8469
20.5659
-170.097
31.5891
36.5151
-176.258
27.7059
40.2873
30.2476
29.6277
-31.264
-80.9171
16.5674
-16.5032
-27.5039
20.8576
21.1453
6.63075
-74.9821
10.2219
-0.620402
25.0192
22.1569
-6.64161
42.0664
7.49052
0.173329
6.34745
26.2902
-31.1658
0.441293
30.1617
-6.43098
6.40482
-1.47991
28.8034
26.4009
25.3184
-22.6734
25.4871
30.5231
30.9823
-1.71102
2.71744
9.161
26.1785
-16.3992
-47.478
-92.7312
-23.0722
-76.3215
0.524458
-19.6091
1.90802
-54.6661
-11.2268
-77.4772
-0.264642
-16.1975
11.869
-73.0769
28.7174
49.966
11.8284
-40.9289
14.0716
6.43975
10.5987
0.927059
-6.35805
-67.8066
7.19552
34.6421
-0.0230397
39.762
0.933924
25.2489
24.7608
17.0704
-50.9209
18.0943
43.1829
-60.132
26.3955
26.0818
37.5415
6.68116
35.2093
29.1946
-51.8459
30.6702
-69.0461
-70.1995
35.8133
24.0325
-29.6028
8.05424
33.8093
5.12383
-52.4035
1.99832
2.62564
21.8472
15.8725
27.0658
26.5331
25.9071
-32.2612
-9.05044
-1.34727
26.4743
45.5196
-8.22171
-76.2373
-51.0743
27.73
7.10245
6.65948
15.7833
-47.9358
24.4989
-8.91813
14.7851
42.1327
13.1149
-139.62
-92.1197
-76.6153
-19.8211
-57.6769
-27.9955
-74.3238
31.1045
15.6869
-10.691
40.3287
0.33482
-72.9967
-30.619
-70.1373
30.0326
-48.0282
10.9476
28.4785
-18.6742
-1.90388
-42.8715
-67.3113
-118.65
28.9073
-78.0048
-18.6211
-63.8995
26.0987
29.5138
-78.0331
33.4495
31.7846
38.5367
39.3258
30.4763
7.61129
44.0881
-63.8773
27.5362
18.8703
-75.3042
31.6375
-95.0915
38.3732
14.5183
-19.5148
-41.6075
-42.3677
28.5853
-92.8851
-31.3669
4.38519
-6.42036
-123.358
17.7063
7.79668
23.6269
43.0114
-53.065
-27.8863
5.44339
28.464
21.4259
-21.1789
49.3747
-22.456
-0.269349
19.2745
-15.8335
25.7353
29.1059
31.4191
31.0064
-139.582
20.8529
27.9272
9.76644
-15.4746
-0.028625
29.9009
30.5862
35.6753
-54.5006
6.47519
15.7805
17.3314
-3.59133
-63.2945
22.7106
-77.2043
23.8593
27.7742
-61.0375
39.7045
-41.5678
42.4317
31.1572
-75.2338
0.514377
-2.86869
16.4557
28.2237
-71.9855
35.2809
25.625
17.5136
2.36422
9.86213
0.331289
16.8702
-62.1909
20.5163
-121.432
26.4125
-44.0881
23.579
-0.193383
32.2882
36.6483
18.41
-44.4751
14.7927
8.93931
7.28491
16.3847
-9.38283
-40.2759
41.6883
-6.01159
-72.9629
-17.5368
-71.7532
11.1211
26.7243
-61.5621
4.13354
28.1072
22.3035
29.3492
-74.9153
16.8537
41.9899
-31.5333
26.0747
13.235
-1.90873
11.1252
10.1135
5.95556
42.7045
31.3188
-17.0256
41.7416
34.2327
32.0008
-60.2652
-44.1316
19.7459
-20.7138
9.85603
-48.1122
-18.0049
-43.5902
24.8869
14.6949
20.9712
22.5631
-1.8899
22.2845
26.3919
-80.8118
28.7873
17.8271
26.6362
10.0838
-0.569763
-78.5471
-57.6704
-75.5556
1.63099
26.1731
-79.6067
38.876
-74.2008
25.8495
19.5687
-24.6015
18.8052
29.0228
14.6762
9.13662
26.84
8.90631
-73.2266
37.032
31.0763
-21.3078
-58.3061
23.1519
24.0778
4.22278
13.5522
-33.1951
3.70506
6.57547
-16.68
26.3407
23.9885
-46.3717
14.5411
3.62497
-12.9867
-74.4491
31.9924
-76.6328
27.6711
0.106589
23.4882
29.6081
16.6932
27.4358
22.907
-90.6344
-48.1753
-44.7828
-90.9895
-37.1749
-88.4972
3.9433
21.9099
2.29758
26.199
-46.1881
-52.6049
-27.1805
-19.5332
29.3758
-70.6419
28.2129
10.5777
-65.3305
1.78807
-76.7544
22.9554
26.9913
-18.2187
8.17364
-49.2927
31.2468
2.10065
13.0951
-74.1865
33.196
17.6497
0.906931
29.2617
29.2497
32.5112
19.7149
32.0466
-32.9949
-2.62241
-39.3042
26.7365
18.289
10.9571
9.71821
-52.1401
-73.5609
20.9696
6.40161
-72.8041
41.3603
-34.8061
32.119
23.4065
-34.3548
1.81411
1.18759
0.895139
6.09204
6.7883
25.4258
-35.8794
27.1097
-27.9212
13.7296
-41.4037
19.0278
-55.7528
32.7976
42.1409
29.6855
17.6904
10.7926
19.3806
-65.0807
-26.8203
-27.7823
8.70702
-28.9617
-76.9894
-60.7658
-10.193
26.6618
27.4578
-49.0535
10.9919
30.0719
-10.2326
-26.7857
28.6771
-10.4551
-76.9958
2.26137
-1.32384
0.193322
40.308
-32.5421
27.4029
-16.6999
-10.3495
-9.95154
28.2903
17.7704
25.0751
-10.8766
-14.2538
2.85536
21.4056
30.3707
26.4627
7.96823
-61.3832
-0.0561465
43.5638
-38.6121
31.1463
32.8676
5.29975
1.90143
16.6611
-48.7837
5.18052
23.8214
17.1567
28.022
-84.4356
29.1249
6.30986
36.1742
23.2153
24.0991
33.0736
22.8022
4.33976
-74.1836
10.8278
-68.7845
24.1878
14.1575
32.4059
5.67777
38.3722
7.69567
40.499
-68.4909
33.2699
0.919356
24.0184
-102.622
25.8998
18.0906
13.8817
39.0908
26.7506
8.06128
-9.02827
19.8537
25.419
-15.9854
-57.5837
23.1479
-3.79153
33.9872
-76.6127
39.0537
9.19413
49.7666
39.1201
21.8578
19.7682
-105.209
5.05489
41.3366
4.03846
2.42266
10.2371
42.5938
15.5121
26.0587
36.7595
-11.302
29.6817
4.46639
31.9823
2.1374
30.4868
28.7816
35.8818
1.18396
-52.891
12.0288
-76.2885
18.0374
7.85285
-12.5488
33.2641
37.1612
1.09627
14.5108
5.10726
34.1795
25.319
27.1948
17.6365
-37.5404
-43.2314
-79.5106
27.564
-27.6907
-74.4932
13.5402
23.3485
17.4204
-9.7971
43.0341
-7.31606
38.8562
12.7682
40.5769
-7.02793
13.8501
-12.2806
3.83398
25.7311
26.5793
-17.9312
-73.1994
-79.4357
-79.1116
37.0447
-1.95059
3.68915
-5.57843
-73.086
11.0098
32.4852
19.0188
-6.3879
0.708363
26.8305
45.5349
-76.1994
1.75647
28.0189
-31.5955
14.7843
-190.483
21.2412
-71.8234
-38.7533
8.93637
-86.5066
1.18156
-1.36553
-47.0596
-55.91
4.54944
21.8671
29.5203
23.7071
44.4547
-81.6068
41.7184
-44.5094
39.5916
-71.4116
-13.0676
43.1634
13.1966
-70.8674
27.2434
5.11711
29.6919
-14.2261
-63.456
8.02991
-8.35125
-13.8549
0.26575
11.9693
12.5521
32.7874
-72.3248
13.4089
-27.8682
9.32317
-9.9865
-16.6676
-5.4799
-37.698
-23.0882
34.5733
-11.0638
37.4644
14.3525
-69.9009
11.883
-12.8842
-11.246
23.5862
33.1542
44.3985
21.0346
23.6241
19.2697
-53.07
43.0769
45.8035
29.0426
-9.16941
-83.4118
-69.6773
27.3171
21.7818
16.1739
24.506
-110.056
-12.5953
-86.7084
38.219
-46.7151
6.27753
-93.6232
27.312
17.5775
48.6162
45.7943
26.6823
8.82297
19.9295
-37.6737
14.3317
46.7624
15.3419
-9.4886
23.1692
0.366183
7.14467
0.11147
-3.91017
10.0423
-2.56367
16.5884
0.64148
10.9617
36.0288
10.4155
29.3895
-98.1339
-4.82732
41.8845
-52.7719
9.20352
12.809
13.6594
10.7487
-76.6947
9.4672
-2.59942
-7.23236
48.9027
-52.1472
-46.8325
-43.2236
-6.52598
17.8762
12.457
-76.5765
-42.0579
0.908469
-38.8854
-11.4336
-15.8019
10.6605
5.03462
5.74135
48.0901
6.14058
11.7833
0.457621
8.14368
-55.1752
0.825403
35.2511
27.7868
12.2075
-77.6133
27.6088
29.3095
-24.226
-75.8215
-38.7822
34.9877
-10.4572
25.112
4.38182
38.776
2.28697
-102.793
-81.264
29.4184
-6.49891
24.2284
-11.4758
46.4757
-78.8551
-2.06215
-76.7516
15.3149
-79.6708
-14.714
-81.5085
7.7063
14.4975
-79.8369
-28.6384
3.41451
1.20608
-21.3374
-11.6679
24.9332
-68.2015
26.3171
-84.2656
29.7681
42.7628
26.7757
-55.8856
28.3881
6.34159
7.10161
4.71853
-5.69624
-61.0615
-2.68631
-0.770693
14.4308
3.80935
-4.76566
13.8154
-96.0769
18.1061
26.864
-4.94233
-77.2981
-3.29964
0.214315
-79.4443
21.5275
-31.4621
-77.7812
27.0702
-48.3617
17.8118
-20.0815
-106.799
-73.0555
-83.7235
48.15
14.6245
-14.0373
13.6911
40.8549
41.9981
-101.829
4.27403
26.8031
-11.3322
-2.46747
41.5727
19.669
24.8028
49.3148
-1.55689
13.0845
7.18271
37.7518
27.9215
28.6949
32.8123
20.1017
1.68138
4.71936
14.275
9.02432
-55.9868
42.3773
3.74145
-4.92448
0.789692
-19.4385
19.4659
-97.9758
2.73352
7.56956
29.2995
28.8522
30.9071
-63.9253
37.3125
41.487
-51.3745
21.4844
-3.69767
-34.4933
11.6876
17.0449
1.24413
-10.4671
1.97043
45.4815
-68.8773
31.4204
28.0927
34.5796
23.2903
24.6416
-73.8521
1.34416
17.919
-14.5046
-73.6937
-27.2654
6.31855
-77.3874
32.815
-83.9031
-44.693
8.66201
-50.6825
-91.7018
-61.5322
26.4428
4.27667
-19.0257
13.2432
-48.0301
15.0802
-52.8983
-8.78603
29.3804
-71.8387
42.3645
0.738481
44.8627
0.110634
-27.0399
8.8609
23.8806
26.0448
-33.2715
13.0424
0.542365
8.42207
23.3458
49.8463
34.5679
19.5094
-9.80627
20.8262
-116.945
30.8786
-74.4844
17.2185
-89.8455
-87.1048
-60.3626
12.2545
1.64206
-59.6159
18.6106
21.8197
41.1556
43.7632
-58.6523
-60.2917
-22.7233
-15.0732
42.8135
26.2698
-2.28401
13.2907
20.414
-120.846
4.67538
1.39749
2.89541
26.0088
-119.954
13.8132
-18.0967
-11.3973
-31.5127
-1.28336
-31.0062
-28.4599
30.3787
-97.7375
-102.597
2.55201
-63.8627
46.0389
21.8697
25.395
-8.47329
19.6841
2.1789
19.5938
10.3926
-77.6817
-44.7385
42.7238
29.0667
3.38655
-53.6143
47.7169
-88.0198
-45.8976
-85.4721
19.7687
-79.8332
-120.024
37.8439
2.35835
27.1279
12.6929
-75.9457
2.57079
-10.146
17.5467
-31.7184
3.86291
11.4211
28.3892
-76.7304
-50.4585
22.5308
-3.54422
-17.0417
-16.7953
45.0521
18.7445
-73.9775
19.3865
9.4867
40.3474
21.2667
-47.5767
20.4767
33.047
29.5725
-9.58539
24.2157
-72.513
42.4736
1.53626
27.445
-73.286
-8.71029
0.275228
-92.7924
19.412
11.4071
-49.721
-78.2551
32.0362
-65.9693
1.37578
35.9582
21.9154
35.1907
25.1288
-14.938
0.833861
4.29577
28.4512
0.146499
32.9334
23.0624
41.9646
-77.9803
34.4579
15.7941
42.2545
-73.9181
-10.229
43.1276
-80.5801
22.2431
-69.4772
38.2937
41.7209
29.283
-24.3084
26.5715
34.1135
-20.5272
14.0863
-111.501
35.7792
-82.9548
-50.3694
-63.1915
-65.0505
33.6317
17.2096
-67.739
19.8381
41.6302
-3.98367
1.49483
-66.1441
-14.2475
24.0957
5.36045
25.7409
27.6083
-66.7412
46.2663
5.22867
36.4507
36.5189
3.85064
-0.21173
26.3911
-26.2201
5.63703
25.7045
23.9904
-3.83704
27.6828
-73.703
39.9775
28.8696
17.1445
4.97765
30.0425
-101.969
18.1777
34.5745
9.99641
1.04456
33.8292
29.81
-10.9929
-53.5815
22.8315
30.7445
42.2673
-51.6995
44.425
44.4876
44.8804
-70.8633
33.1967
-73.972
27.1619
35.0266
34.0769
30.5591
37.5017
48.5445
23.8461
-50.7146
7.01785
-40.4686
48.206
19.9417
-76.8837
-77.1984
25.7654
37.483
27.5192
15.7516
8.71084
37.273
-42.8361
29.6879
-77.8798
13.7517
-14.9281
10.8929
22.1995
-74.0417
-74.2142
-0.779634
-2.3858
-69.8036
32.6986
0.252203
6.84161
27.4825
-90.5361
19.2597
0.117038
-76.5156
-72.6362
-49.4538
36.2206
38.2742
-86.982
19.6648
33.7659
31.5566
0.995237
-63.1694
30.317
-54.6817
35.6443
-63.8797
34.8166
18.5878
6.75639
32.8099
22.0729
34.501
15.816
14.3396
-6.56151
-56.0414
-102.748
-8.65173
34.0183
-67.2946
-117.806
-60.3686
36.9941
34.2059
12.7132
24.0728
36.9943
-28.5338
27.9226
-24.2434
-9.47501
27.7914
-105.638
-67.079
-15.3544
-59.0628
2.93905
-74.3865
-22.9056
-71.1209
-53.4486
25.4167
42.5907
46.1323
40.7739
-71.0503
29.8113
-74.0025
27.3313
36.6609
7.29312
33.5668
-56.2871
15.1493
-8.20085
1.86095
35.6879
-7.43338
31.0059
-64.3182
-1.63315
-60.862
30.9235
30.8998
26.7275
-70.8246
27.7253
-22.2657
-66.0576
-66.4105
14.9647
42.9373
-32.9783
-4.86326
-78.5407
27.8193
25.9126
5.18595
17.9354
-70.5492
37.404
35.3318
-119.872
-0.629244
36.7771
-107.914
-83.2087
3.61108
34.1606
37.5683
-73.4073
21.6819
2.40181
41.928
-70.898
-44.5186
1.70697
39.8408
3.30426
-5.21059
-78.7753
35.4704
21.8903
35.3177
1.04628
-30.5033
30.6174
47.4485
-51.9102
25.3319
2.87893
-66.397
3.22436
14.8289
-76.1756
21.0607
-71.8544
18.6166
-112.07
-15.6192
33.0799
37.8053
27.558
-24.5325
-35.474
31.0554
-68.2537
18.3486
-10.3447
18.8645
-79.9097
28.5542
31.2747
2.8265
29.5732
41.6455
-27.8045
23.8396
30.668
-65.1764
17.9433
-5.43926
19.34
15.5391
21.9333
0.272862
14.4169
5.59175
-24.865
36.1238
16.0919
-3.18677
-101.69
2.65775
28.2302
-72.3913
44.7875
-69.8719
-56.4541
6.91027
33.2869
31.0676
34.914
-41.8722
40.3596
-75.6806
22.9762
3.29098
-80.2521
25.0855
17.5154
3.43468
22.9759
-43.4462
22.5935
-60.587
-103.322
-0.0417398
-53.6976
-63.8636
26.0116
41.1188
-9.51323
-74.0675
33.8366
-39.0122
38.1038
14.5305
4.07035
19.0395
27.1648
19.7484
-94.0873
24.4936
3.07715
10.0481
12.6416
-95.5711
-81.3001
2.63721
18.567
6.34803
48.4427
29.8297
27.2444
38.4468
7.9351
29.8398
-49.1132
-41.6939
-87.6789
26.8917
47.4784
27.4125
-11.4545
36.1201
26.316
27.0319
-24.135
3.01728
18.9303
45.0672
17.5765
-15.2264
35.3439
36.7599
28.849
28.4628
32.5799
23.0631
-41.7983
-70.9293
30.3886
-56.1969
-50.1358
27.5429
-78.6046
4.51969
14.1232
29.6299
30.2957
31.1297
3.03546
34.8271
35.4427
11.3852
32.0453
29.3906
27.0138
22.3741
20.4445
19.5232
4.45944
33.444
31.7436
-147.255
26.3224
2.66957
-21.6446
40.8098
32.826
0.5572
-74.4062
-40.0187
33.5368
22.7074
11.628
-19.0539
7.77793
-70.5363
8.65626
-75.2763
-0.418612
21.676
-27.7802
-57.2233
-71.1154
39.1177
-76.5084
-40.8521
-74.4677
41.2331
-72.9049
6.06474
8.83298
-67.1794
22.9598
25.3969
21.1044
37.2809
24.7314
3.89307
-43.9386
-74.1821
1.40736
30.5278
-113.188
-73.3609
-70.8847
-30.6267
-41.833
-75.2683
-43.4958
7.35903
12.0471
26.5361
34.1318
-24.0782
-35.1461
37.3871
30.3964
-73.2966
3.80987
-41.139
21.9633
2.46782
19.3116
23.1722
-60.8297
-69.7191
-72.7964
10.4874
-71.3969
-47.1265
7.33806
-63.4166
-56.7599
-69.5593
-73.5322
6.85134
-37.9961
19.1921
-72.7324
26.6494
24.0934
18.1653
33.5667
-73.225
41.3877
-12.0639
4.5701
-14.0834
28.4684
20.7122
-52.9615
-39.5556
27.4144
31.5025
42.6573
-74.6179
-54.9855
-70.2138
6.5581
0.38541
-69.5786
15.9813
-60.3188
20.1744
-73.8342
22.3993
18.283
4.58602
38.1455
26.5899
-5.66553
-6.12858
-21.6868
-50.254
33.7806
46.2372
-49.2563
32.4196
27.3793
0.211826
-7.36045
32.8768
31.5684
-46.4999
-70.8553
-83.1867
-72.6208
-12.4247
-67.1686
-9.39431
19.6288
-87.8816
29.2946
-72.9056
-69.3898
25.3336
-10.4794
-63.6802
5.13096
22.2928
-65.2113
-5.67487
-67.0858
-69.8586
-61.3441
43.2716
-39.5782
-0.133202
-74.6432
29.9628
-62.4859
-74.6129
-41.6443
-86.1387
-7.21792
31.0509
0.602347
-68.1648
26.2249
0.136157
-31.6044
-82.3817
-72.0308
22.6601
25.1681
27.32
-45.5837
38.0621
-28.5479
0.377755
3.46567
-25.9387
-70.1253
-70.2906
-48.6937
5.34737
12.8772
-16.8113
-0.228832
-20.0905
27.377
-84.1237
26.9462
-94.5534
17.9543
3.29172
-64.239
-150.729
49.973
-7.41494
-66.2965
-41.9996
-19.643
26.779
-56.8857
-163.144
1.62941
-70.5559
-74.4262
-53.3451
-64.9307
29.591
-80.6412
6.89058
-66.3343
2.2812
26.3333
3.9887
18.7782
-6.10496
34.3039
-60.112
-38.9213
36.2963
17.6609
-61.9011
-0.402606
-83.6209
-18.6682
-2.71587
33.8401
-96.8314
13.9741
-55.262
-70.4636
-87.6407
-86.8858
-43.6761
18.9867
-29.8143
27.4927
12.9914
-87.4681
40.6605
-69.6956
32.2468
37.4587
-67.1744
6.83426
29.5547
26.1756
23.2733
-43.5695
-52.9411
-48.2259
26.99
10.198
-23.2974
-102.413
20.575
31.0705
0.579847
-62.4067
5.00717
35.8679
-18.9585
-21.5695
-39.0014
23.4869
8.42002
-122.361
38.1688
32.6136
-23.2769
-64.1396
33.5046
15.2694
2.76793
25.8361
-9.73059
-49.1665
-57.868
-58.58
31.7934
29.2296
6.54394
-10.1898
-122.384
-41.1218
30.1607
-67.1112
22.5992
34.5227
36.5197
-73.8363
28.0168
25.8188
29.899
31.4047
1.98287
31.6761
0.247128
27.0419
17.9891
29.4155
-74.0911
33.1002
32.2456
24.3865
19.212
-36.1272
23.2246
0.0569359
-14.1644
35.1663
34.8558
-65.6997
35.6267
-50.1417
-58.2727
30.0957
29.7903
-38.7204
1.51195
-55.7361
-62.6461
-8.50835
-96.4758
-43.6421
-0.723326
27.1101
44.7961
33.2209
-30.0074
-91.074
29.5391
15.346
-52.8168
-52.7078
-39.1736
-19.9088
-54.5595
-58.2783
25.7547
-61.341
13.7667
1.36857
1.24545
-98.5183
2.02522
6.906
20.1414
21.5918
-10.9691
15.7266
-7.83545
-80.1414
22.95
16.1666
3.69056
20.4895
19.6342
-4.66669
13.455
-9.59848
27.537
25.403
39.9665
27.264
-45.161
-1.38738
-9.97651
-36.0219
-15.3494
-32.5146
1.27712
-65.3653
45.4276
6.87112
-47.8373
37.6602
-76.9948
-7.06102
-8.30188
-74.2066
-47.715
14.5563
-16.1589
27.5752
-4.03139
-42.7347
-140.497
-80.1681
-14.9193
-85.2668
-0.549191
21.7958
-78.2577
-89.7491
-17.8423
15.4017
-20.8361
29.5222
38.4835
-39.8629
29.8866
21.3414
20.3856
41.5962
-75.6251
17.7519
18.605
13.3831
36.6629
0.944762
6.89498
-99.0997
29.4252
38.5473
-96.7121
-31.2603
-27.7293
-18.6594
15.6156
-39.7706
-31.3539
-44.0235
13.4553
-54.2611
10.4074
13.728
23.9316
8.51599
-50.1867
-11.1647
-134.198
-29.9377
40.5943
44.7934
34.986
46.6893
24.2373
32.9422
30.3836
27.1592
26.1472
-28.7044
29.1394
-1.52532
-53.4391
37.7033
5.406
-18.6618
42.8163
4.41516
-74.5927
15.8201
13.8186
32.1081
-47.1645
25.1185
40.0822
-76.1867
-57.9438
-25.1685
22.9895
-72.9482
33.8036
0.906375
32.0547
26.987
-84.2782
31.7667
-8.97417
-46.3114
-48.7599
-75.3554
32.1739
-20.9725
26.8059
4.07548
-68.4443
5.05705
-78.0301
-10.7101
-45.8848
-49.5161
32.6646
8.41204
-62.7148
-3.72539
19.2008
11.3535
-66.3296
15.2746
-60.206
14.9962
-65.5029
18.2467
10.0654
18.8018
7.68094
27.5534
21.0443
10.8211
-59.2007
46.5523
-14.3001
-66.4205
27.5618
25.3211
-62.4576
-17.7464
-74.1007
21.2841
20.839
-17.4115
1.52084
-1.20846
46.6822
-59.8485
-79.3666
5.3605
-6.99192
22.1736
4.9414
27.1881
19.2441
-72.2071
21.7255
-54.2345
22.6994
15.3323
28.6689
20.0408
0.306941
0.386734
20.3447
29.6456
12.4501
7.13973
-65.0916
-4.45793
-6.92615
23.7544
-66.1847
19.8179
-47.976
32.0669
-69.7241
-0.951654
34.5716
32.0821
16.7414
-74.7487
-40.4759
30.0638
-31.5409
32.8062
16.2552
-107.805
27.9936
12.2712
10.6182
5.13927
-6.59508
-24.5099
19.6455
-54.3428
35.2302
12.904
47.3518
2.93678
10.0709
32.3218
6.80904
11.5004
29.3114
25.2674
21.4378
-24.4487
-93.8368
27.755
22.2274
19.313
-71.2616
7.04639
-73.7904
-65.9263
-9.18689
24.6339
0.295656
22.5028
3.52675
40.9329
33.4789
12.6021
25.3026
12.1
-60.785
25.211
23.5035
5.4586
16.5057
32.8314
30.4821
-16.9815
-65.6768
-26.3885
26.5721
19.8269
-90.3885
29.0343
-73.6066
26.7287
-35.9294
28.2515
14.7374
-22.8801
13.873
31.425
5.69724
28.9737
34.1069
8.41464
-3.76472
17.758
-0.830881
38.7601
-90.1244
35.9146
31.5229
-71.322
-32.8627
0.788086
-6.597
-74.3849
-111.038
26.0593
36.1466
29.7644
36.6226
19.8014
34.0849
13.72
7.60106
14.6082
4.98903
6.58329
25.5679
-0.531694
37.698
9.51183
-63.2732
20.5172
37.4156
38.8428
-84.5509
21.2443
-38.8816
-53.2713
15.4503
25.2654
-83.1744
17.0427
39.428
-52.3289
-76.1884
-74.7198
13.9288
6.25878
7.67179
27.7545
28.1889
-28.7092
4.02079
-24.7719
-73.1336
25.6081
25.4494
26.7402
20.8861
11.2176
21.9268
6.1272
-48.3866
19.4211
25.9897
20.621
22.3441
-8.40596
3.28828
-3.24222
28.6416
-83.5538
11.5154
33.0918
24.8282
-10.5753
-72.3945
-73.5259
-14.0166
19.5608
9.12468
-36.5701
27.4942
20.9465
2.73792
-8.37664
4.07762
19.0072
-65.2945
26.8976
19.8193
-10.2899
15.235
-46.6273
17.9546
0.772027
7.682
24.4732
26.1356
31.4102
6.86548
16.4859
-21.5745