/*--------------------------------*- C++ -*----------------------------------*\
| =========                 |                                                 |
| \\      /  F ield         | OpenFOAM: The Open Source CFD Toolbox           |
|  \\    /   O peration     | Version:  2306                                  |
|   \\  /    A nd           | Website:  www.openfoam.com                      |
|    \\/     M anipulation  |                                                 |
\*---------------------------------------------------------------------------*/
FoamFile
{
    version     2.0;
    format      ascii;
    arch        "LSB;label=32;scalar=64";
    class       surfaceScalarField;
    location    "4";
    object      phi;
}
// * * * * * * * * * * * * * * * * * * * * * * * * * * * * * * * * * * * * * //

dimensions      [0 3 -1 0 0 0 0];

oriented        oriented;

internalField   nonuniform List<scalar> 
20045
(
1.06095
-1.23202
0.171069
-2.23974
0.92284
1.3169
0.390292
3.48634
-3.87663
-0.65155
0.84784
-0.19629
-1.71988
1.73067
-0.0107888
-1.0834
4.21299
-3.12959
-2.10043
1.11039
0.990037
0.156428
0.902305
-1.05873
0.960459
0.951954
-1.91241
-1.4174
-0.381424
1.79882
-0.0743924
-0.471954
0.546346
4.62383
-2.52758
-2.09625
0.841918
-0.825694
-0.0162241
-2.40841
1.93743
0.47098
-0.834142
2.35256
-1.51842
-2.0742
0.656804
0.0184291
-0.199621
0.181192
1.44752
-4.04203
2.59452
-3.6265
5.13738
-1.51088
-1.51234
-0.0490086
1.56135
-1.03299
0.917516
0.11547
0.305801
0.536117
-0.429388
-1.81035
1.31107
1.93552
-3.2466
1.71556
0.233556
-1.94911
-2.09001
3.40109
-0.315095
0.377466
-0.0623705
-2.20214
4.32967
-2.12753
3.41883
-0.0154589
-3.40337
-4.26233
2.43267
1.82965
-0.893143
0.869408
0.0237351
3.36386
-2.26959
-1.09428
-1.42837
2.94414
-1.51577
4.71745
-2.75501
-1.96244
-1.16891
1.32533
3.83616
-1.87332
-1.96284
1.82335
2.46558
-4.28893
-0.142878
0.850801
-0.707924
-8.42351
1.00233
7.42118
1.38561
1.00752
-2.39313
0.104929
0.853324
-0.958252
0.390853
-0.542572
0.151719
5.35805
-5.34671
-0.0113435
2.86406
-0.944149
-1.91991
1.22871
1.63535
2.43507
2.18876
-0.308241
0.248783
0.0594585
1.88218
1.40327
-3.28545
4.53151
-2.70817
0.328163
3.47317
-3.80133
2.60535
-4.39919
1.79385
6.66214
-4.98735
-1.67479
-1.88332
-2.55672
4.44004
-0.176491
-0.672254
0.848745
4.0767
-3.87651
-0.200192
-1.46413
-0.255749
1.18055
1.68406
-2.86461
6.67901
-0.386342
-6.29267
1.87846
-3.30683
2.95644
-3.74197
0.785531
-0.0755334
-0.380209
0.455742
-0.554612
3.51105
0.797369
-3.15405
2.35668
-0.745794
-0.287192
2.70834
-0.0784563
-2.62988
1.63628
2.69666
-4.33294
0.212165
-0.755877
0.543713
-1.36253
0.17231
1.19022
1.80514
-0.844685
3.01237
-3.21165
0.199285
0.630412
-0.418248
3.34769
0.729012
-0.643495
-2.07851
2.72201
0.00846167
-0.222338
0.213876
2.14595
1.29311
-3.43906
2.4818
-1.30125
-2.01867
4.16462
0.790198
-1.62434
0.279935
-0.511109
0.231174
2.15719
-1.55398
-0.60321
1.82442
2.16642
-3.99084
1.77739
-1.5467
-0.230689
2.60706
-1.80969
-4.23207
0.651663
3.5804
-0.0316373
1.09258
-0.844143
1.16693
-0.32279
3.97207
-2.18254
-1.78953
-3.213
0.131596
3.08141
1.97547
0.462862
-2.43833
-1.69995
1.39088
0.309073
-3.66928
-0.441674
4.11096
1.50975
-0.23396
-1.27579
0.849706
-1.29905
0.449348
-0.480031
-1.56748
2.04751
1.28035
-1.3392
0.0588541
2.33983
1.07693
-3.41676
-0.301431
-0.0136642
0.0859483
0.627527
-0.713475
2.60195
-1.21634
0.0843806
-0.162207
0.0778269
2.60577
1.23039
-0.970339
-1.43808
0.921598
-0.835649
-0.840138
7.51915
0.135609
-0.979752
0.11198
-0.0275999
0.820165
2.45373
-3.27389
7.44272
-6.31003
-1.13269
-0.0283063
-0.980917
0.846873
0.134044
-0.584568
0.72561
-0.141042
2.89269
-1.86307
-1.02962
-1.06622
0.889732
2.87485
-3.67643
0.801577
-0.502573
0.773328
-0.270754
0.114331
-0.705674
0.591342
2.18906
-0.4735
3.60519
1.11226
-2.49242
1.84892
2.31361
-5.04906
2.73545
3.87484
-2.42732
-0.454945
0.379412
-1.66649
1.37708
0.289417
-0.980785
0.192033
-1.24093
1.04889
4.61471
2.04744
2.45172
-3.03882
0.587105
3.15503
0.359996
-3.51503
-4.53679
3.68692
0.849879
-0.289598
-2.58146
2.87106
7.07138
-2.45667
0.190006
0.0587767
0.119231
-0.271288
0.152056
-0.0875411
0.0064454
0.0810957
2.28137
1.60553
-3.8869
2.45312
-2.21487
-0.238252
-0.56611
0.114893
0.451217
-0.690409
-0.290509
5.46177
-3.14816
-1.35802
1.47766
-0.11964
2.33097
-4.1201
1.78913
1.59853
-3.48185
2.3502
1.27989
-3.63009
1.54924
0.607955
4.67693
-0.679099
-3.99783
1.84149
-3.70186
1.86037
3.25648
-3.15772
-0.098762
-0.502531
0.720443
-0.217912
-0.0650074
3.95444
-3.88943
3.61096
-0.192135
-3.30004
0.109609
3.19043
-1.93789
1.79198
0.145911
3.55718
-1.73276
0.49382
1.28357
-2.52413
2.99548
-0.471351
-2.883
3.27329
0.0536086
-0.831635
0.778026
-0.0891143
0.31985
-0.230736
-0.0627679
-0.808127
0.870895
0.87295
0.443226
-1.31618
5.23526
-2.48572
-2.74954
-0.946371
0.883603
1.65636
-3.71831
2.06195
0.480827
-0.0899741
-5.82749
-1.84004
2.48786
-0.64782
-2.48782
1.92572
0.562109
-0.0531423
-0.19267
0.245812
0.335371
2.92111
-0.120587
0.0330455
-0.193534
0.312765
-2.72682
0.202693
-2.94448
3.72852
-0.784035
-2.81263
3.30071
-0.488078
-2.33069
-1.38374
3.71443
0.481143
-0.0497444
-0.431398
1.5241
-1.75751
0.233408
3.35082
0.242665
-3.59348
-0.0280176
-2.96215
2.99016
-1.84304
4.19323
0.912081
-2.34327
1.43119
-1.09131
3.96617
-3.66685
2.39874
1.26811
0.390869
-0.436102
0.0452332
1.33392
-3.90381
2.56988
-3.5342
1.33206
-2.82816
-0.777515
4.01244
-2.54315
-1.46929
-1.09792
1.20285
0.700677
-0.746644
0.0459676
-2.16357
-2.44157
4.60514
-3.19424
4.76051
-1.56627
7.01045
-3.78444
-3.22601
0.0595727
-0.855016
0.795443
-0.00242064
-4.02698
4.0294
0.397613
-0.472005
-2.48002
2.19043
-2.72488
-0.866326
3.59121
0.501655
0.127265
-0.62892
0.354682
-2.19472
-0.749749
-0.143395
3.36544
-0.210411
-0.704115
0.561237
-0.728564
0.867844
-0.13928
-0.912076
1.78503
-4.29438
4.29196
-1.33211
2.76938
-1.43727
-2.90616
0.663155
2.24301
3.32706
3.6834
4.17064
-2.83671
2.777
-4.55264
1.77564
0.840338
-3.33906
2.49872
0.259178
-1.77152
-1.99694
2.81711
2.53676
-3.62016
0.664388
-2.02343
1.35904
-4.6445
2.55
2.09451
-0.283515
-1.41643
0.742797
0.677363
-1.42016
2.51414
-0.748154
-1.76599
-0.143778
-2.7121
2.64709
-1.08605
-0.271973
2.51038
3.94291
-4.16506
0.222148
-0.0490528
-0.600162
0.649214
2.56068
0.372006
-2.93269
0.246621
0.157341
-0.403962
0.670295
1.70108
-2.37137
2.22253
1.74954
2.43234
-1.52026
-0.204555
0.90309
-0.698535
3.46454
-1.13357
0.5159
-0.0431237
-0.472776
-0.83328
-0.116705
0.949985
-0.586198
0.608992
-0.0227937
4.00819
-2.68836
-1.31983
1.14065
-4.33489
-0.649638
0.0634399
-3.76438
1.16844
2.59594
4.33579
-1.39165
0.972848
-3.91733
5.76415
-2.91595
-2.8482
-0.0765019
0.578156
3.96103
2.28707
-6.2481
-2.41177
0.420595
1.99117
-4.16156
4.12912
0.0324428
1.17803
-3.33599
2.15796
-0.117405
-0.025908
0.143313
-1.91553
2.40308
-0.487552
0.0587619
0.479016
-0.537778
-0.714204
0.211631
-0.703754
0.119186
-6.90605
0.596022
2.162
-1.83156
-0.330437
-0.455492
0.244344
0.211148
1.85768
1.50619
1.7014
-1.03701
0.0483996
-0.137514
2.49569
1.84011
-2.09065
0.215211
1.87544
-2.37732
6.33835
1.57716
0.775407
-0.313383
-0.142109
-1.18961
-0.0655414
1.25515
-0.028826
0.419695
-2.16832
2.83861
0.279341
-0.798201
0.51886
-3.66513
3.50762
0.157508
0.568069
3.05046
-3.61853
-0.618925
-0.600255
1.21918
3.00133
-3.32322
0.321887
-2.75197
-1.89253
5.10441
-3.81207
-1.29234
-0.477267
0.428214
3.62566
-2.44763
-0.143795
2.30579
-3.53928
1.06939
2.46989
3.91761
2.52452
-6.44214
3.25912
0.213033
-3.47215
-2.54178
-0.997491
3.51863
-1.99995
-1.51868
-0.746824
3.191
-2.44417
2.45356
-3.76806
1.3145
0.410677
0.0624214
-0.473098
0.354677
-0.24135
-0.113327
4.61886
-3.77141
-0.847454
-2.42049
-2.11631
3.7197
0.223207
-3.30875
-0.356377
0.19588
-1.02916
3.59879
-1.7449
-1.85389
0.0191902
0.681487
-2.15597
4.43735
1.36158
2.64661
4.36386
-2.78232
-1.58154
-3.7797
2.91337
3.45124
-4.7296
1.27836
-2.46371
-0.261596
2.7253
-0.864394
-0.723447
1.58784
3.80613
-2.14977
-3.4624
2.1303
0.101403
-0.043756
-2.22583
-2.41796
5.25334
-2.83538
-0.858389
0.129825
-0.336487
0.131932
0.457195
-4.61876
3.84814
-1.62562
2.36794
-1.07819
1.37841
-0.300217
0.0769365
-0.728486
-1.89145
1.2596
0.63185
1.40573
1.48696
-0.148719
0.78595
-0.637232
1.87216
0.580961
2.16418
1.4346
2.31413
-0.338661
-0.946922
-1.95924
3.87621
-2.26492
-1.61129
4.10186
-4.14695
5.09231
-0.945362
3.12665
-3.46077
0.334116
-1.86898
1.38895
-0.549994
-0.016116
-0.670404
-2.99888
1.14093
-2.30424
1.16332
1.82954
1.68909
3.19778
-4.05212
0.854347
0.876575
-2.2666
1.39003
-3.88827
0.67527
0.0172961
1.49245
-3.06368
4.60665
-1.54297
-0.882008
1.29838
-0.416374
-1.50315
-0.597272
-0.58626
-0.914498
1.50076
0.481974
0.0034992
-0.485474
-1.42457
-0.513319
1.43049
1.81218
-3.24267
2.60198
-4.9793
1.7079
-1.78462
-0.0843651
1.9272
-1.05063
-2.91587
-0.750984
0.436118
-0.539554
0.103436
3.39476
-1.51258
-1.88516
3.19348
-1.30832
-0.56222
0.66436
-0.102141
2.60759
-0.0934456
-3.83154
2.08664
-2.08829
3.90834
-1.82005
2.99625
-4.23534
1.23909
1.68293
3.42147
0.296926
-0.296543
-0.000383336
0.448832
-2.91254
2.52622
-3.81624
1.29002
0.304992
-0.296531
-0.244217
2.69594
2.78656
1.06158
-2.20537
3.04571
0.705585
-4.33208
-4.49915
2.83031
1.66885
2.65515
-0.551584
-2.10356
3.73893
-0.737602
-1.71233
-1.87133
-1.66016
1.6755
-0.152406
0.044565
0.107841
1.29467
-1.34368
-2.98599
2.74177
4.23059
1.12746
-3.34583
1.46066
3.90528
-0.185575
-0.439654
0.509071
-0.0694169
-0.0513889
-2.28511
2.3365
-3.60307
0.673373
2.9297
3.35987
-3.35987
-2.37894
2.52626
-0.147315
1.16406
-1.31278
2.2735
-1.3902
-0.883301
-3.78605
3.91873
-0.132675
1.41586
-0.209008
-1.20685
1.15107
-0.3842
-0.766869
0.560525
-1.17945
0.0375996
2.58195
-2.72574
-3.23757
3.837
-0.599426
-1.17357
2.60406
0.156091
0.0296975
-0.185789
-0.135561
-0.512796
0.648357
-1.50997
1.76914
4.16244
-3.32028
-0.842165
-0.388876
-2.03138
2.42026
-1.04394
1.09431
-0.050362
0.678005
-1.17524
0.497238
-4.93554
2.9542
1.98134
0.577133
0.270707
-0.553257
0.113603
-0.019942
-0.158135
0.178077
2.10141
2.51745
0.165007
-0.00891548
-0.376866
-0.916321
1.29319
-2.02094
3.29738
-1.27644
-0.0192598
0.494618
-0.475358
1.80617
-0.695784
1.89857
1.85535
-3.75392
0.200728
-1.76821
0.366179
2.98464
1.7556
1.33644
-3.09204
1.97767
-1.58912
-0.388543
-4.04312
0.743077
-1.45215
0.711086
0.741059
1.62452
2.18545
-3.80997
-2.56253
2.30093
0.269269
-3.62777
3.3585
-0.572792
0.632365
0.416322
-0.474905
0.0585829
0.0728264
-1.26244
0.130473
-0.0470918
-0.083381
-2.91665
-0.847734
2.42571
-0.866885
1.36809
-0.501206
-0.615221
0.0530016
0.600681
-2.78759
2.18691
0.804504
2.06102
-2.86553
1.23012
-2.81558
3.36065
-0.545071
-2.90542
2.1586
0.224331
0.153135
-1.56406
-0.923762
-1.1373
0.255211
0.882091
-3.57299
1.55205
2.59898
-2.98786
0.413554
3.49173
-1.21589
1.24752
-0.0316299
1.45732
-3.58881
2.13149
0.76015
-1.18422
0.424074
-1.95884
-1.8727
-2.77907
-0.033564
-1.3968
0.0342717
0.223458
-0.0977732
-0.125684
1.41047
-0.0245828
-0.126801
0.151384
3.58567
-1.96115
-2.21961
0.297228
1.92238
1.03584
0.86119
-1.89703
-1.35743
0.784633
-1.0035
-0.133797
1.30463
0.96887
-2.66749
-2.38157
0.534499
-0.0983804
2.41286
1.75998
0.554146
-3.41042
3.73859
0.247782
-1.53858
1.2908
-0.355382
-3.30252
3.6579
-0.502737
0.538208
-0.0354711
0.242349
0.238794
-1.37516
3.82872
3.77971
-1.93822
-1.46446
-0.426988
-0.0726639
-1.6764
1.74906
1.36967
-3.70036
-0.302139
-1.8613
2.16344
-0.209264
0.915465
-0.7062
-2.55261
0.102634
2.44998
3.41881
-2.01554
-0.0260572
0.437235
-0.411178
-0.93076
-0.113184
0.85349
1.415
-2.26849
0.568521
-0.698335
0.129814
2.27833
1.27531
-3.55363
-1.69544
4.03527
0.465538
0.0164369
-0.932955
-3.41351
4.34646
2.87946
2.58231
3.47322
-2.66872
-1.50372
0.917463
-0.00713181
0.361809
-1.04375
4.49499
0.52672
-3.06386
2.53714
3.64112
-0.546356
-3.09476
-1.59474
2.58765
-0.992908
1.54828
-1.44199
-1.64894
3.09093
0.209555
-0.181434
-0.0281209
-1.13674
-1.93711
3.07386
-0.703731
0.568171
0.226193
-0.279335
2.02789
-3.16463
-2.81261
-0.851256
3.66387
-0.132231
-2.01414
2.14637
-0.363128
4.20206
-4.37634
0.17428
0.902376
-0.448385
-0.453991
0.0549367
-1.27082
0.996363
1.05115
-1.25084
0.386446
-3.1727
4.00916
-0.836459
-0.473958
0.753299
2.81094
-1.2617
-4.10457
-1.24214
-0.189721
0.149017
0.0407049
2.12878
-0.368796
-0.862807
0.952524
-0.0897171
0.582853
-0.524091
-4.16456
1.3364
3.54211
0.670878
-0.383662
1.06167
-0.930931
1.96677
2.78609
-0.20414
-0.894397
0.0315897
-0.350508
-2.63548
0.893119
0.95338
-0.899771
-3.66952
0.0664511
-0.0630609
0.918205
-0.158055
-4.16728
1.65076
2.51652
2.48201
0.530362
0.876107
-0.31859
-0.557517
1.14004
-1.07887
-0.0611714
-2.9347
1.06138
-4.35051
2.26222
0.470446
-0.0794163
-0.39103
-0.0337866
0.511413
-0.477626
4.45663
-0.0666175
-4.39002
0.770552
0.0517681
-0.82232
-0.54629
-1.1202
0.994401
-0.144695
0.307593
-0.311279
0.00368665
1.58976
-0.267566
-1.32219
-0.00880434
0.316397
3.14266
-2.06573
-0.111655
-0.63242
0.744075
-4.09499
0.922292
-0.0197796
0.0309583
0.890639
-1.83135
0.964463
0.0325801
0.0158195
1.06536
0.61224
-1.67761
2.57967
0.128667
1.48523
-1.23745
0.917158
-0.802827
0.42657
-1.30858
1.38567
-1.28135
-0.104315
2.23204
-0.289224
-1.94282
-2.3891
-1.31276
-0.425362
-0.0427741
0.468136
1.30362
-1.5417
0.238081
4.34363
-0.0992393
-4.24439
-0.50788
-0.00382738
0.511707
-1.98045
2.75138
-0.770935
1.90688
2.17669
-4.08357
0.0281168
-0.408326
-1.05396
1.81455
-0.760585
0.961627
0.348775
-1.3104
-3.84073
2.02431
1.81642
-0.281509
-0.02977
-3.38194
0.569325
1.32245
-0.765593
-0.556861
1.75358
-2.35853
0.604951
-0.437147
-0.794869
0.539139
3.66292
3.28385
-0.562065
-2.72179
-3.27782
0.462233
1.29054
-2.23746
3.0161
-5.21636
2.20026
-0.468185
1.21098
-0.00450442
-1.47184
1.09497
-0.684484
0.876517
-0.32707
-3.41124
3.73831
1.51272
2.11294
-2.90195
3.09559
-0.19364
0.0830587
0.140399
-3.04667
-0.7969
-0.523665
0.586992
-0.0633267
2.49672
-2.28273
-0.213987
0.281506
-0.163685
-0.117821
-0.411968
2.16554
-2.82688
-1.57737
4.40425
-3.19956
-0.995155
4.19472
1.77994
-1.48522
-0.294722
-0.916488
0.104629
0.811858
-0.360847
-0.0457386
0.406586
-3.82691
0.169092
3.65782
0.0799362
0.836608
-0.916544
3.09853
-3.48109
0.382552
-1.8662
2.8804
0.534623
-3.41503
0.0502554
-0.573921
-0.0357295
-2.017
2.05273
2.74615
-3.83746
-3.7885
3.2961
0.492392
0.684249
-0.115727
1.51548
1.29546
-0.321491
-0.716617
1.03811
-0.0421051
0.69574
-0.653635
-1.48892
3.53127
-2.04235
2.07947
-3.72763
1.64816
4.04392
-3.87802
-0.165894
2.87631
-1.20677
-1.66954
0.152786
-0.972843
0.820056
-1.22029
-0.020637
-4.22991
3.73901
0.490898
0.237303
-4.46721
0.705519
3.07527
-3.78079
-2.17418
-1.59723
0.888503
-0.719935
-0.168568
-3.20041
-0.894583
-0.832911
0.580279
0.252632
0.220515
0.026106
-3.786
3.59533
0.190672
-0.656369
-0.227048
0.00471037
0.821961
-0.0514086
-2.29358
0.37805
0.686173
-0.761321
0.0751485
-2.52618
1.9708
0.555388
1.46108
-0.0452199
-1.12567
2.31635
0.291238
1.45893
-2.92342
3.22181
-0.298393
-0.49126
2.01536
-2.63152
1.60502
1.0265
-0.319233
0.0377235
3.45347
-1.94075
3.07103
-1.61371
-0.690758
-0.7258
1.41656
0.855295
-2.96384
2.10855
2.28855
-2.42078
3.53448
-1.50569
-2.02879
-0.0266718
-2.14297
-0.488553
-0.224318
1.52437
-1.30005
0.0837088
-1.10007
3.87707
-4.18369
0.983283
0.495485
-0.084808
-0.497909
-0.0777409
0.629119
-0.020127
-1.69875
-1.86399
3.18357
-0.701766
-0.305046
0.376554
-0.0715079
0.200786
0.950283
-3.23936
-1.35677
4.59613
1.41976
2.38637
-0.0205237
-0.627984
0.648508
3.27872
-0.467429
0.00801192
0.459417
0.355161
1.03051
-1.59023
-3.89718
0.65961
-0.898137
0.0425516
0.855585
2.88211
2.88204
2.36462
-0.360795
-2.00383
3.88699
0.156926
2.41673
-3.47467
1.05794
-3.24541
-0.0251727
3.27058
-3.31809
4.31295
-0.994864
0.614392
-0.0238154
-0.590576
-1.23404
3.98019
0.442683
-0.545225
0.102541
0.176718
-3.07866
0.0888009
0.781026
-0.869827
-3.69914
4.79217
-1.09303
-1.07467
2.26638
-1.1917
4.64564
-2.04502
-2.60062
0.0873183
-2.38604
2.29872
-0.418789
-0.0561162
-1.69672
3.6036
0.726243
-3.10518
3.9924
-0.996149
-0.774252
0.662596
-3.39232
0.146913
4.29266
-1.09488
0.0375556
-4.26962
0.945374
-0.0920506
0.367792
4.03199
-4.39978
2.18902
-0.614131
-1.57489
0.475404
-2.07028
1.59488
-0.70273
0.0449095
0.657821
-0.912346
-1.90719
2.81953
1.47151
-1.04494
-2.69256
-0.616417
3.30898
0.541539
0.897571
-1.43911
0.322506
0.565997
-4.40469
5.17809
-0.7734
-0.505104
0.00236657
1.75666
0.912886
-2.66954
2.0163
1.66999
-3.68629
0.741283
1.91386
-0.0782778
4.75521
-0.011751
3.13668
-3.12493
0.00829832
-0.0275581
0.113077
0.227827
-0.340904
3.24409
-3.03577
-0.208319
1.56356
1.97092
-0.210825
0.19489
0.0159351
-1.03715
3.14457
-2.10742
-0.00360758
0.757855
-0.754247
1.02975
-2.3321
1.30236
-1.92775
-1.8338
3.76155
3.07926
-0.518572
1.05039
1.13864
0.579546
-2.74817
2.16863
1.17451
-3.20589
-0.011884
-0.342497
0.354381
0.807597
-0.205734
-0.601863
0.0207032
-0.439492
-0.281668
3.43595
-3.15428
-0.535907
4.00907
2.9989
-2.50227
-0.496624
2.58378
-2.12092
-1.98264
0.769455
1.21319
0.177679
-1.56788
0.928231
-0.582941
-0.34529
0.289675
0.586432
0.591389
2.90539
-3.49677
0.821445
0.768312
0.551611
-3.75117
-1.63198
0.68833
0.943646
-1.26818
-1.06832
2.3365
1.96843
-0.903062
-3.35675
2.18317
1.37244
-1.03932
-0.333119
-2.93203
2.8856
0.0464325
-1.70076
1.90149
-1.57198
2.33342
-0.761439
-6.99693
6.41051
0.586427
-0.0937734
0.860011
-0.766238
-0.542829
0.509042
-0.993684
-3.95552
7.26671
-3.31119
-2.13888
2.80204
1.96509
-2.12533
0.160238
-0.19743
0.508874
-0.311444
-3.88714
2.89378
0.993361
0.0111464
0.413255
-0.424401
0.182437
1.92699
-3.41591
2.59165
-1.73636
-1.65716
-2.84199
-2.79722
2.78547
1.82979
0.0959306
1.25306
0.558215
-1.81127
-1.3589
1.28994
0.0689607
-0.24138
-1.15938
1.40076
-0.489327
-1.95442
2.44374
1.85879
-0.242016
-1.61678
-2.85846
-0.823502
3.68197
-0.757111
0.559681
2.73037
0.513723
-4.64511
3.76097
0.884147
-0.310176
0.0854201
0.224756
0.0228798
0.808522
-1.00945
0.200931
-2.05608
-2.75045
2.26113
0.593868
0.848423
-0.695637
2.3661
0.130616
0.19103
-2.77249
0.157308
1.12304
0.0142625
0.146962
-0.161225
-2.60562
-2.15531
4.76093
1.67285
-1.0933
-1.98357
-0.258405
2.24198
0.5806
0.679045
-1.25964
-0.00127015
4.42773
-2.83252
-1.59521
0.704203
2.57965
0.220793
0.742839
-2.58766
1.84482
-1.46536
3.36262
-1.89725
-2.20684
-0.870181
3.07702
-1.86452
0.810563
-1.38275
-0.599893
4.68527
-2.06468
-2.62059
0.285125
0.422388
-0.707513
1.33721
0.358981
-1.69619
-0.73237
0.812306
0.452563
-0.737402
0.284839
-0.0658318
-0.0824161
-0.863955
-0.0486436
2.78876
1.8965
-6.85777
7.86009
-1.27099
3.70366
0.590303
-0.305179
-3.25482
1.04798
2.89488
-2.44605
-0.510405
-2.5815
0.601055
4.03477
-3.32925
2.65195
-2.70333
3.26246
-0.135809
-0.773108
-0.525946
-0.773404
-0.416145
1.18955
-1.23337
-0.105831
2.9794
0.513381
-3.49278
-0.0585457
-0.990819
1.04936
0.234193
4.19398
-6.31252
2.11855
3.33022
-0.231689
-4.42432
4.24753
0.176784
0.832453
-0.660143
-3.6769
-0.210238
-1.0949
3.87069
-0.131675
-0.145946
4.528
-1.90131
-2.62669
-2.35699
-0.215187
2.57218
0.64238
1.8764
-2.51878
-2.77753
0.224917
-0.759453
-0.308954
1.06841
-1.86529
2.39201
0.624598
1.94047
-2.56506
-0.859049
0.9913
-0.13225
-3.56395
0.366049
3.1979
0.263605
2.32805
-0.883535
1.95443
0.921884
-0.878858
-0.573287
3.44964
-4.12874
-0.0103815
-1.22923
1.23961
0.379927
-0.35181
2.66507
0.134979
-2.80005
2.52425
-3.79524
0.0127592
-0.130164
-1.979
2.34456
-0.365557
-2.19648
2.16075
-0.0475037
1.0893
-1.0418
-0.427445
0.100919
0.326526
-0.188814
0.431163
-1.08506
2.3756
0.262828
0.207618
-0.647809
0.698064
0.953247
-0.795905
-0.0437637
0.0178557
-0.793888
0.763254
0.0306335
0.85408
-0.939512
0.0854323
-2.23302
3.52613
0.392585
-2.37616
-0.0416977
-1.05622
-0.0530767
2.24145
-2.18837
1.27817
-1.34372
0.633645
-2.84353
2.20988
-2.99601
1.7404
1.25561
2.7978
-5.21576
-1.79895
-0.0965151
-3.69198
0.72597
2.4576
-2.90422
-0.45253
0.403456
-4.5504
-1.67186
0.757358
0.332873
0.0454947
-0.378368
5.30867
-2.42656
3.21527
-0.689059
-0.892275
-0.681031
1.57331
-4.11194
1.73451
2.37743
-0.571707
0.0997534
-0.50612
3.38652
0.673898
-0.368097
-2.1801
0.20412
0.238564
0.339311
-0.582898
0.243588
-0.494002
3.4734
-0.802098
0.478578
0.323519
3.13347
-5.11628
2.52508
2.5912
1.05951
0.708404
-1.76791
1.6286
-3.89399
2.26538
-2.12148
1.0468
-2.55848
-0.142612
1.47982
3.5344
-3.88978
1.65096
-0.689333
-1.49963
2.67414
-4.28282
2.6684
1.61442
1.38895
-2.65344
1.26449
-2.69967
2.90632
-0.20666
1.40923
-1.90049
0.0569134
0.716161
1.06378
-1.022
-0.53198
-2.98844
-3.11622
0.661382
2.45484
0.92824
-3.28523
2.58585
-0.063118
-2.34865
0.465608
1.45689
4.05395
-1.38532
-2.66863
-0.694343
1.13154
-2.39972
0.682565
-3.64807
3.43289
-2.6993
1.2573
1.86322
-2.0113
3.11165
-1.10035
-7.71286
3.93988
3.77297
-1.41514
0.530666
-0.73993
-3.84851
2.73457
1.11394
2.85795
-4.09199
-4.30057
-0.104122
5.21228
-2.19618
3.89441
-0.23212
-3.66229
-0.0944074
-0.617275
0.711682
-0.456282
1.68585
2.057
-3.4545
1.4432
0.5531
0.918407
0.760598
1.45795
-2.21855
1.55674
-0.879375
-0.336165
-4.13061
4.46677
-1.35804
1.64792
-3.49095
-2.23166
-1.68159
3.91325
1.00696
-1.24092
-2.74093
0.93609
1.80484
-0.860062
0.223608
0.636453
3.90535
-4.23242
-0.0264327
-1.95257
1.5481
1.34166
-2.88976
-0.419778
0.114731
-3.21334
0.958605
2.25473
-3.62838
1.70063
1.9117
-3.37706
1.7786
-1.78898
-0.486779
-0.373283
-0.105557
3.74667
-2.29633
2.94737
-0.651034
3.22425
0.0174522
-3.2417
-3.50536
-0.0610984
-1.01709
0.18147
3.1784
0.535268
0.129093
-1.55592
-0.00378751
1.16785
1.96175
-1.81218
1.5708
-3.53513
-0.250866
-1.13639
6.54842
-4.26135
0.751808
0.704892
-1.4567
5.41462
0.0261095
-5.44073
-0.459658
0.435843
-1.33294
-3.01757
-2.96864
-0.492129
-1.33299
3.85724
-1.2628
1.84406
-0.581261
-3.90527
1.29964
-1.17497
1.93557
-2.72874
-1.43854
-1.34504
-1.00229
1.2357
-2.44637
-0.079817
4.47209
-0.601406
1.0411
-3.78533
2.74423
0.332714
0.570375
1.06373
3.85402
-3.58475
-0.125559
-0.864109
1.31346
-1.83908
2.05429
-1.82321
-2.00131
0.808257
0.730471
-1.53873
-3.42462
0.0647504
-0.527415
2.96194
-2.43452
-0.789572
-3.63475
-2.57983
2.95184
4.77143
-2.12113
-2.6503
-0.317867
1.02895
3.78728
-1.98286
-1.80443
1.03821
-1.12062
0.202816
-0.0897391
-0.549621
-0.0750792
0.6247
-0.513656
1.76671
-1.48141
4.33936
-0.0484031
-0.671532
-1.04915
-0.404084
1.45323
0.0417485
3.86361
0.694578
1.27749
-1.97207
-1.4209
2.27439
1.52104
1.62353
-1.25454
-0.377436
2.02652
-0.689847
-1.33668
-0.0568301
-0.115116
0.171946
0.385425
-2.81289
2.42747
-3.51985
0.551216
0.854269
0.726885
5.82154
-0.00707986
1.04529
0.58956
-1.85236
-3.3843
1.72413
-3.67131
1.18559
-1.80566
0.295697
-1.64375
-2.40274
4.04649
-4.82314
0.119311
0.32311
-0.442421
3.14329
-2.49162
2.73871
-2.09633
0.493995
2.05758
-2.55158
0.559981
-1.31943
0.434986
-4.40897
3.97398
1.57957
0.13817
-1.71774
-1.55288
3.36704
-1.81416
3.6902
-2.32697
-1.36322
3.62068
-0.0153584
-3.60532
-1.9186
-3.19768
-1.20944
-0.187364
3.02114
4.05023
-0.0492476
0.412291
-0.363043
-2.52992
-0.683422
2.66245
2.47493
-2.01694
2.51945
-0.502513
-0.477859
0.485871
0.332447
1.35743
-1.68988
-0.258699
-0.543399
-0.384226
-3.46428
-6.13088
1.38841
-0.0159649
-1.03203
0.282281
0.280789
2.76615
-3.04694
-1.94911
-0.344463
4.29365
-1.69167
0.280249
-0.970658
-0.0813685
-0.127603
0.208972
0.469204
-1.46177
0.99257
4.35346
-1.303
2.92971
3.26239
-1.43285
3.76789
-2.11997
-0.495781
-0.951895
1.44768
2.80071
0.390292
0.00345037
-2.65022
1.73787
3.2144
-3.17265
-1.83568
-1.90895
3.74464
-2.23675
-1.87519
-3.54132
3.57878
-0.0374594
0.0818894
-1.25608
0.839935
2.24938
1.01301
-0.57289
-0.0741809
0.647071
-1.21241
-1.99924
-4.01048
0.652827
3.35765
3.98398
-2.56421
0.289735
-0.301619
2.34691
-3.67986
1.60041
-1.36686
-1.18322
2.55426
-1.37103
1.90058
2.09342
1.17508
-3.2685
3.88987
-2.30832
-1.58155
-1.57251
-3.2539
4.13851
-0.884605
3.39181
-2.3507
-1.09369
1.08661
1.59282
3.05283
-0.841222
0.746815
0.0401197
-0.0647025
3.61059
-2.00506
2.29789
3.01078
-1.61576
0.895652
0.720106
0.852288
-1.54305
2.79386
-0.128791
4.18659
-0.292175
-2.49105
-0.327791
2.81884
0.745168
-0.0865503
-0.658618
0.659999
0.242378
0.551685
-3.86977
-1.05585
1.12868
2.57415
-2.31738
-0.256769
0.561389
1.46514
-0.619449
0.300859
0.871867
0.967396
-1.83926
-1.72639
3.60485
0.034057
-1.64417
4.31727
-2.67309
-0.845779
1.38732
-0.76527
-0.0937796
4.03549
-1.99639
-1.31236
4.00506
-2.37646
1.10075
-1.14245
-0.674694
0.58092
-1.15626
-0.586683
-0.0285387
1.94591
-0.609316
3.05578
-2.44647
0.0693712
-0.0893133
-1.16287
0.446257
-1.31354
0.1041
-4.27365
3.34069
0.835409
0.979138
-1.35094
-1.18835
2.53928
0.721807
0.445126
3.15838
1.97979
-5.13817
-0.447847
-0.0620301
0.509877
-1.9601
-0.259511
3.16096
1.61047
2.92326
-2.64247
-4.29765
0.0266192
0.145986
1.18227
1.68046
1.00539
0.214751
-1.22014
1.36239
-0.0842133
-0.0907519
-1.19594
-0.419816
-3.92659
-1.55044
1.72812
-1.5721
1.86932
2.08975
-2.03158
-0.0581774
0.732173
0.0310813
-0.278434
0.967847
-0.113767
3.03714
0.801379
-3.83852
0.795646
-0.456336
-0.89074
0.554452
0.336289
-1.31531
0.0397746
1.27554
1.11477
1.88335
-2.99812
0.924095
1.04433
2.5307
-0.0443051
-1.02192
1.68114
-1.68493
0.586454
-0.376494
-0.20996
-2.91091
2.1334
3.11176
-2.46972
-0.642042
0.0613613
-0.58148
0.520119
3.38415
-3.66582
4.90207
-0.918099
1.13311
1.6056
-0.553714
-0.0329682
-0.71248
0.329415
0.383064
-2.01868
-0.502782
3.99488
-2.04227
-1.95261
4.78927
-3.58174
-1.20753
1.5075
-2.71516
1.20766
-0.178745
2.01704
-0.0898327
-1.10388
2.23523
-1.13135
-0.340108
-0.372372
-0.351464
0.758288
-0.279709
3.3929
0.0165037
-3.4094
-0.943151
-0.198751
0.213014
0.234531
-0.0396402
1.73967
0.604886
-0.0129942
0.2945
0.00687137
-0.0742408
-0.333286
0.468895
-1.47839
1.97239
0.0648223
0.888557
-0.0368036
-1.45924
3.31692
-0.055059
2.14481
-0.545509
-0.497095
-0.952718
1.82458
-0.662424
3.05828
-2.39585
-2.96681
-0.415127
-1.63068
2.8843
-1.25362
0.310644
0.447644
1.15017
-0.247862
-0.0803874
-0.877162
0.957549
-3.00438
1.00799
0.525153
-0.55121
1.37583
-4.61519
1.12727
-4.54078
-1.12877
3.06429
-1.01003
1.89052
-0.923121
0.0543876
-2.22629
2.61171
0.000827418
-0.600989
0.344811
-1.83003
-0.44094
-2.14792
2.58886
-0.553374
-1.48053
5.183
-3.26129
-1.92171
-0.863598
0.300315
0.855373
0.0853903
-0.940763
-2.91436
0.618031
0.784447
0.0231502
-0.0268874
-0.508918
0.535806
1.41962
-3.05031
0.311908
1.60312
0.237699
-1.84082
-3.41853
2.7561
0.571592
0.147942
-0.719533
3.51493
-7.47045
-0.564763
-0.00241053
0.567174
0.74391
-0.172318
0.010081
2.66044
-1.91915
2.14564
1.84168
-0.917581
-3.33009
1.09843
-2.37832
2.02157
0.356755
1.82551
-3.6612
-1.78671
-1.21427
3.00098
0.409709
1.38227
-1.08634
0.877335
3.88542
-0.528785
-3.35663
0.000456303
-3.53559
2.77869
0.841985
1.93741
1.84988
-0.622259
-0.00572548
0.587562
-1.13272
-1.17152
0.114504
-0.307149
0.192645
0.14598
-3.09605
2.95007
-0.172384
1.00248
-0.830096
0.38683
-3.84649
3.45966
-0.231566
-1.9833
-0.0941514
-0.0122965
2.36746
-1.19271
-0.785006
1.97771
-1.3673
-1.54935
1.64024
-0.909769
0.41391
-0.00441207
-0.409498
-2.95271
1.60178
-3.57549
-0.409551
-0.275237
0.684788
0.237782
1.34674
-1.58452
1.79346
-0.836762
-0.956694
0.243938
-2.05429
0.58465
-4.28379
-2.05411
-1.1675
3.22161
-3.39537
0.163172
3.2322
-4.69084
-2.8278
0.128136
-0.984809
1.02401
-0.0391975
-3.87615
-1.32956
4.36671
1.3475
-0.735256
0.262362
-1.21508
-0.663313
1.70765
0.589287
0.412803
-1.46195
0.0689579
-0.574365
0.505407
-0.549508
0.0469766
-0.401119
0.46248
-0.883235
1.94275
-7.10667
3.82051
3.28616
-3.84275
0.380347
1.86183
0.794947
-0.0497786
-1.15686
0.58397
-1.6958
-1.04513
-1.99777
0.780722
1.21705
0.0303108
0.456414
-0.486725
-1.3904
1.8596
-0.391955
2.63496
3.19686
-2.50228
2.07916
-3.44645
1.59273
-1.94367
0.350937
0.465315
-0.02808
-0.303473
0.00693002
-4.03611
2.39236
3.62568
1.16359
0.0573995
-0.739834
0.682435
-4.60934
1.72634
0.795903
-0.912608
-0.719778
-0.0498029
-0.822586
0.872389
-2.05861
0.865906
-3.65525
3.27102
3.2294
-1.6813
-0.821886
0.738985
0.0829008
-0.0355918
0.184608
-0.591651
-3.88482
2.44154
1.44328
-0.576406
0.514375
-0.240286
1.06378
-0.823498
3.41564
1.48644
0.154088
-0.0314569
-0.122631
-0.928287
0.99311
0.0508895
0.254103
2.94949
-4.47241
3.63584
0.251151
0.401065
-2.5836
3.3383
-0.122838
-3.21546
-0.0286856
-0.817767
0.846452
1.83589
-3.53464
-0.690043
2.84344
-2.15339
-0.170162
-0.00943026
0.179592
-2.92908
2.95859
-0.0295126
-1.36401
1.99765
-0.877755
2.95722
5.09787
-1.39448
-3.70338
0.0571387
0.740588
-0.797727
-0.392524
-1.13095
-0.0893425
-1.11875
-0.0122007
0.266262
-1.18781
0.921547
-0.310889
3.32995
-3.01906
-3.46172
1.31115
2.15057
1.10211
3.35452
0.107925
0.239104
-0.34703
1.98379
0.978167
-2.96195
0.0506445
0.282228
-1.10499
3.25013
-2.14515
-2.82614
0.335098
2.29701
1.09364
-2.88036
-0.00687323
-0.44066
0.447533
3.39897
-0.86371
-2.53526
1.22479
0.779624
-3.72999
1.866
3.54881
-3.88497
-1.77252
0.280264
1.49226
-0.161163
0.0649449
0.426804
-0.491749
-0.020401
0.00897763
0.0114234
-0.0347498
0.482726
-0.447976
0.756632
-0.747799
-0.00883296
-2.07091
4.41782
-1.12857
1.0559
0.539961
-0.780248
1.40162
-1.98661
0.584983
-2.28939
-1.99343
-0.429466
0.068619
0.292951
0.00800074
-0.300952
1.821
-1.45605
-0.364948
0.313038
2.26111
-0.899435
-0.459461
-2.09724
0.420846
1.55957
1.39401
-2.95358
-0.0182533
-0.087801
0.106054
-0.0982072
1.23825
0.382232
0.18141
-0.563642
3.41013
-1.55695
-1.85318
-3.76297
0.351736
1.26897
-2.15167
-0.0122776
2.16394
3.86056
-1.074
-0.799524
0.830483
-0.291778
-0.0116949
-2.16197
3.07359
-0.911618
0.582255
0.0916429
0.428877
0.488639
-0.893038
0.844635
-0.481751
0.477924
-1.65283
1.15689
0.495941
2.77087
-1.52137
-1.2495
2.36537
1.98809
0.915189
0.179116
-0.827441
0.686399
-0.256394
-1.29031
-1.72397
-2.00366
-2.44784
1.34396
-0.461929
0.41619
0.515825
0.228084
-0.128805
-0.0413563
3.04999
-3.08927
0.03928
4.92022
-1.70407
0.833044
0.871027
0.429954
-1.29406
-2.55156
-3.14187
-0.905775
0.819225
-0.662545
-0.946431
1.60898
-2.84332
0.704434
0.864601
0.993964
-1.85856
1.42461
0.154959
-1.06298
-1.93992
3.60992
-4.21285
-2.22929
1.00406
-1.85063
0.846563
-0.909147
1.1894
-1.9024
-2.70694
-0.0477654
-0.379679
2.60941
-2.10504
0.376117
1.72892
-0.0318465
-1.13706
0.043621
-1.21099
1.16737
-2.96046