/*--------------------------------*- C++ -*----------------------------------*\
| =========                 |                                                 |
| \\      /  F ield         | OpenFOAM: The Open Source CFD Toolbox           |
|  \\    /   O peration     | Version:  2306                                  |
|   \\  /    A nd           | Website:  www.openfoam.com                      |
|    \\/     M anipulation  |                                                 |
\*---------------------------------------------------------------------------*/
FoamFile
{
    version     2.0;
    format      ascii;
    arch        "LSB;label=32;scalar=64";
    class       volVectorField;
    location    "4";
    object      U;
}
// * * * * * * * * * * * * * * * * * * * * * * * * * * * * * * * * * * * * * //

dimensions      [0 1 -1 0 0 0 0];

internalField   nonuniform List<vector> 
13486
(
(6.20791 -1.31022 1.88816e-20)
(6.91185 0.595803 8.86347e-21)
(8.68435 -0.228969 0)
(-5.97352 3.24584 -5.09484e-20)
(9.3461 -2.52025 9.54322e-21)
(9.3182 0.439583 -3.92986e-23)
(9.95064 -2.76805 -6.45947e-22)
(8.11927 -3.08426 -1.13531e-20)
(8.03398 -1.92596 0)
(7.81174 2.09771 0)
(-2.60995 2.52547 -2.73283e-20)
(10.4551 0.686242 0)
(5.75676 -2.06053 -1.86862e-20)
(9.238 2.1813 -3.70913e-22)
(10.135 -2.29032 6.71972e-21)
(7.70358 2.18865 -6.34535e-21)
(1.97412 -0.579406 2.06325e-20)
(2.89585 -14.5568 -8.2897e-20)
(9.31155 0.205594 1.35687e-22)
(6.81739 -0.656735 -1.92552e-20)
(-6.50787 2.69886 -2.43663e-20)
(5.80797 -2.0971 2.40736e-20)
(6.99992 0.599573 -7.10025e-21)
(10.9799 -3.3486 0)
(8.11125 1.73208 2.05715e-21)
(11.0085 -3.28316 -5.47984e-21)
(-2.32179 1.86226 2.53388e-20)
(9.34766 -0.352785 7.90444e-21)
(6.93621 -0.797368 0)
(8.89031 -1.00199 -3.69667e-21)
(-4.76328 -2.10803 -2.38311e-20)
(11.4938 -1.70209 -7.77154e-21)
(10.9766 -0.86521 1.02366e-20)
(8.65121 -0.0993141 0)
(8.20098 -3.00886 0)
(6.53677 0.0916978 -9.47939e-23)
(8.97736 -3.82969 -3.0408e-21)
(6.64582 -3.12497 1.01988e-20)
(18.4135 5.87353 -7.61669e-21)
(8.15225 -1.27437 1.07188e-20)
(9.65859 -3.18565 0)
(4.9907 -2.39616 -2.18754e-20)
(9.78378 -0.0155082 0)
(8.06908 1.46929 -9.93662e-21)
(8.12304 1.47721 4.03837e-21)
(10.2947 0.663079 4.43542e-21)
(-1.52478 1.25164 3.37814e-20)
(7.09736 -0.725389 -9.2963e-23)
(9.03374 -3.42966 2.33219e-21)
(9.94013 -0.0278669 4.30142e-21)
(7.98045 0.120338 1.13208e-20)
(13.2313 0.0332898 0)
(11.3015 1.46572 -2.38146e-21)
(6.91359 -2.66743 -1.47666e-20)
(0.615507 -14.8463 0)
(9.31579 -2.56338 -6.01516e-21)
(6.53753 -1.54849 -7.43515e-22)
(14.0394 1.48061 -6.09898e-21)
(11.0694 -0.795335 1.17833e-20)
(6.36559 -4.72606 0)
(-2.31593 1.968 -3.12574e-20)
(6.25749 -4.30697 0)
(12.7262 1.68231 -1.21175e-20)
(-6.74708 2.57277 -2.62436e-22)
(8.95614 -6.90021 0)
(8.29716 -3.95687 -1.49729e-21)
(-6.14107 3.14345 -4.86934e-20)
(6.14465 -0.353404 6.2472e-21)
(8.05215 -2.01689 -6.08388e-21)
(6.31719 0.339073 2.47493e-21)
(-5.70521 3.19508 5.62232e-20)
(1.88419 -15.3208 -5.64446e-21)
(8.04789 -0.721137 7.87236e-21)
(-2.03089 -0.31506 -1.54071e-20)
(7.43036 -3.59397 -4.62946e-22)
(5.90508 -1.31071 1.57731e-22)
(7.7478 -3.41824 3.97046e-22)
(10.078 -2.37404 -2.71117e-21)
(-2.66033 2.24374 -1.99066e-20)
(3.29295 3.47351 0)
(7.16089 -0.0211969 8.42645e-23)
(6.7354 0.888735 -5.70356e-22)
(13.4209 2.09036 2.46121e-22)
(8.75279 -0.0748839 -1.05598e-21)
(6.19499 -1.35221 -3.67979e-20)
(6.09317 5.02068 0)
(4.45477 6.75747 -8.46392e-21)
(7.99591 0.185142 -1.72285e-20)
(7.54018 0.523029 -7.48831e-21)
(7.12773 2.92266 -7.76016e-21)
(12.7609 -0.753799 -1.69177e-21)
(8.58946 -2.76719 -6.33259e-21)
(6.4367 -1.68905 4.90408e-21)
(6.90572 -0.110462 4.96402e-22)
(7.67947 -2.57318 2.43546e-21)
(7.08404 -0.622049 4.11126e-23)
(-2.81283 1.65896 0)
(-5.76631 4.07679 2.61516e-20)
(8.18242 -1.24969 -2.04802e-20)
(1.45342 0.0519475 1.81089e-22)
(7.11391 0.047464 0)
(9.14259 2.19348 -2.25198e-22)
(-5.92519 4.217 5.59794e-22)
(14.2987 0.68918 7.54194e-21)
(5.4979 4.73862 0)
(0.983835 0.0539111 9.99403e-23)
(7.84345 0.0968642 4.45979e-23)
(15.8197 7.74866 -1.8044e-20)
(-1.87301 1.62484 2.42745e-20)
(8.17081 -3.76804 0)
(6.75994 -3.1928 0)
(11.1572 -3.02611 -1.13748e-20)
(6.94473 -2.5972 9.10931e-23)
(7.3842 -0.863778 8.26606e-23)
(5.02324 -0.802143 0)
(6.63048 -3.13669 -9.15399e-21)
(8.02938 1.82985 0)
(8.75028 0.00654935 0)
(8.03112 -0.703383 0)
(9.22947 -2.51993 -5.2221e-22)
(3.8336 -12.6112 5.08334e-20)
(-2.43915 2.17301 0)
(7.57458 -2.38032 0)
(14.6526 6.90644 1.94013e-20)
(7.81507 -2.91089 0)
(13.6757 0.135093 0)
(9.19909 -1.43535 2.66633e-22)
(8.5243 0.291243 3.98456e-21)
(8.45485 0.0959533 4.31052e-22)
(8.82392 -7.30926 -8.69803e-21)
(13.2879 -0.6395 -5.86155e-22)
(-1.92173 0.789886 -8.49554e-21)
(3.23057 0.355997 2.15908e-20)
(-0.886063 -0.379018 2.24316e-20)
(7.99133 0.0622984 -1.85445e-21)
(7.59835 1.23816 -8.49902e-21)
(3.52087 1.40505 -5.32367e-21)
(7.99839 -3.63267 0)
(9.28283 -2.18648 9.85517e-23)
(8.26447 -2.63497 -4.07459e-21)
(10.744 -0.199298 -9.93722e-21)
(11.7475 1.52551 1.88514e-21)
(11.4628 -0.319431 0)
(2.75979 4.10078 0)
(10.1827 -0.0415897 4.37732e-22)
(16.7568 -0.227124 -3.1106e-20)
(7.70214 3.1691 -6.69719e-22)
(-0.566791 3.35051 0)
(10.2437 -0.0141556 0)
(6.90632 -0.878784 0)
(7.99218 0.0776784 1.75685e-22)
(9.78597 -2.50529 0)
(7.10999 -0.000679131 -8.81891e-23)
(6.67528 0.839119 -4.80585e-21)
(8.53609 0.993326 0)
(8.81011 -0.24661 0)
(7.90774 -3.54163 0)
(-1.94418 -0.106865 -3.2374e-21)
(7.27225 -2.9807 2.16478e-20)
(3.19914 -1.13134 -1.49831e-21)
(9.56335 0.0961255 2.34163e-21)
(7.30597 -2.91694 -3.25893e-20)
(13.0188 -3.0901 -2.72032e-21)
(4.46229 -2.25461 9.61939e-21)
(13.5474 0.708942 0)
(9.60552 2.18175 -9.65554e-22)
(8.97295 2.02305 2.82683e-21)
(2.69267 -0.918513 -2.28719e-20)
(7.57541 3.04564 1.72643e-21)
(-0.87591 -0.303393 6.10581e-21)
(-2.93749 1.41884 1.01413e-21)
(8.52777 0.89743 3.28824e-21)
(7.99611 0.298633 -1.39812e-20)
(9.98576 -1.16616 4.69382e-22)
(7.26212 -0.223287 7.16003e-23)
(-0.0961399 2.97109 0)
(9.13321 3.212 -1.55471e-22)
(11.2083 -0.150922 1.40438e-20)
(7.86596 0.0589351 -1.87647e-20)
(11.2685 -0.141071 0)
(8.35203 -1.49844 2.22604e-20)
(7.48853 -0.786216 1.6342e-22)
(10.5586 -0.963609 -1.93072e-22)
(-3.81981 2.09036 0)
(8.48354 0.7147 2.66683e-21)
(9.17848 -0.271508 -3.58305e-21)
(7.21845 -1.23383 -2.84633e-23)
(8.8113 -0.573387 -8.11907e-22)
(9.44466 -3.34815 0)
(6.10858 -2.94702 -1.22453e-20)
(8.9773 -2.92986 0)
(9.14985 -0.300576 0)
(13.1611 3.28063 0)
(6.94232 2.54373 -1.0341e-20)
(10.8769 3.10208 0)
(-2.42325 2.76545 -7.59215e-21)
(8.86005 -6.84597 1.91281e-20)
(9.368 0.0467394 1.25639e-21)
(5.87132 -2.88758 -4.50725e-21)
(9.47363 2.01357 2.94338e-23)
(-3.91585 -3.19802 2.78018e-20)
(8.56625 0.339423 -1.2185e-22)
(6.54928 -3.15465 -1.18183e-20)
(8.56648 -3.55693 2.44297e-21)
(3.05435 -1.10376 2.07509e-21)
(11.4461 2.85004 8.44172e-22)
(0.295128 -15.964 -2.50331e-20)
(7.7244 -0.420928 1.54738e-20)
(12.7324 3.54435 0)
(8.49785 0.509634 0)
(8.98362 -0.348104 3.94807e-21)
(10.0781 -4.36756 1.06695e-20)
(6.85455 -0.547347 1.76877e-20)
(7.82134 0.123665 6.11066e-23)
(9.30737 0.554733 4.532e-23)
(5.18781 -1.01553 -5.68485e-22)
(9.0868 -0.944836 0)
(7.27712 2.7979 1.90689e-20)
(6.75544 -1.77058 0)
(11.324 2.0111 0)
(1.58112 -0.726974 -3.90235e-20)
(10.0301 0.0297018 0)
(8.21485 -2.61078 9.55816e-21)
(10.6019 0.115554 0)
(11.2865 2.60346 -1.47182e-22)
(5.835 -2.74123 6.95913e-21)
(9.70913 0.999963 -8.50327e-23)
(2.40542 -1.68982 1.46918e-20)
(7.14256 0.969638 -6.28129e-22)
(5.33037 7.51098 2.27019e-22)
(8.38497 -1.47275 -7.14059e-21)
(8.76612 -0.852597 2.77216e-21)
(10.8233 -0.421069 1.24765e-20)
(4.93806 -2.37391 7.46188e-21)
(-5.79747 4.10103 0)
(5.40292 -2.63636 8.3284e-22)
(8.66093 -0.289554 5.00884e-22)
(9.08908 -0.277832 -7.86367e-22)
(5.45956 -2.61825 2.28097e-20)
(10.2484 -0.449158 0)
(11.214 -1.08708 0)
(8.00548 0.257247 2.15305e-20)
(9.26637 -0.432802 0)
(5.16573 -2.56728 7.6753e-21)
(10.6233 10.5448 -3.59084e-20)
(7.3699 -0.0534485 0)
(10.2225 0.0161702 -1.89044e-21)
(9.74154 -2.30358 1.38267e-20)
(1.09954 -0.866454 3.70467e-20)
(7.98131 1.39134 0)
(-3.83896 2.74636 -1.01001e-20)
(4.92203 -0.703316 2.67489e-21)
(6.12804 -3.00093 1.17274e-20)
(12.4402 8.20708 0)
(4.89623 1.63735 -2.54554e-21)
(-0.949654 2.07959 4.99367e-21)
(11.6367 -1.55253 5.78792e-21)
(5.76305 -0.664044 7.18357e-22)
(-1.47207 0.0670888 3.39002e-21)
(10.8616 -1.07688 8.42873e-21)
(7.25234 0.49533 0)
(9.95839 9.32741 6.59158e-22)
(10.1637 -2.26142 -1.54006e-20)
(-0.351397 2.15019 -6.23484e-21)
(8.94048 -3.13714 -8.18144e-21)
(-3.62309 2.08334 0)
(8.21903 1.12943 4.01612e-21)
(-5.7702 -0.2572 -3.19413e-20)
(8.32659 -0.0915158 -9.30574e-21)
(11.2688 6.72459 0)
(6.3976 2.59717 7.80605e-21)
(7.86173 0.150657 -5.05905e-21)
(8.99076 -1.12348 0)
(10.3871 1.30717 2.97735e-21)
(5.98495 -2.83897 9.32289e-21)
(9.73511 -2.23674 -7.67069e-21)
(5.17081 2.32018 0)
(3.65958 -12.0428 0)
(9.65495 8.24945 -8.51449e-21)
(8.09761 3.34951 1.02905e-21)
(3.27924 -10.6686 2.04491e-20)
(8.83551 -1.07395 -8.40523e-21)
(7.77445 0.144651 1.10599e-20)
(13.9021 -3.80636 -1.49152e-20)
(-2.67515 2.38888 3.70677e-20)
(-0.398905 2.76884 3.91733e-20)
(10.8466 -0.0964917 1.13367e-20)
(8.79648 0.11728 -5.66818e-22)
(11.3938 2.64991 -4.28607e-22)
(8.13028 -0.0976721 0)
(-6.44763 3.36175 0)
(0.604194 -6.9346 2.57194e-20)
(6.58103 -3.12014 9.1432e-21)
(7.99305 0.0846414 -1.81765e-21)
(8.50516 -0.209029 -5.42199e-23)
(8.71166 -0.478569 0)
(9.62969 -0.103315 -2.91034e-21)
(10.2529 1.22149 -2.61645e-21)
(7.73388 0.0713209 -1.01574e-20)
(9.67154 -2.57938 6.23531e-21)
(13.792 -3.04194 2.67741e-21)
(0.292766 -15.3674 -1.14525e-21)
(8.04437 3.24823 -8.76952e-22)
(11.3714 -1.64894 7.24205e-21)
(9.85914 -2.75631 6.02882e-22)
(7.4554 -3.6438 0)
(0.165252 0.784599 0)
(9.42227 -0.0507715 3.77814e-21)
(3.70287 6.74182 6.82884e-21)
(8.96169 -3.28332 0)
(8.45511 5.43006 -3.33439e-20)
(-6.19881 2.74815 0)
(8.77789 3.16057 1.21489e-21)
(11.5812 -2.74437 -1.04873e-20)
(4.78771 -1.86827 0)
(7.5633 1.07109 -5.19895e-21)
(1.21505 -7.12823 -3.54253e-20)
(7.5244 0.495273 -6.36246e-22)
(7.71358 -0.402985 -1.70016e-20)
(7.52446 0.974294 0)
(8.46954 -3.62671 2.648e-21)
(4.35251 -7.65563 -6.07151e-22)
(7.9122 0.118795 2.36416e-21)
(6.81709 0.036978 -9.29945e-21)
(3.6756 1.42216 9.81118e-21)
(12.7146 -1.04225 2.41364e-21)
(9.3347 -1.94956 -2.68838e-20)
(8.88486 -1.06041 0)
(9.32783 1.45455 8.2835e-23)
(9.44109 -2.02269 -5.34075e-21)
(7.9795 0.113676 2.49332e-20)
(8.68886 -2.78511 0)
(13.455 -0.815461 4.25893e-22)
(6.16566 0.814613 0)
(9.77043 -2.96639 -2.01173e-20)
(7.91711 -2.45115 -6.77185e-21)
(3.89034 -1.83398 8.94109e-21)
(9.70079 -2.44454 -9.78389e-21)
(8.02553 0.613366 0)
(8.96179 9.20852 -8.5928e-20)
(6.7622 0.779735 -3.52489e-21)
(6.86647 0.0511175 8.79391e-21)
(9.49046 -2.05718 2.01993e-20)
(10.4603 -0.995639 9.96828e-21)
(-3.76975 2.40033 -2.79862e-20)
(7.13177 -0.728 -5.30802e-24)
(9.4782 -1.09108 0)
(4.87633 -1.82532 2.12338e-20)
(11.3317 2.03557 0)
(2.19554 -7.1021 -2.50884e-21)
(9.35007 -0.569886 1.51503e-20)
(9.83671 1.56753 -2.81132e-21)
(10.6272 1.29168 2.26829e-21)
(-2.78182 1.71149 -3.02751e-20)
(7.77873 0.082457 1.27004e-20)
(7.48751 0.123817 0)
(-2.10008 -1.16314 -1.32557e-20)
(9.22022 -1.43605 -5.37133e-21)
(5.07029 8.25555 -4.70619e-21)
(8.81273 -3.47506 7.34936e-21)
(10.5841 0.180694 0)
(13.2195 -0.256922 -1.10029e-21)
(7.32487 0.252815 1.91322e-20)
(7.85952 0.163866 1.53171e-20)
(8.79159 -1.25367 0)
(7.06124 0.0127572 -3.08076e-23)
(8.59002 -0.31938 -4.70425e-22)
(-0.983987 0.761421 4.75798e-21)
(6.74612 -0.624234 2.45522e-21)
(9.21101 -1.28177 5.12322e-21)
(10.4501 0.0250244 -2.14826e-22)
(9.4173 -1.03007 0)
(10.9748 2.89638 1.03492e-21)
(-3.61682 2.09839 9.30616e-21)
(9.19078 1.16405 -5.95814e-22)
(7.97448 0.116127 9.52872e-21)
(6.45663 0.0138691 0)
(6.41711 -3.30586 -1.14588e-19)
(7.67118 -2.63289 0)
(11.9236 3.06206 -7.19755e-21)
(8.37823 -0.136949 0)
(8.67098 -3.06905 -1.43365e-22)
(5.86265 -0.947277 -5.1351e-21)
(6.44081 2.26564 1.83057e-20)
(-0.504196 0.424384 -1.80772e-20)
(6.24836 1.56838 0)
(8.99506 0.21087 -2.83405e-21)
(8.04128 0.643791 -5.65253e-21)
(1.5187 -0.842046 -1.18481e-20)
(-5.73627 -0.627867 2.81398e-21)
(6.9656 -0.624463 -2.67963e-20)
(9.21928 -1.12929 2.51187e-21)
(8.24268 0.612136 3.98129e-21)
(6.34252 -2.16706 0)
(5.9561 0.493456 9.8969e-21)
(8.79888 -2.00186 3.54782e-23)
(-6.21739 3.04644 2.94861e-20)
(-3.61057 2.30067 -3.25575e-20)
(1.21227 -0.785969 -2.30631e-20)
(10.8922 -0.0400678 0)
(1.27186 -0.680609 0)
(7.95333 3.48884 0)
(8.67621 -0.490421 0)
(3.97677 -1.30314 -3.34216e-21)
(9.91508 -2.99409 0)
(6.73219 5.77691 0)
(6.93954 -0.034514 3.66705e-21)
(11.0164 -0.0841598 -1.44298e-20)
(9.30232 -0.983195 -1.20565e-20)
(7.00282 0.751216 3.06775e-20)
(8.01241 0.12272 -2.84182e-21)
(8.63474 5.17949 0)
(9.62645 -0.926643 0)
(7.71589 0.0794291 1.08165e-20)
(7.96221 0.0712962 1.88114e-21)
(4.85034 2.323 0)
(-3.87886 2.10633 2.99333e-20)
(8.91866 -3.17996 9.17737e-21)
(-1.88546 -0.993887 0)
(10.3334 -0.45367 9.11382e-21)
(7.87448 0.110319 -1.25065e-20)
(2.16531 -7.73535 -5.59116e-21)
(4.85999 -1.77385 0)
(7.99491 0.658452 1.05319e-20)
(9.75185 0.512248 0)
(8.72665 -0.525665 0)
(8.64682 0.610054 -5.63017e-22)
(7.75178 0.164876 5.77503e-21)
(-2.63089 1.78685 -3.31634e-20)
(8.8994 1.96881 1.19248e-21)
(5.91545 -1.76685 -9.20405e-21)
(8.54575 -0.437939 1.41744e-21)
(8.28859 0.658002 3.10734e-21)
(10.9056 2.97667 -2.4791e-21)
(9.21435 -3.08282 0)
(9.88898 -2.13258 6.51899e-21)
(5.8948 -0.734741 0)
(0.930288 -6.33482 3.5973e-20)
(9.92946 -1.15465 0)
(6.20549 -0.322018 1.33723e-20)
(-1.63496 -0.200355 -3.01952e-20)
(9.23107 -0.928481 0)
(-0.678023 0.746895 1.02285e-21)
(9.54842 -1.04624 -6.47562e-21)
(1.40193 4.75892 -8.07702e-21)
(7.45292 -1.42951 2.66104e-20)
(5.80354 2.01812 -1.14015e-20)
(5.90122 -1.73937 -2.60982e-20)
(12.2929 3.00485 0)
(9.40003 -2.62836 7.60329e-22)
(-3.64237 2.37953 -6.55646e-20)
(8.00724 0.665696 0)
(7.47956 0.557567 6.97066e-22)
(9.93404 -0.0421376 -9.14602e-22)
(9.93807 3.23023 0)
(7.99962 0.0317438 0)
(-4.28803 2.32929 0)
(1.5303 1.84771 2.33975e-20)
(14.3805 -4.62479 1.76663e-20)
(14.7199 -0.605708 1.79179e-21)
(8.77352 3.00389 0)
(7.19409 -1.07171 1.7678e-20)
(7.32481 -0.208954 -1.50076e-22)
(8.88359 1.81944 -2.50839e-21)
(-6.94516 3.33247 4.40925e-20)
(7.68402 0.431368 0)
(6.86739 -0.77414 0)
(3.96675 -0.991745 -1.40984e-20)
(6.25439 -2.13582 -6.57103e-21)
(8.11743 -1.03132 0)
(7.32637 -3.4245 -9.17146e-21)
(7.35226 0.0824387 1.08619e-22)
(7.05356 -0.528474 -5.30946e-23)
(4.24385 -1.96469 0)
(9.66293 0.979753 -2.28603e-21)
(9.17949 -2.07867 1.14865e-22)
(9.77982 0.517704 2.29532e-21)
(7.85947 -2.5286 0)
(-0.281029 2.7883 -5.94074e-20)
(10.0332 1.43672 2.85745e-21)
(7.98622 0.37243 2.20857e-21)
(7.79291 0.0609992 9.25838e-23)
(9.77494 2.10941 0)
(6.96794 0.726759 -8.16837e-21)
(11.2904 1.42618 -5.46041e-21)
(1.38814 -0.915063 5.11085e-21)
(7.98447 0.202473 0)
(-5.11908 -0.187816 -2.88756e-21)
(2.9511 -0.761518 0)
(8.00896 0.204716 -8.59309e-21)
(7.95792 0.235727 3.76586e-21)
(7.62382 -0.0674813 -2.11679e-21)
(-0.158937 3.06277 0)
(8.67182 -0.0801061 -1.68157e-21)
(5.09644 0.915884 2.66941e-20)
(9.07742 -3.11718 0)
(6.86242 -0.0999924 1.12546e-20)
(9.64107 -2.73265 -7.17472e-21)
(8.59918 0.0626777 0)
(-4.01757 0.271581 1.6318e-20)
(3.55397 4.57218 1.46708e-21)
(10.4245 0.011653 0)
(0.476758 1.46985 3.94143e-20)
(7.45265 0.490627 0)
(7.40608 -3.40405 9.03556e-21)
(-3.66827 3.16408 1.86902e-20)
(7.24684 -1.2252 2.88156e-23)
(9.36834 0.447342 -4.25731e-22)
(5.92251 0.444045 5.23164e-21)
(7.48406 -1.5504 -9.79542e-21)
(6.2091 2.51874 2.6273e-21)
(7.47677 -3.36546 7.02679e-23)
(9.16957 -1.2673 4.846e-21)
(9.72754 2.06609 2.19401e-21)
(8.57742 -3.90275 0)
(7.99239 0.0922011 -8.4481e-21)
(0.292808 0.117838 -1.15314e-20)
(5.97274 -0.757628 0)
(7.92976 -2.17476 1.18884e-22)
(6.28099 0.326266 0)
(5.58989 -1.82646 2.27033e-20)
(8.51308 -3.26394 0)
(6.91484 0.0444418 1.31937e-22)
(9.56484 -0.511189 -8.67366e-21)
(-2.18229 -0.100138 3.25581e-20)
(-4.8054 2.66077 3.4782e-20)
(10.4677 0.089278 -8.02488e-23)
(7.32264 -3.51956 8.96305e-21)
(7.53449 -2.37749 9.7329e-21)
(6.41679 -1.70816 0)
(-2.99409 1.58752 -1.85769e-20)
(9.29503 -2.97605 -1.87576e-21)
(-3.11867 1.6893 -2.14955e-20)
(7.0977 -0.649255 3.26314e-23)
(6.34969 -2.56042 0)
(8.92494 0.0432269 -4.67642e-23)
(-3.67615 2.06279 0)
(-5.37862 4.50496 4.41885e-22)
(1.68154 -8.8273 7.94857e-21)
(-0.210806 -0.015303 0)
(8.51014 -2.49894 3.10799e-21)
(9.73568 -7.77737 0)
(9.97127 3.10434 0)
(7.01263 -3.35254 -1.18576e-20)
(6.26462 0.646018 8.10689e-21)
(1.393 2.52265 0)
(7.33355 0.340561 -5.22554e-21)
(14.928 0.302282 3.54553e-20)
(-3.57561 1.86034 4.09045e-20)
(10.1875 4.28866 0)
(8.53337 -0.00930025 0)
(-3.52852 2.44245 -2.81825e-20)
(7.78695 -0.728543 0)
(8.92954 0.140658 0)
(-2.47284 1.54944 -4.10981e-22)
(8.59442 -1.95919 -1.49026e-20)
(7.39879 -2.03854 8.24264e-21)
(10.8816 -1.41004 1.2202e-21)
(-3.11958 1.72213 3.95791e-20)
(7.96252 0.194568 4.32955e-21)
(6.58432 -1.8043 0)
(8.47332 1.44512 -1.62665e-21)
(6.1697 -1.22851 0)
(7.94504 -0.0627645 0)
(7.9978 0.422762 0)
(8.61844 0.589206 -4.5782e-22)
(7.68369 -0.400862 7.81874e-21)
(10.1282 -0.370027 -6.04525e-22)
(6.74293 -1.84738 0)
(-2.35049 1.32222 -2.42182e-20)
(7.84958 3.2779 3.31845e-21)
(7.7788 -2.93386 9.55271e-22)
(8.12852 0.279466 1.47951e-21)
(9.21689 -2.36 1.0899e-20)
(8.02419 0.0698856 -7.29033e-21)
(-1.64515 0.348979 0)
(10.2823 1.26671 0)
(5.64662 2.28216 0)
(5.63774 -2.56151 -1.67086e-20)
(7.37767 -9.33662 -2.94774e-20)
(-0.221899 -1.14451 0)
(8.52311 1.43489 0)
(12.0763 2.214 -1.66976e-21)
(7.90789 -0.11312 -2.23616e-21)
(7.59943 1.81574 8.95979e-21)
(8.72804 -3.53418 0)
(-2.85848 1.91488 -9.95568e-21)
(9.11728 0.223494 1.10313e-21)
(6.13338 -2.01753 -1.55554e-20)
(8.62783 0.266551 -2.67646e-21)
(8.84559 1.8212 3.88596e-21)
(11.6003 -6.19131 1.19059e-20)
(5.55138 -2.51557 2.8793e-20)
(6.5341 -4.49803 3.83281e-21)
(7.90073 -0.573306 1.73341e-22)
(7.98195 0.0364642 -2.13478e-21)
(6.54395 -3.1963 -2.77522e-21)
(3.11897 5.03389 -2.41172e-22)
(6.43734 6.31201 -3.80013e-21)
(7.14726 -3.38678 4.7806e-21)
(9.47679 1.34985 0)
(3.8519 5.88159 1.26838e-21)
(8.63734 0.0018589 -7.58154e-21)
(10.6808 2.17446 2.60486e-21)
(6.02088 -1.88819 -1.41258e-20)
(7.73877 -2.85229 -1.01453e-20)
(8.80558 -0.0969962 2.31875e-20)
(11.1505 -0.294577 -1.33255e-20)
(10.1196 6.33898 1.20887e-20)
(10.8971 0.11853 -5.89146e-21)
(5.30137 -1.15166 -3.02632e-20)
(8.63942 0.00787752 -6.26755e-21)
(5.26695 -1.37775 0)
(0.682946 -0.658669 -6.22673e-20)
(8.79216 0.0213496 1.90971e-20)
(6.04564 0.0775366 -6.14239e-23)
(-1.77644 -0.525238 0)
(7.72106 -3.5553 0)
(8.01894 1.30555 7.84989e-21)
(4.88403 -1.11275 1.86853e-20)
(9.223 -5.92078 -2.32545e-20)
(8.69023 -3.04725 -5.54629e-21)
(9.37409 -1.99679 1.47614e-20)
(11.4369 1.83899 0)
(8.02543 1.39599 4.33508e-21)
(1.50026 -14.2272 -2.03122e-21)
(9.34617 3.06321 4.15753e-22)
(8.28416 -1.39968 -1.23967e-20)
(-3.26014 1.82852 -6.37119e-20)
(9.19029 -2.07635 -1.0171e-20)
(10.0809 -2.40254 3.70726e-21)
(8.52562 3.62893 0)
(7.83626 -0.0289425 8.01033e-22)
(7.62963 -0.0729546 1.94312e-21)
(7.22933 -0.0777477 7.61827e-23)
(4.4884 -2.23443 2.64986e-20)
(8.18744 -1.40816 1.86539e-20)
(2.67146 -1.81967 2.96567e-21)
(-3.57305 2.00021 -2.48927e-20)
(8.91037 -0.349317 -2.09038e-21)
(8.7103 0.0990657 5.60899e-21)
(-2.74655 2.36423 -4.75505e-21)
(9.06991 3.00906 2.01909e-21)
(0.962642 1.03872 -4.28255e-20)
(5.5778 -2.70313 -9.031e-21)
(7.12526 -0.0540145 0)
(6.47561 -1.3698 -6.84822e-22)
(-2.21137 1.16264 -1.35253e-20)
(5.83215 -1.04825 2.7518e-20)
(9.14506 -0.680198 0)
(14.0209 -2.64702 -7.85836e-21)
(5.42099 -2.27944 6.48849e-21)
(7.96936 0.144019 -1.84468e-20)
(-4.23512 2.46124 -2.85684e-20)
(3.35671 2.41215 -2.0196e-21)
(9.34626 -1.04282 8.28786e-21)
(8.8194 0.215654 4.15484e-21)
(7.47292 -3.43907 -1.25905e-20)
(9.81557 -0.397526 7.73265e-22)
(7.92427 -7.4556 -6.13827e-20)
(8.49571 0.00588436 7.11164e-21)
(8.48527 -0.373013 -6.09893e-21)
(8.41068 0.371816 -1.52063e-22)
(10.0381 -0.0959416 -1.36456e-20)
(5.28072 -2.34226 -1.25166e-20)
(7.8474 -0.590806 0)
(-0.730004 3.15951 2.494e-20)
(8.51333 0.0747911 1.40146e-21)
(3.89949 -5.78025 -1.22389e-20)
(9.85628 0.0719876 -5.38122e-23)
(9.13442 -2.01725 -8.59618e-21)
(7.99 0.0885996 -1.44232e-20)
(8.27462 1.01115 2.37934e-21)
(-3.70898 2.07575 -3.07676e-20)
(8.85766 0.0411601 0)
(4.32625 -2.41404 6.08918e-20)
(9.43996 1.70548 2.88144e-21)
(6.37218 -2.5074 0)
(8.42989 0.306159 4.4606e-21)
(9.22085 1.54581 3.96864e-21)
(8.70552 -0.0453742 4.94259e-25)
(10.1974 -3.73042 -1.13314e-21)
(10.9623 2.147 0)
(7.18329 0.978803 1.50751e-20)
(4.38558 -1.91071 -1.85836e-22)
(7.03601 -3.31089 1.02474e-20)
(8.38227 -0.996015 0)
(6.22954 0.594606 -2.34509e-20)
(7.73164 -9.26809 5.79745e-20)
(9.29819 4.59697 -3.84405e-21)
(5.34725 -1.20245 2.95982e-20)
(10.7545 0.0157066 9.18254e-22)
(-4.74988 2.63468 2.69305e-20)
(7.94661 -0.622081 -1.25401e-20)
(10.0355 -1.71401 -9.49153e-21)
(7.27617 0.24244 -1.09816e-20)
(9.44183 -0.0357836 0)
(7.96663 0.0808186 -8.09056e-21)
(-0.241402 0.105069 1.53043e-20)
(-2.76095 -0.734702 0)
(10.0955 -3.73654 0)
(7.22838 -0.0677628 0)
(1.75063 -1.09167 0)
(8.12225 0.969313 0)
(5.1247 -1.11311 0)
(6.0644 -0.925773 -2.87408e-22)
(14.5398 -1.37668 -1.63663e-20)
(9.76722 1.05773 0)
(7.13486 0.845966 2.23976e-20)
(6.61542 6.62319 -1.27702e-19)
(8.25724 0.679092 2.03991e-22)
(-2.03102 1.26421 -7.08178e-21)
(5.14965 -0.304293 -6.32823e-23)
(-4.19002 2.31866 2.57816e-20)
(8.62821 0.0458494 -5.89239e-21)
(9.93078 -0.0631154 6.03171e-22)
(8.04706 0.934002 -5.39105e-21)
(7.55588 0.45126 -1.49324e-20)
(7.69014 2.96419 -7.23425e-21)
(12.0748 3.2102 0)
(-6.33789 2.51238 7.05436e-21)
(5.63679 -1.88246 -2.48616e-20)
(8.01652 0.0512639 -2.45291e-20)
(9.28348 -2.94237 -1.23412e-20)
(9.50548 -0.108654 2.11094e-21)
(10.3441 -2.53736 4.19093e-21)
(8.94317 -1.64108 -1.78103e-21)
(8.5764 -2.4539 -1.09295e-20)
(8.06126 0.587719 5.85887e-21)
(10.4423 6.79887 0)
(6.98857 2.84791 2.19332e-21)
(7.03628 -0.109688 -3.37286e-21)
(10.0678 -3.10957 0)
(12.0952 7.06293 0)
(7.7831 -3.5665 -6.03158e-23)
(-4.57196 2.69751 2.8847e-20)
(5.73521 -0.79413 1.78215e-21)
(13.9999 -2.1406 0)
(7.80101 -0.458901 -1.61696e-20)
(7.35272 0.498072 -2.8707e-21)
(-1.10983 2.69916 1.64554e-20)
(8.57608 0.825476 2.63379e-21)
(-4.29296 2.38976 0)
(-6.51468 2.15051 9.47407e-21)
(8.838 1.25243 0)
(7.31023 0.00388155 -1.27624e-21)
(13.2603 -0.144973 -4.80123e-22)
(8.02055 0.100895 -2.03239e-23)
(8.99373 2.04315 -5.00055e-21)
(10.0766 3.76808 -9.12474e-22)
(7.35991 -2.30436 2.00222e-20)
(-2.4401 -7.94551 0)
(8.28899 -7.75214 -2.23712e-20)
(-2.70057 -6.0729 0)
(9.93627 1.02727 -1.04606e-21)
(-3.55448 3.8884 3.71165e-20)
(10.2478 -4.25229 1.1369e-20)
(8.16391 1.20875 -6.5145e-20)
(-1.19969 1.27338 -3.05882e-20)
(6.29162 -2.93358 -1.18354e-20)
(5.77598 -1.89579 -1.45323e-20)
(8.9226 -2.11198 1.02011e-23)
(8.3354 -7.12933 1.83832e-20)
(5.32207 -2.37123 1.02576e-20)
(5.97944 -2.00613 1.58458e-20)
(6.59339 -9.74463 4.28182e-20)
(9.30236 -6.64323 -8.91749e-21)
(7.71314 -2.58719 1.01393e-20)
(-0.853943 0.519492 2.02725e-20)
(9.88995 -0.126346 5.51998e-22)
(4.39114 4.52144 1.1152e-19)
(8.96843 1.31201 -1.55036e-21)
(9.21369 -2.61254 0)
(1.78764 -1.08376 -4.68567e-20)
(8.37658 -0.0042622 -8.72318e-21)
(7.98907 0.418636 0)
(9.87757 0.949411 0)
(5.82928 -10.8156 -2.43838e-20)
(11.3405 -2.19965 -1.25005e-20)
(9.29911 0.656266 -7.27041e-22)
(8.58093 -1.91608 1.95661e-20)
(7.67168 2.93955 6.42246e-21)
(7.78085 -0.0675604 1.53423e-20)
(-2.27693 4.04355 1.07984e-22)
(7.1726 1.81292 0)
(6.10517 -2.11447 1.51698e-20)
(-1.65862 4.62377 6.91634e-21)
(-0.698562 1.33037 2.33499e-20)
(7.27021 -2.87725 3.34753e-21)
(7.764 -3.62685 -2.87787e-21)
(8.62706 -0.0667225 7.90601e-21)
(15.7303 6.9225 1.49488e-20)
(8.59418 -1.18045 3.64997e-21)
(-2.3465 4.24409 -2.13147e-20)
(9.27186 0.642972 5.87659e-22)
(7.78368 0.06219 6.36242e-21)
(5.2418 -1.35654 -1.21701e-20)
(7.77793 -0.619952 1.00875e-20)
(12.0729 7.88956 0)
(9.25082 1.15469 1.17564e-21)
(7.88543 0.0777745 1.41609e-21)
(6.39087 -1.59065 -4.88735e-21)
(7.36471 5.34593 -1.85478e-21)
(7.61806 -2.54259 7.44808e-21)
(7.85805 0.00282481 2.82424e-21)
(5.94352 -0.036197 -1.79046e-20)
(10.1613 -2.82615 0)
(10.0694 -3.18278 -1.04529e-19)
(8.70239 0.286222 3.62376e-21)
(9.64729 0.650674 0)
(6.11212 -0.397227 1.02819e-20)
(8.65026 0.839744 0)
(6.48651 5.35434 1.35684e-20)
(10.7102 -0.210793 0)
(6.75902 1.97815 0)
(10.2413 0.575334 2.33974e-21)
(9.16611 0.49159 9.56883e-22)
(10.8748 0.581067 -9.00548e-21)
(7.7044 0.397857 -6.81578e-21)
(6.29665 3.13537 -5.31522e-21)
(7.99952 0.331441 -2.68683e-21)
(8.22921 0.999513 0)
(4.12406 3.86368 -4.46133e-21)
(9.49754 0.431095 8.59413e-22)
(7.53944 0.277081 3.03788e-21)
(9.20663 -2.58082 0)
(10.7138 2.10132 4.04039e-21)
(8.16096 5.15338 -1.46074e-22)
(10.0601 -0.0911036 2.20841e-21)
(5.82655 -4.7952 0)
(-2.21968 1.87738 2.50161e-20)
(8.15185 0.581702 0)
(8.85491 -0.789929 -1.82165e-21)
(1.11424 -0.792812 0)
(10.437 2.70439 0)
(6.92697 -5.43843 0)
(8.36828 -3.24248 0)
(-2.24284 2.57793 -4.60445e-21)
(1.27941 1.82275 -5.4202e-21)
(7.66039 -0.410387 -1.16846e-20)
(-2.83325 -0.340946 -3.68881e-20)
(5.64517 -2.46201 0)
(3.72493 -2.7821 -2.61468e-20)
(0.25757 -0.460218 -3.67449e-20)
(6.7393 -3.17887 0)
(6.36915 -2.3717 -1.65024e-20)
(7.03174 -3.56904 -2.21558e-22)
(8.94039 1.24693 3.89202e-21)
(9.89662 -3.35917 3.22353e-21)
(7.50129 0.383946 0)
(8.97343 -3.02949 0)
(12.1981 1.12817 4.82114e-21)
(4.28447 5.5634 -1.56442e-22)
(9.86697 -3.16468 -1.0168e-21)
(5.87497 -10.5536 3.40039e-21)
(7.99743 0.0341969 5.98668e-22)
(5.92943 -1.12193 -8.68114e-23)
(8.05722 0.589832 8.34902e-21)
(8.32357 -7.80622 4.89951e-20)
(7.9005 -2.4034 0)
(-2.95858 1.83077 0)
(9.61369 -0.418749 0)
(6.85214 0.154296 0)
(7.32191 -1.63874 7.14968e-21)
(10.3328 -0.206271 0)
(-2.57929 2.50848 5.4566e-20)
(11.2362 -6.13363 -4.81046e-22)
(5.87443 -2.05057 -2.38423e-20)
(6.95069 5.00386 6.11087e-20)
(1.77818 2.22543 -1.32699e-20)
(-2.47771 3.47214 -2.85487e-20)
(8.76302 0.0842704 2.24014e-21)
(-2.66365 4.40345 -1.68152e-20)
(5.99081 -9.00698 5.57958e-20)
(10.4009 0.522148 0)
(9.87293 -2.10174 0)
(8.00546 9.29166 0)
(9.07915 -2.11121 4.58962e-21)
(8.79469 -6.44368 0)
(7.284 1.76078 0)
(8.01014 0.0418501 0)
(7.46257 -2.03193 7.7541e-21)
(8.26419 0.625278 -7.98174e-21)
(7.53352 -0.158072 0)
(6.54172 -1.46913 1.02523e-21)
(7.88592 0.62222 -8.06105e-21)
(9.29573 2.89767 -1.15146e-21)
(6.85227 -3.17327 1.03035e-20)
(7.51722 2.02131 6.65516e-23)
(2.95265 2.83167 -2.28655e-22)
(13.7404 8.45211 8.36847e-21)
(5.92215 0.651757 4.84755e-21)
(9.17187 0.536379 -1.18683e-21)
(9.71603 -2.62016 -1.30852e-21)
(7.41457 0.0310811 -1.08725e-20)
(8.40543 0.0110503 0)
(3.07452 -6.97239 9.44943e-21)
(7.83218 0.140946 1.13507e-20)
(1.89548 -14.299 4.30622e-20)
(8.90344 -1.55407 -5.17993e-21)
(4.98173 -1.20058 -2.03251e-20)
(9.20919 0.435032 1.76282e-22)
(11.2323 1.33152 7.89925e-21)
(8.01709 0.310023 0)
(6.8413 6.10359 2.7067e-21)
(16.0856 -1.81006 -4.27555e-21)
(6.40693 1.66937 -6.53321e-21)
(-6.62831 3.40975 -5.0305e-20)
(8.03685 -0.0210533 6.12699e-21)
(8.7402 -0.436041 -1.96979e-22)
(10.4429 -0.023083 -6.80902e-22)
(9.86742 -0.447379 0)
(12.837 -0.0395864 0)
(6.41536 -3.06782 1.26207e-20)
(-4.28547 2.43228 3.08581e-20)
(7.12105 0.0108883 1.42487e-23)
(7.8555 0.13224 2.26494e-20)
(5.91612 5.45183 -7.74049e-21)
(6.17838 0.457048 0)
(7.32731 0.0630455 0)
(6.87465 -1.75468 -6.71012e-23)
(9.84217 0.432226 3.70726e-21)
(7.6671 1.86624 1.22528e-20)
(11.2936 -0.295138 0)
(8.21441 -0.264246 0)
(8.62627 -2.67875 1.54501e-20)
(8.257 -0.918974 9.97144e-21)
(3.04809 8.59074 -3.39077e-22)
(8.42218 0.150039 0)
(10.7642 2.49871 5.63074e-21)
(7.42308 -2.71238 -7.97895e-22)
(-2.44433 1.51863 -1.82956e-20)
(8.07659 -0.23772 -1.33043e-20)
(13.4727 -0.908117 0)
(11.3294 -2.04935 9.90416e-21)
(7.82225 -4.88203 -2.51786e-20)
(1.43711 5.35511 0)
(7.57408 0.0722688 -4.04988e-22)
(7.68675 0.237465 -7.35015e-21)
(7.17375 0.0869986 4.23766e-25)
(13.3057 -1.18478 6.67219e-22)
(8.35512 8.12749 1.0249e-20)
(8.62986 0.063659 0)
(4.92666 -1.89377 -1.15622e-22)
(7.25569 6.6002 6.89585e-21)
(7.49973 -3.43444 -4.66621e-20)
(8.09351 0.939016 6.3839e-21)
(-2.07351 -10.2452 2.91626e-20)
(7.81186 0.00421732 -2.91605e-20)
(2.52843 -1.71313 -7.35123e-22)
(12.3085 10.3287 3.9526e-20)
(7.34916 -1.90482 0)
(12.126 -0.629956 1.87695e-21)
(5.22611 -2.42674 8.27802e-21)
(9.39317 -0.508542 -1.6445e-20)
(7.89798 0.0904578 -1.02851e-20)
(8.69619 -0.812845 1.32522e-21)
(7.05428 -1.01228 2.55194e-20)
(9.78481 -0.0963059 -6.58204e-22)
(7.31786 0.0982369 6.22173e-21)
(7.9246 -2.30207 1.89985e-22)
(11.36 -1.40173 -1.3787e-20)
(9.19402 3.22595 -5.75577e-22)
(9.33853 -6.36652 1.82589e-20)
(8.66295 -0.114493 0)
(6.94537 9.43751 0)
(3.72413 -0.98481 0)
(5.85921 -1.92251 1.83003e-20)
(7.89979 0.0588115 -1.64394e-20)
(7.29138 0.527066 0)
(6.54595 -1.65551 -1.45912e-20)
(7.24794 0.436393 0)
(7.34949 -1.50289 -1.18364e-20)
(6.53259 0.177281 3.50442e-21)
(7.82477 -2.27116 -1.11775e-20)
(8.7527 0.0639184 0)
(7.79928 0.0213318 0)
(8.8289 0.544702 -1.71158e-21)
(9.70765 0.893774 8.4596e-23)
(9.7308 -0.230797 4.42188e-21)
(8.52792 5.38076 -6.68074e-22)
(11.9909 -0.797733 0)
(7.307 -2.79703 -5.57819e-21)
(-1.24242 0.730151 0)
(4.04133 2.26378 -1.00398e-20)
(10.1558 3.71055 0)
(8.58346 -0.505946 4.16397e-22)
(5.3302 -1.0452 7.85334e-21)
(6.51878 -0.935086 8.06959e-21)
(9.27561 0.150505 1.50864e-21)
(10.9349 -6.37499 -4.37955e-20)
(8.14967 -1.046 2.50824e-20)
(8.1474 0.978021 -1.95714e-22)
(9.36692 -2.22601 -5.00138e-21)
(8.29927 -2.08864 -5.83547e-21)
(-0.920232 -0.724407 1.61818e-20)
(9.77652 1.42579 0)
(7.92713 0.12385 3.23543e-23)
(6.62847 -1.8587 0)
(13.5237 9.32372 -3.41013e-20)
(7.38006 -2.80136 -2.93961e-21)
(7.07984 -0.893995 -8.39113e-21)
(6.99597 0.0145026 3.42039e-23)
(9.88224 0.109921 -3.12363e-21)
(7.00951 -0.519651 1.71439e-20)
(10.434 -0.184144 -6.28179e-21)
(9.3583 -3.00789 0)
(-3.19575 2.36246 0)