/*--------------------------------*- C++ -*----------------------------------*\
| =========                 |                                                 |
| \\      /  F ield         | OpenFOAM: The Open Source CFD Toolbox           |
|  \\    /   O peration     | Version:  2306                                  |
|   \\  /    A nd           | Website:  www.openfoam.com                      |
|    \\/     M anipulation  |                                                 |
\*---------------------------------------------------------------------------*/
FoamFile
{
    version     2.0;
    format      ascii;
    arch        "LSB;label=32;scalar=64";
    class       volVectorField;
    location    "8.1";
    object      U;
}
// * * * * * * * * * * * * * * * * * * * * * * * * * * * * * * * * * * * * * //

dimensions      [0 1 -1 0 0 0 0];

internalField   nonuniform List<vector> 
13486
(
(1.43423 -0.220449 5.43731e-19)
(1.66307 0.27578 2.79708e-19)
(2.69989 0.0369675 0)
(-2.08113 0.997032 -1.5147e-18)
(2.36598 -0.420266 1.74756e-20)
(2.48 0.176076 -1.46268e-21)
(2.4712 -0.150595 -9.55467e-21)
(2.00019 -0.698773 -1.7728e-19)
(1.94265 -0.372106 0)
(1.96887 0.753383 0)
(-0.830954 2.56154 -8.6322e-19)
(2.49613 -0.0759959 0)
(1.27551 -0.419169 -5.32693e-19)
(2.41754 0.783965 -1.1892e-20)
(2.37948 -0.201344 2.48636e-20)
(1.9277 0.742936 -2.03067e-19)
(1.06862 -0.296799 6.81919e-19)
(0.504728 -0.676705 2.18038e-19)
(2.17685 -0.0103694 2.3972e-21)
(1.61522 -0.052965 -5.57944e-19)
(-2.1632 0.496978 -6.19212e-19)
(1.29601 -0.435182 6.87251e-19)
(1.68421 0.270395 -2.23573e-19)
(4.07808 -0.623597 0)
(2.02707 0.607344 6.95371e-20)
(3.95394 -0.600443 -3.70639e-19)
(0.374643 -0.231599 7.7853e-19)
(3.03632 -0.209984 5.87469e-19)
(2.02464 0.123503 0)
(2.88251 -0.465962 -4.7794e-19)
(-1.80981 -0.259079 -3.98378e-19)
(2.35421 -0.168873 -9.59394e-20)
(3.34136 0.0186868 4.47004e-19)
(2.28379 -0.154701 0)
(2.01011 -0.671478 0)
(1.70049 0.0143032 1.81159e-21)
(1.58087 0.0992167 -5.82605e-20)
(1.46433 -0.686711 2.3953e-19)
(1.80193 -0.186298 -1.64446e-20)
(1.97281 -0.22697 2.42758e-19)
(2.59417 -0.732964 0)
(0.858631 -0.425466 -6.24451e-19)
(1.98554 -0.00360585 0)
(2.04539 0.507077 -3.27708e-19)
(2.06328 0.506494 1.35085e-19)
(2.49678 -0.0755476 8.00994e-20)
(-0.939205 -0.302898 1.31504e-18)
(2.00184 0.120597 -8.46148e-23)
(1.59727 0.108452 4.39327e-20)
(2.85049 0.0217141 1.93361e-19)
(1.99947 0.0248286 3.44873e-19)
(1.8622 -0.0474804 0)
(2.5047 -0.179137 -1.3501e-19)
(1.63272 -0.601282 -3.56484e-19)
(0.505751 -0.961352 0)
(2.32988 -0.431356 -2.95397e-20)
(2.51562 0.71947 5.6436e-20)
(1.85852 -0.0983311 -7.49416e-20)
(3.33219 0.0500106 5.43924e-19)
(1.31919 0.00668763 0)
(-0.930681 2.65994 -1.16546e-18)
(1.30672 0.0559009 0)
(3.64268 0.635195 -3.49886e-19)
(-2.09755 0.503443 -6.60928e-21)
(2.19274 -2.4316 0)
(1.54113 0.11481 -3.14628e-20)
(-2.34024 1.09068 -1.53207e-18)
(1.42019 0.0414133 1.9176e-19)
(1.94285 -0.394339 -1.30261e-19)
(1.58798 0.0122822 1.86413e-20)
(-2.12937 1.02318 1.75282e-18)
(0.534925 -0.879796 8.75188e-21)
(1.99223 -0.111086 1.88642e-19)
(-0.704873 0.125912 -4.34093e-19)
(1.46575 0.201489 -8.72854e-21)
(2.57249 0.651358 -1.08609e-20)
(1.48214 0.216795 2.38683e-20)
(2.38757 -0.207608 -8.12485e-21)
(-0.762807 0.0167197 -6.93833e-19)
(1.87006 -0.626694 0)
(1.96387 0.0306893 6.6903e-22)
(1.60443 0.374355 -1.79336e-20)
(3.38337 0.560865 -2.13727e-20)
(2.78158 0.0246533 -2.59743e-21)
(1.42608 -0.232552 -1.06353e-18)
(1.30105 1.60663 0)
(1.5841 -0.321655 2.19202e-21)
(2.0017 0.0390455 -5.2696e-19)
(1.86869 0.206321 -2.28049e-19)
(1.80674 1.00224 -2.38091e-19)
(2.38296 -0.218155 -8.04125e-20)
(2.14393 -0.57508 -7.84291e-20)
(1.49499 -0.323636 1.36794e-19)
(1.65381 0.0782313 1.49263e-20)
(1.84248 -0.567974 5.19843e-20)
(1.98531 0.0981788 -1.6317e-23)
(0.416642 -0.246937 0)
(-2.58478 1.18032 9.32497e-19)
(1.98744 -0.224047 -4.63728e-19)
(1.25112 -0.241001 7.68123e-21)
(1.8676 0.0230199 0)
(2.38765 0.778953 -7.8529e-21)
(-2.64752 1.09768 4.90886e-20)
(1.85327 -0.0832208 8.78458e-20)
(1.26686 1.55252 0)
(1.18024 -0.174015 8.9697e-21)
(1.97928 0.0598367 7.05847e-23)
(1.81322 -0.214359 -3.61985e-20)
(-0.776092 0.0102243 9.09074e-19)
(1.82433 -0.813547 0)
(1.27412 -0.6102 0)
(2.32828 -0.135948 -7.17097e-20)
(1.64252 -0.581759 3.76892e-21)
(2.39121 0.361939 -7.02786e-22)
(1.05852 -0.0619149 0)
(1.21661 -0.600246 -1.80277e-19)
(2.02159 0.624571 0)
(2.39925 -0.126103 0)
(1.982 -0.110604 0)
(1.67385 0.125473 -2.32086e-20)
(0.620721 -0.629939 -9.69901e-20)
(-1.13456 2.64832 0)
(1.81223 -0.5095 0)
(1.80944 -0.189926 5.30735e-20)
(1.89388 -0.658789 0)
(1.85167 -0.0434802 0)
(2.20468 -0.230771 4.42532e-21)
(2.20079 0.0762356 1.35752e-19)
(1.91463 -0.0703313 -6.68413e-20)
(2.60449 -2.62667 -6.60572e-19)
(1.83127 -0.0295908 -9.26294e-21)
(-1.16413 -0.37835 -3.32236e-19)
(0.417091 0.448583 8.0818e-19)
(-0.225124 0.164119 5.67666e-19)
(1.9996 0.0124742 -5.58709e-20)
(1.89116 0.412956 -2.74537e-19)
(0.637857 0.703518 -1.67936e-19)
(1.84322 -0.802843 0)
(1.68798 0.122895 6.42433e-21)
(2.02846 -0.551476 -7.05445e-20)
(3.1401 0.104308 -4.53163e-19)
(2.49439 -0.19117 1.146e-19)
(2.40116 -0.159196 0)
(1.90149 -0.595401 0)
(2.09388 0.00331429 -1.16487e-21)
(3.6037 0.614487 -6.97597e-19)
(2.14243 -0.0877487 -1.22627e-20)
(0.286145 1.6016 0)
(2.86239 0.049926 0)
(2.03062 0.11584 0)
(2.01032 0.0185272 5.74867e-21)
(2.42941 -0.271442 0)
(1.95249 0.0174729 -7.02263e-22)
(1.58004 0.373362 -1.53352e-19)
(2.18837 0.327181 0)
(2.89031 0.0507089 0)
(1.66691 -0.743205 0)
(-0.503853 0.522023 2.86389e-19)
(1.73547 -0.692832 4.6893e-19)
(1.87616 -0.46439 -8.74091e-20)
(2.73147 0.0264148 9.75678e-20)
(1.74521 -0.672239 -7.09433e-19)
(2.31743 -0.272235 8.38779e-20)
(0.76429 -0.363439 2.73007e-19)
(1.87649 -0.0622562 0)
(2.52415 0.780934 -2.7955e-20)
(2.34237 0.710617 8.88266e-20)
(0.440457 -0.132061 -7.0091e-19)
(2.11413 -0.0834744 3.15394e-20)
(-0.236453 0.180489 1.52853e-19)
(0.297341 0.402361 1.29844e-20)
(2.18286 0.299558 1.12939e-19)
(1.99749 0.0807117 -4.46372e-19)
(2.30814 -0.151474 6.28514e-21)
(1.95266 0.058866 -3.90459e-22)
(-2.30931 1.25646 0)
(2.38098 1.09577 -2.29638e-21)
(3.22746 0.194096 5.92787e-19)
(1.98713 0.0563653 -5.35431e-19)
(2.40837 -0.152324 0)
(2.02237 -0.272312 4.62672e-19)
(2.3825 0.328208 -8.28637e-22)
(2.3505 -0.134075 -1.67257e-21)
(-0.485975 0.420563 0)
(2.65778 -0.0520529 1.58796e-20)
(2.79561 -0.190151 -2.63767e-19)
(2.09861 0.109409 -2.45362e-22)
(2.80006 -0.347026 -1.34412e-19)
(2.60623 -0.706541 0)
(1.09184 -0.525947 -2.42249e-19)
(1.62893 0.134479 0)
(2.53195 0.0608094 0)
(1.90553 -0.147112 0)
(1.27381 0.817684 -3.27384e-19)
(1.95653 -0.179097 0)
(-1.03481 2.51343 -2.4292e-19)
(2.34005 -2.77197 1.43599e-18)
(2.64189 0.00270757 5.82013e-20)
(1.08432 -0.534975 -1.09496e-19)
(2.50476 0.742224 -1.84262e-22)
(-1.77568 -0.359409 4.16783e-19)
(2.21225 0.0969575 -4.13647e-21)
(1.34672 -0.649455 -2.76836e-19)
(1.79505 -0.755725 -3.87805e-20)
(1.9489 -0.587133 1.07748e-19)
(1.98098 -0.166751 -6.75403e-20)
(-0.0189206 -0.822221 4.67741e-20)
(1.91215 -0.0459816 4.07064e-19)
(1.89035 -0.153141 0)
(2.67511 -0.0363793 0)
(3.05514 -0.243442 4.39358e-19)
(3.89881 -1.23139 8.27657e-19)
(1.63327 -0.0389285 5.10605e-19)
(1.97281 0.0588763 1.72831e-22)
(2.47593 0.217762 1.68481e-21)
(2.27912 -0.916605 5.89483e-20)
(2.91346 -0.400151 0)
(1.80518 0.986408 5.80369e-19)
(1.58276 -0.346633 0)
(3.10882 0.861358 0)
(1.1865 -0.300655 -1.30251e-18)
(2.89458 0.0886875 0)
(2.00776 -0.547372 1.60659e-19)
(2.6956 0.0400186 0)
(2.56177 -0.211961 -2.3721e-20)
(1.24119 -0.584067 1.85676e-19)
(2.5961 0.389534 -2.87318e-21)
(-1.86752 -0.657739 4.0402e-19)
(2.18507 -0.571268 9.44711e-21)
(1.6339 -0.323252 -3.05196e-21)
(2.03121 -0.263397 -1.49243e-19)
(1.89545 -0.079594 5.7497e-19)
(3.18091 0.0960837 5.67002e-19)
(0.88114 -0.427373 2.15043e-19)
(-2.53643 0.667486 0)
(1.05422 -0.512984 2.14391e-20)
(2.66398 -0.302005 2.32128e-19)
(2.54398 0.0447671 3.42649e-21)
(0.92283 -0.445707 5.84277e-19)
(2.36458 -0.0843659 0)
(3.41588 0.0282716 0)
(2.00309 0.0579993 6.8198e-19)
(2.45057 0.20198 0)
(0.930558 -0.461584 1.89543e-19)
(1.75481 -0.236051 -3.0759e-20)
(1.8141 0.0730085 0)
(2.22457 -0.00978332 -3.26807e-20)
(3.36407 -0.626149 1.01955e-18)
(-0.243217 -0.0564928 9.17568e-19)
(2.01163 0.482333 0)
(-2.65016 1.65184 -4.35352e-19)
(1.02315 -0.0329182 8.23043e-20)
(1.03435 -0.506913 2.21293e-19)
(1.82244 -0.219761 0)
(2.04648 -0.534074 4.82533e-20)
(-2.03878 1.57879 3.70253e-19)
(2.35334 -0.17361 8.93186e-20)
(2.2364 -0.946869 -7.46498e-20)
(5.26369e-05 0.547065 -2.9677e-19)
(3.41142 -0.000638609 4.07855e-19)
(1.77803 0.221929 0)
(1.74317 -0.230593 -1.1103e-21)
(2.36832 -0.203427 -6.41687e-20)
(-2.26806 1.48567 -4.56893e-19)
(2.27737 -0.67396 -2.12011e-20)
(-0.55529 0.542055 0)
(2.21011 -0.550281 -1.26086e-19)
(-2.12222 -0.0271127 -6.47952e-19)
(2.15121 -0.00396481 -2.19888e-19)
(1.10191 -0.480375 0)
(1.51525 0.898178 2.41009e-19)
(1.97824 0.0613077 -1.47579e-19)
(2.94075 -0.423922 0)
(2.52436 -0.120464 6.92225e-20)
(1.16934 -0.562669 2.45096e-19)
(3.25147 -0.665548 -5.7021e-19)
(2.05543 -0.489044 0)
(0.914263 -1.87052 0)
(1.84085 -0.249102 -3.94289e-20)
(2.25249 -0.0861886 2.44095e-20)
(0.918997 -1.98833 2.7735e-19)
(2.13491 -0.177603 -1.6645e-19)
(1.94789 0.0790665 3.18805e-19)
(3.99375 0.238608 -7.35033e-19)
(-1.34583 2.55105 1.39e-18)
(0.719132 -0.145742 1.30438e-18)
(3.10007 0.195718 4.41856e-19)
(1.85981 -0.0943719 8.76483e-20)
(2.64774 -0.213918 3.44047e-20)
(2.11938 0.00483424 0)
(-2.55405 0.75466 0)
(1.60516 -0.259193 3.74827e-20)
(1.24915 -0.600766 1.85314e-19)
(1.99792 0.0191481 -5.48537e-20)
(2.71725 -0.292488 2.1639e-19)
(2.7379 -0.331744 0)
(2.14839 -0.0311379 -1.3146e-19)
(2.54215 -0.102646 -5.359e-20)
(1.94019 0.064982 -2.90934e-19)
(2.62624 -0.309823 -1.45245e-19)
(1.98225 -0.240927 -1.00802e-19)
(0.0977392 -0.866241 1.72126e-20)
(2.29092 -0.0816181 -2.09959e-20)
(2.35317 -0.166714 9.39368e-20)
(1.65824 0.0828663 9.6557e-21)
(1.48694 -0.670548 0)
(1.09713 -0.00170356 0)
(2.19928 -0.0263579 6.64259e-20)
(1.63255 -0.354698 1.1435e-21)
(1.61152 0.1289 0)
(1.78415 1.24182 -1.05961e-18)
(-2.04683 1.02336 0)
(2.287 1.0664 3.60473e-20)
(2.32426 -0.144861 -9.16834e-20)
(1.14197 1.94719 0)
(1.87966 0.405369 -1.70646e-19)
(1.57547 -0.280821 -5.60206e-20)
(1.86437 0.195314 -1.95459e-20)
(1.90552 -0.0389856 -4.51981e-19)
(2.29575 -0.564051 0)
(1.55463 0.128607 5.7567e-20)
(1.63579 -0.199352 -1.8659e-22)
(1.99508 0.0542128 6.77921e-20)
(1.63618 0.123921 -2.81658e-19)
(0.736265 0.677572 3.09247e-19)
(2.37631 -0.20685 1.62424e-19)
(2.2443 -0.307034 -3.19714e-19)
(2.14859 -0.177633 0)
(2.60256 -0.0871289 1.08272e-21)
(2.27783 -0.302941 -4.24839e-20)
(2.00093 0.0256146 7.63586e-19)
(2.17355 -0.572749 0)
(2.35832 -0.242013 -4.4688e-20)
(1.4381 0.368177 0)
(2.50218 -0.141818 1.81028e-19)
(1.9144 -0.522971 -1.34466e-19)
(0.686348 -0.32288 2.63113e-19)
(2.41802 -0.296184 8.81475e-22)
(2.01693 0.186203 0)
(1.73195 -0.235974 -4.77421e-20)
(2.25017 -0.567363 1.3798e-19)
(1.64563 0.130936 2.65964e-19)
(2.29613 -0.302992 1.94601e-19)
(2.34483 -0.13542 1.37448e-19)
(-1.94566 1.90517 -9.47316e-19)
(2.00285 0.111795 1.24527e-22)
(2.24152 -0.161474 0)
(1.01292 -0.357206 6.28823e-19)
(3.12424 0.838128 0)
(1.62297 -0.253724 6.11318e-23)
(2.28292 -0.0862887 2.6884e-19)
(2.57848 -0.103059 -5.22185e-20)
(2.53324 -0.119487 5.35798e-20)
(0.417728 -0.2223 -9.11749e-19)
(1.94866 0.0646969 3.62663e-19)
(1.87748 0.0252449 0)
(-0.514715 0.29622 -4.05009e-19)
(2.21058 -0.231004 -8.70702e-20)
(1.66146 -0.337652 -3.93628e-21)
(3.57777 -1.33333 6.43825e-19)
(2.39342 -0.0159294 0)
(2.43911 -0.237198 1.16281e-19)
(1.79899 0.152333 5.73225e-19)
(1.97433 0.0689384 4.49415e-19)
(2.91131 -0.488283 0)
(1.94974 0.00872484 -2.79696e-22)
(2.77592 -0.324691 -2.18028e-19)
(-1.39515 -0.739451 1.94453e-19)
(1.59588 -0.0547856 7.09686e-20)
(2.21218 -0.200783 8.27762e-20)
(2.03188 0.00845148 -5.24234e-22)
(2.23762 -0.15911 0)
(2.57334 -0.209435 -7.89853e-20)
(-2.58631 1.80224 4.19238e-19)
(2.43879 0.433567 -2.08025e-20)
(1.99815 0.0242673 2.90033e-19)
(1.38757 0.0284458 0)
(1.6734 -0.229948 -5.80249e-20)
(1.22533 1.95219 0)
(3.20022 1.3009 -2.37012e-19)
(2.1617 -0.0225537 0)
(2.16132 -0.667336 -7.82487e-21)
(1.32984 -0.120009 -1.53381e-19)
(1.50418 0.830518 5.70596e-19)
(-1.30165 -0.551366 -7.43087e-19)
(2.09373 -0.486608 0)
(2.38698 0.0649494 -9.47073e-20)
(2.02327 0.194229 -1.82625e-19)
(0.952004 -0.579229 -3.56904e-19)
(-1.64768 0.0984937 5.32258e-20)
(1.66071 -0.052793 -7.67597e-19)
(2.98174 -0.364449 2.22619e-19)
(2.09106 0.19523 1.33816e-19)
(1.46419 -0.45145 0)
(1.36653 0.299324 3.11533e-19)
(1.71258 0.155146 -1.71785e-20)
(-2.22317 1.07733 8.93129e-19)
(-2.61479 1.70487 -1.43148e-18)
(1.16897 -0.558839 -7.69045e-19)
(3.1371 0.169332 0)
(1.00846 -0.596743 0)
(1.96956 1.16934 0)
(2.13049 -0.079714 0)
(1.1592 -0.136697 -2.7811e-19)
(2.44714 -0.121488 0)
(1.448 -0.255129 0)
(1.6758 0.0954787 1.08578e-19)
(3.23061 0.214069 -6.1512e-19)
(2.21726 -0.152871 -2.13671e-19)
(1.70367 0.317217 9.58005e-19)
(2.00563 0.0195216 -9.33673e-20)
(2.25805 1.68678 0)
(3.019 -0.272458 0)
(1.93141 0.0683228 3.1087e-19)
(2.0258 0.0508316 5.54814e-20)
(1.29028 0.868979 0)
(-0.622578 0.444768 9.96024e-19)
(2.25992 -0.694869 2.38674e-20)
(-0.233819 0.0910848 0)
(2.36139 -0.0845186 1.45905e-19)
(1.98255 0.0552526 -3.59628e-19)
(0.353544 0.233568 -9.52905e-20)
(1.00714 -0.343381 0)
(2.00768 0.19971 3.37529e-19)
(2.65683 0.232449 0)
(2.80085 -0.345287 0)
(2.21982 0.206103 -1.93651e-20)
(1.94142 0.0835231 1.68372e-19)
(0.376142 -0.253595 -1.00783e-18)
(2.30211 0.698572 4.05149e-20)
(1.34416 -0.344412 -2.63475e-19)
(2.13971 -0.0694994 3.13092e-20)
(2.09442 0.190442 1.05269e-19)
(2.68947 -0.212872 1.91401e-19)
(2.37002 -0.656995 0)
(3.37417 -0.47923 4.82411e-19)
(1.33776 -0.0605344 0)
(1.63405 -0.241386 3.26612e-20)
(2.29423 -0.160372 0)
(1.44437 0.0557945 4.06292e-19)
(-0.58837 -0.528923 -1.16212e-18)
(2.94134 -0.349975 0)
(-0.193163 0.108454 2.57301e-20)
(3.03634 -0.301495 -4.73966e-19)
(1.71619 -0.256889 -1.25504e-20)
(1.79247 -0.25839 6.74032e-19)
(1.39887 0.813289 -3.60021e-19)
(1.33454 -0.334161 -7.56549e-19)
(3.33498 1.28834 0)
(1.65881 0.115134 2.27806e-20)
(-1.9442 2.05178 -2.38528e-18)
(2.01209 0.207156 0)
(1.84647 0.219568 2.12817e-20)
(2.98436 -0.0131785 -4.11454e-20)
(2.65841 1.17335 0)
(2.00369 0.0168895 0)
(-1.87148 1.11854 0)
(-2.07115 0.952141 1.78579e-18)
(3.54748 0.243745 8.83992e-19)
(3.37548 0.650837 1.0908e-20)
(2.25588 1.02167 0)
(1.72471 -0.168821 4.78993e-19)
(1.94306 0.0574217 7.79521e-22)
(2.30097 0.644567 -8.70703e-20)
(-2.11361 0.79656 1.1661e-18)
(1.91276 0.155686 0)
(2.01122 0.120982 0)
(0.74419 -0.120656 -4.38359e-19)
(1.43637 -0.443661 -1.80332e-19)
(1.97697 -0.171375 0)
(1.33469 -0.641054 -1.26963e-19)
(1.88767 0.0240049 -7.32296e-23)
(1.98861 0.0899702 5.76175e-23)
(0.770081 -0.359508 0)
(1.9593 -0.0515038 8.88689e-20)
(1.7024 0.126466 1.70847e-20)
(2.6543 0.20869 8.12658e-20)
(1.89822 -0.544483 0)
(0.841923 -0.111545 -1.9675e-18)
(2.55197 -0.107191 5.84424e-20)
(2.00085 0.0844835 6.99111e-20)
(1.82369 0.0370176 7.55313e-21)
(2.59383 0.773069 0)
(1.67856 0.313329 -2.5516e-19)
(3.12101 0.613921 -1.94199e-19)
(1.2534 -0.49847 1.61649e-19)
(2.00775 0.046866 0)
(-1.69179 0.0697035 -5.46848e-20)
(0.486222 -0.10018 0)
(2.00424 0.044873 -2.73212e-19)
(1.99198 0.0618618 1.14912e-19)
(1.89154 0.0447009 -6.05382e-20)
(-2.19253 1.22668 0)
(2.30108 0.0267588 -1.51495e-20)
(1.0929 0.442434 8.57694e-19)
(2.33187 -0.653144 0)
(1.64455 0.0832841 3.37669e-19)
(2.5903 -0.344354 1.65698e-19)
(2.2104 -0.0163923 0)
(-2.07393 -0.162662 3.37055e-19)
(1.89133 -0.567201 -7.62629e-20)
(2.04872 0.0016703 0)
(1.0583 -0.0109457 1.2969e-18)
(1.83539 0.20878 0)
(1.70356 -0.77107 1.72005e-19)
(-2.70265 1.63242 8.74628e-19)
(2.09481 0.123378 2.64376e-22)
(2.50304 0.177625 -1.72422e-20)
(1.35979 0.280068 1.64161e-19)
(1.78205 -0.284097 -2.47728e-19)
(2.0974 -0.441831 -5.34292e-20)
(1.74201 -0.777136 3.43192e-21)
(2.19374 -0.205982 8.41357e-20)
(2.57911 0.779144 6.69802e-20)
(1.91186 -0.830531 0)
(1.99735 0.020198 -2.57216e-19)
(-0.011115 0.163297 -4.21218e-19)
(1.36494 -0.0719383 0)
(1.70003 0.25667 -5.26213e-21)
(1.54671 0.00908507 0)
(1.22478 -0.360015 6.56574e-19)
(2.13178 -0.74523 0)
(1.74293 0.0031441 -5.76527e-21)
(2.30058 -0.0861167 -1.53475e-19)
(-1.95428 -0.40141 6.29438e-19)
(-2.20874 1.26339 1.32383e-18)
(2.29541 -0.0175583 -1.35922e-21)
(1.39531 -0.65503 5.24544e-20)
(1.79631 -0.503805 2.19313e-19)
(1.48988 -0.328001 0)
(0.220533 -0.0858225 -5.48737e-19)
(2.38765 -0.576623 -6.61428e-21)
(0.225635 -0.0642873 -6.37814e-19)
(1.99226 0.102868 -1.22823e-22)
(1.45434 -0.56636 0)
(2.23054 -0.0208311 -1.57142e-21)
(-0.703623 0.588232 0)
(-2.67571 1.15027 5.10684e-20)
(0.138274 0.203107 1.15315e-19)
(0.390173 0.472949 0)
(2.09406 -0.500624 4.88978e-20)
(2.1232 -2.51223 0)
(2.67604 1.08984 0)
(1.47957 -0.696026 -2.27454e-19)
(1.46741 0.339803 2.5322e-19)
(1.66809 -0.729648 0)
(1.80534 0.177214 -1.58534e-19)
(3.19517 0.617428 6.98198e-19)
(-2.4981 1.89639 1.86989e-18)
(2.64065 1.42519 0)
(2.18055 -0.0461358 0)
(-1.81527 2.09097 -1.03136e-18)
(1.90175 -0.106154 0)
(2.7131 0.0135276 0)
(-1.08005 2.6856 -1.30448e-20)
(2.08752 -0.355401 -2.67471e-19)
(1.7614 -0.415004 1.97484e-19)
(3.49147 -0.0602978 6.01288e-20)
(0.187512 -0.0464877 1.17447e-18)
(1.99253 0.0523227 1.30791e-19)
(1.52686 -0.358452 0)
(2.16446 0.489688 -5.5089e-20)
(1.41964 -0.201964 0)
(2.41872 0.0360049 0)
(1.99876 0.107121 0)
(2.20958 0.186107 -1.58333e-20)
(1.88923 -0.037243 2.10785e-19)
(2.4143 0.142993 5.56929e-22)
(1.57255 -0.361415 0)
(0.393383 -0.216468 -7.3947e-19)
(2.00549 1.11103 9.69612e-20)
(1.89002 -0.669936 1.75971e-20)
(2.0696 -0.12516 -1.43378e-19)
(3.21804 -0.668488 9.21483e-19)
(2.04448 0.0677031 -2.0652e-19)
(-0.582347 -0.575467 0)
(2.5338 -0.10709 0)
(1.41821 0.830302 0)
(1.20451 -0.544388 -4.61277e-19)
(-0.536229 -1.87344 -7.80827e-19)
(1.01203 0.429607 0)
(2.18923 0.504031 0)
(2.54588 -0.232352 9.89114e-20)
(1.94651 -0.0324468 -4.94718e-20)
(1.88321 0.629725 2.92347e-19)
(1.81303 -0.750305 0)
(-0.327491 0.872258 -2.8947e-19)
(2.42636 0.0744219 3.8441e-20)
(1.40316 -0.408766 -4.34823e-19)
(2.25433 0.0688572 -9.07625e-20)
(2.29222 0.650941 1.36758e-19)
(3.89984 -0.836149 1.07985e-18)
(1.20187 -0.549484 8.0722e-19)
(2.34051 -1.50576 3.94631e-19)
(2.4238 0.314024 -1.374e-21)
(2.00031 0.0120217 -6.39642e-20)
(1.21769 -0.562598 -3.6234e-20)
(1.90715 -0.533732 3.2139e-20)
(1.56355 2.0213 -3.59908e-20)
(1.34604 -0.637658 7.02837e-20)
(2.60145 -0.0741198 0)
(1.5876 -0.262456 -2.79995e-21)
(2.21126 -0.0442246 -2.6341e-19)
(2.8899 0.848971 9.37446e-20)
(1.37235 -0.374974 -4.00133e-19)
(1.87487 -0.646613 -2.02566e-19)
(1.9481 -0.0123319 4.51675e-19)
(2.38791 -0.0551457 -2.57854e-19)
(1.34799 -0.257105 -6.08738e-20)
(3.08323 0.20778 -2.34915e-19)
(1.14652 -0.161613 -9.13791e-19)
(2.14082 -0.0277945 -2.0941e-19)
(1.1305 -0.227031 0)
(-2.04071 -0.342077 -1.67538e-18)
(1.89833 0.0364065 4.77129e-19)
(1.53492 -0.000956057 -4.49286e-22)
(-0.747949 0.0429494 0)
(1.62437 -0.731256 0)
(2.02145 0.446114 2.5889e-19)
(1.01053 -0.157699 5.71705e-19)
(1.88827 -1.68353 -2.17332e-18)
(2.18732 -0.660217 -5.13909e-20)
(2.26174 -0.316641 1.71789e-19)
(3.18757 0.815981 0)
(2.02998 0.486689 1.42489e-19)
(0.282938 -0.703189 -8.16613e-21)
(2.43434 1.09992 2.40254e-20)
(2.00268 -0.249514 -2.72995e-19)
(0.0821463 0.0800188 -1.91321e-18)
(3.13656 -0.678763 -8.69938e-19)
(3.44448 -0.519735 2.58918e-19)
(2.20902 1.22463 0)
(2.45463 -0.534184 -1.0549e-19)
(1.90327 0.0420804 5.48263e-20)
(1.9524 0.0405046 -1.21579e-22)
(0.795048 -0.384602 7.54129e-19)
(1.98199 -0.247842 4.09796e-19)
(1.87099 -0.638412 5.17771e-20)
(-2.54972 1.81199 -1.08391e-18)
(2.55529 -0.238204 -2.18009e-19)
(2.27075 -0.0249066 1.8681e-19)
(-1.23092 2.50171 -1.69891e-19)
(2.34912 1.04435 5.49394e-20)
(1.19642 -0.115043 -1.40494e-18)
(0.953788 -0.465528 -2.32429e-19)
(1.96999 0.0295706 0)
(2.51788 0.593621 2.81119e-20)
(-1.75563 2.4782 -8.09403e-19)
(1.32316 -0.146915 8.22828e-19)
(2.15606 0.0948953 0)
(2.08121 -0.265067 9.95262e-20)
(1.17034 -0.490536 1.85868e-19)
(1.9944 0.0376048 -5.61365e-19)
(-1.89513 1.48709 -1.02679e-18)
(1.67495 -0.707457 -1.28635e-20)
(2.22234 -0.161753 1.44689e-19)
(2.34038 0.0681745 1.37845e-19)
(1.72665 -0.780645 -2.26272e-19)
(2.42866 0.202412 -2.16129e-21)
(-0.333809 -1.94575 -2.34759e-18)
(2.12129 -0.0433791 2.47129e-19)
(2.13637 -0.0589177 -1.36125e-19)
(2.15712 0.100471 -5.95281e-21)
(2.12946 -0.0350439 -2.90185e-19)
(1.10722 -0.496117 -3.59246e-19)
(2.40921 0.288772 0)
(-2.48732 0.673932 1.31801e-18)
(2.11306 0.0728087 3.99195e-20)
(1.1243 0.0766988 -1.23843e-19)
(2.45807 0.0400558 -4.55026e-21)
(2.21482 -0.347801 -1.15174e-19)
(2.00024 0.0158734 -4.53368e-19)
(2.09583 0.328526 7.98579e-20)
(-0.793199 0.596602 -1.02711e-18)
(2.7357 0.015835 0)
(1.68264 -0.217504 3.01132e-20)
(2.59038 -0.106489 5.34469e-20)
(1.46452 -0.551415 0)
(2.14872 0.0772897 1.52174e-19)
(2.60549 -0.0866223 5.8294e-20)
(2.70503 0.022543 2.21998e-24)
(2.65127 -0.727725 1.72766e-19)
(2.02897 -0.159957 0)
(1.77655 0.352631 4.7168e-19)
(2.1505 -0.72446 -1.81015e-19)
(1.30755 -0.628402 1.79993e-19)
(2.04797 -0.166852 0)
(1.46348 0.296741 -7.31305e-19)
(0.730042 -0.504951 -1.05047e-19)
(2.4139 1.50591 -1.64828e-19)
(1.15669 -0.186579 8.86968e-19)
(2.14791 0.00629119 1.9694e-21)
(-2.18961 1.29548 1.03869e-18)
(1.96385 -0.0933372 -3.1369e-19)
(3.33875 -0.351591 -6.4501e-19)
(1.78666 0.149285 -3.31733e-19)
(1.95246 0.00857364 0)
(2.0014 0.0289807 -2.40945e-19)
(0.370584 -0.0548551 1.30549e-18)
(-0.379245 0.344532 0)
(3.99479 -1.04773 0)
(1.9505 0.0401668 0)
(1.2466 -0.428468 0)
(2.04806 0.324132 0)
(1.08332 -0.15486 0)
(2.39838 -0.906539 -1.00151e-20)
(3.60433 0.589728 -4.57187e-19)
(2.62404 0.419873 0)
(1.75558 0.352797 7.10767e-19)
(1.14067 -0.562631 1.42072e-19)
(2.08157 0.200594 5.6905e-21)
(-1.53506 2.56365 -3.44493e-19)
(1.09494 0.0757656 -7.91458e-22)
(-0.994122 0.802542 8.99485e-19)
(1.76004 0.00253896 -1.02911e-19)
(2.88234 0.00908412 2.87246e-20)
(2.02458 0.305319 -1.77473e-19)
(1.87091 0.185343 -4.52126e-19)
(1.94489 1.03127 -2.1966e-19)
(3.20645 1.25841 0)
(-1.93298 0.416865 1.78483e-19)
(1.24743 -0.375726 -7.19221e-19)
(2.01069 0.0261603 -7.41759e-19)
(2.39757 -0.585762 6.24022e-20)
(1.98162 -0.0272775 4.64148e-20)
(2.79564 -0.393449 -2.65675e-19)
(2.15188 -0.274383 -2.98974e-20)
(2.10782 -0.488488 -1.68113e-19)
(2.02449 0.173485 1.90138e-19)
(1.71596 1.12057 0)
(2.07321 -0.38978 -4.80583e-20)
(1.69508 0.0742541 -1.0114e-19)
(2.42935 -0.107805 0)
(1.85661 -0.220709 0)
(1.79602 -0.809856 -4.73863e-21)
(-2.5103 1.39883 1.13063e-18)
(2.34821 -0.951264 -3.16594e-19)
(1.76659 -0.0348867 0)
(1.92833 -0.0480781 -4.24843e-19)
(1.80566 0.218162 -8.75884e-20)
(-2.54211 0.314461 7.28958e-19)
(2.64162 -0.0500525 2.04001e-20)
(-1.2806 0.945421 0)
(-2.00426 0.467448 2.26057e-19)
(2.63278 -0.0733738 0)
(2.42653 -0.564166 1.11298e-19)
(2.40082 -0.235078 -8.62291e-20)
(2.00075 0.0255928 -4.7083e-23)
(2.35654 0.723501 -1.57464e-19)
(2.63109 1.31329 -2.97084e-20)
(1.74824 -0.481047 4.63718e-19)
(-1.17517 -0.52266 0)
(1.77481 -2.66265 -1.21879e-18)
(1.27285 -1.03691 0)
(2.68747 0.413954 -3.76992e-20)
(-2.62271 0.595477 1.34518e-18)
(4.00555 -0.989199 8.52584e-19)
(1.7065 -0.21133 -2.99063e-20)
(-1.82501 1.85298 -2.31246e-18)
(1.12785 -0.55407 -2.07872e-19)
(1.29095 -0.382619 -4.13101e-19)
(1.69777 0.150738 6.24372e-21)
(2.15799 -2.60479 1.00501e-18)
(1.14899 -0.511262 2.95767e-19)
(1.35 -0.406175 4.48986e-19)
(-0.434168 -1.67653 9.38839e-19)
(2.77591 -2.46794 -6.47188e-19)
(1.86161 -0.569434 2.09188e-19)
(-1.26346 -0.68814 8.1414e-19)
(2.37487 0.026771 -2.70395e-21)
(1.13126 -0.610605 -1.18969e-19)
(2.34145 0.455362 -5.66911e-20)
(2.31079 -0.458411 0)
(1.12364 -0.460062 -1.55673e-18)
(2.1071 -0.0407441 -3.13603e-19)
(1.99582 0.116015 0)
(2.65818 0.38702 0)
(1.0825 -2.35356 -4.74393e-19)
(3.64806 -0.204746 -6.46921e-19)
(2.46298 0.246676 -2.79128e-20)
(2.0833 -0.346185 3.49673e-19)
(1.92748 0.994198 1.98109e-19)
(1.40898 -0.0180784 2.84699e-19)
(-2.71961 0.859242 -8.82334e-20)
(1.77248 0.64076 0)
(1.38272 -0.436635 4.26134e-19)
(-0.577456 1.67429 1.89337e-19)
(-1.98488 1.72169 1.77415e-18)
(1.73707 -0.657531 7.26805e-20)
(1.6021 -0.710309 4.55018e-20)
(1.65615 -0.0110253 1.52345e-19)
(1.78279 -0.189446 1.76062e-20)
(2.83811 -0.483688 4.97285e-19)
(-2.64242 0.774971 -9.53709e-19)
(2.44318 0.238163 2.31758e-20)
(1.95663 0.0604963 1.79918e-19)
(1.12414 -0.21588 -3.63967e-19)
(1.90904 -0.0828135 2.61647e-19)
(1.22477 -0.253912 0)
(2.43823 0.427009 4.33791e-20)
(1.99136 0.0571652 4.03583e-20)
(1.47681 -0.298778 -1.37948e-19)
(1.79153 1.83092 2.90846e-21)
(1.82922 -0.556965 1.6275e-19)
(2.09141 0.0325983 7.42776e-20)
(1.3671 0.135562 -5.5557e-19)
(2.43645 -0.135784 0)
(1.69128 -0.189598 -5.71835e-20)
(2.26868 0.0911815 1.23208e-19)
(2.24059 -0.144466 0)
(1.39762 0.029021 3.14025e-19)
(2.64957 -0.0489583 0)
(1.6937 1.82777 1.90021e-19)
(2.32921 -0.0315737 0)
(2.07024 -0.431095 0)
(2.51953 -0.0460164 3.99902e-20)
(2.43546 0.187177 3.22703e-20)
(3.03872 0.353974 -3.3067e-19)
(1.91963 0.143558 -2.0693e-19)
(1.54244 1.19418 -1.53281e-19)
(2 0.0912387 -8.57344e-20)
(2.07615 0.331819 0)
(-0.511549 0.293183 -5.50506e-20)
(2.55407 0.171955 3.37828e-20)
(2.37389 -0.542843 -2.25686e-19)
(2.30413 -0.453252 0)
(2.92443 0.836379 1.45722e-19)
(2.12472 1.67755 4.28101e-21)
(2.34294 0.0182925 -7.33577e-21)
(1.2289 0.831189 0)
(-0.804268 2.65109 1.04544e-18)
(2.04464 0.170905 0)
(2.84173 -0.410835 -2.4352e-19)
(-0.218285 -0.00808557 0)
(1.83462 0.188122 0)
(2.33255 -1.66833 0)
(2.08069 -0.742804 0)
(-0.887614 2.19312 -1.3449e-19)
(-2.01894 0.694103 -3.92275e-19)
(1.87847 -0.0320958 -3.16578e-19)
(-2.13001 -0.251217 -8.11988e-19)
(1.23262 -0.538817 0)
(-1.8183 -0.699927 -7.19743e-19)
(-0.361537 -0.0621451 -9.05606e-19)
(1.48587 -0.695861 0)
(1.46654 -0.513301 -4.4237e-19)
(1.4302 0.22747 -1.11508e-20)
(2.32862 0.438994 1.39817e-19)
(2.56857 -0.739755 -1.17086e-19)
(1.86026 0.172504 0)
(2.26873 -0.644673 0)
(3.36106 0.561841 1.55254e-19)
(1.90432 -0.478505 8.36672e-21)
(1.64737 0.0789706 -1.87689e-20)
(1.01985 -2.18061 4.3753e-20)
(1.99866 0.00756064 1.7938e-20)
(2.49778 0.582929 -6.00941e-21)
(2.02387 0.175588 2.73032e-19)
(1.64835 -0.209866 3.03184e-20)
(1.91161 -0.50184 0)
(0.452828 -0.309366 0)
(2.44163 0.174861 0)
(1.7556 0.0206188 0)
(1.74939 -0.304159 1.82954e-19)
(3.01457 0.0473268 0)
(-0.97851 2.61722 1.87216e-18)
(3.26416 -1.3722 4.81866e-21)
(1.31662 -0.422553 -6.76098e-19)
(1.09097 -0.531407 -7.26266e-20)
(-2.34124 0.337881 -7.1931e-19)
(-0.621859 2.56096 -8.36856e-19)
(1.85492 0.0543452 5.9254e-20)
(-2.67064 1.26775 -9.17169e-19)
(1.61975 -0.219102 4.93564e-20)
(2.55554 -0.031817 0)
(2.34302 -0.244384 0)
(1.40799 -0.446614 0)
(2.21548 -0.363912 5.87263e-20)
(2.63637 -2.47098 0)
(1.80284 0.647829 0)
(2.00205 0.0103642 0)
(1.78336 -0.420716 1.84206e-19)
(2.08111 0.201445 -2.68112e-19)
(1.61504 0.028657 0)
(2.50877 -0.887623 -3.00499e-19)
(1.97632 0.177468 -2.54659e-19)
(2.44516 1.01108 -5.28907e-20)
(1.52339 -0.709283 2.39489e-19)
(1.87763 0.696821 1.12964e-21)
(1.87756 -0.662636 -6.11297e-21)
(1.82722 -0.241293 3.88981e-20)
(2.11252 -0.554938 -1.01287e-19)
(2.41699 0.193284 -3.98115e-20)
(1.67127 0.0938005 -3.805e-20)
(1.82529 0.0752257 -3.15401e-19)
(2.12255 -0.0413207 0)
(1.05313 0.148002 9.40876e-20)
(1.97315 0.0644343 3.30022e-19)
(0.4656 -0.767065 -1.01276e-19)
(2.14683 -0.26134 -8.98353e-20)
(1.04084 -0.178364 -6.23384e-19)
(2.43464 0.169635 5.99525e-21)
(3.13622 0.633707 2.7878e-19)
(1.99773 0.0782991 0)
(1.50463 -0.234829 -1.31873e-20)
(1.75462 -0.0694395 -1.72646e-20)
(2.14353 -0.565702 2.08437e-19)
(-2.11968 0.725465 -1.30931e-18)
(2.07525 0.0373416 1.59432e-19)
(2.44045 0.272038 1.33711e-21)
(2.18691 0.0117099 -1.4752e-21)
(2.39138 0.14945 0)
(0.925857 -0.33435 0)
(1.3431 -0.642821 3.05409e-19)
(-1.79273 1.30803 1.11166e-18)
(1.97021 0.0170033 2.98032e-22)
(1.97174 0.0646562 6.57485e-19)
(1.49911 -0.241606 4.22316e-20)
(1.43199 0.280845 0)
(1.79917 0.0977577 0)
(1.60845 -0.349174 -5.26105e-21)
(2.43761 -0.0117945 6.26219e-20)
(1.92569 0.680251 3.98084e-19)
(2.40501 -0.140455 0)
(2.13205 0.0127392 0)
(2.13636 -0.551582 1.88783e-19)
(2.02101 -0.153503 2.29095e-19)
(-0.34148 0.67971 -1.39051e-19)
(1.72209 -0.0689752 0)
(1.30057 0.0857298 1.35348e-19)
(2.85591 -1.00407 -1.40446e-19)
(-1.86665 2.33095 -9.26381e-19)
(2.04333 -0.0202772 -3.32214e-19)
(3.88579 0.425153 0)
(3.68132 -0.132614 5.21247e-19)
(1.7594 0.53083 -2.18182e-18)
(-0.111917 0.440653 0)
(1.78669 0.0345077 -2.37587e-20)
(1.92084 0.110749 -2.1729e-19)
(1.74907 0.015003 -8.49641e-24)
(2.3939 -0.226928 4.9921e-20)
(1.21429 1.04396 3.34557e-19)
(1.85782 0.046522 0)
(1.02802 -0.380315 -5.18094e-21)
(1.45786 -0.244209 -3.99771e-20)
(1.55515 1.66975 -1.45612e-18)
(2.0373 0.306104 2.10621e-19)
(-1.00766 -0.592938 1.98465e-19)
(2.02707 0.0266052 -7.29277e-19)
(1.76165 -0.585063 -2.64243e-20)
(1.76671 -0.232435 3.38256e-20)
(1.74578 -0.382388 0)
(1.74375 0.0193273 -8.72927e-20)
(1.07544 -0.498874 2.36168e-19)
(2.26782 -0.0919864 -3.01918e-19)
(1.99539 0.0569856 -2.96698e-19)
(2.81855 -0.408973 2.18881e-19)
(1.67543 -0.159221 7.11853e-19)
(2.29201 0.0174678 4.16879e-21)
(1.78663 0.101165 1.86223e-19)
(1.67716 0.255219 -2.19936e-20)
(3.48836 -0.0283547 -6.66621e-19)
(2.36962 1.12038 -1.91976e-20)
(2.04069 -1.61863 1.69537e-18)
(1.88176 -0.0204011 0)
(1.51178 -0.402442 0)
(1.87524 0.00207875 0)
(1.31549 -0.38904 5.26506e-19)
(2.15379 0.0709914 -4.83797e-19)
(1.78886 0.234312 0)
(1.52077 -0.31473 -4.03741e-19)
(1.78273 0.203165 0)
(1.75972 -0.276878 -3.00155e-19)
(2.34833 -0.570544 -2.41248e-19)
(1.88612 -0.473715 -2.34294e-19)
(1.93841 0.0466008 0)
(1.96301 0.0525206 0)
(2.26727 -0.153266 1.27483e-19)
(2.59685 0.351933 2.86652e-21)
(2.93094 -0.0779972 2.25578e-19)
(2.29429 1.76516 -5.79826e-21)
(2.38281 -0.179141 0)
(1.74821 -0.639956 -1.20961e-19)
(-0.273281 0.402559 0)
(0.826508 0.951633 -3.10126e-19)