/*--------------------------------*- C++ -*----------------------------------*\
| =========                 |                                                 |
| \\      /  F ield         | OpenFOAM: The Open Source CFD Toolbox           |
|  \\    /   O peration     | Version:  2306                                  |
|   \\  /    A nd           | Website:  www.openfoam.com                      |
|    \\/     M anipulation  |                                                 |
\*---------------------------------------------------------------------------*/
FoamFile
{
    version     2.0;
    format      ascii;
    arch        "LSB;label=32;scalar=64";
    class       volScalarField;
    location    "1";
    object      p;
}
// * * * * * * * * * * * * * * * * * * * * * * * * * * * * * * * * * * * * * //

dimensions      [0 2 -2 0 0 0 0];

internalField   nonuniform List<scalar> 
13486
(
19.4155
14.8773
1.49752
-4.09384
6.46988
-2.81567
3.15496
11.0153
13.1692
5.97297
-15.0318
2.90185
20.545
-4.02001
4.66149
6.42896
-76.8759
-2.59509
3.9196
17.2793
-3.49322
20.3442
14.5436
-7.8833
4.92438
-7.51822
-13.0827
-5.55078
-0.0666691
-4.57575
-2.77735
2.83676
-10.4439
-3.62551
11.0372
0.0979301
0.0810564
16.0043
-0.493152
12.9343
1.68781
21.4054
0.106633
5.26108
5.05921
2.81945
-134.372
-0.0981146
0.0469186
-6.62628
10.6376
-0.649044
1.17048
16.2613
-2.5444
6.79646
0.587447
-0.513439
-9.8793
0.313253
-10.9274
0.280346
-33.1254
-3.37562
-4.52416
0.119098
-4.50617
19.2549
13.1043
-0.111746
-4.61541
-2.52345
13.1628
-51.4004
0.209363
0.51699
0.110594
4.58906
-114.678
-1.33891
0.0558928
14.9353
-34.9624
1.36399
19.4833
3.878
-0.0779276
9.81594
12.3067
7.03486
1.03042
9.59803
18.6255
16.2561
13.7742
0.0252299
-11.23
-4.51374
12.9439
-78.1841
0.190258
-3.35136
-4.56944
-0.541653
7.12466
-82.1331
12.3531
-0.500026
-121.148
8.97886
13.0851
2.48825
16.2196
0.492758
22.8976
13.2234
5.11019
-3.2322
13.2804
0.105892
-2.49656
-10.9073
14.4042
-0.529484
12.7345
-0.461236
9.19326
1.98462
-2.95799
-4.11556
-0.562544
-129.924
-42.1541
-51.6521
11.2021
9.47386
21.6542
9.17125
0.0776923
11.3166
-9.34866
1.31611
2.86554
-1.34009
0.522209
-21.7855
0.805211
16.2709
-7.32324
0.035109
6.46092
4.54794
0.105601
15.3902
2.34972
1.17596
7.31389
0.944701
14.5186
0.519572
-5.76186
14.5016
-1.40678
21.219
-0.62901
-6.61541
-1.6931
26.6658
0.868435
-52.6539
-45.481
2.41416
7.69552
6.73676
0.056632
-5.3846
-6.34739
-11.2422
12.5144
2.89679
12.3174
0.250132
5.12094
-4.04852
1.58706
-5.41433
-0.000803208
-4.44162
2.19354
14.1735
0.0251871
0.756584
-0.862675
16.6162
-1.0135
-15.0907
-4.0994
-5.72864
17.8539
-5.38368
-2.78688
1.88335
15.9944
5.90329
0.542288
-0.98546
-1.67494
13.9834
-0.803286
1.53781
-5.034
-5.82752
17.0519
12.3669
-2.66104
-2.49409
-4.93509
7.30595
17.6842
-21.0019
-85.4179
-7.39469
11.5509
-5.82357
0.248876
19.0347
-5.19018
-3.89241
-2.09002
0.0350619
12.137
-7.29844
-9.59973
21.9285
-4.10237
18.3864
-3.74878
0.801299
18.6116
5.44651
-9.93748
7.56801
0.427553
17.5536
-0.240105
14.3976
5.5826
-6.25046
-53.2412
6.20094
-4.97738
23.1111
12.5795
-0.489536
-1.50402
-5.74932
2.66899
-2.42084
0.623305
-9.77997
13.6322
-0.213914
4.5913
-5.60388
7.16194
-3.89055
-2.12235
-3.08636
12.1517
-11.8958
12.5131
12.0209
-5.05304
2.00351
19.1225
-5.92491
-1.45675
-2.74294
-0.547736
0.822442
-2.79176
10.7016
12.5111
-11.5674
-9.01089
-43.4714
-10.3771
-2.85272
0.437666
12.5229
-4.07108
0.227716
13.9749
11.0083
-3.62649
-4.11064
-5.75177
2.02401
12.8161
2.39724
-1.88302
-1.65365
0.827213
3.07886
-0.00245481
5.22246
-2.56737
5.91008
-0.10924
0.00477591
-37.1523
-4.00813
-3.78592
2.43929
-16.2825
9.65368
0.249941
12.2842
14.0189
-2.28918
0.160602
0.0746326
12.2278
16.3161
22.6166
0.995111
8.151
10.5279
1.66788
7.61046
9.98454
9.20901
0.0889162
17.5641
2.59202
13.0091
24.017
4.82417
6.8307
-0.128539
-2.15859
16.082
7.41135
5.26955
-4.67792
0.0200789
8.66739
23.0597
-20.9909
0.21943
8.3787
1.76325
1.91399
-8.35222
12.9414
0.0686819
-44.3585
9.21509
-0.05742
-5.66978
4.47521
0.487345
13.9285
12.0588
-4.77266
-0.0308279
-3.87085
-125.905
17.4719
9.31434
0.126573
8.6047
0.22932
-5.07452
-2.46551
10.7723
11.9026
0.00274459
-16.18
-31.1605
12.0188
8.86633
20.3908
12.7606
-133.504
-1.57186
-0.138114
6.98279
-84.2314
-2.17804
16.7383
-5.30913
4.22306
18.6117
18.7944
0.0833315
-4.29606
-4.99242
-92.5465
-10.4225
-87.9839
1.16282
11.5867
-3.22789
2.87685
-1.2144
16.0941
-10.8993
9.1895
14.0476
6.35669
-11.63
-5.9213
12.9079
11.8546
15.4807
-4.37779
7.40958
-61.3807
5.58546
12.484
0.531701
23.0951
7.39384
-5.53539
-4.15384
1.5604
12.4429
-14.3668
-1.11122
20.1702
11.3226
4.07771
0.287284
5.99442
-6.56291
20.2196
0.155362
6.97602
18.885
-137.195
-5.08704
-52.4485
-5.97615
0.42677
15.329
14.7777
20.2243
-30.4459
0.0651025
-4.94304
7.1085
12.5002
-6.87871
-12.79
11.7758
-4.83899
-5.37683
-11.6088
-20.4603
-2.92577
16.2047
-0.0106566
-0.720806
-3.85115
11.6757
-0.0840983
25.0936
18.893
13.0814
10.5375
0.0649134
0.0247
23.9084
-1.66654
0.100634
-5.52632
13.1072
-50.7268
1.8874
8.09689
0.010835
-7.52885
14.3593
-16.7223
-93.1022
7.34131
-2.27659
26.4226
7.51138
10.6091
13.6679
-5.4582
1.54475
20.7897
6.435
16.5003
2.66823
2.43996
-3.21365
-1.21588
0.364162
-77.4543
12.6561
13.072
-5.0106
0.0435509
-3.01265
19.0029
15.4058
-1.62019
13.3122
9.37912
-7.31708
7.33469
10.772
-57.0669
19.977
0.168489
-0.235927
21.2104
9.04639
0.293119
8.29814
-3.36771
-5.05273
4.89156
8.43067
14.5199
18.7461
-4.01826
5.86617
-4.10257
0.00982547
18.2688
2.6229
-4.34276
-4.57578
0.0112334
1.36928
10.4913
-4.3766
-12.7738
13.3387
17.3371
-1.5598
13.6333
-22.8533
-5.12332
-17.8636
3.85915
-5.09279
14.0851
1.62225
-10.2372
11.0675
15.2973
-9.46364
-3.98715
10.9429
18.1954
2.67776
19.5399
1.39872
7.40615
1.69659
14.0186
0.45642
17.7154
-9.76625
1.82441
12.7204
-2.826
-5.57248
12.4543
-134.566
2.06429
15.1655
20.3275
-3.49751
-0.277188
2.19036
-0.0266369
11.5435
7.92946
4.31071
-9.28855
-0.787174
19.3625
0.972252
-0.605144
-6.82903
20.4033
-3.08867
0.361931
12.0103
10.1337
-1.25916
-5.02092
11.3598
1.65882
0.240069
3.75952
-14.4291
19.7733
13.0165
8.63632
9.6327
-9.11149
-10.6341
22.1522
2.85832
22.2456
-3.80394
12.4972
-0.48721
-50.0438
8.28593
6.07425
23.2867
-5.32321
8.5487
7.91123
-22.1
5.96416
-2.20025
-7.02581
12.6616
-3.74128
-5.39924
-6.85378
-3.45467
-2.8438
13.5874
0.0104345
21.7249
12.837
0.581894
-5.00026
-4.81381
2.97008
-8.95493
-4.88477
-75.1414
18.2998
0.0466271
0.464973
-6.71289
20.4946
0.0548373
-2.0218
21.2534
10.7123
-4.56681
-1.34191
8.94079
0.0186089
12.6954
0.377298
-3.75368
3.70353
11.6247
2.49418
10.3929
21.5518
0.324655
-4.79349
12.3677
1.33535
-3.06249
8.82553
8.81634
4.43765
-4.66265
1.58108
-0.012054
1.68487
18.2187
2.71732
1.53971
1.16755
0.68496
-1.23425
12.5937
0.646882
12.2814
12.2048
17.6609
-3.36495
-12.5495
22.0304
0.0989647
-4.95151
13.3288
-7.00492
14.1397
0.478682
11.7751
-4.71364
-48.7188
-6.61819
0.0244527
-88.732
5.82059
22.661
-2.73642
-17.2782
-5.70927
12.755
-7.81646
4.41148
-7.49764
22.2637
-4.21331
6.14865
-6.89451
6.31987
12.296
3.68479
-27.4744
-3.05886
20.9926
12.1383
5.63557
11.5756
0.969638
10.0627
10.3626
6.50932
-44.5457
-1.53967
15.7735
2.8126
-0.663215
11.0197
-4.99783
-2.7011
-0.346886
13.7304
13.11
-4.4037
1.4415
-4.56946
-3.23296
1.67397
-2.897
0.551693
11.5067
-1.97443
-15.0045
15.2761
-1.67993
-3.7638
-2.73945
-6.85814
-4.44322
-6.29776
-0.105893
-6.16125
12.7014
20.5466
0.0862702
-3.74505
21.2788
19.894
-3.40146
-4.26538
13.5375
-139.144
0.408796
-6.6832
-0.903033
7.05415
-90.9977
4.55583
7.66146
-6.20726
-2.87133
-9.1263
-2.67129
11.1412
4.28518
7.88701
-4.68285
10.2093
19.4075
-50.743
-5.92096
14.734
4.80786
7.88307
-0.390237
-4.4584
-4.7567
-2.3942
12.9151
22.3136
13.9996
-7.99985
-2.55568
12.467
18.8732
-5.85851
13.9359
12.4868
19.6294
3.12259
-0.0148889
0.822423
-2.27015
19.3436
1.47397
0.13594
8.6369
-1.47782
2.81111
-1.92894
-11.7673
11.7691
10.197
8.15879
5.01005
-58.694
-3.74144
-2.65226
7.04816
-15.2456
-9.20193
0.486391
-7.49315
-10.3654
5.68126
-4.58998
-53.5522
-45.9837
-3.16443
9.72413
-17.9682
-5.29109
14.2285
-3.50181
20.4225
-3.88405
-53.4582
15.524
18.3629
0.222131
-0.597931
3.13748
12.8082
7.4655
-21.145
-1.10417
0.0692004
-2.88174
11.8829
0.470297
6.48753
0.0779317
13.109
-16.8976
0.423162
-0.210068
15.7663
-8.09459
-13.5349
-6.69088
20.216
-9.93103
-4.80335
-21.5626
12.5805
-5.04204
0.10348
2.79774
5.80451
-3.6979
8.88024
-4.46177
9.75913
11.773
15.0757
4.60631
-0.282169
-3.0471
8.84711
-6.61727
15.7589
7.80678
-1.3283
-0.484653
-1.8194
-1.67446
0.0116234
14.2143
3.80228
0.922709
12.156
-1.86433
10.3139
23.0362
-1.96121
-17.2681
7.73803
-0.471797
-0.452351
-1.88128
-3.84649
12.4722
0.349008
0.070952
0.45226
-5.23559
16.894
-4.76254
0.0771143
12.1163
-0.165752
18.0093
14.253
17.3335
3.13593
7.26757
3.12748
0.939515
9.72152
12.612
-4.22522
-2.56888
-49.0532
-3.97114
-6.43597
12.7447
-16.9865
-9.69494
-7.46187
-4.36691
0.000435901
12.3794
0.112316
0.696627
-46.4108
12.3768
22.8565
-0.75586
-14.3431
6.12461
-1.68746
12.7944
0.599698
-0.247316
15.551
-0.770183
21.6149
8.67576
12.2542
-4.42171
16.686
0.628715
14.4661
0.14798
-9.83358
-6.48078
-5.58043
8.09289
-0.875375
-3.1264
20.335
12.1996
13.3431
18.4105
13.7467
15.6883
-2.50425
13.5478
12.3193
12.8344
-2.36847
-5.17938
-6.77641
-12.9103
2.18919
14.712
-47.5993
21.0333
-15.0985
0.369705
22.0443
18.4337
-2.60192
-6.11493
12.9738
5.61332
-0.0524602
12.1296
-49.6193
-6.48892
12.2195
17.9865
-0.275816
14.4463
16.5369
-0.235014
-5.72827
16.5313
5.27426
0.0237569
-6.64299
1.28828
-11.2415
11.416
8.22272
0.0818511
-2.13182
-4.8994
2.38846
-0.222467
2.85561
18.692
-0.610656
24.8201
12.6869
4.00473
14.3428
-4.66968
-38.2478
-4.94734
12.5692
-0.34118
-48.4913
-2.77163
5.23512
6.34342
-0.066361
9.45844
-115.34
6.57335
-16.0058
0.0590872
10.2496
3.27675
16.844
12.6655
13.0165
12.2899
-2.81532
-8.6253
-8.19644
1.7076
-3.67339
-5.17381
10.1839
-3.2117
-0.298869
0.184805
-1.79147
-7.60467
9.0151
4.66704
0.88834
-5.13312
5.74369
-7.45632
-7.06518
1.59768
-1.12444
14.4179
8.71473
16.8593
-51.3303
10.8443
0.466832
17.9696
-2.62602
5.81831
-7.20358
-2.92764
21.0694
21.4411
10.1609
7.15
7.83132
11.9218
21.3744
8.81697
-9.82274
-6.95767
2.33071
-14.6464
-64.5498
12.1067
12.308
-3.2368
3.46626
10.9583
11.5451
23.386
-18.5023
9.10755
-98.0678
-9.90535
18.3508
-1.60056
10.6436
-3.1042
1.98387
4.6343
24.313
0.273712
-6.67574
5.3929
1.73229
-4.68556
-47.7635
-2.64849
13.8727
0.653684
7.19971
19.8436
18.0161
-1.11908
-27.863
0.37765
0.66794
15.3441
11.8026
18.1065
7.50965
-20.723
19.051
11.8845
-20.1908
9.93692
12.6479
16.4142
-14.3438
-4.01395
-0.0425197
10.0229
20.9678
6.20929
-0.661461
-11.1564
23.4347
-39.2844
-9.53007
21.844
10.526
-4.97922
10.1096
-4.37739
7.12581
-3.59645
-36.1437
-0.150102
-5.10844
-0.508819
-2.95023
-138.195
-84.954
-41.8725
3.49928
-88.1815
-5.09912
10.7998
11.2405
7.04174
-124.446
2.45203
0.490709
-2.80657
24.6182
8.49054
-7.4746
10.6317
-3.55468
-5.20277
10.7834
10.7142
12.6128
24.9232
0.0078238
-1.66176
-7.8073
1.52193
8.76613
12.9057
-6.2371
19.2646
7.78582
13.2605
-3.16424
-1.0069
0.419009
13.4467
12.3981
14.0677
12.1948
22.5669
22.5136
-3.69489
10.6449
16.2712
-7.1166
18.1815
-0.46281
22.18
18.0845
-0.715552
14.1856
5.29108
9.83755
1.13894
12.4629
-8.58126
11.135
4.5913
8.80654
-2.61393
12.3943
-0.403196
2.01187
21.3853
21.3113
8.45894
-49.4474
2.81431
1.09291
-1.58292
9.38812
19.0291
-51.2682
12.9153
12.4244
5.77823
13.3364
-5.78603
-3.0365
0.121823
23.0141
3.34983
0.51204
14.4064
-2.73637
0.454016
5.15176
2.29841
8.96161
5.42294
-4.4983
7.43816
10.4447
8.63121
9.70198
22.4655
18.2254
16.2671
19.1971
21.0946
5.85379
-0.458076
-1.61573
-17.3273
21.0312
-3.2357
12.7601
11.5743
-4.85458
6.61717
14.1289
-5.85968
6.08967
6.9887
25.2222
-7.26156
5.01432
-3.92214
14.9449
1.21033
-4.05884
20.7202
17.669
12.4867
12.6231
-3.84475
5.79225
-87.406
22.4315
0.139949
24.1319
-2.35736
-2.16811
-82.3646
7.18218
-44.1086
0.0602912
-0.685799
3.41111
-0.229115
3.23137
-4.30381
0.027013
-3.18144
-53.6067
-5.76001
-22.8691
0.14844
-1.05701
-3.98303
-9.02549
13.349
13.596
16.2863
12.1496
4.6949
4.41008
26.4634
12.4976
-21.4335
0.0702061
-2.45963
8.97484
11.2241
19.2604
-10.2825
-10.2751
10.7166
0.0320183
3.07111
15.7704
-51.9244
-4.85739
-100.751
22.7501
-4.64898
8.83341
16.3798
-1.55573
10.0503
-0.399348
-7.36272
-4.80002
0.441615
7.64359
15.3983
16.1084
-23.2493
-48.7343
8.67281
-99.6732
-4.50996
-2.60706
1.01863
-3.46778
-0.186932
-4.59959
-6.50269
-8.15869
19.9344
-3.58955
21.6898
-5.12568
-2.17247
4.34346
-13.9546
18.4737
12.912
14.8945
-0.178739
-3.60204
-9.0555
17.9699
-52.2155
8.599
0.0184796
15.0324
18.3253
-0.066705
12.5132
20.8667
14.2376
13.6561
-29.0437
-2.15062
4.85968
-6.76666
-0.603063
7.70945
9.46
1.29196
-14.753
2.97161
0.543758
11.3382
9.67622
-5.10911
22.0979
1.50486
0.0372934
1.71951
11.8812
-4.18854
0.0793308
14.025
-8.67336
1.02609
-3.51066
13.8427
12.0807
11.2714
-0.11258
11.3989
14.4815
14.5446
-3.52878
0.452548
1.573
10.9896
-10.8142
-81.9236
-4.67297
-19.3709
-4.33106
0.128425
-0.593384
0.346479
-46.0128
-7.59143
-8.48425
0.581359
-3.66435
3.40418
-4.09232
13.3169
26.7507
3.10231
-3.13924
4.6401
0.10953
2.52533
0.177593
-4.22816
-7.0127
1.45154
17.1146
0.04443
20.5506
0.157854
11.3855
10.591
5.2097
-100.834
7.86194
22.4732
-4.1011
11.9524
11.6682
19.1905
1.59382
17.6017
14.0467
-74.3958
14.9137
-8.65037
-54.6862
18.0499
10.1897
-21.4821
-1.00017
16.5176
1.1325
-5.21205
0.347701
0.390082
9.0977
5.87859
12.3866
12.1459
10.8188
-30.2396
-6.04147
-3.29666
12.0356
24.2483
-4.6545
-48.0211
-95.4058
13.1473
1.50422
1.47791
5.7478
-1.47587
9.95684
-4.27539
2.01401
20.6116
4.41006
-3.11243
-2.9269
-4.91474
-6.45119
-99.6881
-8.10651
-4.99124
14.8732
5.79229
-6.16656
20.4242
-0.00646563
-7.03731
-3.21161
-50.9926
13.9633
-44.8754
3.09252
12.8401
0.0620879
-3.69948
-2.75909
-22.0245
-3.65845
13.4509
-8.32953
-0.221678
-92.916
11.7486
13.5546
-4.68232
16.2164
15.0489
19.7743
20.1922
14.4033
2.1735
22.902
-105.369
12.537
2.72296
-9.47843
15.2274
-4.57645
19.5016
4.92633
-15.4489
-98.5057
-116.883
13.3384
-4.67465
-3.80646
1.0193
-12.7884
-3.08326
6.85051
1.6733
9.41999
22.7128
-53.6717
-7.6065
-8.40967
13.5931
8.81358
-5.58637
26.4406
-0.318998
0.452088
7.1458
-14.7564
11.6859
13.2557
14.8216
15.0998
-3.61421
6.91009
12.1393
2.84116
-9.67659
0.0555256
14.1292
14.2785
17.921
-3.82362
0.860979
6.83689
6.69899
-0.129829
-9.27104
9.73649
-3.26944
10.5996
12.8486
-82.3815
20.5782
-5.56777
21.9566
14.8252
-7.48645
-0.00161317
0.0692219
3.92899
13.0785
-6.65791
17.552
11.4859
6.7043
0.333966
2.74037
-4.82654
6.68546
-91.2028
8.03392
-3.53542
11.8481
-71.8373
-0.777822
-3.24063
15.5913
18.5831
5.18998
-70.6937
5.17429
-1.20194
1.31687
6.1304
-4.38405
-3.22548
21.7566
-8.56391
-2.65412
-8.2083
-38.4573
-2.69046
12.1814
-87.7755
-2.85814
13.05
8.12947
13.5779
-5.16368
5.41306
21.8693
-30.4671
11.8761
3.22647
-4.836
3.07441
2.75142
-7.58152
22.3213
14.7797
-0.210156
21.4608
16.8163
15.3961
-108.592
-82.6414
8.78926
-17.5539
-2.24666
-21.776
-16.3619
-20.7326
10.0295
4.64247
7.69546
8.51529
-3.88693
9.83131
11.8996
-29.6861
13.7623
6.91721
12.2009
-1.15818
-0.197983
-4.58523
-105.631
-4.93698
-3.32688
11.6579
-9.4711
20.0621
-4.75243
11.6338
8.1425
0.213216
2.26115
13.0725
4.78951
2.08085
11.5348
-0.377467
-2.0311
18.8597
14.6008
-5.80773
-14.6318
-0.388613
10.5168
-1.11079
5.7662
-21.3959
-0.80118
-1.52309
0.521855
11.0809
11.0274
-2.56535
4.66859
-1.52697
-0.188721
-8.31801
15.4357
-4.86316
12.3506
-0.0428186
9.95587
13.4946
6.27791
11.8747
0.289024
-4.26881
0.15097
-42.6104
-4.64281
-5.55514
-14.968
-3.88382
9.45454
-1.569
11.8267
-1.69385
-1.67156
-24.439
-0.483744
13.2367
-5.18598
12.4233
3.19251
-6.98402
-1.49885
-4.91492
8.78576
12.3548
-0.247852
2.28671
-37.6345
15.2893
0.829006
3.07581
-4.84461
16.024
5.99603
0.154572
13.4481
13.329
15.5305
3.10909
15.3916
-30.7336
0.471718
-2.77741
12.6347
7.16242
3.33209
0.512891
-8.9262
-5.7899
6.96309
1.02609
-6.28617
20.623
-32.0751
15.3974
9.06844
-3.83177
-0.561537
0.61668
-0.929362
0.333607
1.80461
11.5756
0.214476
12.2869
-25.4059
5.71926
-2.92403
2.70383
-9.25728
16.2082
21.9577
13.6975
7.38015
2.57422
7.25857
-17.3211
-1.03494
0.0393958
-1.58668
-6.04386
-8.08486
-9.08559
-6.03353
11.3803
12.874
-27.3056
3.13825
14.0933
-6.45509
-18.8628
13.3259
-0.535222
-11.1108
0.249356
-3.24223
0.000478503
20.3979
0.100983
12.4034
-15.1713
-9.18512
-6.44124
12.5833
2.88017
10.4952
-12.8108
-7.82198
0.878428
2.10014
14.3918
11.2322
1.30425
-2.58395
-3.59859
22.9375
-3.6044
14.5837
16.2374
-2.57713
-0.528627
5.28203
-97.9436
-16.7047
10.3469
6.31537
12.2777
-4.92047
13.6308
0.315909
18.0861
2.58395
10.6133
16.0131
9.79079
1.59309
-4.58217
3.00961
-50.8293
11.2229
4.75971
15.462
0.370757
19.6537
2.23394
21.0898
-10.5934
16.359
-2.92227
9.42869
-19.5622
11.6486
5.72193
4.30079
19.2652
12.1756
2.46161
-5.89093
6.87387
11.4161
-0.300945
-91.5083
9.16946
0.615151
16.5767
-4.38646
20.1057
2.06159
26.5119
20.002
9.55953
8.76362
-18.8957
0.00491211
21.5079
0.991457
-1.54534
-1.34875
21.0298
5.24609
10.8899
17.1549
-9.37781
13.6769
-2.76642
15.3992
0.491252
14.6443
12.9142
18.1042
-0.557742
-107.683
3.75441
-5.15231
5.51651
2.20251
0.590053
16.0333
18.7733
0.132125
4.19402
-2.50993
17.0404
10.3633
11.6973
6.73192
-2.64284
-48.7473
-3.59106
12.7082
-24.9247
-2.19635
-1.0467
9.09509
5.78148
-6.36927
22.5493
-2.28558
20.0141
3.92089
20.4213
-4.21046
1.82488
0.224507
0.438464
10.6722
12.0509
-5.2127
-2.10692
-10.8694
-2.2155
18.8441
-5.5457
-0.759051
-4.03324
-2.68112
4.51182
15.8868
6.2323
0.447888
0.14636
12.1041
24.2407
-4.94127
0.750409
12.5227
-0.894179
5.25332
-0.0310984
9.34616
-2.16749
-92.4027
-3.48994
-3.22084
-1.82993
0.628205
-18.1649
-5.30017
-1.56342
9.30258
13.4084
10.4771
23.6166
-12.7165
20.8685
-39.3576
19.8424
-6.72543
-9.92322
22.8143
4.19425
-3.88058
13.0243
-0.520433
14.2067
-5.4212
-87.7965
2.23256
-5.42251
-6.14695
0.0683317
-1.60308
4.08508
16.1857
-7.87566
4.50366
-24.1623
2.18486
-3.21962
-0.25039
-1.51515
-2.55712
-19.1085
16.0942
-0.212998
18.4012
4.54315
-5.73177
3.13753
-13.8359
0.170613
10.1801
15.9806
23.2757
8.74478
10.2614
6.06594
-52.8288
22.4577
24.4108
13.6201
-9.18289
-4.90526
-48.3594
11.7846
8.39814
4.13948
9.68059
-2.88083
-0.221522
-27.7633
18.938
-1.75065
0.479899
-4.1413
12.4288
1.84696
25.9786
24.2439
11.3934
-1.08883
3.24727
-33.9618
3.89472
24.8619
1.86898
0.288174
9.47802
-0.0486418
2.13171
-2.55255
-4.30498
2.5186
0.498909
5.69939
0.138938
2.87865
17.9999
4.22253
13.4359
-4.19809
-4.90388
22.0132
-13.7107
0.586843
3.26402
4.48082
0.461733
-4.79806
2.38841
0.387079
-0.595614
26.0204
-95.8649
-23.9918
-6.59021
-10.8231
2.8152
3.49445
-4.59487
-18.6545
0.150242
-33.9196
-12.469
-6.83937
0.820448
0.929444
0.197425
25.6403
0.0369211
3.77716
-1.89469
1.59125
-54.8337
-3.42928
17.4734
12.5488
3.64046
-2.58536
12.0327
13.4519
-0.887631
-7.4135
0.0773126
17.3222
-6.27441
11.135
-0.550541
19.8652
0.991014
-4.31587
-3.88087
13.5814
-4.57852
10.5853
-9.67316
24.7968
-4.45633
-3.66636
-17.8882
4.55634
-4.65166
-9.54831
-4.44604
1.84236
6.10058
-5.07176
-3.33686
-0.920389
0.565641
-5.26042
-12.3432
10.1355
-59.4423
11.0798
-4.44354
13.8782
22.3178
12.0852
-52.1819
13.0402
1.75762
0.310782
-1.00849
-5.29017
-53.4151
0.586211
-3.57272
6.00735
-1.25416
-11.3212
-1.40331
-18.6862
6.32663
12.2418
-14.1762
-4.72811
-5.65626
0.068584
-2.8797
7.42986
-31.8086
-4.82961
12.3166
-1.87515
7.664
-9.47543
-20.2312
-4.37909
-12.7377
25.1295
3.31133
-7.17381
2.37906
20.9783
22.0743
-4.37891
-2.86264
11.7973
-0.266967
0.604513
21.4752
6.73327
11.5379
26.2482
-5.69863
3.96093
0.909863
19.1239
12.8103
13.4008
15.7831
8.14738
0.349839
0.852201
5.18093
2.63289
-99.6071
22.1432
-7.85049
-8.90903
0.153768
-5.29741
6.00361
-4.09257
-3.07822
2.26681
13.4512
13.4652
14.913
-19.7948
18.8033
21.5696
-22.8063
7.9153
-1.43039
-1.21521
0.592138
6.42504
-4.64878
-6.6669
-14.3879
24.1657
-10.5569
14.9242
12.5945
17.2906
9.80757
9.74752
-2.25022
0.232947
7.83083
-0.593805
-47.0451
-21.1095
1.13645
-4.29507
15.7239
-4.95794
-0.0218506
1.27565
-52.723
-4.35391
-99.5752
11.1593
-2.76212
0.0340133
4.52917
-7.52788
3.95077
-28.5003
-1.32424
13.493
-7.31106
22.0588
0.115902
23.3778
-0.0167103
0.0327707
2.07206
10.5113
10.9141
-34.0779
-1.46579
-4.29474
2.07905
9.02479
26.5637
17.2721
4.16328
-6.10766
6.71734
-3.01657
14.9215
-2.68187
6.53275
-3.67979
-4.24437
-51.8413
4.91042
0.344183
-55.6331
7.23563
8.03126
21.4185
22.9144
-95.5484
-50.1878
-4.37549
-14.1511
22.596
2.19681
-7.36115
4.21515
8.52568
-3.38397
0.696255
0.856035
-0.389603
11.9313
-3.04485
3.61072
-1.5465
-10.2418
-28.2932
-4.88632
-28.7526
-25.0435
14.278
-4.52502
-4.17314
-2.99294
-2.40777
24.461
9.83529
11.4598
-3.2029
6.23535
-1.54868
5.09411
2.80919
-4.55456
-91.976
22.544
13.2708
-1.3323
-59.543
25.5161
-4.48467
-60.5088
-3.5964
6.68403
-4.68922
-3.34334
19.1589
-2.00232
11.8611
4.04867
-4.14827
-0.266513
0.372245
5.75633
-31.3194
-1.00995
2.99575
12.5069
-4.89435
-45.7064
1.69564
-3.98191
-15.918
-14.4468
23.8297
7.47401
-6.66767
6.35701
2.16982
20.8816
7.18342
-104.633
7.76335
16.0519
14.2084
-5.54932
10.7547
-2.4858
22.3906
0.237868
12.6423
-5.02311
-5.2633
0.162449
-3.90032
7.93809
3.1112
-110.76
-4.84854
15.2325
-1.69828
-1.97916
17.9122
9.44004
17.4069
11.0991
-8.17313
0.170924
-0.726165
12.7662
0.00671405
16.0479
10.2833
21.9594
-4.46374
16.917
6.69853
21.9439
-4.19467
-9.39889
22.6459
-4.46354
10.1128
-13.6583
19.6343
21.6777
13.5607
-23.2985
12.2764
16.6984
-5.1019
4.20274
-4.06801
17.8364
-4.41817
-2.66402
-62.4902
-72.6081
16.3497
6.4176
-78.7151
6.51121
21.6543
-8.54981
-3.57609
-83.8651
-10.4386
11.099
-1.94355
11.5786
12.0345
-82.637
24.5881
-0.762079
18.2942
18.5229
0.820791
0.186316
11.474
-20.0312
-2.40949
11.404
9.68029
-6.32998
12.0872
-3.84375
19.3719
13.4802
4.5983
0.496619
14.5273
-2.67057
6.86064
17.2257
2.7132
0.0777711
16.5765
13.7388
-7.27102
-51.8145
10.0538
14.4562
22.2167
-64.6287
23.5968
22.6919
23.8251
-2.61579
16.0349
-4.84317
12.3518
17.5638
16.7334
14.2765
19.0753
25.9891
10.465
-78.6026
1.25605
-78.7873
25.7571
6.74179
-2.00866
-4.80167
11.4478
18.9429
11.8861
3.87892
-1.36349
18.8195
-23.1973
13.8974
-4.86345
4.58092
-0.229886
4.35403
8.25289
-4.63915
-4.95422
-3.24254
-3.90037
-2.71312
15.6755
-4.03881
1.68065
11.8747
-18.8146
8.43752
0.052491
-18.1367
-4.70278
-92.8682
18.1707
19.4648
-4.4103
3.98369
16.4425
14.3499
0.0993421
-6.33936
14.0709
-93.4478
17.7015
-16.957
17.1595
7.11623
0.614224
15.8715
9.0411
16.9635
4.17717
5.01217
-5.11846
-55.1149
-24.2541
-0.694944
16.6259
-8.05374
-3.70511
-8.21989
18.2918
16.8481
3.47925
9.62475
18.6219
-22.8373
12.2599
-0.730224
-5.88946
12.1984
-4.24424
-14.7087
-13.3546
-106.314
-3.12982
-7.2437
-0.577529
-51.3647
-52.9279
10.4043
22.2908
24.5921
21.1542
-7.8285
14.0055
-5.95344
11.7732
18.4309
0.599524
16.2956
-8.292
4.05409
-5.23509
-2.04971
17.7675
-10.8647
14.6482
-29.3576
-4.67391
-111.128
14.5116
14.5255
12.1492
-10.0426
12.0761
-4.45524
-89.6584
-97.2425
3.63938
22.6571
-31.0774
-3.17197
-4.82266
12.4817
11.576
-0.861578
7.00588
-17.6752
18.8763
17.0818
-3.5516
-3.90627
18.482
-4.21198
-11.613
-1.04866
16.7483
19.0124
-4.25109
9.33891
-3.2152
21.8521
-61.8965
-5.08581
-1.89694
20.5735
-1.30409
-4.69681
-2.37295
17.7613
9.24168
17.5461
-2.27917
-26.452
14.3125
25.2893
-40.5206
11.8234
-1.26705
-81.5515
-1.34226
4.22693
-4.96974
9.15071
-3.96356
7.33211
-2.80811
-6.36815
15.948
19.3548
11.9428
-18.6442
-5.10255
15.1364
-19.1564
4.78277
-6.38896
6.03031
-38.9732
13.3005
15.1243
-1.72896
14.2611
21.816
-3.0814
10.6486
14.3639
-100.071
7.03058
-5.93198
6.01222
4.69137
9.25462
0.0350612
3.79828
-2.21187
-28.1194
18.258
5.16935
-1.64599
-4.35997
-2.33848
12.8591
-27.8223
23.7717
-7.84919
-135.476
-3.0704
16.1882
14.7667
17.5108
-110.434
20.9783
-11.1397
10.4456
1.04207
-23.9236
11.1805
5.49559
-2.72491
8.72173
-62.5908
9.57082
-92.0366
-4.36534
-0.101832
-15.8077
-18.6538
11.5381
21.407
0.501214
-5.43195
16.5666
-20.8712
19.4489
6.14586
-0.888317
6.26805
12.3088
6.45568
-2.36869
2.96354
-1.11409
2.11465
3.60244
-22.68
-4.76211
0.578852
8.03245
-2.60078
25.8911
13.9669
12.2411
19.7558
0.87493
14.0346
-8.35026
-108.994
-4.82607
12.1097
25.3622
11.7871
-10.5102
18.1712
12.3584
12.5503
0.167435
-1.69968
6.31399
23.9805
2.6373
-6.45676
15.9003
18.66
13.8136
12.6605
15.575
9.061
-3.98208
-5.59941
14.1017
-42.3742
-55.7854
12.3463
-5.1562
0.428896
4.32295
14.1199
14.6863
14.8935
-2.73941
17.3495
17.8296
1.35541
15.5986
13.4711
10.3368
8.94454
9.10513
6.28928
-0.798735
16.2406
15.5501
-3.59884
11.9434
-2.85424
0.122569
21.1995
16.0894
0.200802
-5.19829
-2.68892
16.6479
9.33211
1.52857
-0.201744
1.83013
-3.72189
2.2048
-4.81819
-3.07503
9.79311
-2.83308
-12.7294
-12.8196
20.1806
-4.98443
-42.2515
-5.10234
21.4515
-3.11977
1.76768
1.30796
-69.5649
9.51511
11.3221
8.10305
19.0026
9.84129
-0.894158
-102.869
-5.18674
0.308223
14.4524
-3.65602
-4.51186
-66.0636
-3.58421
-51.7909
-5.04895
-27.8781
-2.0602
3.70019
11.9981
17.0155
-3.27969
-1.16127
19.0217
14.0466
-4.14682
-3.43302
-89.6102
7.8152
0.865942
6.61605
10.0109
-1.47319
-3.11297
-3.41069
2.3243
-9.69194
-112.268
1.39424
-6.56832
-108.433
-71.0236
-5.25791
1.30573
-82.6709
6.19459
-4.26154
12.1383
10.5921
3.07808
16.395
-6.82646
21.6559
-5.50724
-0.551018
-12.8515
12.6039
7.41742
-52.0695
-96.0985
12.5714
15.1654
22.4808
-5.4454
-107.049
-6.51186
-1.72356
0.108985
-10.6311
4.66899
-43.352
7.28274
-5.11235
10.1302
1.52616
-0.860728
19.3766
11.3272
-11.5919
-0.202973
-16.8792
-83.5774
16.4185
24.6552
-40.0794
15.9598
11.9866
0.0483802
-3.98857
15.91
15.1522
-28.7109
-2.89325
-4.96598
-7.11024
-12.4251
-26.496
-11.2938
7.52892
-3.08544
13.7362
-8.81721
-68.211
11.3305
-11.4417
-64.3509
-0.506027
9.13838
-74.0148
-6.94856
-74.7246
-6.41108
-54.562
22.8973
-106.264
-3.46024
-6.19631
13.7761
-114.717
-2.44569
-21.7967
-14.189
-5.32754
14.5624
0.0867794
-11.9062
11.1069
-0.0222341
-4.75689
-21.2582
-16.2793
9.1856
10.4902
12.2625
-111.4
19.4936
-3.9501
-0.00253331
0.848855
-24.7416
-5.77021
-13.9722
-9.23928
1.6656
4.00172
-0.018646
-4.2836
-9.83177
12.0813
-10.7412
12.2252
-16.6614
7.01103
-2.97367
-2.05615
-2.78434
26.671
-2.39768
-85.5876
-62.0231
-8.10249
11.9831
0.0866994
-3.9451
0.362245
-63.2364
-5.04576
-54.1037
-24.1205
14.2625
-37.2899
1.05986
-77.7015
-1.62794
11.0704
0.74286
5.65791
-5.15084
17.0591
-101.364
-6.22144
18.3741
4.79487
-103.904
-4.06487
-18.1478
-8.92089
-4.70759
16.544
-4.5257
4.44364
-95.1374
-16.8938
-23.4736
-30.4884
-59.0698
7.91108
-2.98575
12.441
3.69685
-12.5557
20.0068
-6.1963
15.5528
19.1806
-79.8279
-0.720175
13.5513
11.8735
10.3587
-7.52349
-12.7298
-13.7243
12.5079
2.59349
-8.63773
-22.5582
7.33459
14.8243
-3.66998
-2.41879
-0.601605
18.0261
-16.5778
-18.7412
-0.0209624
10.2427
-0.537441
-3.24305
19.5662
15.7619
-0.0729025
-7.89614
16.3459
5.33151
-2.08288
12.1011
-3.9914
-10.1619
-15.9469
-8.04817
15.3113
13.8962
-1.37817
-6.35551
-4.9842
-1.16488
14.1365
-7.74355
10.2607
17.177
18.5101
-3.53786
12.6438
11.3674
14.4645
15.3508
-3.00681
15.3794
-0.0292441
12.2774
6.16847
13.6421
-4.63687
15.986
15.328
10.7029
7.48078
-5.6316
9.15394
0.490937
-7.1709
17.6381
16.8707
-6.08242
15.5414
-8.17164
-42.0983
13.8873
13.6644
-18.194
-1.86631
-105.519
-7.26639
-13.4864
-4.31885
-17.7858
-4.7037
11.6116
23.5903
16.4506
-3.47872
-3.81136
13.7515
5.47342
-2.92144
-9.9548
-4.9831
-18.5629
-49.5716
-52.021
11.5136
-5.01592
4.79717
0.217195
0.227528
-2.99164
0.249171
1.79884
6.73496
7.77123
-5.27709
6.56855
-32.7587
-9.24008
8.73008
6.05727
-1.04558
2.26096
7.65386
-0.566189
3.97202
-5.84331
12.4363
10.3726
20.6905
12.3143
-7.32952
-4.77878
-5.90018
-4.71553
-0.225273
0.0849181
-2.15709
-6.32011
23.8994
1.35174
-1.55551
19.2185
-4.92573
-10.0921
-5.56112
-4.77534
-132.061
3.75993
-13.6624
12.6326
-2.60567
-6.85053
-8.05977
-3.92271
-9.29381
-2.41903
0.577918
9.40282
-4.57517
-4.46126
-14.9157
4.55659
-9.15787
13.6683
19.7966
-4.56176
13.8525
7.2652
8.41956
21.7024
-4.97255
6.7942
6.35301
4.42111
18.6025
-5.36695
-1.60722
-2.4758
13.5019
19.8131
-4.49768
-1.77911
-8.61877
-7.7676
5.61239
-6.01519
-20.3141
-4.87436
4.02945
-87.3305
2.92871
3.47177
10.341
2.16012
-68.7302
-0.72645
-0.258915
-2.64804
21.1355
23.8294
17.4913
24.7047
10.631
12.5433
14.732
12.739
11.2418
-6.96688
13.1534
-4.49931
-50.8284
19.0784
-2.3566
-9.52648
22.4341
-0.841435
-6.82824
5.87486
4.95549
15.4297
-54.8313
11.1507
20.4697
-4.99132
-44.4047
-17.5855
8.71637
-4.77327
16.7273
-2.19445
15.4671
12.2635
-4.58834
15.0188
-6.45864
-91.9874
-81.2817
-5.29053
15.7096
-8.15357
12.0712
-0.628984
-14.9944
1.03944
-2.82538
-15.4006
-5.36135
-138.77
15.8137
1.63059
-69.0473
-6.87368
7.26355
3.23815
-6.71639
5.10191
0.0408712
5.27099
-90.558
6.54613
2.35071
8.27027
-1.29683
12.1178
7.53829
2.81697
-112.024
24.7834
-9.24267
-86.8003
12.2596
10.5646
-32.9353
-8.76795
-4.54958
8.1119
6.72573
-7.72146
-1.90629
-3.27458
24.6991
-6.85031
-4.82141
1.11424
-5.08846
9.05656
-2.82841
11.6685
7.20907
-4.69823
8.16162
-101.028
10.3459
4.85838
12.9402
8.37751
0.0332054
0.0218502
6.19171
13.6655
1.23475
1.356
-103.346
-8.6286
-5.57311
10.2249
-97.6346
6.21053
-116.236
15.7504
-19.7065
-3.98424
17.0479
15.2519
4.87262
-5.08252
-78.255
13.9344
-0.820723
15.8071
5.8928
-12.2812
12.6736
3.05319
2.70149
1.63145
-4.69243
-6.29648
7.76115
-1.69794
17.4501
3.373
25.1064
-1.22709
2.49891
15.4136
0.977834
3.00363
13.5549
10.9412
7.77127
-8.68215
-0.311256
11.9714
8.19496
4.29189
-8.34263
-1.91258
-5.18525
-29.2862
-5.2388
11.0858
0.765488
9.88129
-2.17527
21.0466
15.7624
3.94202
10.533
3.60788
-116.961
11.2972
9.05865
-0.350891
5.01141
15.7755
14.1439
-0.560407
-8.86636
-22.1057
11.4297
5.67761
-12.9912
13.4269
-7.41998
11.925
-30.3991
12.4918
5.16955
-0.474816
4.67616
14.7827
-1.24005
13.098
16.9055
2.24379
-3.48925
6.16124
0.705588
19.8194
-21.0997
17.926
14.9698
-17.8523
-5.05518
0.194347
-4.82621
-6.06832
-4.05071
11.8921
18.0356
13.8762
18.383
7.91872
16.6357
4.52262
1.76341
4.92682
0.922448
0.246775
10.5496
0.403145
19.1013
2.64369
-75.0033
8.43236
18.8932
19.8291
-11.7263
7.1958
-6.60289
-52.9217
5.37634
2.2115
-4.62733
5.49592