/*--------------------------------*- C++ -*----------------------------------*\
| =========                 |                                                 |
| \\      /  F ield         | OpenFOAM: The Open Source CFD Toolbox           |
|  \\    /   O peration     | Version:  2306                                  |
|   \\  /    A nd           | Website:  www.openfoam.com                      |
|    \\/     M anipulation  |                                                 |
\*---------------------------------------------------------------------------*/
FoamFile
{
    version     2.0;
    format      ascii;
    arch        "LSB;label=32;scalar=64";
    class       surfaceScalarField;
    location    "1";
    object      phi;
}
// * * * * * * * * * * * * * * * * * * * * * * * * * * * * * * * * * * * * * //

dimensions      [0 3 -1 0 0 0 0];

oriented        oriented;

internalField   nonuniform List<scalar> 
20045
(
0.758337
-0.832885
0.0745483
-1.62419
0.591854
1.03233
0.424797
2.59518
-3.01998
0.313374
-0.41723
0.103855
-1.26346
1.23996
0.0234951
-0.80137
3.18547
-2.3841
-1.5363
0.689649
0.846648
0.100671
0.654187
-0.754858
0.712377
0.637038
-1.34942
-1.20621
-0.218208
1.42442
0.507436
0.486749
-0.994186
3.23505
-1.65427
-1.58078
0.562418
-0.565057
0.0026391
-1.92916
1.56031
0.368855
-0.514356
1.62512
-1.11076
-1.64743
0.441224
-0.0705157
0.841268
-0.770752
1.32856
-1.08646
-0.242108
-2.53177
3.70951
-1.17774
-1.12338
0.0485201
1.07486
0.684841
-0.63756
-0.0472812
0.193113
0.369305
-0.217419
-1.40677
0.760374
1.08509
-1.84546
1.26042
0.268267
-1.52869
-1.18945
1.94982
-0.193513
0.120272
0.0732403
-1.56069
3.04606
-1.48537
2.6167
0.343107
-2.95981
-2.94167
1.72192
1.21975
-0.190583
-0.576135
0.766718
2.22185
-1.57278
-0.649075
-1.19936
2.04564
-0.846278
3.18897
-1.85686
-1.33211
-0.842915
0.943586
3.34404
-1.67136
-1.67268
2.1826
0.387831
-2.57044
-0.0997473
0.603417
-0.50367
-3.08111
1.19877
1.88234
0.912892
0.777637
-1.69053
0.0869679
0.620342
-0.70731
0.268641
-0.372703
0.104062
3.26006
-3.28569
0.0256322
2.21721
-0.799951
-1.41726
1.00747
1.20974
1.59575
1.6393
1.02993
-1.00428
-0.0256502
1.86025
0.861044
-2.72129
2.82
-0.637399
0.181891
2.54047
-2.72236
1.94487
-3.2907
1.34583
2.81447
-2.07558
-0.738887
-1.57667
-1.49552
3.07219
-0.137658
-0.46297
0.600628
1.32412
-0.391955
-0.932169
-1.04995
-0.213503
0.17547
2.14878
-2.32425
2.50404
0.109178
-2.61321
1.04165
-2.24101
3.16874
-2.1804
-0.988335
0.358799
0.51337
-0.872169
1.21803
1.95071
1.62432
-2.76457
1.14025
0.576317
0.108524
0.891899
0.41194
-1.30384
2.43253
0.411053
-2.84359
-0.11687
0.419752
-0.302882
-1.02271
0.218264
0.804445
1.28474
-0.572359
2.87787
-2.92658
0.0487168
-0.283222
0.166352
-0.0706343
1.39476
-0.415232
-1.52724
1.94247
0.66695
-0.345969
-0.320981
2.69531
-0.42514
-2.27017
2.06606
-1.89059
-0.151877
2.84719
0.643328
-1.15768
-0.592805
1.2048
-0.612
0.953425
-1.81187
0.858446
1.53795
1.78204
-3.31999
1.36134
-1.07632
-0.285025
2.37165
-0.747327
-3.21109
0.566545
2.64455
0.0233084
0.735029
-0.824252
0.98495
-0.160698
1.82116
-2.22113
0.399972
-2.3643
0.065168
2.29913
1.57199
0.207453
-1.77944
-1.30118
1.15065
0.150527
-2.32154
-0.259319
2.58086
1.09569
-0.188719
-0.90697
0.60986
-0.887414
0.277554
-0.258956
-1.20948
1.46844
0.898067
-0.954228
0.0561613
2.21224
0.601606
-2.81384
0.00280371
-0.196316
0.0564771
-0.521631
0.465154
1.82114
-0.908251
-0.295119
0.897709
-0.60259
2.27032
1.07372
-0.765528
-1.16363
-0.575921
0.632398
-0.430832
2.93487
-0.0138277
-0.810424
-0.894141
0.599022
0.641793
1.84127
-2.48306
1.90873
-2.79082
0.882097
0.43713
-0.71154
0.615283
0.096257
-0.409158
0.510169
-0.101011
1.92773
-1.37689
-0.550845
-0.75398
0.616322
1.98496
-3.15155
1.16659
-0.298217
0.51936
-0.221144
0.0818076
-0.49519
0.413382
1.7215
-0.461079
2.38081
0.808158
-1.77169
1.35645
2.05237
-3.03669
0.984317
1.06851
0.260057
0.754107
-0.395308
-1.18064
0.960113
0.220525
-1.17238
0.146118
-0.888243
0.742125
2.02311
0.791364
1.69761
-2.15265
0.45504
2.40129
0.245758
-2.64705
-3.04938
2.38207
0.667307
-0.723171
-0.839625
1.5628
2.98286
-0.959748
-1.26264
0.258359
0.909965
-0.325272
-0.584693
0.0607255
-0.132395
0.0716695
1.72953
1.17653
-2.90606
1.80846
-1.72907
-0.0793953
-0.531258
0.193442
0.337816
-0.501534
-0.210005
3.38742
-1.33504
-0.979646
1.04989
-0.0702481
1.77474
-2.88632
1.11158
0.791128
-2.36779
1.63394
0.780947
-2.41489
1.99144
-1.03801
2.93849
-0.398018
-2.54047
0.22968
-1.77609
1.54641
2.89906
-2.24171
-0.657349
-0.272372
0.622671
-0.350299
0.067638
2.8215
-2.88914
3.17007
-0.553366
-2.47886
0.0633919
2.41546
-1.43083
1.26208
0.168754
3.01049
-1.47254
0.482796
0.878545
-1.89603
2.3108
-0.41477
-2.07051
2.49531
0.0394341
-0.59047
0.551036
0.339208
-0.425858
0.0866503
-0.0494037
-0.567745
0.617148
2.63636
-0.150081
-2.48628
3.73148
-1.81352
-1.91796
-0.670379
0.620975
1.32801
-2.34627
1.01826
0.32862
-0.0599789
-2.50642
-1.46666
1.97833
-0.511667
-1.98162
1.52247
0.459148
-0.0443195
-0.0939826
0.138302
0.85566
2.0434
-0.051131
0.111856
0.142187
0.767778
-2.09109
0.195058
-2.2417
2.79791
-0.556211
-1.97855
2.27836
-0.299807
-1.81818
-1.24098
3.05916
0.0659406
-0.739043
0.673102
1.2666
-1.43736
0.170761
2.13574
0.439327
-2.57507
0.0161921
-2.27905
2.26286
-1.19827
2.83221
0.617587
-1.65832
1.04074
-1.17059
3.15555
-2.50953
1.65842
0.851109
-0.309737
0.362904
-0.0531674
1.10746
-3.1347
2.02724
-2.50532
0.944632
-1.83614
-1.18235
2.79152
-1.75608
-1.03544
-0.804011
0.890979
0.49326
-0.525338
0.0320778
-2.30747
-0.599715
2.90719
-2.30305
3.2506
-0.947548
2.86709
-1.96146
-0.905632
0.220949
-0.778347
0.557398
-0.647467
-1.56824
2.21571
-0.394425
0.901861
-1.32354
0.600372
-1.93243
-0.714486
2.64692
0.349759
0.0897823
-0.439541
0.275664
-1.74233
0.529818
-0.720401
2.5342
-0.132912
-0.498426
0.398678
-0.515778
0.615349
-0.0995709
-0.386137
3.0225
-2.31481
1.66734
0.88652
-0.00608178
-0.880438
-2.05625
0.396778
1.65947
1.00959
1.85751
3.29616
-2.18869
1.97195
-3.22203
1.25008
0.752088
-1.94991
1.19782
0.109314
-1.23269
-1.46307
2.10487
1.95048
-2.75185
0.581275
-1.89516
1.31388
-3.19292
1.72935
1.46357
-0.119988
-1.18119
0.546507
0.432633
-0.979141
1.98721
-0.478551
-1.50866
0.827194
-1.92128
1.98891
-0.768579
-0.211067
1.79905
2.99299
-2.75184
-0.241153
-0.0334818
-0.417486
0.450968
2.00144
0.243189
-2.24463
0.512746
0.397963
-0.910709
-0.114779
1.70901
-1.59423
-0.514163
2.33532
1.72336
-1.10577
-0.259542
0.654249
-0.394707
2.38745
-0.612707
0.354987
-0.0318808
-0.323107
0.515919
0.186827
-0.702745
-0.408887
0.425293
-0.0164062
2.79037
-1.82779
-0.962578
0.692361
-2.99541
-0.452747
0.0438602
-2.604
0.834032
1.76997
2.7907
-0.745067
0.700481
-2.94218
3.67788
-1.74471
-1.93317
-0.0532219
0.402981
2.73187
-1.1087
-1.62317
-1.83155
0.420556
1.41099
-2.90566
2.95162
-0.0459616
0.833083
-2.11266
1.27957
-0.108798
0.17747
-0.0686723
-1.39398
1.85282
-0.458842
0.0884687
-0.607431
0.518963
-0.474543
0.176326
-0.489634
0.080476
-1.95588
-0.834947
1.44868
-2.20553
0.75685
0.601453
-0.823281
0.221829
1.28433
0.93752
1.64979
-1.06852
0.0196852
0.319523
1.73762
1.05308
-1.49873
0.0463746
1.45236
0.851909
1.87996
1.14995
0.475174
0.792984
-0.191531
-0.860121
-0.056227
0.916348
0.042538
-0.352275
-1.84798
1.7332
-0.639914
0.889132
-0.249217
-2.64464
2.56137
0.0832687
-1.27606
1.11595
0.16011
-0.573476
-0.365675
0.93915
2.26268
-2.49033
0.22765
-1.88616
-1.30676
3.6565
-2.5258
-1.1307
-0.332895
0.299413
2.35216
-1.51907
-0.871494
2.32018
-0.206325
-0.772514
0.978839
2.53717
-0.303299
-2.23387
2.95071
-0.410006
-2.5407
-1.07565
0.86933
2.49607
-1.44908
-1.047
-0.486918
2.31903
-1.83212
1.36407
-1.80323
0.439159
-0.380541
-0.29164
0.67218
0.375288
0.207927
-0.583216
3.31268
-2.56646
-0.746223
-1.68421
-1.36517
2.39816
0.594833
-2.41887
-0.22577
-0.181902
0.697821
0.633378
-2.47858
1.8452
0.0138333
0.479427
-1.61504
3.34457
1.01249
1.77788
3.03362
-1.92144
-1.11218
-2.86004
2.14555
2.27932
-3.40581
1.12648
-1.86298
-0.133798
1.99678
-0.687812
-0.537575
1.22539
2.09969
-0.771683
0.0938919
0.792628
0.709001
-0.101723
-1.47106
-2.10317
2.98707
-0.883901
-0.604592
0.0888143
-0.238872
-0.02067
0.412943
-3.3186
1.83069
-2.34485
0.51253
-0.829796
1.10074
-0.270948
-0.0174257
0.3308
-1.53667
1.05597
0.480697
1.06158
0.866151
-0.715253
1.27035
-0.555095
1.46106
0.347407
-1.87225
2.50563
1.71392
-0.141934
-0.597007
-1.45924
2.84639
-1.97555
-0.870844
2.82037
-2.81819
0.980534
1.83765
2.41921
-2.64126
0.22205
-1.31597
1.05701
-0.386603
-0.144654
-0.428708
-1.89284
0.840968
-1.63192
0.790953
1.28621
1.20986
2.15032
-3.04188
0.891564
0.66067
-1.61214
0.951474
-2.89437
0.530071
0.0252057
1.07048
-1.90741
2.80129
-0.893879
-0.729263
0.928603
-0.19934
-1.20443
-0.331865
-0.391147
-0.669334
1.06048
0.306752
0.0045944
-0.311347
-1.0006
-0.430234
1.13986
1.38114
-2.52101
2.61535
-1.76344
0.998409
-1.34295
0.0269814
1.38708
-0.726412
-2.01262
-0.496911
-0.41476
0.50667
-0.0919098
2.89999
-1.03974
-1.35602
2.24235
-0.886335
-0.378614
0.431504
-0.05289
2.21979
-0.232581
-0.81164
-1.66694
-1.50779
2.76803
-1.26024
1.98935
-3.14305
1.1537
1.4292
2.22731
0.0724473
0.0824332
-0.154881
0.253799
-2.11678
2.03134
-3.08686
1.05552
0.159908
0.507042
-0.213202
1.91082
-0.34914
2.17983
-1.18483
1.93692
0.614634
-3.1464
-2.79446
1.65127
1.14319
1.89499
-0.289474
-1.60552
2.77271
-0.510033
-1.21232
-1.58539
-1.44412
1.20583
0.946821
-1.3758
0.428984
0.952919
-0.904399
-2.12605
1.91285
2.60581
0.654245
-2.35541
0.999394
2.9724
-0.574241
0.459709
-0.589319
0.12961
-0.0369903
-1.77856
1.81555
-2.67935
0.495108
2.18424
2.45678
-2.45678
-0.873941
2.65292
-1.77898
0.794852
-1.5101
1.95231
-1.23719
-0.715118
-2.75615
2.83843
-0.0822756
1.01832
-0.143015
-0.875306
0.812063
-0.328916
-0.483146
0.364674
-0.938149
-0.315822
1.52756
-2.39906
-2.47564
2.87734
-0.4017
-0.888912
2.02878
-0.901904
-0.170573
1.07248
-0.38606
0.674113
-0.288053
-1.12468
1.234
2.85836
-2.28009
-0.578269
-0.27377
-1.55387
1.82764
-0.709875
0.766309
-0.0564341
0.391316
-0.840889
0.449572
-3.16427
1.32425
1.84002
-0.303398
-0.113832
0.62849
-0.16878
0.0531262
0.992695
-1.04582
1.33543
1.97725
-1.04103
0.139125
-0.218967
-0.818261
1.03723
-1.45288
2.34219
-0.889309
-0.109061
0.354029
-0.244969
1.30791
-0.618258
2.13602
0.357401
-2.49342
0.0419246
-1.25141
-0.00263101
2.13837
1.26713
0.909691
-2.17682
1.4139
-1.23816
-0.175748
-3.04727
0.56841
-1.25081
0.584335
0.666472
1.10904
1.48938
-2.59842
-1.86157
1.72777
0.20919
-2.73506
2.52587
-0.414081
0.63503
-0.325626
0.380829
-0.0552037
0.0578435
-0.917964
-1.05211
1.09139
-0.039287
-2.01856
-0.585435
1.85746
0.463623
0.198491
-0.662115
-0.388127
0.00951298
0.476366
-2.09984
1.62348
0.52743
1.61552
-2.14295
0.870079
-2.11632
2.56023
-0.443906
-2.14608
1.65916
-0.102189
0.222462
-1.23033
-0.751295
-0.792152
0.198261
0.593891
-2.56295
1.11007
1.98097
-2.25474
0.762287
2.21012
-0.893289
0.90944
-0.0161519
0.85601
-2.27287
1.41686
0.469588
-0.822301
0.352713
1.61927
-2.43091
-1.91756
-0.0609921
-0.966035
-0.0566743
0.179055
0.168244
-0.3473
0.972197
0.289943
-0.375077
0.0851331
2.44536
-1.33632
-2.32702
2.76999
-0.44297
0.771983
0.571472
-1.34345
-1.10776
0.693676
-0.670257
-0.121895
1.06304
0.889261
-0.798842
-2.23785
-0.479448
0.0646878
1.85751
1.19408
0.519839
-2.45796
2.63986
0.187419
-1.27932
1.0919
-0.275785
-2.49965
2.77543
0.34538
-0.357648
0.0122682
0.863555
-0.797615
-0.466421
1.83049
1.98353
-1.75385
-1.23427
-0.302399
0.0103759
-1.23223
1.22186
1.20918
-3.02737
-0.265769
-1.44146
1.70723
0.122535
-0.569965
0.447431
-1.9388
0.130644
1.80816
2.84711
-1.98607
-0.0491174
0.273844
-0.224727
-0.65253
-0.0573456
0.56005
1.04464
-1.60469
0.398996
-0.491425
0.0924294
2.01104
1.07729
-3.08833
-1.19481
3.40705
0.305136
0.00161612
-0.769693
-1.68532
2.45501
1.22412
2.16329
2.57793
-2.0505
-1.05398
0.662833
0.712938
-0.33765
-1.00488
3.2842
0.448646
-2.34339
1.89475
2.81904
-0.404462
-2.41457
-1.2432
2.05357
-0.81037
1.19649
-0.908601
-1.5207
2.4293
-1.07225
1.06889
0.00336714
-0.873014
-1.44342
2.31643
0.255914
-0.641974
0.110462
-0.154782
1.50007
-2.37308
-2.13882
-0.671358
2.81017
-0.181035
-1.43331
1.61434
0.0539406
3.37592
-3.47018
0.0942631
0.651441
-0.41994
-0.231501
0.0287844
-0.922073
0.769706
0.698732
-0.946472
0.25866
-2.35632
2.99958
-0.643265
0.113622
-0.753536
1.30423
0.687211
-2.53785
-0.747843
0.427956
0.362631
-0.790587
1.61824
-0.424158
-0.618116
0.682534
-0.0644173
-0.512755
0.601224
-3.43532
1.59918
2.66547
0.520002
-0.371032
0.762349
-0.623962
1.39595
2.37752
-0.849959
-0.640344
0.0222278
-0.292793
-1.83326
0.735129
0.693208
-0.653774
-2.72503
0.045679
-0.90992
0.64455
-0.174963
-3.00726
1.85179
1.15547
2.40544
0.472422
0.582405
-0.192797
-0.389608
0.825193
-0.776214
-0.0489788
-2.66508
0.993719
-3.05914
1.55136
-0.882923
0.699718
0.183205
0.0565523
-0.322953
0.266401
3.20775
-0.029428
-3.17832
0.547219
0.0353562
-0.582575
-0.401435
-0.779203
0.683812
-0.0739517
-0.243922
0.23881
0.00511215
1.15953
-0.184389
-0.975139
-0.0386933
-0.205229
2.50913
-1.90753
-0.0878283
-0.434225
0.522054
-3.02305
0.666735
0.0372785
0.149839
-0.72576
-0.40348
0.867103
0.0246571
-0.0049719
0.739587
0.460019
-1.19961
1.22066
-0.328758
1.22575
-1.03833
0.65654
-0.574732
0.231943
-0.961206
1.84509
-0.377721
-1.46737
1.55915
-0.0968876
-1.46226
-1.56851
-0.207579
0.489704
0.0378774
-0.527581
1.10097
-1.30935
0.208388
3.23436
-0.104447
-3.12991
0.48373
-0.0630354
-0.420694
-1.45764
1.9815
-0.523861
1.36229
1.68569
-3.04798
-0.2916
0.80497
-0.779489
1.29038
-0.510895
0.655569
0.269308
-0.924877
-2.46255
1.17655
1.286
0.21367
0.0251397
-2.51706
0.378245
0.914468
-0.555326
-0.359142
1.4229
-1.84034
0.417443
-0.255672
-0.577213
0.473267
2.90265
2.46718
-0.373471
-2.09371
-2.50209
0.38577
1.01819
-1.61519
1.9787
-3.21692
1.23822
-0.304259
0.850766
0.075251
-1.17128
0.95231
-0.481117
0.627235
-0.348214
-2.22085
2.56906
1.11652
1.23564
-2.1562
2.29455
-0.13835
-0.22608
0.405135
-1.97661
-0.743083
-0.360203
0.403114
-0.0429111
0.478066
-1.0172
0.53913
0.103838
0.0102722
-0.114111
-0.242189
1.66509
-2.19962
-0.652704
2.85232
-2.21804
-0.73223
2.95027
1.43222
-1.09928
-0.332945
-0.650354
0.0757575
0.574597
0.388192
-0.327433
-0.0607587
-2.90811
0.150968
2.75714
0.0742782
0.567378
-0.641656
2.34979
-2.63477
0.284982
-1.49609
1.16208
0.444851
-1.60693
0.0316664
-0.391869
-0.721746
-1.01802
1.73977
1.86193
-3.03252
-2.83013
2.46804
0.362096
0.477746
-0.0787498
2.00943
-0.7052
-0.191764
-0.746041
0.937805
-0.0306135
0.490523
-0.459909
-0.856
2.52543
-1.66943
2.45081
-2.20404
-0.24677
2.98434
-2.87693
-0.107406
2.38372
-1.07766
-1.30605
0.126296
-0.680135
0.55384
-0.862387
-0.0258563
-2.89794
2.54906
0.348881
0.118759
-3.0167
0.0259083
2.42384
-2.44975
-1.66648
-0.89998
0.585721
-0.504883
-0.0808387
-2.39196
-0.631087
-0.558826
0.367621
0.191206
0.831783
-0.319037
-2.71028
2.55068
0.159607
-0.65404
0.249237
-0.595206
0.584225
-0.0370055
-1.77618
0.382198
0.418944
-0.503641
0.0846969
-1.1344
1.08875
0.0456468
1.06124
-0.0429228
-0.771176
1.77744
0.442356
1.05287
0.148879
0.906455
-1.05533
-0.397369
1.66397
-1.84122
1.16482
0.676406
0.261877
-0.0482067
2.345
-1.22847
1.88682
-1.03081
-0.625506
-0.553903
1.17941
0.829303
-2.18341
1.35411
1.6473
-1.82833
2.92966
-1.26214
-1.66752
-0.0177155
-1.53461
-0.30661
-2.20933
2.94627
-0.736941
-0.0996148
-0.740059
2.71201
-3.13811
0.74615
-0.696046
0.315506
-0.381392
-0.466185
0.438562
-0.0132694
-1.47091
-1.52833
3.386
-1.31994
0.604553
-0.654927
0.0503736
0.188227
0.623836
-1.97628
-1.05026
3.02654
0.978695
1.121
-0.00820495
-0.425148
0.433353
2.43998
0.405726
0.0230484
-0.428775
1.48054
0.364552
-1.08829
-2.95883
0.483183
-0.644639
0.0315406
0.613098
1.68091
1.99697
0.716411
0.309557
-1.02597
2.86513
0.119215
1.75812
-2.49086
0.732738
-2.45229
-0.010633
2.46292
-2.30882
2.99796
-0.689141
0.41305
-0.0119334
-0.401116
-1.1222
2.98413
0.141222
0.76236
-0.903582
0.101367
-2.25757
0.724233
-0.0499061
-0.674327
-2.70455
3.50701
-0.802465
-0.732855
1.6051
-0.872242
3.47551
-1.52737
-1.94813
0.00626861
-1.78813
1.78186
0.348457
0.0323723
-1.34973
2.71202
1.67425
-2.54819
3.01807
-1.02872
-0.543053
0.455224
-2.55498
0.102691
3.20661
-1.05629
-0.0415967
-3.1695
0.69642
-0.076078
0.766841
1.66451
-2.43135
1.63981
-0.379375
-1.26043
1.91629
-2.88243
0.96614
-0.493946
0.0320619
0.461884
-0.610952
-1.38549
1.99644
1.05261
-0.820666
-1.47425
0.32009
1.15416
0.442503
0.781552
-1.22405
0.243115
0.342606
-2.50631
2.94891
-0.442602
0.305892
0.0394872
1.31057
0.595952
-1.90652
1.3033
1.07937
-2.38267
0.454341
1.44065
-0.0649578
3.00345
-0.0114413
2.34627
-2.33483
-0.089652
-0.0194088
0.0893219
0.100538
-0.18986
1.93164
-1.6942
-0.23744
1.31351
1.61615
1.08244
-0.796735
-0.285703
-0.842539
2.37725
-1.53471
0.0353911
0.480206
-0.515597
0.891356
-1.9852
1.09385
-1.55202
-0.441648
1.99367
2.3649
-0.363465
0.876982
0.762824
-1.0555
0.304031
0.751466
0.830488
-2.38436
-0.0635242
0.681086
-0.617562
0.565733
-0.207896
-0.357837
0.0170586
0.331399
-0.234756
2.53798
-2.30322
-0.340654
2.88113
2.27824
-1.84653
-0.431713
1.86374
-1.65629
-1.57951
0.529812
1.0497
0.05174
-1.28893
-0.638257
0.505413
0.132844
0.179533
0.402872
0.436081
2.18008
-2.61617
0.610695
0.548833
0.407916
-2.62596
-1.28408
0.533697
0.750382
-0.926085
-0.719116
1.6452
1.40587
-0.666288
-2.56361
1.6747
1.10457
-0.842637
-0.261934
-1.56941
2.32641
-0.757008
-1.28879
1.33071
-1.26172
1.66149
-0.399772
-2.02292
2.78629
-0.763372
-0.0663769
0.619413
-0.553037
0.465259
-0.408707
-1.0038
-1.89496
2.88281
-0.987845
-1.58711
1.98389
1.50952
-1.52194
0.0124272
-0.159438
-0.630967
0.790405
-3.13703
2.24714
0.889893
0.0220851
-0.327154
0.305069
-0.0619402
1.64526
-2.50126
2.0276
-1.19829
-1.07127
-1.72318
-2.11059
2.09915
1.46442
0.0580534
1.04857
0.477668
-1.52624
-0.962628
0.896329
0.0662994
0.993037
-0.842354
-0.150683
0.42702
-1.25135
0.824334
-0.560663
1.28822
-0.727556
-2.26212
-0.558641
2.82076
0.574814
-0.734252
1.45595
0.47569
-2.7963
2.10529
0.691004
0.748121
0.0568138
-0.804935
0.0162224
0.52997
-0.683721
0.153751
-1.94015
-0.900796
1.32782
0.404845
0.587706
-0.461411
0.921171
-0.443104
0.610505
-1.45013
0.0949106
0.803157
-0.397604
-0.352728
0.750333
-1.66818
-1.31944
2.98762
-0.396204
-0.659293
-1.53372
-0.223011
1.75673
0.392787
0.514622
-0.90741
0.0101827
3.29213
-2.09598
-1.19615
0.515111
1.95207
0.102783
1.29333
-1.14436
-0.148977
-0.774011
2.05433
-1.28031
-1.69006
-0.662613
2.35267
-1.32151
0.542026
-1.18599
-0.393519
3.4943
-1.43415
-2.06015
-0.683981
0.0587355
0.625245
1.12365
0.184736
-1.30838
-0.491141
0.565419
-0.735958
1.48857
-0.752616
-0.0751602
-0.0664117
-0.603967
-0.0350052
2.08133
1.41297
-1.47705
2.67581
-0.858725
2.58065
-0.695653
0.0116717
-2.47848
0.788417
2.09287
-1.83907
-0.315711
-1.84677
0.389126
2.29883
-2.27292
2.04457
-2.08156
2.48517
-0.0659635
-0.562519
-0.324895
-0.730928
-0.293228
1.02416
-0.863015
-0.0912137
2.18696
0.412453
-2.59941
0.0605316
-0.739835
0.679303
0.0461887
1.03845
-2.85704
1.81859
2.53706
-0.187269
-2.63607
2.70298
-0.0669063
0.626162
-0.407898
-2.85026
-0.286776
-0.922693
2.64554
-0.096479
0.808114
3.17254
-1.22236
-1.95019
-1.80997
-0.153459
1.96343
0.257217
1.52107
-1.77829
-2.06703
0.12823
-0.535903
-0.352979
0.888882
-1.38988
1.83853
0.419966
1.50793
-1.9279
-1.88539
-0.164094
2.04949
-2.68909
0.257361
2.43173
0.499472
1.52812
-0.657167
1.53754
0.846175
-0.802101
-0.448705
2.14111
-2.53913
0.130806
-1.02557
0.894765
-0.942213
0.650612
1.97877
0.0932466
-2.07202
1.76264
-2.62137
-0.0249556
-0.0838424
-0.997307
2.41953
-1.42222
-1.70199
0.980249
-0.0407267
0.787074
-0.746347
0.756195
-0.553622
-0.202573
0.727267
0.136288
-0.721662
1.73985
-0.163083
-0.71984
-0.441285
0.472951
1.05912
-0.661159
0.30928
-0.13181
-0.566579
0.543494
0.0230852
0.583635
-0.657038
0.0734034
-2.10118
1.67604
0.322341
-1.85606
-0.0253239
-0.778687
0.0917781
1.5741
-1.66587
0.923698
-0.979925
0.999976
-2.25275
1.25278
-1.21541
2.03587
-0.82046
0.748418
-2.85158
0.21768
-0.0599906
-2.77014
1.3009
2.0851
-2.18188
-0.381736
-1.96188
-0.856308
-1.17942
0.510082
-0.0855234
0.34103
-0.255506
3.30777
-1.62686
2.70385
-0.672507
-0.661875
-0.445639
1.10751
-2.89907
1.13517
1.7639
0.943584
-0.456835
-0.391339
1.55342
0.459933
-0.26682
-0.97203
0.83631
-0.695088
-0.775458
1.1463
-0.370837
-0.347854
2.53482
0.513934
-0.641856
0.127922
2.59981
-3.61218
1.69628
1.9159
0.687495
0.566735
-1.25423
1.10949
-1.30365
0.194162
-1.50832
0.775466
-0.911602
-0.0144677
1.13812
2.64835
-2.92413
1.16104
-0.505466
-1.15513
1.98562
-3.00334
2.14906
0.854278
0.985319
-2.09594
1.11062
-2.07575
2.17717
-0.10142
1.15938
-1.55675
0.0368378
0.654859
0.777364
-0.0551201
-1.75675
0.58129
-2.62198
1.07964
1.54234
0.694122
-2.50409
2.18822
-0.126631
-1.70492
0.357421
0.922724
2.9823
-1.01774
-1.96456
-1.15709
0.764496
-1.69058
0.454335
-2.7639
2.61044
-2.07473
1.16613
1.40802
-2.2597
1.99946
0.260241
-2.70295
1.79615
0.906802
-0.912976
-0.364311
0.486846
-2.85524
2.02529
0.829948
1.81982
-2.94201
-2.46358
-0.0427337
3.17832
-1.19963
0.870327
0.855825
-1.72615
-0.0681526
-0.4348
0.502952
0.427811
1.42511
1.51923
-2.25983
0.000128883
0.482692
0.569917
0.676405
1.00843
-1.68483
1.07347
-0.64084
-0.151181
-3.00156
3.15274
-0.992573
1.15627
-2.35454
-1.70824
-1.16199
2.87023
0.709627
-0.898346
-1.94192
0.626975
1.31495
-0.0209171
0.0762647
-0.0553476
2.44882
-2.79703
1.40992
-2.40723
1.34568
0.687351
-2.03303
0.691927
-0.0873742
-2.31783
0.659307
1.65852
-2.1033
0.551271
1.2627
-2.03671
1.14508
-1.01427
0.0144619
-0.035379
-0.126637
2.94567
-1.74816
2.19265
-0.444494
2.85901
0.0135114
-2.87253
-2.16673
-0.0423228
-0.787473
0.116761
2.34002
0.335793
0.0957103
-0.123811
-0.359604
1.15446
1.4357
0.276718
0.716319
-2.51748
-0.1928
-2.59547
1.26913
-2.37783
0.487718
0.525361
-1.01308
2.50759
0.143792
-2.65138
-0.311825
0.299892
-0.954672
-2.10447
-2.29123
-0.350028
-0.929257
2.6919
-0.950603
1.30474
-0.354141
-2.43463
0.766451
-0.774456
1.45086
-1.19203
-1.81523
-0.724923
-0.84424
1.015
-1.33036
0.195956
3.03197
-0.386427
1.45688
-1.48405
0.0271692
0.320399
0.333851
0.728231
2.94527
-2.73608
0.0107865
-0.623085
0.90064
-1.41685
1.46322
-1.28584
-1.47607
0.590671
0.49588
-1.08655
-2.52759
0.0708116
-0.329471
2.18238
-1.85291
-0.283631
-2.35244
-1.99214
2.23533
3.43127
-1.48344
-1.94783
-0.302555
0.886891
2.45825
-1.28153
-1.17672
0.728584
-0.794996
0.226314
-0.136992
-0.496707
0.0266265
0.470081
-0.438123
1.48669
-1.15931
2.97912
-0.0838704
-0.421012
-0.772981
-0.22891
1.00189
-0.0349044
2.48372
0.562048
0.423868
-0.985917
-1.04693
1.60698
1.18835
1.1889
-0.969819
-0.31426
1.45208
-0.521095
-0.930982
0.030261
-0.369176
0.338915
0.263481
-2.21404
1.95056
-2.66495
0.373716
0.610209
-1.14492
2.41405
-0.014898
0.743482
0.354786
-1.30539
-2.96005
1.51593
-2.73007
0.916547
-1.26
0.135313
-1.17642
-1.63232
2.80874
-2.83756
-0.334988
-0.0354996
0.370488
2.40907
-1.84253
1.9771
-1.71989
0.401252
1.51696
-1.91821
0.559241
-1.09514
-2.03369
-0.742393
2.77608
-0.397366
0.950916
-0.55355
-1.16732
2.30926
-1.14193
2.4104
-1.56018
-0.850214
2.42598
0.0618028
-2.48778
-1.44837
-2.1638
-0.917276
-0.0487591
1.05802
1.92484
-0.0470536
0.256569
-0.209515
-1.85465
-0.463174
2.00346
1.70605
-1.50844
1.82933
-0.320889
0.478771
-0.455723
0.202113
1.21236
-1.41448
-0.124255
0.638189
-0.309645
-2.5456
-2.62197
1.11504
-0.0104706
-0.414226
0.944044
0.243828
2.0838
-2.32762
-1.4314
-0.344779
1.85186
0.763492
0.200508
-0.702042
0.71318
-1.50548
0.792297
0.285263
-1.02773
0.742463
0.215097
0.900854
0.691042
2.33964
-1.05343
2.54074
-1.38447
-0.308409
-0.691682
1.00009
2.10655
0.212482
0.0962954
-1.87755
1.2666
2.09815
-2.13306
-1.3378
-1.1163
2.4541
-1.67526
-1.22381
-2.70068
2.75821
-0.0575325
-0.300786
-1.06598
0.77275
1.6007
0.738935
0.22938
-0.871219
0.641839
-0.959427
-1.96716
-0.50145
-2.09712
2.59857
1.82538
-0.84668
-0.771505
0.707981
1.63413
-2.58881
1.2872
-1.01893
-1.12288
2.80291
-1.68004
1.17767
1.41451
0.836742
-2.25125
2.87403
-1.77583
-1.0982
-0.969575
-2.12116
3.05673
-0.935568
1.54729
-0.0904063
-0.778846
0.763948
1.18635
2.28915
-0.593719
0.525567
0.273791
0.0161526
2.71286
-1.53633
1.28948
2.01829
-1.12349
0.589701
0.533785
0.67264
-1.29815
2.08492
-0.106151
2.34359
-1.47326
-1.92766
-0.242377
2.17004
0.519789
-0.0944119
-0.425377
0.407619
0.243822
0.455155
-2.76397
-0.764651
0.822495
1.91012
-1.70259
-0.207536
0.426848
1.02523
-0.408536
0.215738
0.648555
0.665688
-1.31424
-1.32805
2.36971
0.0261597
-1.34789
3.12256
-1.77467
-0.743505
1.18601
-0.0788615
-1.80653
3.06203
-1.48643
-0.932439
1.48634
-0.376857
0.810563
-0.835887
-0.483536
0.417159
-0.804828
-0.389563
0.00143633
1.54188
-0.411597
2.28243
-1.87083
-0.99539
1.04852
-1.06576
0.319718
-0.91098
-0.00629569
-2.58938
1.81969
0.625087
0.665297
0.283381
-1.00419
0.720812
0.704939
0.280011
2.29552
1.29342
-3.58894
-0.262735
-0.064264
0.326999
-0.224934
-2.10209
2.24565
1.18562
2.23463
-1.9908
-3.12604
0.00428193
0.256575
-0.405747
1.26968
1.84356
0.790706
-2.63427
0.998028
-0.0743307
-0.0862442
-0.875976
-0.247509
-1.54797
-1.36266
1.4144
0.812212
1.95778
1.60952
-1.60232
-0.00719795
0.524009
0.0194846
-0.194779
0.678014
-0.094379
2.19958
0.589582
-2.78916
-1.48646
0.710998
-0.617133
0.373899
0.243233
-0.930651
0.0113935
0.919258
1.24796
1.10366
-2.35162
0.635404
0.770471
1.95552
-0.0468
-0.70718
1.00219
-1.3618
-0.260959
0.372017
-0.111058
-2.70207
1.51972
2.36655
-1.852
-0.514551
0.0430009
-0.401656
0.358655
2.43004
-2.6648
2.15982
-0.334448
0.616876
1.36023
-0.34141
-0.0481532
1.40636
-0.73487
-0.671492
-1.5509
-0.343706
2.99872
-1.53204
-1.46668
2.72015
-1.83647
-0.883676
1.09813
-1.90415
0.80602
0.116354
1.42139
-0.0343093
-0.344274
1.47675
-1.13248
0.78719
0.619171
-0.944441
-0.588768
-0.0530883
2.58438
0.00899317
-2.59338
-0.999885
-0.00322335
-0.394381
-0.997361
0.200626
0.383422
2.0361
-0.475393
0.579231
-0.048334
0.0210585
-0.384055
0.370227
-1.09216
1.49341
0.0461667
0.647041
-0.662624
-0.882969
2.1673
-0.0895403
1.69906
-0.414958
-0.309789
-0.660742
1.3093
-0.55879
2.24475
-1.68596
-2.21063
-0.306427
-1.096
2.1254
-1.0294
0.0903163
-0.679084
0.825111
-0.170925
-0.0557653
-0.632436
0.688201
-2.20761
0.721177
0.298511
-0.347628
1.3068
-3.28308
0.869212
-2.55453
-0.642273
1.72736
-0.887558
1.35281
-0.687125
0.0378949
-1.76336
2.02684
-0.00205994
-0.415426
0.379523
-1.4788
-0.246569
-1.61987
1.86644
0.81334
0.794019
3.34853
-2.19439
-1.15414
-0.588746
0.206119
0.612224
0.0614819
-0.673706
-2.16814
0.419987
0.503929
0.0618042
-0.0267292
-0.336419
0.363149
1.16658
-2.26258
0.229344
1.19223
0.0980918
-1.29032
-2.48085
1.92206
0.400776
0.102926
-0.503702
0.946897
-2.84186
-0.368318
-0.0141568
0.382475
0.521464
-0.120688
-0.0307654
1.94233
-1.48799
1.60831
1.31039
-0.674991
-2.50728
0.799041
-1.8375
1.46041
0.37709
1.11018
-2.44798
-1.29783
-0.816033
2.11386
0.233033
1.02904
-0.780061
0.637047
2.93397
-0.405981
-2.52798
0.0414178
-2.5589
2.21645
0.209527
1.22313
1.23512
-0.411332
-0.0138167
0.403954
-0.772304
-0.859617
-0.0279273
-0.314632
0.342559
0.061335
-2.71272
2.65139
-0.107896
0.737935
-0.630039
0.79486
-2.41407
1.61921
-0.292184
-1.43689
-0.0851516
-0.403004
1.76339
-0.875365
-0.515623
1.39099
-0.953909
-1.06466
1.15908
-0.663198
-0.545415
-0.0338871
0.579302
-0.741982
1.02536
-2.53514
-0.345843
-0.104531
0.450375
0.28634
0.847494
-1.13383
1.84836
-2.58679
0.738433
0.0663892
-1.47316
0.435094
-3.13964
-1.33731
-1.67395
3.01125
-2.54035
0.0949571
2.44539
-3.3245
-2.1639
0.0881443
-0.713471
0.743448
-0.0299767
-2.68534
-0.920944
3.12052
0.972165
-0.512146
0.204068
-0.864809
-0.451371
1.22184
0.399367
0.232779
-1.00576
0.0480074
-0.400846
0.352839
-0.4282
0.155828
-0.275941
0.318942
-0.677801
1.3653
-2.82873
1.80977
1.01897
-1.00225
1.09614
1.57863
0.525886
-0.00609781
-0.684877
0.914258
-1.24074
-0.701179
-1.40526
0.511691
0.893572
-0.0452546
-0.475206
0.520461
-1.02845
1.31371
-0.193938
1.85341
1.61071
-1.04866
1.4263
-2.38021
1.18605
-1.56834
0.382288
0.273506
0.000338503
0.0284408
0.0539924
-2.81311
1.63668
1.75951
0.960641
0.0394999
-0.528652
0.489152
-3.44652
1.37601
-0.512502
0.699328
-0.504188
-0.0468515
-0.565663
0.612515
-1.44953
0.574168
-2.70089
2.39124
2.27094
-0.925262
-0.580155
0.521334
0.0588212
0.857877
-0.495246
-0.395047
-2.93077
1.16553
1.76524
-0.372769
0.308505
-0.238687
0.840568
-0.601881
1.50895
0.650875
-0.00535471
0.86417
-0.858815
-0.672476
0.718643
0.286908
-0.127
1.73002
-2.32621
2.70876
0.156369
-1.16525
-1.05588
2.5099
-0.06563
-2.44427
0.171203
0.512633
-0.683836
1.50485
-2.97576
0.755566
0.554851
-1.31042
0.00231627
-0.145903
0.143587
-2.21407
2.23285
-0.018783
-0.784738
1.78471
0.891067
1.55975
2.55723
-0.847305
-1.70992
-0.0383532
-0.362334
0.400687
0.462468
-0.809696
-0.052691
-0.789574
-0.0201223
0.0938548
-0.905636
0.811781
-0.227416
2.48178
-2.25436
-2.36559
0.889546
1.47604
0.782257
2.42549
0.10403
0.0871189
-0.191149
1.45282
0.646145
-2.09896
-0.443452
0.357929
-1.03627
2.66782
-1.63156
-2.18138
0.253716
1.76558
0.748387
-2.04622
-0.00451737
-0.305626
0.310143
2.36479
-0.458072
-1.90671
0.69831
0.563648
-3.09554
1.56721
2.79109
-2.94227
-1.3517
0.310253
1.04145
-0.0580567
-0.0828098
-0.405736
0.488546
-0.51678
-0.370911
0.887691
-0.0275392
0.327505
-0.299966
-0.475914
0.497233
-0.0213185
-1.45685
3.09098
-0.762837
0.773213
0.320715
-0.559401
0.961231
-1.41729
0.456059
-1.74164
-1.2617
0.235071
0.153121
-0.175318
0.0218376
0.15348
2.95365
-0.987705
-1.96595
0.230346
1.67978
-0.622579
-0.340049
-1.47658
0.244348
0.60076
1.53066
-2.13142
-0.0404821
-0.0484249
0.088907
-0.0687403
0.893933
-0.688659
-0.499483
1.18814
2.36561
-1.14644
-1.21916
-2.55488
0.334032
0.85768
-1.70246
0.63242
1.07004
1.728
-2.07714
0.64607
-0.496231
0.132664
-0.104224
-1.30629
1.80695
-0.500662
0.386236
0.0736976
-0.331526
-0.306034
-0.61798
0.53411
0.438922
-0.501957
-1.03251
1.74789
-0.715385
1.88197
-1.07893
-0.803036
0.721385
-0.506288
0.621551
0.144758
-0.592123
0.491112
-0.0834635
-0.992852
0.0198938
-2.22394
-1.46757
1.1233
0.164933
-0.492366
0.361294
0.16017
0.0224476
-0.0201313
2.28979
-2.31721
0.0274197
2.7127
-1.28573
0.52763
0.7581
0.263978
-0.887063
-0.751746
-2.28844
-0.631782
0.53737
-0.449462