/*--------------------------------*- C++ -*----------------------------------*\
| =========                 |                                                 |
| \\      /  F ield         | OpenFOAM: The Open Source CFD Toolbox           |
|  \\    /   O peration     | Version:  2306                                  |
|   \\  /    A nd           | Website:  www.openfoam.com                      |
|    \\/     M anipulation  |                                                 |
\*---------------------------------------------------------------------------*/
FoamFile
{
    version     2.0;
    format      ascii;
    arch        "LSB;label=32;scalar=64";
    class       volVectorField;
    location    "1";
    object      U;
}
// * * * * * * * * * * * * * * * * * * * * * * * * * * * * * * * * * * * * * //

dimensions      [0 1 -1 0 0 0 0];

internalField   nonuniform List<vector> 
13486
(
(4.30343 -0.656436 9.62159e-21)
(5.08091 0.86027 4.22489e-21)
(6.47431 0.0373169 0)
(3.072 -1.58672 -2.89144e-21)
(6.80859 -1.65944 3.18997e-21)
(7.10568 0.256191 5.37611e-22)
(7.48978 -1.38898 -4.38398e-23)
(5.84909 -2.1521 -5.16099e-21)
(5.71374 -1.20736 0)
(6.10067 2.02606 0)
(2.71063 -5.77133 -5.866e-21)
(7.2593 0.132116 0)
(3.93063 -1.29062 -9.65393e-21)
(7.41808 1.81938 1.11312e-21)
(7.25575 -1.24627 1.56515e-21)
(6.00061 2.13218 -2.25907e-21)
(-8.58803 3.69265 2.71747e-20)
(4.89163 -1.70499 -2.35456e-21)
(6.90503 -0.119503 4.0784e-23)
(4.83111 -0.203766 -9.49419e-21)
(4.35149 -2.2865 -1.07281e-21)
(3.97053 -1.31885 1.24369e-20)
(5.14666 0.832336 -3.38447e-21)
(6.24405 -1.87323 0)
(6.14636 1.6506 6.43466e-22)
(6.24587 -1.75289 -1.35083e-21)
(-1.53459 -0.473929 5.28883e-21)
(6.62272 -0.236891 4.93615e-21)
(6.06088 0.0337976 0)
(6.09123 -0.696867 -2.79735e-21)
(4.19353 -2.02581 -7.34207e-22)
(7.67915 -0.812294 -1.63037e-21)
(7.42208 -1.18666 4.53428e-21)
(5.85957 -0.130084 0)
(5.88436 -2.07829 0)
(5.86808 -0.022603 -1.13556e-22)
(5.95146 0.176913 6.56198e-23)
(4.74023 -2.20726 5.02537e-21)
(5.61288 0.201347 -7.82062e-23)
(5.81586 -0.705105 4.80079e-21)
(7.13699 -2.48594 0)
(3.4019 -1.64975 -1.14448e-20)
(6.20888 -0.0576771 0)
(6.16471 1.4289 -3.34307e-21)
(6.19158 1.41062 1.34444e-21)
(7.232 0.142908 1.3183e-21)
(7.15349 -4.63171 8.75124e-20)
(6.05712 0.0532903 1.10159e-23)
(5.94776 0.175743 -4.28868e-23)
(7.14448 -0.116673 2.88626e-21)
(5.87669 0.0422354 5.04253e-21)
(5.75458 0.0490717 0)
(7.80275 0.180849 -1.01139e-21)
(4.87555 -1.79916 -7.26809e-21)
(4.07596 -1.75301 0)
(6.7636 -1.68855 -2.12718e-21)
(6.08127 0.180804 -2.00639e-22)
(5.59951 0.127365 -3.1216e-22)
(7.33513 -1.15629 5.27438e-21)
(5.93056 0.222937 0)
(3.2579 -4.55186 -4.56176e-21)
(5.91628 0.186676 0)
(10.2769 -1.98156 -1.02934e-20)
(4.37529 -2.26721 -1.27362e-23)
(4.9962 -1.88823 0)
(5.93851 0.188551 6.72697e-23)
(3.22037 -1.66081 -2.93174e-21)
(4.38754 0.119904 3.17095e-21)
(5.72106 -1.27459 -2.78541e-21)
(5.86112 -0.0115639 6.39271e-23)
(2.69795 -1.30737 3.38519e-21)
(4.46053 -1.6236 -1.4641e-22)
(5.80731 -0.404213 3.54044e-21)
(-0.557378 5.02107 -1.4054e-20)
(5.94633 0.180347 1.80395e-23)
(6.11213 0.171387 4.69794e-23)
(5.9466 0.141379 -2.93435e-23)
(7.27076 -1.306 -6.47136e-22)
(5.21289 -6.2365 -3.74003e-20)
(4.87126 -0.0792439 0)
(5.89703 -0.00730333 4.12316e-23)
(4.9428 1.14916 -2.72022e-22)
(10.5332 -2.81555 -6.70338e-22)
(6.56195 0.0667333 -2.02944e-22)
(4.28643 -0.690005 -1.87406e-20)
(4.61277 5.02579 0)
(5.33303 1.15021 -1.17062e-23)
(5.96044 0.0646454 -7.46029e-21)
(5.61212 0.723615 -3.41965e-21)
(5.51297 2.87602 -2.31227e-21)
(8.09685 -0.509498 -3.85939e-22)
(6.20798 -1.89544 -2.66943e-21)
(4.46722 -0.991019 2.47051e-21)
(4.96714 0.237718 2.42864e-22)
(5.45714 -1.72693 1.14977e-21)
(5.98752 0.0472781 2.43334e-24)
(-1.4609 -1.01056 0)
(4.68328 -2.29657 1.46094e-21)
(5.79521 -0.697587 -9.16864e-21)
(-8.10401 2.58767 2.41173e-21)
(6.0134 0.0128272 0)
(7.31499 1.82908 3.63432e-22)
(4.60895 -2.20119 1.77546e-23)
(5.56298 0.103187 3.7801e-22)
(4.16528 4.80618 0)
(-8.37569 1.49104 1.67774e-21)
(5.91481 0.192391 3.72639e-23)
(5.56184 0.247288 -1.61715e-22)
(4.81619 -4.29749 5.44911e-20)
(5.88196 -2.70368 0)
(4.75452 -2.24774 0)
(7.75933 -1.25641 -1.57678e-21)
(4.89203 -1.74731 6.39237e-23)
(6.11168 0.130738 1.54783e-23)
(3.36951 -0.245768 0)
(4.65369 -2.22471 -4.37229e-21)
(6.18499 1.77431 0)
(5.87918 -0.0931652 0)
(5.84119 -0.382941 0)
(5.88133 0.0967352 4.83299e-23)
(3.54975 -2.15315 1.25796e-21)
(2.95087 -4.53479 0)
(5.35643 -1.5705 0)
(5.58918 0.212619 2.59363e-22)
(5.58316 -2.01286 0)
(5.64559 0.086761 0)
(6.4922 -0.87988 1.044e-22)
(6.42047 0.116943 9.08998e-22)
(5.78114 -0.0911987 -4.36914e-22)
(4.97012 -1.63874 -8.59137e-22)
(5.73153 0.0860156 -4.61055e-23)
(6.7732 -3.73029 -2.20836e-20)
(3.92315 3.83444 2.02002e-20)
(-0.480454 -1.56048 2.16215e-20)
(5.99495 -0.0384399 -8.32364e-22)
(5.71524 1.29572 -3.5745e-21)
(2.52185 1.96826 -2.65726e-21)
(5.83954 -2.66553 0)
(5.91811 0.0877407 -1.31961e-23)
(5.92614 -1.79024 -1.81994e-21)
(7.44932 -0.698983 -5.1762e-21)
(7.89312 0.173324 8.30679e-22)
(7.62995 -0.350622 0)
(4.99772 -0.106627 0)
(6.10379 -0.00840167 3.3652e-23)
(8.34393 -3.32697 -1.14279e-20)
(6.52862 1.05971 -2.1215e-22)
(-1.65891 3.98343 0)
(7.33262 -0.2476 0)
(6.02421 0.0481597 0)
(6.08549 0.0250574 6.70443e-23)
(7.18768 -1.45202 0)
(6.05957 0.0221006 -4.31518e-23)
(4.85188 1.06969 -2.30763e-21)
(6.5051 0.940767 0)
(6.57586 0.0453003 0)
(5.64359 -2.55652 0)
(1.89996 -1.22568 -3.38911e-22)
(5.15009 -2.07923 1.04368e-20)
(6.06123 0.465763 3.36973e-22)
(7.29082 -0.0117515 1.99044e-21)
(5.17021 -2.02469 -1.56781e-20)
(8.28545 -0.728729 -5.34926e-22)
(3.09162 -1.54534 5.03136e-21)
(5.60769 0.0736967 0)
(7.6469 1.72597 -2.11736e-21)
(7.14548 1.66663 -1.11933e-21)
(1.48169 -0.386028 -1.22534e-20)
(6.47802 1.03471 5.60568e-22)
(0.465606 -1.16667 6.1154e-21)
(4.47631 2.76218 3.20663e-21)
(6.53978 0.809612 8.20959e-22)
(6.03811 0.114193 -5.5394e-21)
(6.92405 -0.661696 1.56083e-22)
(5.9836 0.00299014 -5.09756e-24)
(4.24174 -2.3921 0)
(7.50947 2.76263 3.09888e-21)
(7.84696 -0.878719 7.4928e-21)
(5.97693 0.135513 -8.54568e-21)
(7.62631 -0.285919 0)
(5.94467 -0.954215 9.77982e-21)
(6.13376 0.0704688 2.34831e-23)
(7.21981 -0.61324 -7.85057e-23)
(3.07264 -1.50023 0)
(6.71879 0.390013 5.5442e-22)
(6.55663 -0.167503 -2.23426e-21)
(6.03659 0.028102 -1.14185e-23)
(6.10837 -0.462579 -8.93919e-22)
(7.02525 -2.49391 0)
(4.28264 -2.06306 -5.8777e-21)
(5.95903 0.138675 0)
(6.17457 0.0702498 0)
(5.58002 0.121087 0)
(4.80129 2.62498 -4.85186e-21)
(5.53453 0.10634 0)
(2.1313 -5.62521 -1.13604e-21)
(4.96104 -1.73676 2.00058e-21)
(7.28993 -0.0862716 1.05459e-21)
(4.09243 -2.02221 -2.26522e-21)
(7.53405 1.58419 -1.01566e-21)
(4.36381 -2.07146 7.80518e-22)
(6.46907 0.164549 -2.69907e-23)
(4.66763 -2.2349 -5.82331e-21)
(6.07819 -2.57845 1.01632e-21)
(6.03836 0.418456 -4.19969e-22)
(5.52885 0.0692063 -3.83149e-22)
(4.32096 -1.47496 -7.06443e-22)
(5.50333 -0.0875577 7.18688e-21)
(5.53159 0.104201 0)
(6.6778 0.337047 0)
(6.48386 -0.297402 3.31876e-21)
(5.86639 -1.68468 2.07462e-21)
(4.87793 -0.118845 8.7183e-21)
(5.74852 0.0975502 8.1161e-23)
(7.15128 0.366647 -6.19986e-22)
(5.19523 -0.671783 3.02375e-22)
(6.20847 -0.629912 0)
(5.66482 2.70095 6.53466e-21)
(4.71909 -1.04824 0)
(9.43177 0.922871 0)
(-9.09404 3.00692 -5.12316e-20)
(7.30374 -0.211795 0)
(5.88956 -1.76953 4.27417e-21)
(7.14635 0.00734089 0)
(7.98697 0.683719 -2.16731e-22)
(4.07371 -1.90352 3.55425e-21)
(7.45495 0.646828 -1.27455e-22)
(4.44086 -2.10949 4.83922e-22)
(5.35386 -0.343621 6.72945e-23)
(5.39512 1.11403 -3.97867e-24)
(5.98612 -0.926934 -3.13226e-21)
(5.3565 -1.42565 3.44899e-21)
(7.42843 -0.811295 6.54078e-21)
(3.36843 -1.61753 3.92228e-21)
(4.48515 -2.15323 0)
(3.82223 -1.86723 4.21195e-22)
(5.89655 -0.288253 1.49746e-21)
(6.29226 0.0565779 -1.20385e-22)
(3.75473 -1.80639 1.15714e-20)
(7.07008 -0.365292 0)
(7.2412 -1.35071 0)
(6.00582 0.155196 8.56518e-21)
(6.14441 0.0775027 0)
(3.60059 -1.78283 3.84328e-21)
(5.5994 0.299338 -8.32182e-23)
(5.37006 0.284198 0)
(7.05175 -0.127917 -6.19047e-22)
(6.20158 -1.22318 4.89859e-21)
(0.525288 0.421873 3.71029e-20)
(6.03791 1.41634 0)
(4.61562 -2.26229 -6.61104e-22)
(3.28594 -0.166702 1.40781e-21)
(4.25886 -2.08681 5.58168e-21)
(5.5244 0.213244 0)
(5.2095 -0.183621 3.1905e-22)
(4.18089 -2.52798 3.99411e-22)
(7.70953 -0.780215 1.21906e-21)
(5.19687 -0.645718 -3.82091e-22)
(2.26266 -1.55132 3.54903e-22)
(7.25366 -1.31022 3.29429e-21)
(5.39265 0.684781 0)
(5.60997 0.331464 -1.72564e-23)
(7.2652 -1.25251 -3.66382e-21)
(4.18016 -2.47302 -4.98709e-22)
(6.53799 -2.22644 -3.32635e-21)
(3.35008 -1.67206 0)
(5.46832 -0.306571 -8.1631e-22)
(4.26961 -2.09623 -1.10276e-21)
(5.92342 -0.0381768 -4.02965e-21)
(2.61083 -2.59595 0)
(4.68173 2.57375 3.37998e-21)
(5.93925 0.161002 -2.29774e-21)
(6.22648 -0.712271 0)
(7.4105 0.313759 8.79337e-22)
(4.15868 -1.97055 4.74795e-21)
(6.19164 -1.16918 -2.73526e-21)
(5.2747 -0.138263 0)
(4.44036 -1.52358 0)
(5.50142 0.215431 -1.80443e-22)
(6.63553 1.08345 3.97168e-22)
(4.42999 -1.44637 1.34537e-21)
(6.35394 -0.692895 -3.49933e-21)
(5.7441 0.25567 5.04362e-21)
(6.54704 -2.73898 -3.0712e-21)
(2.74046 -4.06882 4.31903e-21)
(-5.67535 0.0013278 2.99939e-20)
(7.68191 -0.609201 6.60742e-21)
(5.78282 -0.100663 5.74529e-22)
(7.97245 0.687801 8.48243e-23)
(6.02297 0.0354322 0)
(4.49334 -2.16879 0)
(5.83829 0.348995 -8.67553e-23)
(4.63786 -2.21848 4.39028e-21)
(5.9575 0.0517224 -8.08211e-22)
(5.99775 -0.278412 1.3909e-21)
(5.97442 -0.303898 0)
(7.07067 -0.148526 -2.50988e-21)
(7.30427 0.350025 -7.33373e-22)
(5.7735 0.195109 -4.68856e-21)
(7.43323 -1.80202 1.08529e-21)
(7.44133 -0.520936 6.16387e-22)
(3.38326 -1.61822 -1.5282e-22)
(6.60262 1.09892 -3.38459e-22)
(7.63012 -0.817609 1.53361e-21)
(5.89013 0.101406 -1.01753e-23)
(5.27524 -2.52209 0)
(0.607776 -0.607225 0)
(6.99153 -0.199624 1.27202e-21)
(5.21465 0.959043 1.36335e-23)
(5.96994 0.145787 0)
(7.09695 4.46313 -3.24582e-20)
(2.64117 -1.39355 0)
(7.16127 2.81266 -9.37722e-22)
(7.72795 -1.18679 -1.44159e-21)
(5.6881 -4.50667 0)
(5.69928 1.16238 -2.12558e-21)
(5.82466 0.352053 1.25007e-22)
(5.56205 0.756559 -2.91859e-22)
(5.52805 -0.0780103 -7.86793e-21)
(5.48552 -0.36345 0)
(5.87414 0.17858 -1.05271e-22)
(5.8372 0.254975 1.29718e-23)
(6.07926 0.109188 1.07091e-21)
(4.89773 0.398727 -4.52868e-21)
(2.38257 1.95437 4.98635e-21)
(7.97841 -0.597473 6.85975e-22)
(6.64743 -1.22744 -9.81597e-21)
(6.24674 -0.628817 0)
(7.02917 0.499419 3.29137e-23)
(6.74178 -1.26973 -1.84808e-21)
(5.93975 0.00127505 1.08187e-20)
(6.28487 -1.91969 0)
(8.23236 -0.556142 -1.16402e-23)
(4.36347 1.0656 0)
(7.49179 -1.53879 -2.96403e-21)
(5.62423 -1.61588 -3.1153e-21)
(2.51802 -1.14343 4.76341e-21)
(7.12029 -1.49421 -2.61097e-21)
(6.24429 0.617431 0)
(5.65811 0.343427 -8.16899e-23)
(5.41371 -0.375433 8.65935e-22)
(4.9551 0.385453 4.2825e-21)
(6.76991 -1.29803 7.06124e-21)
(7.20796 -0.611588 3.00106e-21)
(3.43726 -2.2842 -1.74016e-21)
(6.0393 0.0175495 -1.23337e-23)
(6.61701 -0.674721 0)
(3.2195 -1.02738 1.1231e-20)
(9.48681 0.831971 0)
(5.83798 0.362049 -2.30741e-23)
(6.67065 -0.351409 5.68086e-21)
(7.22552 0.481169 -7.7373e-22)
(7.40475 0.352151 6.62406e-22)
(-0.492794 -1.18118 -3.49778e-21)
(5.68618 0.236053 5.83794e-21)
(6.0067 -0.0325574 0)
(-1.07781 4.45727 -1.0326e-20)
(6.56224 -0.878014 -2.08843e-21)
(5.27825 0.931581 -2.66423e-23)
(5.78224 -1.56782 1.96144e-21)
(7.45128 -0.0475087 0)
(8.16535 -0.370422 1.59736e-22)
(5.35447 0.51531 9.00063e-21)
(5.79654 0.222657 6.93578e-21)
(6.12111 -0.719221 0)
(6.05798 0.0206944 3.74559e-23)
(6.04822 -0.325698 -1.4064e-21)
(8.33106 -1.79263 1.4089e-20)
(4.77221 -0.175307 1.21403e-21)
(6.49689 -0.738783 1.99198e-21)
(6.18226 -0.0641599 -1.7605e-23)
(6.65967 -0.628811 0)
(7.91164 0.832302 -1.79544e-22)
(4.21266 -2.232 6.31249e-22)
(7.15697 0.914052 1.11176e-21)
(5.90837 0.0880851 4.23959e-21)
(4.94579 0.0668513 0)
(5.73731 0.317522 4.44658e-24)
(6.0163 -4.27941 0)
(10.4509 2.39467 -6.53544e-21)
(5.95926 -0.046717 0)
(6.26786 -2.16325 -9.73866e-23)
(4.0792 -0.322608 -2.64107e-21)
(4.56761 2.12919 8.06233e-21)
(8.86681 -2.35321 -5.05696e-20)
(5.29857 -0.17828 0)
(6.74358 0.270258 -4.21068e-23)
(6.12807 0.565064 -2.20035e-21)
(-8.15977 5.72005 -1.80915e-20)
(4.19597 -2.16564 1.10373e-22)
(4.97922 -0.17122 -1.31194e-20)
(6.36858 -0.650313 1.43652e-21)
(6.28588 0.553999 1.29736e-21)
(4.4257 -1.37003 0)
(4.18568 0.888085 4.97157e-21)
(5.92536 0.112435 3.56946e-23)
(2.93301 -1.55103 1.68284e-21)
(4.45692 -2.27269 -2.23808e-21)
(-9.11271 5.51889 -3.85575e-20)
(7.72598 -0.699872 0)
(-8.58712 5.61261 0)
(6.3879 3.30466 0)
(6.16895 -0.29669 0)
(1.30638 -1.595 -1.037e-21)
(7.50527 -1.499 0)
(6.00881 2.21219 0)
(5.01167 0.319458 1.77642e-21)
(7.74838 -0.876198 -7.69854e-21)
(6.59278 -0.607541 -4.67454e-21)
(5.17367 0.953017 1.44454e-20)
(5.99927 0.0688848 -1.10634e-21)
(7.33356 4.68993 0)
(6.56852 -0.66228 0)
(5.67592 0.202499 4.96053e-21)
(5.96376 0.0314304 8.39501e-22)
(4.10656 2.79211 0)
(3.25619 -1.47501 1.82945e-21)
(6.48032 -2.26955 3.73122e-21)
(5.80677 4.23615 0)
(7.12157 -0.333538 2.95058e-21)
(6.02949 0.142135 -5.69605e-21)
(3.8828 -1.40466 -3.96137e-24)
(3.21276 -0.987828 0)
(5.91436 0.536541 4.24118e-21)
(7.38715 0.2253 0)
(6.09045 -0.417802 0)
(6.53225 0.539739 -1.11898e-22)
(5.76787 0.257541 2.61406e-21)
(-2.36114 -0.707663 -6.98615e-21)
(7.04305 1.64917 -1.29742e-22)
(4.11159 -1.07566 -4.72399e-21)
(6.14196 -0.317099 6.00457e-22)
(6.27225 0.503796 9.93607e-22)
(7.88258 0.860653 3.54861e-22)
(6.73442 -2.20672 0)
(6.37289 -1.24953 2.58891e-21)
(4.12958 -0.160623 0)
(5.76537 0.322474 -6.51631e-23)
(6.88112 -0.664157 0)
(4.41558 0.126479 6.73821e-21)
(-1.59808 1.81926 -7.60065e-20)
(6.29103 -0.642119 0)
(-3.3155 -0.127064 9.94817e-22)
(6.55555 -0.667708 -3.34547e-21)
(5.78319 0.843397 1.9397e-22)
(5.35038 -0.862088 1.26875e-20)
(4.40722 2.14516 -5.07545e-21)
(4.09111 -1.03325 -1.34603e-20)
(10.6937 2.00246 0)
(5.93395 0.112954 -2.39179e-23)
(3.26688 -2.34096 -4.35686e-21)
(6.16551 0.571891 0)
(5.57192 0.828073 3.19762e-22)
(7.27221 -0.146027 -6.15834e-22)
(8.35546 2.63559 0)
(6.10465 0.0554613 0)
(2.90423 -1.38754 0)
(4.31555 -2.41104 1.75405e-21)
(6.41001 -2.80581 3.63736e-21)
(8.07563 -3.06601 4.96359e-22)
(7.11209 2.69079 0)
(5.14342 -0.535257 8.55651e-21)
(6.02205 0.00831813 -1.2255e-23)
(6.95599 1.51938 5.29017e-22)
(4.33853 -2.25881 2.40597e-21)
(5.77879 0.477513 0)
(6.01399 0.0275128 0)
(2.41378 -0.375757 -7.525e-21)
(4.35863 -1.35792 -3.33741e-21)
(5.78391 -0.588977 0)
(5.12415 -2.41651 -4.2134e-21)
(6.10937 0.0009845 3.04007e-23)
(6.02757 0.0292259 -9.78091e-24)
(2.7702 -1.21451 0)
(5.57975 -0.0202604 5.21972e-22)
(5.89883 0.105063 -2.89315e-23)
(7.38499 0.215444 2.40172e-21)
(5.5818 -1.68584 0)
(-5.69748 -0.553292 -4.65131e-20)
(7.32454 0.432336 8.00924e-22)
(6.13255 0.35229 9.1785e-22)
(6.04999 0.0288768 1.35891e-25)
(7.76162 1.58332 0)
(5.12445 0.944745 -3.83494e-21)
(8.93652 0.0507139 -4.38257e-21)
(-9.2713 5.23478 7.16209e-21)
(5.99722 0.235123 0)
(4.17158 -2.1194 -1.13253e-22)
(1.64263 -0.256691 0)
(6.01889 0.15168 -3.40976e-21)
(6.07205 0.191016 1.66557e-21)
(5.60293 0.150236 -9.63246e-22)
(4.20745 -2.42012 0)
(6.74275 0.00348691 -3.49457e-22)
(3.50432 1.29403 1.35817e-20)
(6.66931 -2.19965 0)
(4.92709 0.256858 5.50809e-21)
(7.37068 -1.83087 -1.2477e-21)
(6.55283 0.0453535 0)
(4.34277 -2.12479 5.30696e-22)
(5.02211 -0.0772082 -6.00461e-22)
(6.13761 -0.0519519 0)
(-7.11335 0.145207 4.68343e-20)
(5.52618 0.772818 0)
(5.32248 -2.44077 4.2852e-21)
(4.32128 -2.20699 1.26867e-21)
(6.02479 0.0299765 1.17352e-23)
(7.06558 0.370787 -1.31108e-21)
(4.14906 0.881943 2.64408e-21)
(5.30792 -0.939222 -4.64984e-21)
(5.35207 -0.141622 -3.46006e-22)
(5.34055 -2.40456 4.33296e-23)
(6.4298 -0.718883 1.90194e-21)
(7.77192 1.53641 4.23986e-21)
(6.13101 -2.78033 0)
(5.94825 0.123077 -3.75857e-21)
(4.97822 5.31392 -1.11168e-20)
(4.18734 -0.172146 0)
(5.98055 0.0654736 2.46409e-23)
(5.80119 -0.00584352 0)
(3.80316 -1.07915 1.181e-20)
(6.14175 -2.33359 0)
(5.98813 0.0610235 1.87522e-22)
(6.69453 -0.236185 -3.24757e-21)
(4.38408 -2.07412 9.52737e-22)
(3.02951 -1.41403 2.29798e-21)
(7.23276 0.0330898 -2.5674e-23)
(5.14059 -2.47462 3.98635e-21)
(5.3298 -1.56897 4.64726e-21)
(4.45091 -1.00884 0)
(2.26632 -1.36312 -1.0167e-21)
(6.80322 -2.08763 -7.52562e-22)
(2.02509 -1.37544 -1.22184e-21)
(5.98475 0.0311556 -3.10832e-26)
(4.44021 -1.72189 0)
(6.46426 0.0636931 -1.27908e-23)
(3.29596 -1.62039 0)
(4.65617 -2.2474 7.67239e-24)
(4.14052 -1.52259 1.39459e-22)
(0.319409 -0.193546 0)
(6.12039 -1.66954 1.34617e-21)
(4.96803 -1.84775 0)
(8.35085 2.47746 0)
(5.03547 -2.39132 -5.63227e-21)
(4.4803 0.908956 4.01217e-21)
(4.45339 -0.144739 0)
(5.26972 0.591707 -2.44042e-21)
(8.40188 -3.3391 1.35438e-20)
(3.97993 -2.25195 2.83241e-21)
(8.67031 3.6145 0)
(6.18732 -0.0848702 0)
(2.91269 -2.4964 -1.95469e-21)
(5.62807 -0.393775 0)
(6.64472 0.238719 0)
(3.35657 -4.22289 -2.65263e-22)
(6.11987 -1.25754 -6.36133e-21)
(5.25323 -1.32496 3.94507e-21)
(7.06583 -1.4864 4.64515e-22)
(2.34562 -1.32796 2.1155e-21)
(5.89525 0.240062 1.94948e-21)
(4.58863 -1.08532 0)
(6.55963 1.34534 -4.07573e-22)
(4.28198 -0.591811 0)
(6.48802 0.0888705 0)
(6.09923 0.428876 0)
(6.57638 0.544715 -8.98158e-23)
(5.53285 -0.0387607 3.64218e-21)
(6.16902 0.0480726 -9.96155e-23)
(4.72135 -1.11733 0)
(-0.872047 -0.538552 -3.42453e-21)
(6.2711 3.11826 2.40773e-22)
(5.57319 -2.03858 4.45269e-22)
(5.66926 -0.115251 -9.34181e-22)
(6.11401 -1.135 4.34733e-21)
(6.10891 0.132696 -3.31526e-21)
(-1.55838 3.62261 0)
(7.36307 0.321576 0)
(4.46907 2.5499 0)
(3.86551 -1.73642 -8.6429e-21)
(4.52197 -1.90859 -1.14201e-21)
(0.408576 -0.393936 0)
(6.60266 1.38404 0)
(8.1761 0.333607 1.63009e-22)
(6.04815 -0.130593 -9.65439e-22)
(5.90246 1.8312 3.42482e-21)
(6.1853 -2.58939 0)
(0.296056 -3.10597 -1.35339e-21)
(6.92393 0.189148 -3.44501e-22)
(4.27123 -1.27541 -7.94029e-21)
(6.60253 0.179795 -3.3747e-22)
(7.02642 1.53846 -9.62285e-23)
(5.55781 -2.2457 1.56381e-21)
(3.81729 -1.71178 1.49043e-20)
(5.06295 -1.10245 1.40253e-21)
(6.19766 0.136122 3.06807e-23)
(5.92141 0.0655689 -9.71954e-22)
(4.61192 -2.23492 -1.27447e-21)
(5.11855 -0.00558346 2.60191e-22)
(5.3422 6.43461 2.97258e-22)
(5.01496 -2.38948 2.20531e-21)
(6.82492 0.500982 0)
(5.66465 1.38566 -2.12389e-23)
(6.27413 -0.0623733 -2.39268e-21)
(8.72383 1.32675 2.57538e-21)
(4.19548 -1.17806 -7.2432e-21)
(5.54204 -1.97045 -4.76527e-21)
(6.27535 -0.0958659 9.08768e-21)
(7.10606 -0.0337542 -5.22266e-21)
(8.0222 3.39596 3.68687e-21)
(7.81229 -0.568935 -3.41679e-21)
(3.60179 -0.487886 -1.58316e-20)
(6.51989 -0.0117245 -1.71926e-21)
(3.57085 -0.671049 0)
(4.41439 -2.07392 -2.0733e-21)
(5.9283 -0.0744927 8.6725e-21)
(5.81356 0.0217706 4.74486e-23)
(-0.479644 6.27743 0)
(5.5217 -2.56087 0)
(6.00434 1.28976 2.83386e-21)
(3.23481 -0.461536 9.86486e-21)
(4.99722 -2.18866 -2.05366e-21)
(6.31993 -2.14721 -2.35701e-21)
(6.67623 -1.26088 5.3811e-21)
(9.52674 0.635826 0)
(5.99358 1.38136 1.50285e-21)
(3.67358 -1.91496 3.49709e-23)
(7.68703 2.55298 3.13077e-21)
(5.89143 -0.841819 -5.52662e-21)
(2.56868 -1.50415 -3.39691e-21)
(6.09407 -1.04968 -4.27775e-21)
(6.37397 -1.30491 1.37066e-21)
(6.96924 3.26435 0)
(5.59458 -0.406365 -6.08169e-22)
(5.62965 0.137874 9.01043e-22)
(5.97637 -0.0489046 -8.56238e-24)
(3.10719 -1.52826 1.38719e-20)
(5.83554 -0.817998 8.31998e-21)
(5.99266 0.383823 -1.86264e-22)
(4.16823 -2.27041 -1.67711e-21)
(6.21758 -0.19901 -1.69355e-21)
(6.4964 0.0517239 1.53718e-21)
(2.50822 -4.33703 -5.55317e-22)
(7.39989 2.59827 -3.75198e-21)
(-7.0043 1.2255 -5.0888e-20)
(3.85229 -1.87088 -4.56043e-21)
(5.9961 0.0230762 0)
(6.10188 0.124502 -1.56354e-22)
(3.67416 -2.94064 -1.21644e-21)
(4.09006 -0.431536 1.41312e-20)
(6.06973 0.0230025 0)
(7.81947 -0.739049 -6.99399e-22)
(3.66487 -1.48372 3.38519e-21)
(5.92302 0.0798546 -8.21496e-21)
(4.11152 -1.99931 -1.79749e-21)
(4.36699 -0.0562627 -1.9367e-22)
(6.55164 -0.612643 3.19926e-21)
(6.76577 0.161294 -5.00194e-23)
(5.37961 -2.46602 -5.93052e-21)
(6.11253 0.083074 1.20817e-22)
(4.57012 -1.95733 -2.69004e-21)
(6.3231 0.0144862 2.24522e-21)
(6.11636 -0.215793 -2.6394e-21)
(6.37682 0.309913 -5.77926e-23)
(6.52655 -0.141081 -5.52957e-21)
(3.57434 -1.54776 -6.53859e-21)
(6.09048 0.0802105 0)
(4.32253 -2.20418 1.36104e-21)
(6.03676 0.137918 6.41106e-22)
(3.37957 -1.07151 -5.58854e-22)
(7.1866 0.0333697 -1.0551e-21)
(6.51205 -1.29091 -3.34759e-21)
(5.95326 0.0212959 -6.15895e-21)
(6.30057 0.915091 7.77168e-22)
(3.01663 -1.44963 -1.88039e-21)
(6.69679 0.157278 0)
(5.78003 0.362341 1.67425e-24)
(7.18488 0.534293 7.93029e-22)
(4.46639 -1.67585 0)
(6.34909 0.22988 1.13241e-21)
(6.96284 0.532002 9.63261e-22)
(6.55157 0.0895973 8.93776e-26)
(7.43145 -2.78317 -1.77687e-22)
(5.54493 0.000660307 0)
(5.39299 1.12219 6.88598e-21)
(6.0528 0.323487 2.35225e-22)
(4.93431 -2.33242 4.82393e-21)
(5.99906 -0.613243 0)
(4.45542 0.862895 -1.16194e-20)
(4.15483 -2.18248 1.55207e-21)
(7.84497 4.05338 -7.01388e-21)
(3.64169 -0.534194 1.54951e-20)
(6.09903 -0.0443396 5.88399e-23)
(3.25174 -1.49078 1.76475e-21)
(5.68208 -0.292492 -5.67925e-21)
(6.54208 -1.15624 -3.85616e-21)
(5.2704 0.473028 -5.1935e-21)
(6.19948 -0.0317678 0)
(5.92929 0.0434616 -3.65328e-21)
(-0.796113 -0.608685 4.60664e-21)
(-1.65961 0.693159 0)
(5.94002 -1.77918 0)
(5.99634 -0.0278986 0)
(-9.10146 4.65741 0)
(6.09919 0.908334 0)
(3.45552 -0.468564 0)
(5.2824 -0.698142 -3.33602e-23)
(7.64915 -2.8205 -5.34105e-21)
(7.59356 0.651512 0)
(5.23825 1.05493 1.02755e-20)
(1.94049 -1.84837 -7.42308e-21)
(6.14262 0.578963 1.02309e-22)
(3.57368 -3.24902 -6.985e-22)
(3.47788 0.185606 -4.95054e-23)
(3.41144 -1.5857 1.535e-21)
(6.71563 -0.0526959 -1.99617e-21)
(7.17372 -0.138033 3.87962e-22)
(5.97056 0.869797 -1.99327e-21)
(5.65935 0.689053 -6.83662e-21)
(6.05784 2.90468 -1.7062e-21)
(10.3218 2.19907 0)
(4.3172 -2.28394 3.8795e-22)
(3.83895 -1.1287 -1.29304e-20)
(6.0888 0.0449055 -1.11871e-20)
(6.85236 -2.05677 -4.36736e-21)
(6.08726 -0.0961748 9.10292e-22)
(7.93219 -2.00963 1.81306e-22)
(6.30541 -1.0073 -7.15433e-22)
(6.14822 -1.62882 -4.66802e-21)
(6.17849 0.424862 2.28065e-21)
(8.41523 5.23656 0)
(5.35945 -0.10977 -3.13867e-22)
(5.06898 0.231659 -1.61402e-21)
(7.55333 -1.44548 0)
(5.53396 0.194493 0)
(5.63573 -2.57264 -4.27635e-23)
(3.83983 -1.82975 1.90002e-21)
(5.20741 -0.711594 -1.52301e-21)
(5.71963 0.0674592 0)
(5.58431 -0.139926 -7.45363e-21)
(5.46545 0.705607 -1.33386e-21)
(4.38769 -2.12172 8.16695e-22)
(6.84923 0.366796 5.20417e-22)
(3.44418 -1.59786 0)
(4.28547 -2.3035 4.66574e-22)
(6.97399 0.468668 0)
(5.56335 -0.451845 6.78698e-22)
(8.20647 -0.399739 -3.67484e-22)
(5.99248 0.0804118 -4.02812e-23)
(7.15026 1.71152 2.00644e-21)
(8.52077 3.14609 -7.34102e-22)
(5.19524 -1.51151 9.63321e-21)
(4.20719 -1.89181 0)
(4.81463 -1.66842 -2.04715e-21)
(3.94489 -1.14464 0)
(7.71441 0.511115 -1.09481e-21)
(4.39769 -2.10212 1.68721e-21)
(5.99275 -1.75922 2.64162e-21)
(5.7231 0.329137 -2.31749e-23)
(4.16912 -2.66076 -2.6535e-21)
(4.42119 -2.07181 -5.57142e-21)
(3.97169 -1.16185 -7.50708e-21)
(5.96651 0.126715 -1.35977e-23)
(4.84771 -1.60072 1.6676e-21)
(3.62441 -1.57328 5.36227e-21)
(4.13617 -1.25552 8.1251e-21)
(4.535 -1.94099 1.43545e-21)
(5.03521 -1.66491 -9.88533e-22)
(5.49232 -1.74488 4.74834e-21)
(5.806 0.992272 5.6575e-20)
(6.12024 -0.00192354 6.23376e-23)
(2.86334 -1.69614 5.99425e-21)
(7.02692 1.08539 1.03098e-22)
(6.71354 -1.7385 0)
(-9.5895 4.11883 -7.22952e-20)
(6.1107 0.0460374 -2.99183e-21)
(6.00722 0.44202 0)
(7.60107 0.562366 0)
(4.49439 -1.53301 -1.51468e-21)
(6.79348 -1.66662 -4.01847e-21)
(7.08188 0.49537 2.1555e-21)
(6.12626 -1.21537 8.36021e-21)
(6.05191 2.82172 1.71861e-21)
(5.64297 -0.0852152 5.8038e-21)
(4.35371 -2.13608 -2.35844e-23)
(5.43934 1.88561 0)
(4.2374 -1.33806 7.74314e-21)
(3.29875 -8.09339 5.41698e-21)
(4.15828 -2.59359 2.008e-21)
(5.13717 -1.98333 1.61399e-21)
(5.50728 -2.51871 -1.19725e-21)
(6.59298 -0.0870194 2.83885e-21)
(5.6482 0.241753 6.14568e-23)
(6.05394 -0.656257 2.9884e-21)
(4.31045 -2.14959 -1.15624e-21)
(7.07761 0.453126 -1.59447e-21)
(5.73981 0.220732 2.93083e-21)
(3.55239 -0.649549 -6.37673e-21)
(5.58774 -0.332406 4.65995e-21)
(7.15485 3.60996 0)
(7.17324 0.905033 -1.75057e-21)
(6.0273 0.193358 6.46878e-22)
(4.42788 -0.895092 -2.4772e-21)
(6.11683 5.06564 1.92072e-21)
(5.41965 -1.7009 3.53073e-21)
(5.99918 0.0421216 1.27058e-21)
(4.12121 0.42522 -9.10551e-21)
(7.47194 -1.39678 0)
(5.75669 0.289909 -9.20104e-24)
(6.57629 0.290212 4.60142e-22)
(5.64026 -0.0190175 0)
(4.32857 0.087466 5.2493e-21)
(6.82612 0.38126 0)
(5.19812 5.10627 1.101e-22)
(7.0687 -0.0957933 0)
(5.3545 -0.0403169 0)
(7.20858 0.0679357 6.66111e-22)
(7.0424 0.397204 -8.09745e-22)
(8.06399 -0.171584 -6.18263e-21)
(5.71612 0.380952 -3.07719e-21)
(4.76399 3.15578 -2.03137e-21)
(6.04198 0.385011 -1.08686e-21)
(6.21433 0.887383 0)
(10.2911 -6.49037 -3.5922e-21)
(7.13701 0.296791 1.70608e-21)
(5.53051 -0.40413 -1.3823e-21)
(6.71257 -1.71866 0)
(8.8403 1.23006 3.90011e-21)
(6.86036 4.74373 4.79938e-22)
(6.12713 -0.0303722 3.09069e-22)
(4.92106 -2.85066 0)
(3.69823 -4.16055 3.21193e-21)
(6.05023 0.355921 0)
(6.10818 -0.566198 -1.52901e-21)
(1.06176 0.104367 0)
(11.0146 -4.15179 0)
(5.04231 -1.17917 0)
(6.03564 -2.29544 0)
(1.19146 -5.53516 -1.19263e-21)
(4.34134 -2.36682 -3.84944e-22)
(5.59089 -0.0455842 -5.44198e-21)
(4.42978 -2.10886 -1.17559e-21)
(3.84619 -1.64919 0)
(4.48163 -2.10573 -8.48874e-22)
(-0.58715 2.7271 -3.68006e-20)
(4.82064 -2.25719 0)
(4.45476 -1.55237 -8.34112e-21)
(5.93362 0.20457 2.30776e-23)
(6.92298 1.03039 -4.64676e-22)
(7.18776 -2.50558 1.08206e-21)
(5.45872 0.584316 0)
(6.52433 -2.14721 0)
(9.20152 -0.984718 3.35879e-21)
(5.15791 0.0793232 5.95776e-23)
(5.8714 0.126832 1.1143e-23)
(4.50365 -1.51491 -2.92765e-23)
(6.04346 -0.0572953 2.72704e-22)
(6.14153 0.0900843 -3.89248e-24)
(6.09433 0.362267 3.20255e-21)
(5.73731 0.351457 -1.6879e-23)
(5.6163 -1.57032 0)
(-2.61767 -1.29157 0)
(6.18395 0.0511075 0)
(5.87034 -0.0276412 0)
(5.20292 -0.991093 3.44896e-21)
(7.28311 -0.453722 0)
(2.74683 -5.2517 8.95553e-21)
(5.3909 -2.22902 -8.25081e-23)
(4.03075 -1.28548 -1.22833e-20)
(2.67367 -2.59652 3.95936e-21)
(4.36904 -2.22877 -7.54094e-22)
(3.64656 -6.55555 -6.77279e-21)
(6.15529 0.00584982 1.00899e-21)
(4.15194 -2.21905 -1.10251e-21)
(5.79998 0.362644 -4.57359e-23)
(7.21721 0.162006 0)
(7.05251 -1.20014 0)
(3.46275 1.87336 0)
(6.50358 -1.33968 1.77186e-21)
(5.0452 -1.78183 0)
(5.57868 1.78584 0)
(6.0692 -0.0208274 0)
(5.28044 -1.30276 3.69421e-21)
(6.12645 0.582937 -2.62002e-21)
(5.79763 0.0589624 0)
(5.38228 -0.733276 -1.47168e-21)
(5.99137 0.58756 -3.39138e-21)
(7.64098 2.41756 -6.7047e-21)
(4.87278 -2.2339 5.06322e-21)
(5.84606 2.00783 1.83245e-23)
(4.85515 -0.151282 -5.16679e-23)
(5.47271 0.251929 1.7734e-22)
(5.26391 -0.289247 -6.54083e-22)
(6.956 0.459344 1.16729e-21)
(5.91552 0.153789 2.4074e-23)
(5.46097 0.291503 -5.1097e-21)
(6.38247 0.0400905 0)
(4.25773 -1.26292 4.4487e-22)
(5.71509 0.132538 5.11753e-21)
(3.57713 -1.74689 1.07734e-21)
(6.27408 -0.953127 -2.0987e-21)
(3.3229 -0.521716 -1.07304e-20)
(7.00108 0.368581 -2.121e-22)
(9.07998 0.18403 6.34008e-21)
(6.01439 0.192293 0)
(5.89579 1.71199 8.26261e-23)
(5.69223 0.12027 -6.70082e-23)
(5.24453 -0.273263 1.31709e-21)
(4.32817 -2.26997 -2.74533e-21)
(5.87364 0.0386646 2.73552e-21)
(6.20096 0.103774 -3.41418e-23)
(5.94409 0.0132023 -4.02496e-23)
(6.12533 0.078667 0)
(5.865 -2.77698 0)
(4.54056 -2.1615 6.29101e-21)
(3.84801 -1.86437 1.94144e-21)
(5.99153 -0.0162271 1.65352e-23)
(5.82949 0.144816 1.02819e-20)
(5.89676 1.80711 -3.12802e-22)
(4.42191 0.779705 0)
(5.39752 0.390826 0)
(4.80629 -1.02065 -3.8683e-23)
(7.12087 0.044429 1.05886e-21)
(5.96387 1.87821 4.37931e-21)
(7.57312 -0.277534 0)
(6.13056 0.00944954 0)
(6.21386 -1.8191 6.56796e-21)
(5.88745 -0.554415 4.43116e-21)
(0.622111 -0.23349 -6.49725e-22)
(5.63238 -0.108596 0)
(11.7831 -4.22661 5.97561e-21)
(5.53939 -1.00918 -5.58839e-22)
(3.68212 -2.83126 -1.55608e-21)
(5.91128 -0.0657273 -5.95954e-21)
(7.84435 -2.59526 0)
(6.86343 -1.76427 3.16669e-21)
(5.04365 -2.75533 -2.7442e-21)
(0.469727 -0.0398726 0)
(5.92132 -0.0506059 1.13883e-24)
(5.7913 0.28035 -3.36118e-21)
(6.08448 0.0420156 1.70689e-26)
(8.25887 -0.591961 1.78656e-22)
(6.09032 5.93674 9.7197e-21)
(6.13694 -0.0703955 0)
(3.26771 -1.09382 -7.27274e-23)
(5.90511 2.01958 3.37277e-22)
(5.78511 -4.0679 -6.96e-21)
(6.11001 0.947465 2.36034e-21)
(4.16915 -1.92582 7.71998e-22)
(5.86756 -0.0458259 -1.32359e-20)
(6.05368 0.351901 1.02557e-22)
(5.53344 0.299649 9.16013e-23)
(5.17515 -1.16805 0)
(5.5843 0.00328451 -4.07621e-22)
(3.57556 -1.62874 4.3336e-21)
(6.60676 -0.331752 -6.2813e-21)
(6.03007 0.207747 -4.67048e-21)
(6.11916 -0.534333 1.40534e-21)
(5.02585 -0.469015 1.24669e-20)
(6.10805 0.0487878 -9.72077e-23)
(5.3479 0.398989 2.94701e-21)
(5.9898 0.13628 8.22528e-23)
(7.15302 -1.48408 -5.37284e-21)
(7.58772 2.77258 -5.24855e-21)
(5.02608 -2.22753 1.60524e-21)
(6.19874 -0.214751 0)
(4.58887 1.52115 0)
(3.40928 -1.36715 0)
(4.03597 -1.18191 9.44558e-21)
(6.34707 0.0653618 -7.39864e-21)
(5.42538 0.73491 0)
(4.53887 -0.958442 -7.33655e-21)
(5.33576 0.694702 0)
(5.23523 -0.899122 -5.66572e-21)
(5.50841 -0.402133 -1.42408e-21)
(5.5567 -1.49431 -5.18337e-21)
(6.25508 0.16453 0)
(5.75333 0.176862 0)
(5.76671 -0.137704 8.11245e-22)
(7.42248 0.535617 1.268e-22)
(7.05408 -0.272561 2.68083e-21)
(7.24302 4.90244 -3.77085e-22)
(7.7822 -0.518233 0)
(5.17573 -1.92445 -2.67408e-21)
(-1.20007 -0.643563 0)
(2.67872 2.28674 -4.81441e-21)
(8.55664 3.04103 0)
(6.09235 0.0737711 6.64127e-23)
(3.631 -0.42603 4.10732e-21)
(4.58856 -0.386179 4.04871e-21)
(5.70899 -0.0685419 -8.16088e-22)
(5.29615 -2.11709 -5.97569e-21)
(5.82236 -0.60259 1.12049e-20)
(6.10244 0.891872 -1.18203e-22)
(7.42334 -1.97651 -1.90951e-22)
(5.90683 -1.32022 -2.58723e-21)
(-2.0612 -2.55831 1.47128e-20)
(7.72008 0.99267 0)
(6.01209 0.160676 8.63559e-23)
(4.63859 -1.13285 0)
(5.5852 0.290649 -1.15185e-22)
(5.2345 -1.92751 -1.38951e-21)
(5.07314 -0.409081 -4.09988e-21)
(6.18048 0.00167426 -4.15843e-23)
(7.2048 0.0160913 -2.65517e-21)