/*--------------------------------*- C++ -*----------------------------------*\
| =========                 |                                                 |
| \\      /  F ield         | OpenFOAM: The Open Source CFD Toolbox           |
|  \\    /   O peration     | Version:  2306                                  |
|   \\  /    A nd           | Website:  www.openfoam.com                      |
|    \\/     M anipulation  |                                                 |
\*---------------------------------------------------------------------------*/
FoamFile
{
    version     2.0;
    format      ascii;
    arch        "LSB;label=32;scalar=64";
    class       volVectorField;
    location    "6.4";
    object      U;
}
// * * * * * * * * * * * * * * * * * * * * * * * * * * * * * * * * * * * * * //

dimensions      [0 1 -1 0 0 0 0];

internalField   nonuniform List<vector> 
5098
(
(2.54693 1.0773 0)
(2.10024 0.100244 -4.07706e-20)
(2.56972 -0.0328205 -2.34959e-21)
(1.48655 -0.668823 8.24347e-19)
(2.38511 -0.90568 0)
(0.862171 -0.41705 0)
(2.47538 0.0184905 8.72782e-21)
(2.63727 -0.242398 1.93923e-21)
(2.74937 -0.0285617 -4.78916e-20)
(1.94646 -0.288349 1.2445e-19)
(-1.33941 -0.679849 0)
(2.1546 -0.00385704 1.91646e-19)
(2.46785 -0.437054 -1.25928e-20)
(0.91975 -0.44973 0)
(2.17942 -0.322479 1.25168e-19)
(1.96205 0.0344781 2.3685e-22)
(-1.14193 -0.0476021 -2.42816e-19)
(-2.08556 0.291313 0)
(-0.307663 0.16329 4.09305e-19)
(-1.22601 0.0541792 2.76561e-19)
(1.83093 0.563403 -8.41916e-20)
(1.89376 0.0434323 1.33182e-21)
(2.06127 -0.791309 0)
(0.729376 0.0555188 3.08889e-20)
(-2.49008 1.41849 0)
(1.42891 -0.578487 0)
(1.98435 0.0334387 1.38806e-19)
(1.80249 -0.756631 2.23729e-19)
(-0.325227 0.322018 -1.24943e-18)
(1.65438 -0.72614 0)
(2.41016 -0.195927 -1.24148e-19)
(0.707055 -0.342265 0)
(2.03763 0.0646701 -1.50655e-19)
(-0.198178 -0.846695 0)
(2.51905 0.337494 -4.37376e-20)
(3.54151 0.336097 1.37496e-18)
(1.83719 -0.417353 1.61729e-19)
(2.05959 0.00654537 -2.49967e-21)
(1.30118 -0.427217 5.9709e-19)
(1.35322 -0.628157 0)
(1.49114 -0.680325 -3.89153e-19)
(0.989238 0.480052 -2.32143e-18)
(1.44455 -0.583435 0)
(2.54186 -0.18308 7.51644e-20)
(2.43914 0.695962 2.49299e-20)
(2.08552 0.0419207 7.75912e-21)
(-1.41559 -0.0202269 1.31167e-19)
(1.04986 -0.329161 0)
(2.38326 -0.230113 0)
(1.49036 -0.636329 8.78234e-20)
(2.27833 0.162992 6.35769e-20)
(1.61487 0.497262 -5.05939e-19)
(-0.0505936 0.134359 3.18588e-21)
(2.07441 -0.0492895 1.92034e-19)
(0.92662 -0.465171 -3.6456e-19)
(1.61443 0.141495 0)
(1.83756 0.315442 -2.74076e-19)
(1.58955 -0.652 0)
(0.835124 -0.409003 0)
(1.93449 -0.00701745 -3.63693e-20)
(1.61914 -0.342896 2.71953e-20)
(-1.81457 0.76269 -5.51452e-19)
(2.5301 0.370413 0)
(2.41687 -0.418531 0)
(-0.0473826 0.200161 2.00249e-18)
(0.796884 -0.400853 4.54529e-19)
(2.24039 0.0317527 6.79799e-21)
(2.2858 0.151629 1.10778e-20)
(2.11732 -0.238656 1.96834e-19)
(1.63122 -0.68507 2.59476e-19)
(1.8728 0.24853 1.53164e-20)
(1.16816 -0.50528 -2.91922e-21)
(1.87618 -0.772854 0)
(0.650444 -0.728023 0)
(1.71266 -0.181065 3.96025e-20)
(1.08482 -0.531333 -4.20428e-19)
(1.45681 -0.0514569 0)
(1.46893 0.235817 4.65719e-19)
(2.5364 -0.217112 7.1145e-20)
(1.6328 0.187587 0)
(1.68141 -0.0388845 0)
(2.97962 0.414722 8.99688e-19)
(1.63578 -0.284733 5.642e-19)
(-0.227759 -0.976484 -2.86608e-20)
(-1.969 -0.125731 6.2171e-19)
(1.49694 -0.659777 2.68306e-19)
(0.0111847 0.32017 -2.76707e-19)
(1.44977 -0.0408656 -5.05189e-21)
(2.82753 -0.194167 7.41706e-20)
(1.59402 -0.342579 2.89117e-20)
(2.26491 -0.259813 -8.85116e-21)
(0.583199 -0.201827 8.13417e-19)
(2.47597 -0.0607769 -2.37022e-19)
(1.50597 -0.654784 -4.39642e-19)
(1.28004 -0.452531 1.05266e-19)
(1.28085 -0.416282 -1.07094e-20)
(1.01304 -0.50829 -3.5737e-19)
(1.4027 0.318884 3.43943e-19)
(1.66306 -0.170779 2.12759e-20)
(2.01607 -0.455972 -1.36143e-19)
(2.41389 -2.18654 -2.96353e-19)
(0.975868 -0.483036 -4.33375e-19)
(-0.103774 -0.0282264 2.05637e-20)
(2.73444 0.381928 1.33625e-20)
(1.50988 0.222481 -5.29408e-19)
(2.38874 1.185 0)
(1.89162 0.276493 2.91898e-19)
(2.33401 0.105049 1.01163e-20)
(0.982791 -0.376402 8.11541e-20)
(-1.43348 -0.850408 0)
(1.0147 -0.488039 -9.51685e-19)
(1.1949 0.512152 6.00902e-19)
(1.86344 0.00214806 -2.82613e-19)
(0.58114 -0.248999 1.74084e-19)
(1.77238 0.641861 1.20477e-19)
(-0.0709784 -0.246959 0)
(3.12662 0.193517 2.20828e-18)
(2.65446 1.51133 0)
(1.65357 0.493949 -2.07908e-20)
(0.75626 0.00807144 -4.75234e-19)
(1.6811 0.477065 4.15418e-19)
(1.60546 2.09109 -9.43301e-20)
(2.0282 -0.294085 -7.78551e-20)
(-0.448056 1.72292 -1.26693e-18)
(0.765362 -0.12952 -1.07865e-18)
(-1.25636 0.405937 1.14516e-20)
(2.16149 -0.0444007 1.58006e-19)
(2.05084 -0.75638 -2.80062e-19)
(1.31888 -0.123161 -1.25343e-19)
(0.576913 -0.217712 -3.40415e-19)
(-1.90769 1.52665 -1.43828e-18)
(1.08327 -0.473402 -5.99024e-19)
(1.11246 -0.473188 5.01353e-19)
(2.5473 1.54033 -1.13373e-19)
(1.18971 -2.02296 -5.74509e-19)
(3.13581 -0.716619 5.14263e-19)
(2.01402 2.5905 6.11024e-19)
(1.89579 0.275394 1.98102e-19)
(0.849974 -0.418637 0)
(2.03861 -0.058468 -6.16225e-19)
(1.59494 0.60459 -3.34395e-19)
(1.25596 -0.287582 7.301e-22)
(1.7029 -0.77099 4.33441e-19)
(2.54346 0.00345932 -1.21944e-20)
(2.06135 0.0723924 -5.41162e-20)
(2.48446 0.517703 0)
(2.08823 -0.24009 2.02231e-19)
(2.08225 -1.04818 0)
(2.74813 -0.07598 4.46969e-19)
(1.59662 -0.731287 1.67505e-19)
(2.90392 -0.925425 -1.22606e-18)
(2.22422 0.551516 0)
(2.16132 -1.08705 1.43047e-19)
(2.09645 0.0502617 0)
(-0.0108359 0.21139 -3.51041e-19)
(0.753571 -0.266304 -1.97939e-19)
(1.59214 -0.642986 -4.64211e-19)
(1.9824 -2.1707 -1.50739e-19)
(1.43547 -0.671278 -3.1812e-19)
(-0.248188 0.166508 1.31821e-18)
(1.92536 -0.394572 -4.42459e-19)
(2.21305 -0.334875 -1.70775e-19)
(0.596492 0.418994 -5.24757e-19)
(1.78588 -0.174666 -3.50882e-19)
(-2.50392 0.970554 -6.12323e-19)
(2.47475 -0.190453 -1.22722e-19)
(2.35223 -1.07955 -5.21349e-19)
(2.31429 -0.574108 0)
(-2.58525 1.44763 7.9365e-19)
(1.65037 -0.533793 -5.06914e-19)
(1.30021 -0.398945 7.65243e-21)
(1.49718 -0.611196 -2.99131e-19)
(2.20887 0.594853 1.30705e-19)
(1.80421 -0.730518 4.00676e-19)
(2.63757 -0.0401884 0)
(1.91746 0.011063 0)
(1.68586 -0.28997 -2.19163e-19)
(3.42258 0.409536 -1.69061e-20)
(1.72442 -0.149826 4.83911e-19)
(0.187566 0.144794 0)
(1.72972 2.23242 0)
(3.81369 -0.310915 -1.44383e-18)
(1.72136 -0.530133 6.26038e-19)
(-2.50755 1.03972 0)
(1.82265 -0.153786 0)
(2.74221 0.869674 4.64525e-19)
(1.45514 0.345324 0)
(1.8585 -0.391827 5.57958e-19)
(0.954558 -0.46661 8.1732e-19)
(-0.792961 1.87794 -3.72758e-19)
(1.17748 0.70477 0)
(1.44245 -0.240365 1.52567e-19)
(1.90042 -0.790238 0)
(1.72009 -0.209014 4.00864e-20)
(2.46581 -0.208771 1.35148e-20)
(0.488823 -0.211776 -8.4408e-19)
(4.10913 0.27865 6.22612e-19)
(3.34583 -0.72206 0)
(2.01213 0.0141004 -5.71191e-21)
(1.67945 -0.51672 -9.24718e-20)
(-2.15416 1.72228 -2.30519e-18)
(1.66011 0.406775 6.33007e-21)
(2.46162 0.687648 -5.89845e-21)
(2.31111 0.0274575 5.63815e-21)
(1.45865 0.00190512 2.23514e-19)
(0.730031 -0.278927 -1.4172e-19)
(2.71089 0.0620912 -1.94993e-20)
(1.1507 -0.531427 0)
(2.33525 -0.128024 0)
(1.23385 -0.598874 -4.56411e-19)
(1.96841 -0.1556 -1.78724e-19)
(1.71323 0.355702 3.37472e-19)
(1.5363 -0.263154 -1.53888e-19)
(2.10836 0.0825259 -1.85895e-19)
(2.1707 -0.0627797 -2.8349e-19)
(0.0720384 0.237133 -3.45061e-19)
(1.77463 -0.211429 0)
(-1.68177 -0.512085 -8.24373e-19)
(0.857018 -0.200519 1.55207e-19)
(2.00725 0.0530928 1.3754e-19)
(2.29492 -0.274848 -3.32388e-20)
(1.5203 -0.31287 0)
(2.31299 0.0520951 9.16162e-21)
(2.29815 -0.328415 1.71148e-19)
(0.399896 -0.194023 2.18506e-19)
(2.02954 -0.149183 0)
(0.313334 -0.0558825 0)
(1.98547 0.0319937 0)
(1.97991 -0.460334 0)
(1.6755 -0.668528 8.70697e-21)
(1.81302 0.468881 0)
(0.531907 -0.204494 -5.16015e-19)
(3.69952 0.0979187 -9.26158e-19)
(2.0295 0.012366 -3.34543e-21)
(2.65364 -0.0416806 -6.74569e-20)
(2.41165 -0.0473029 0)
(1.46791 1.57623 -1.80179e-19)
(-1.16721 2.15242 -2.18312e-18)
(3.21783 -0.0569856 0)
(1.81366 0.0294503 3.49837e-19)
(2.45741 0.635918 -3.04901e-18)
(2.22907 0.599407 0)
(2.62547 0.108821 0)
(1.00465 -0.198809 8.73679e-19)
(1.80636 0.53159 -4.36491e-19)
(2.28831 -0.144714 -2.12844e-19)
(1.03179 -0.493877 9.7136e-20)
(-1.76595 -0.442486 -4.98076e-19)
(-1.14521 -0.158241 0)
(2.36911 -0.131769 5.9404e-20)
(2.15705 0.846305 -9.11943e-20)
(1.80917 -0.753659 4.16255e-19)
(-0.101009 -0.411318 5.91259e-19)
(-1.62897 1.95832 1.15659e-18)
(1.9315 0.0464851 -2.60229e-19)
(-1.20774 2.15316 1.99655e-18)
(1.63277 -1.78473 4.87201e-19)
(0.925742 -0.390421 -7.93101e-20)
(1.07955 -0.350546 -3.67469e-19)
(1.7981 0.0339557 7.60938e-21)
(2.7292 0.849326 7.06415e-20)
(0.129114 0.0736802 9e-19)
(-2.33103 1.4001 1.18114e-18)
(1.82364 -0.783205 0)
(2.03909 0.0381429 -1.63395e-21)
(-2.19307 0.74026 2.53116e-19)
(-0.212336 0.132932 -1.54335e-18)
(-1.2814 -1.13977 0)
(1.25396 -0.35031 0)
(1.81155 0.0369957 -3.22695e-20)
(-0.694567 1.86047 4.54814e-19)
(1.8598 0.0841597 -8.45726e-21)
(-0.163599 0.180151 -6.93293e-19)
(1.29585 -0.29867 0)
(1.08644 -0.418371 2.68298e-21)
(-0.0131889 -0.0849185 4.661e-20)
(1.04853 -0.217145 -2.55666e-18)
(3.73306 -1.48832 0)
(2.20935 -0.70725 0)
(1.97563 -0.130475 0)
(-2.15661 1.65885 -8.34145e-19)
(2.57176 -0.194912 2.035e-19)
(0.377304 -0.180597 -9.15423e-19)
(2.59464 -0.17479 -2.26105e-19)
(1.93272 -0.509179 -6.84645e-22)
(-0.172842 -0.238689 0)
(1.91809 0.0341508 0)
(2.68707 0.426234 4.05585e-20)
(2.48088 -0.183765 9.8855e-20)
(1.7327 -0.00311915 -2.92587e-19)
(-0.220441 1.79223 0)
(-0.752741 -0.473712 6.16918e-19)
(1.05423 -0.0167022 -2.55527e-19)
(2.4429 0.50846 1.92326e-20)
(1.92323 -0.588841 4.32307e-19)
(0.890464 -0.19657 -5.7843e-20)
(2.55407 0.141626 0)
(2.42457 -0.201192 -1.09309e-19)
(2.01487 0.0454028 0)
(2.04667 0.0331878 -1.57188e-19)
(2.55343 0.504655 -3.2981e-20)
(2.68136 0.0355285 1.25428e-19)
(1.53191 -0.403389 5.82854e-19)
(1.88009 0.481376 2.42437e-19)
(-2.14732 0.854811 -4.12747e-19)
(1.73506 -0.700571 -2.50816e-19)
(2.55518 1.93971 -1.38046e-19)
(2.12388 0.0075537 0)
(1.77007 -0.394409 0)
(-1.42512 -0.0257295 0)
(2.24712 -0.266778 4.27594e-20)
(-0.308332 -0.418176 5.95342e-20)
(0.794969 -0.396956 4.8013e-19)
(1.87721 -0.0278776 -7.7404e-20)
(2.50523 -0.436688 -5.23169e-20)
(0.0815606 0.126103 6.88079e-19)
(1.9611 2.39221 -5.44407e-20)
(2.29244 0.0181068 -1.0235e-20)
(2.2216 -0.142019 5.83124e-19)
(0.812848 -0.323258 0)
(2.70772 -0.219269 -8.65537e-20)
(-0.712737 -0.433588 -1.33233e-18)
(3.17174 0.00662029 -6.28142e-19)
(0.847352 -0.333801 -9.35563e-21)
(1.6333 -0.152927 1.75086e-20)
(1.28696 -0.397616 4.0127e-19)
(2.16558 0.89381 0)
(1.97348 0.0990915 -9.9877e-20)
(0.996841 -0.386786 -8.57763e-19)
(1.69265 0.420607 1.75218e-20)
(1.22046 -0.592017 0)
(2.29611 -0.130355 -1.68983e-19)
(0.994895 -0.481834 2.70111e-19)
(2.24983 -0.704327 -1.40284e-19)
(1.65609 -0.690596 -3.51921e-19)
(2.32679 0.0832116 -5.67265e-20)
(2.35824 -0.360859 9.89111e-21)
(0.912548 -0.452226 5.32241e-19)
(2.11081 -0.0651442 2.41527e-19)
(1.77571 -0.334461 0)
(1.7256 -0.782991 -4.101e-19)
(1.61158 -0.686451 -1.06192e-18)
(2.60737 -0.230444 2.71416e-20)
(1.9835 0.0627732 4.18189e-20)
(1.68808 1.11849 0)
(1.54263 -0.132409 0)
(2.04766 -0.0793039 -1.91313e-19)
(0.414674 0.300508 3.05178e-19)
(2.68002 1.43039 0)
(2.29688 -0.0588206 1.70134e-19)
(1.47914 -0.657662 -4.41949e-21)
(0.873358 0.378045 -6.26579e-19)
(0.810687 -0.333273 -4.58025e-19)
(-2.23589 1.65081 8.37016e-19)
(1.78828 -0.0294005 4.55108e-20)
(-2.34437 1.55754 3.06215e-18)
(3.17558 -0.61132 -5.15965e-19)
(2.20002 -0.014256 0)
(1.34458 -0.0849991 -1.08215e-19)
(1.41047 -0.561041 0)
(1.96032 0.117574 -4.84312e-19)
(1.96143 -0.407522 0)
(2.09467 -0.0391946 -1.67561e-19)
(1.39945 0.0887417 3.54665e-20)
(2.70889 -0.165609 -6.10523e-20)
(1.06323 -0.392 4.8488e-19)
(1.96929 0.0548096 -3.92046e-19)
(2.0331 0.247701 -4.33534e-19)
(1.92269 -0.826969 0)
(-0.869118 2.28378 0)
(1.13944 -0.438852 -4.78306e-19)
(2.68623 -0.189125 0)
(3.46746 0.655878 -8.42421e-19)
(1.61036 -0.321928 0)
(1.23305 -0.528935 3.9089e-21)
(-1.85032 0.656961 4.82013e-19)
(1.69623 -0.548216 7.43042e-19)
(0.524946 -0.259961 -3.66122e-20)
(2.29401 -0.542415 0)
(1.39398 0.0963715 -2.68913e-20)
(1.79276 0.0208735 -2.50093e-19)
(-1.19151 0.336511 -3.56932e-20)
(1.92408 0.0588542 -2.20916e-19)
(2.68385 0.00523116 -8.29993e-20)
(2.65147 -0.0705821 -3.6713e-20)
(3.07698 1.05893 3.21362e-19)
(2.51192 0.432498 -4.97103e-20)
(-1.39036 2.14792 -5.17658e-19)
(1.62799 -0.47583 0)
(-0.153323 -0.0149757 -3.20712e-20)
(1.9763 0.123946 -1.71897e-19)
(2.52629 -0.248812 0)
(1.97089 0.0116449 1.46755e-19)
(1.08529 -0.523276 -3.57765e-19)
(1.64412 1.3638 1.60937e-19)
(3.70536 0.4675 0)
(1.3186 -0.62729 1.29073e-19)
(0.0396997 0.170851 0)
(2.22021 0.0701491 4.21367e-20)
(2.43242 -0.331826 -1.81012e-19)
(0.0539856 0.232122 1.22369e-18)
(1.01468 -0.0402324 0)
(1.50326 0.305517 2.38404e-19)
(2.02269 0.0394348 1.55191e-19)
(0.00222443 -0.174519 0)
(1.67345 0.0225344 0)
(2.03663 -0.161276 0)
(-1.15965 0.56378 9.79691e-19)
(0.280976 -0.0992585 -4.1885e-20)
(2.81999 -0.0526988 0)
(2.00022 0.0430409 0)
(1.45508 -0.959222 9.02066e-20)
(-0.85071 1.20252 0)
(2.3929 0.449193 1.5715e-20)
(2.81633 1.31945 1.74919e-19)
(2.04435 0.376661 3.52714e-21)
(1.83795 0.446541 -5.02394e-21)
(0.873124 0.470022 7.20654e-19)
(2.85759 1.5049 -1.84541e-19)
(2.35137 -0.251043 7.79155e-21)
(2.10612 -0.0457658 1.62767e-19)
(1.5472 -0.150494 -2.63862e-19)
(1.49765 -0.200723 3.17976e-21)
(2.02636 0.0345535 0)
(-2.30101 1.48216 -2.93771e-18)
(0.724635 -0.215311 0)
(0.82303 -0.701698 4.81859e-20)
(1.92115 -0.951867 0)
(2.17495 -0.190523 0)
(1.2292 -0.586411 -3.01977e-19)
(2.10194 0.0562937 -8.1824e-21)
(-0.272519 0.260066 -1.38389e-18)
(2.05946 0.0225327 7.32348e-21)
(1.74298 -0.67549 4.04428e-19)
(2.96474 1.22311 2.04068e-19)
(0.779363 -0.353421 1.28845e-18)
(2.54552 0.102929 1.36887e-20)
(2.01882 -0.801196 1.6329e-19)
(1.95746 0.0608158 -2.75324e-19)
(1.85963 0.680818 0)
(1.72775 -0.109027 -5.0319e-19)
(1.75342 -0.44297 4.14433e-19)
(2.00958 0.148838 -6.12414e-19)
(-0.950955 0.12567 -1.34947e-19)
(1.56767 1.37197 -1.48926e-19)
(2.77628 1.39025 2.63465e-19)
(3.38015 -0.339925 0)
(2.15972 -0.280758 0)
(0.185741 0.293133 -5.2961e-19)
(2.07254 -0.100359 1.03901e-19)
(-1.27595 -0.256891 0)
(2.2458 -0.149108 -1.47798e-19)
(1.99631 0.00536009 -3.22619e-19)
(-0.875516 -0.171819 -9.04195e-20)
(-1.07732 -0.593717 6.16773e-19)
(2.61548 -0.11829 -4.83846e-21)
(0.244709 0.719332 -2.67764e-20)
(2.33169 -0.365035 -3.40839e-19)
(1.89746 -0.41335 2.91513e-19)
(3.37321 1.11309 7.48917e-19)
(1.45854 -0.601888 3.78521e-19)
(1.79735 0.308469 5.81482e-22)
(0.970032 0.304552 5.26103e-19)
(2.06049 2.05961 0)
(1.63229 -0.450619 2.38347e-19)
(-2.08207 -0.0568896 0)
(0.449702 -0.159316 -2.34627e-18)
(2.25401 0.167911 0)
(-2.02532 0.835398 -1.45705e-18)
(1.55417 -0.665223 -5.349e-19)
(1.27438 0.694306 -2.64396e-19)
(1.99246 -0.819791 0)
(0.330709 -1.24711 0)
(3.23034 -0.140935 0)
(1.98707 0.0995313 1.24813e-19)
(0.872377 0.612928 -9.39172e-19)
(-0.199608 0.382995 1.04751e-18)
(1.49997 -0.288057 -7.83352e-21)
(3.37146 1.14239 -8.50714e-19)
(2.07502 0.28956 0)
(1.17669 2.10277 2.42119e-19)
(2.44827 1.4277 1.03718e-19)
(-0.451712 0.413826 -2.21177e-19)
(1.4776 -0.688672 3.49838e-19)
(2.51095 -0.164693 5.53405e-21)
(1.10052 -0.534817 6.0579e-19)
(2.29573 0.511066 0)
(2.39991 -0.348718 1.68122e-19)
(0.903467 -0.314782 8.8088e-20)
(1.94408 -0.0250595 3.00799e-20)
(3.47802 0.808563 -4.53775e-19)
(2.00763 -0.971944 0)
(2.53753 0.843882 0)
(2.35784 0.525172 0)
(0.762997 -0.232562 0)
(1.87837 0.0109021 0)
(1.34981 -0.509444 1.61557e-19)
(3.7446 1.03583 6.7157e-19)
(1.38316 -0.578305 4.4872e-19)
(2.06992 0.06056 2.63185e-19)
(-2.24402 0.185053 0)
(1.98394 -0.826357 3.15469e-21)
(-0.369695 0.308519 0)
(-1.82241 -0.270212 -1.06464e-18)
(-0.35122 0.211009 5.71286e-19)
(3.83114 0.638297 -3.64261e-19)
(1.99444 0.147591 3.07888e-19)
(2.06563 0.308149 -9.78688e-20)
(3.80409 0.45019 -4.51986e-19)
(2.52663 -0.00482318 0)
(0.724321 -0.109598 1.02733e-18)
(2.0112 0.00453121 0)
(1.54351 0.964932 1.75922e-20)
(2.4781 -0.17111 0)
(2.1052 0.223031 -1.25098e-19)
(2.08791 -0.102562 0)
(0.841718 -0.291986 -3.23141e-19)
(-1.58275 1.31389 1.8456e-18)
(2.36626 -0.233443 -1.61547e-19)
(1.32557 0.43326 4.75248e-19)
(-1.73222 0.903253 -2.04287e-18)
(2.27179 -0.914424 0)
(0.977695 -0.170802 -1.23628e-18)
(1.47439 0.31678 -1.50726e-20)
(3.48946 0.480356 -1.06745e-18)
(1.82282 -0.00588266 4.13639e-21)
(4.19361 0.0557922 2.30578e-18)
(2.88459 0.916011 0)
(1.68915 -0.755381 -8.75462e-20)
(1.39575 -0.636681 0)
(2.50221 -0.224494 1.48391e-20)
(0.365555 -0.0763756 7.84417e-20)
(-2.17259 0.782371 0)
(2.4152 0.423537 0)
(1.46228 -2.21896 -4.59794e-19)
(2.48582 0.792883 0)
(1.72988 1.90156 9.69575e-20)
(2.88586 1.04714 -3.20764e-19)
(0.455085 -0.226477 -7.69196e-19)
(-0.991948 -0.422273 -2.05749e-19)
(1.9837 0.0439007 -7.88173e-21)
(0.172827 -0.383157 8.11833e-21)
(-0.716061 0.56972 -1.13311e-18)
(1.86011 0.0053627 5.36447e-19)
(-0.988474 -0.0487911 1.03045e-19)
(-1.7867 0.70116 0)
(2.48458 0.190579 -9.35415e-20)
(0.862868 -2.13508 5.51898e-19)
(0.301046 0.275762 8.46247e-20)
(3.46273 0.563503 8.88477e-19)
(2.79298 1.74849 0)
(1.75327 -0.483958 -4.16355e-19)
(1.77559 -0.436729 -2.63686e-21)
(2.14997 0.837504 -9.15144e-20)
(2.71743 -0.0721127 -4.37256e-19)
(-0.897914 -1.05424 1.87963e-19)
(-1.93295 1.35899 1.91231e-18)
(1.39889 -0.566205 -1.08246e-19)
(-1.2548 -0.371374 5.02893e-20)
(2.82424 -0.198551 -4.16195e-19)
(-1.13486 -0.799556 -2.10877e-19)
(2.10844 -0.833251 0)
(1.90746 -0.155585 -4.88631e-19)
(-1.13337 -0.6315 0)
(0.0381217 -0.598141 -3.5463e-20)
(-0.676677 -0.735147 2.42443e-19)
(-0.345263 -0.45481 8.78646e-19)
(1.61033 0.476956 6.04173e-21)
(-2.34426 1.26866 1.41974e-19)
(-0.741577 -0.423417 0)
(2.12592 -0.779422 4.41072e-19)
(2.09255 -0.824173 1.15544e-19)
(-0.978173 -0.519741 -7.58235e-19)
(1.76993 0.544275 0)
(1.67299 0.546593 0)
(0.126933 0.407512 0)
(1.13015 -1.03948 -5.60472e-20)
(1.85286 -0.0229112 -4.77125e-19)
(1.27648 0.224786 0)
(2.40168 -2.22246 0)
(2.30208 0.205022 -1.28734e-20)
(2.64058 -1.38171 -1.18208e-19)
(2.13981 0.27773 -3.70031e-19)
(1.57595 -0.349708 5.87348e-21)
(1.70881 0.0325712 5.33453e-20)
(1.92319 -0.00770622 -5.28355e-20)
(1.44421 0.279324 6.118e-20)
(1.95123 0.576709 -2.84692e-20)
(1.87759 1.3116 0)
(-0.852956 0.717902 -2.40877e-20)
(0.232502 -0.078168 0)
(1.00357 0.176216 0)
(2.9359 0.293803 -5.12182e-19)
(-2.28789 0.652482 0)
(2.51112 0.401118 0)
(1.92578 -0.127371 7.51964e-19)
(1.80248 -0.793618 0)
(2.01493 0.22848 4.4522e-19)
(3.35908 0.672057 4.51394e-19)
(3.25578 0.703548 1.58314e-19)
(1.75585 0.39025 -1.35978e-21)
(1.07155 1.44917 2.72235e-19)
(2.13712 -0.819034 5.39747e-21)
(1.89152 -0.754431 -1.03841e-20)
(1.11679 -0.415948 4.67316e-19)
(-0.221281 -0.288718 0)
(0.913764 -0.452524 0)
(-2.68985 1.38322 -1.92026e-18)
(-1.62729 1.41867 -2.52168e-18)
(0.409303 -1.08809 0)
(-0.390952 -0.265261 7.78381e-20)
(-0.242476 0.331674 0)
(0.570978 -0.230126 1.12691e-18)
(1.07962 -0.499823 -6.06138e-19)
(3.41404 0.503715 -2.04406e-20)
(3.18312 0.848776 3.56497e-19)
(1.17231 -0.380244 9.45184e-20)
(2.70988 -0.116079 2.02435e-19)
(2.30374 1.0232 0)
(2.411 0.984685 0)
(1.05815 0.0430487 0)
(-0.299004 -0.236846 -5.42108e-19)
(1.34773 -0.514149 0)
(2.26743 0.727399 0)
(1.76259 0.0224939 0)
(2.38721 -0.398575 -7.55435e-20)
(0.606723 -0.17103 3.38884e-19)
(1.96555 -0.744825 -2.29921e-19)
(1.02896 -1.07954 1.60555e-19)
(1.56803 -0.310211 0)
(-2.0125 0.808768 0)
(1.93099 -0.560121 -3.94313e-19)
(1.56404 0.612707 7.13335e-19)
(-2.52041 1.48294 -1.06644e-18)
(2.84993 0.419326 1.3771e-20)
(1.65871 -0.418928 4.37627e-19)
(0.957001 0.493398 -1.13626e-18)
(-1.62682 1.57528 0)
(1.18474 1.41651 -6.29635e-19)
(0.30682 0.44755 -6.98312e-19)
(3.29796 0.55721 0)
(2.20109 -0.0748038 0)
(1.89029 -0.0641743 0)
(2.04023 0.0343925 -4.72441e-19)
(1.35777 0.343126 -4.8729e-19)
(1.67572 0.1479 0)
(2.59881 1.3907 1.44005e-18)
(1.72304 -0.766089 4.09861e-19)
(2.41832 -0.367552 8.55197e-20)
(-2.44948 1.00509 6.76622e-19)
(2.06734 -0.245811 0)
(2.56282 0.0917975 5.4284e-20)
(1.7011 -0.376568 0)
(0.621776 -2.11873 -5.50125e-19)
(1.66408 -0.751029 0)
(2.07538 -0.740602 5.16993e-19)
(1.43609 -0.286185 -5.57656e-22)
(2.09077 0.335641 -3.60412e-21)
(2.4439 -0.387533 0)
(1.74963 -0.742543 0)
(1.53227 -0.654373 -5.57341e-19)
(2.35566 0.428857 -1.7359e-20)
(-1.61668 -0.742426 4.96204e-19)
(0.830727 -0.39546 4.7461e-19)
(1.91556 -0.0783548 0)
(1.54286 0.23664 -7.43517e-19)
(2.37476 0.0080057 -5.39334e-20)
(1.30442 -1.16839 -7.29046e-20)
(2.08573 0.472392 -1.37893e-21)
(2.162 0.56849 0)
(1.14947 -0.308415 6.64142e-19)
(0.942742 0.230201 -7.23545e-19)
(3.56641 0.808025 9.98313e-21)
(1.7974 0.274218 -8.47544e-19)
(-2.29591 0.881178 5.48211e-19)
(-0.234345 -0.275144 -1.9202e-18)
(1.50635 -0.268164 -7.28951e-20)
(2.0377 -0.00729487 -4.37469e-20)
(0.703224 0.424194 1.17561e-18)
(-0.313774 0.203531 9.95967e-22)
(-2.37337 0.756778 1.04256e-18)
(-1.84702 -0.585406 1.11935e-18)
(1.76096 -0.0420747 6.37624e-20)
(2.36487 -0.215912 0)
(1.11614 0.515759 1.04186e-18)
(1.10346 -0.536424 2.74652e-19)
(1.63253 -0.236498 2.60781e-19)
(-0.316274 0.261606 0)
(1.55297 -0.365816 -6.97689e-20)
(1.91822 0.0772851 7.35395e-23)
(2.04601 0.0281747 0)
(-0.437543 0.721559 7.3563e-19)
(-0.435229 -1.85151 3.12503e-19)
(1.56621 -0.319617 0)
(0.990367 -0.345777 0)
(1.51226 -1.03729 -8.72754e-20)
(1.42014 -1.55638 -4.20837e-20)
(2.88897 0.312291 1.83794e-19)
(-0.25742 -0.109049 0)
(1.91452 -0.0238661 -4.25211e-19)
(2.5149 -0.925839 -1.60813e-19)
(2.14377 -0.720861 3.05994e-20)
(1.16801 -0.441594 5.87712e-19)
(-2.39936 0.726302 -1.01624e-18)
(-1.92132 0.166791 8.08061e-19)
(3.73614 0.750574 -8.64732e-21)
(3.15977 -1.54413 0)
(2.08499 0.949969 -1.12728e-18)
(1.52229 -0.602634 2.78421e-19)
(2.04734 2.1313 1.72736e-19)
(0.78542 0.656133 0)
(1.12748 -0.19778 -5.8497e-19)
(1.17002 -0.491384 -7.13633e-19)
(-2.58998 1.25248 1.32576e-18)
(0.729443 -0.107546 -1.09186e-18)
(2.19944 1.49738 0)
(-0.295517 0.369025 -6.62052e-19)
(2.3114 0.570363 0)
(-0.399169 -0.0856673 -8.19081e-19)
(-0.177482 0.382423 1.44494e-18)
(-0.812563 2.10579 0)
(-2.38986 0.777554 4.79303e-19)
(1.59457 -0.111242 -1.0774e-19)
(0.610882 -0.232167 4.31664e-19)
(1.61972 -0.635443 5.08413e-19)
(-2.71073 1.53203 -3.21538e-18)
(1.14449 -0.523391 0)
(1.99175 0.023154 1.52042e-19)
(0.406266 -0.223763 0)
(2.29094 0.227939 -3.88722e-21)
(-0.703516 -0.140415 -1.21506e-18)
(0.488565 -0.169292 3.07378e-19)
(2.22059 0.613403 0)
(1.83609 -0.72475 -3.92255e-19)
(3.1412 0.00792961 1.72177e-19)
(-2.08725 0.532556 2.06233e-18)
(0.0885432 -2.4585 0)
(-2.01905 0.366727 -1.83783e-18)
(3.39459 0.717615 -1.02532e-18)
(1.58816 0.215587 9.5269e-19)
(2.14714 -0.660743 0)
(2.50391 -0.237208 4.13298e-19)
(-1.1493 -0.414058 1.05199e-18)
(0.48252 -0.189612 -1.45632e-19)
(2.15785 -0.558193 1.58282e-19)
(-2.10101 0.590038 0)
(1.85195 -0.489636 -5.25409e-20)
(1.89445 0.256676 1.24782e-22)
(2.50853 -0.387008 1.3818e-19)
(2.33418 0.0169998 0)
(-1.92995 1.06331 1.09941e-18)
(1.59507 -0.425045 -5.73066e-22)
(1.23556 -0.350226 7.29757e-20)
(1.59312 0.485652 0)
(1.99453 -0.763979 -1.82588e-19)
(-2.57775 1.30281 2.36257e-18)
(1.66436 -0.376239 -5.47123e-19)
(-0.219502 0.221476 0)
(1.44299 -0.252317 -4.52547e-20)
(2.02156 -0.741342 1.48373e-19)
(-2.44405 0.841366 -1.12299e-18)
(1.47207 -0.311824 0)
(0.393123 -0.195221 1.54125e-18)
(1.59331 -1.1135 0)
(-1.92929 1.59555 1.71054e-18)
(1.73628 -1.98597 0)
(1.90871 -0.125127 -2.77589e-19)
(2.13341 -0.223859 -2.85735e-19)
(2.75813 1.34626 -7.21081e-19)
(1.40782 -0.851888 0)
(1.93971 -0.826971 -2.85091e-19)
(2.01258 0.0184559 0)
(2.41332 0.441829 0)
(2.0248 -0.83514 9.35512e-20)
(-1.96586 1.17212 1.08276e-18)
(0.485682 -0.0013168 1.92722e-19)
(2.09619 -0.530617 -9.3919e-20)
(1.67304 0.320667 3.1271e-19)
(0.150879 -0.452446 8.09457e-21)
(2.10563 0.307612 1.7225e-19)
(-1.49372 1.6368 -1.78823e-19)
(2.32469 -0.131131 0)
(2.49078 0.271845 0)
(-1.93819 1.64131 0)
(-0.594234 -1.16498 6.64218e-19)
(1.13845 -0.374472 -4.12562e-19)
(1.4462 0.187949 0)
(-1.57666 0.350929 8.24648e-19)
(2.29594 -0.163181 -2.00043e-19)
(-1.99032 0.525189 -4.54101e-19)
(1.33693 -0.485022 -1.3459e-19)
(2.11116 -0.839217 0)
(0.45943 -0.231774 1.31877e-18)
(-0.202071 0.459085 -1.62642e-18)
(-0.687231 2.25033 0)
(-0.459981 0.232196 -8.69762e-19)
(1.76422 0.0418017 -8.32159e-21)
(2.71943 -0.140273 9.84461e-20)
(1.91142 0.0617392 2.82968e-19)
(2.72902 1.16923 -3.38107e-19)
(2.4374 0.245785 6.21719e-21)
(-1.23184 -0.389212 0)
(1.89404 -0.733754 0)
(-1.39596 0.463692 6.8228e-19)
(0.510026 -0.0344267 0)
(1.54363 -0.32484 -7.06303e-20)
(2.11581 -0.749725 -2.78554e-19)
(0.952586 -0.443703 4.97341e-19)
(2.28275 -0.193645 -1.52228e-19)
(1.74268 0.377777 -3.09733e-19)
(1.4817 -0.591321 -2.73443e-19)
(1.57032 -0.619796 -5.09356e-19)
(1.29829 -1.33771 0)
(1.6722 -0.645305 4.86554e-19)
(1.98817 -0.0861881 0)
(2.49347 -0.412082 -5.62446e-21)
(2.00785 1.39045 1.71929e-20)
(1.03205 -0.221023 5.40588e-20)
(2.20246 -0.390166 -2.49843e-19)
(0.726985 -0.199963 -9.27037e-19)
(-0.839738 0.866912 0)
(1.11781 -2.6015 -2.89322e-19)
(-0.319362 0.308856 -2.07588e-18)
(2.09034 0.586322 -1.84956e-19)
(1.78141 -0.708785 4.56112e-19)
(2.10222 0.028893 -5.22804e-21)
(0.693372 -0.143852 3.74416e-19)
(1.75171 -0.73804 -1.17366e-19)
(0.249772 0.172826 0)
(-1.91485 0.400719 1.28237e-18)
(1.70539 -0.329157 2.89509e-19)
(2.03542 0.0405354 -1.54528e-22)
(1.14207 -0.494013 1.04719e-18)
(-0.594004 -0.484327 4.3938e-21)
(1.70839 0.639057 0)
(-0.544476 -1.11396 -2.34884e-19)
(-1.93788 0.839384 -1.49936e-19)
(1.05366 -0.291536 -7.87657e-19)
(-0.251461 -1.16172 2.29986e-19)
(2.50766 1.00286 -3.1777e-19)
(2.1005 0.588292 3.39862e-21)
(0.905357 -0.346616 3.56895e-19)
(1.75935 -0.331205 0)
(2.54918 0.140653 -1.60403e-19)
(2.43155 -0.0385744 -6.47523e-21)
(3.02691 0.94535 -3.5753e-19)
(-1.24352 -0.357693 0)
(3.5395 1.07318 2.98923e-20)
(0.0125778 0.0545601 7.84821e-19)
(1.56586 -0.67706 1.08099e-18)
(-0.393991 -0.543724 1.2444e-20)
(0.0716339 0.99028 -4.7126e-19)
(0.445367 -0.205288 2.55562e-18)
(1.95134 -0.724739 4.6528e-19)
(2.14971 0.0154318 -4.43071e-21)
(0.13962 -0.429547 -5.65725e-21)
(2.80733 -0.0195537 4.90119e-20)
(0.190913 0.306564 0)
(2.02322 0.0378213 0)
(2.37705 0.482782 0)
(1.72129 -0.658262 -4.24981e-19)
(1.99959 -2.07977 4.28197e-19)
(-0.943329 -0.425831 0)
(1.19762 -0.343005 -1.70723e-19)
(-0.81277 2.19524 0)
(3.93064 0.330974 0)
(-1.23311 -0.487144 0)
(2.00528 0.0252713 0)
(0.387316 -0.198629 -4.77602e-19)
(-1.23564 1.58431 0)
(3.99253 -0.348733 1.55376e-18)
(1.38019 -0.00214988 0)
(1.83296 0.25288 0)
(1.93408 0.189793 2.60696e-21)
(-1.44925 1.37189 0)
(3.2863 -1.74142 0)
(-0.659903 -0.333914 0)
(2.57266 0.0818381 1.67557e-20)
(1.79299 -0.313676 0)
(2.11272 -0.822913 -1.23935e-20)
(1.55521 -0.301969 3.22245e-21)
(0.346281 -0.173066 -4.5041e-19)
(1.98657 0.0639885 6.87804e-19)
(-0.158489 -0.0244737 -5.75366e-21)
(1.05874 0.960737 -6.04995e-19)
(1.47594 0.776888 0)
(2.36443 -0.352601 9.08162e-21)
(1.62152 -0.187636 -2.54622e-19)
(1.56478 1.78515 1.50801e-19)
(1.84253 0.402559 4.40441e-19)
(0.716086 -0.226455 -7.47587e-19)
(1.46566 -0.644223 -4.22504e-19)
(3.15119 -0.272283 2.44375e-19)
(0.687865 -2.6872 0)
(2.26504 -0.479197 2.32241e-20)
(1.29361 -2.58207 3.40757e-19)
(2.68059 0.355178 -8.22873e-20)
(-2.628 1.57621 0)
(1.84119 0.0873851 -3.16847e-19)
(2.88529 0.89963 -1.13706e-18)
(1.3087 -0.527596 5.42724e-19)
(1.19874 -0.545446 -6.54792e-19)
(1.60484 -0.737993 0)
(1.71367 -0.749567 0)
(3.68931 -0.968232 1.63191e-18)
(2.26511 -0.393196 -1.59812e-19)
(3.43408 0.403862 -5.94795e-19)
(1.73974 -0.0189978 3.77708e-20)
(1.18122 -0.309024 -1.58484e-19)
(1.65963 -0.487601 4.6378e-19)
(2.49314 0.291976 0)
(2.42377 0.330399 1.62017e-20)
(0.193948 0.137144 -1.98036e-18)
(2.76312 -2.34575 2.00642e-18)
(1.01579 -0.196573 8.95222e-22)
(-0.76602 -0.215162 7.20842e-19)
(3.29965 0.433073 4.96715e-19)
(2.5688 0.817716 6.1838e-20)
(2.37808 0.582143 0)
(-1.29584 -1.09602 0)
(2.17577 -0.825783 -3.70742e-21)
(1.13455 -0.220954 0)
(1.83165 -0.34529 1.94203e-19)
(1.62371 0.276951 5.40029e-19)
(1.65105 0.516002 -1.58631e-19)
(1.5415 -0.625902 1.10349e-18)
(1.90181 0.29072 1.77153e-23)
(1.48514 0.0238664 0)
(1.78951 -0.082915 -8.58196e-21)
(-0.95719 -0.48067 -8.95534e-19)
(2.14567 0.334737 0)
(2.57187 -0.413675 0)
(1.86596 -0.743327 1.69731e-19)
(1.97798 0.571554 2.40374e-19)
(1.07132 -0.139577 0)
(3.39894 -1.0258 6.44571e-20)
(2.74519 -0.00823298 2.04389e-19)
(2.37066 0.343091 3.25148e-20)
(1.75236 0.495077 4.67933e-19)
(-1.02794 -0.482046 -3.41193e-19)
(1.29258 -0.663217 0)
(0.550147 -0.328551 -2.29987e-18)
(0.466965 -0.191458 1.11526e-18)
(1.97871 0.0176515 1.75286e-20)
(0.288279 -0.182633 -9.59607e-19)
(1.7532 -0.721358 3.21855e-20)
(2.63128 0.389896 2.19365e-19)
(2.10199 -0.46971 0)
(1.96992 0.17403 2.70758e-21)
(1.8103 0.0660038 9.85164e-20)
(2.11705 -0.0210515 -1.73096e-19)
(2.16052 0.58845 -1.44833e-19)
(2.16419 -0.783635 0)
(-0.889828 -0.302572 0)
(2.55119 -0.0138464 0)
(2.33075 0.467109 -7.38139e-20)
(1.024 -0.475888 7.80325e-19)
(2.40619 1.85943 -9.07456e-20)
(1.43152 -0.0743116 0)
(-2.15593 1.63253 -4.8996e-19)
(-0.906072 -1.12763 4.19086e-19)
(-1.65377 2.04505 0)
(1.89336 0.304912 -1.43693e-19)
(1.64733 0.245186 -1.79919e-19)
(3.15272 -0.247069 -1.09335e-19)
(2.0415 0.413016 -1.11402e-22)
(0.611577 -0.187552 0)
(2.15883 0.219526 -1.78708e-19)
(1.99351 -0.391012 0)
(2.05852 -0.249259 9.78606e-21)
(0.979159 0.0907243 0)
(2.21215 0.879194 1.01872e-19)
(1.64245 -0.65635 -4.97167e-19)
(2.42301 0.873064 0)
(1.83134 -0.119035 -4.8442e-19)
(2.0985 0.506796 -6.96008e-21)
(1.85441 -0.561992 0)
(1.1034 -0.525417 0)
(0.458525 0.237131 -9.39395e-20)
(2.48099 -0.217764 -1.41502e-20)
(0.613483 -2.47418 -3.11715e-19)
(0.209323 -0.267918 -3.83033e-20)
(2.71071 -0.125582 -6.30649e-22)
(1.43801 0.123867 7.59249e-19)
(1.75319 0.424708 -2.01264e-21)
(2.07037 0.595312 0)
(3.34408 0.896605 4.908e-19)
(1.65402 -0.750265 0)
(1.45297 -0.665629 -4.62784e-19)