/*--------------------------------*- C++ -*----------------------------------*\
| =========                 |                                                 |
| \\      /  F ield         | OpenFOAM: The Open Source CFD Toolbox           |
|  \\    /   O peration     | Version:  2306                                  |
|   \\  /    A nd           | Website:  www.openfoam.com                      |
|    \\/     M anipulation  |                                                 |
\*---------------------------------------------------------------------------*/
FoamFile
{
    version     2.0;
    format      ascii;
    arch        "LSB;label=32;scalar=64";
    class       volScalarField;
    location    "2.25";
    object      p;
}
// * * * * * * * * * * * * * * * * * * * * * * * * * * * * * * * * * * * * * //

dimensions      [0 2 -2 0 0 0 0];

internalField   nonuniform List<scalar> 
13486
(
2.24826
1.80018
0.191684
-0.442888
0.693432
-0.0775226
0.312917
1.23428
1.51954
0.77816
-0.975049
0.427116
2.36594
-0.272208
0.552159
0.868502
-4.83008
-0.846801
0.520122
2.02838
-0.374771
2.33753
1.76309
-0.593772
0.741664
-0.562267
-0.653601
-0.409311
0.0194321
-0.311082
-0.290512
0.35093
-0.810416
-0.225544
1.2387
0.0040415
0.0626658
1.82327
0.0501904
1.52632
0.0534469
2.45501
0.0518524
0.745304
0.709224
0.410674
-8.1955
0.0273508
0.0682576
-0.489658
1.3276
0.0255949
0.294715
1.85619
-0.486745
0.756622
0.0872635
0.0363815
-0.787436
0.0934548
-0.850872
0.0768373
-2.36356
-0.357465
-0.341633
0.07654
-0.471806
2.25522
1.50843
0.0547915
-0.472955
-0.588659
1.54156
-5.7691
0.0845043
0.0977504
0.081398
0.539022
-6.21176
0.022836
0.00686872
1.8216
-2.53524
0.227845
2.25684
0.903217
0.155598
1.25773
1.4892
0.873237
0.143034
1.06719
2.15375
1.92953
1.56957
0.00268132
-0.610126
-0.481282
1.50402
-4.53325
0.0217868
-0.186783
-0.479169
0.0370332
1.12013
-4.69298
1.5184
0.0514599
-7.24832
0.937034
1.44137
0.251487
1.85525
0.0777202
2.6602
1.51144
0.741544
-0.217835
1.55701
0.0550062
-1.12769
-0.825949
1.64414
0.05282
1.43911
0.0316452
1.07745
0.414579
-0.175163
-0.285769
0.0362954
-8.03724
-5.63759
-5.95238
1.37797
1.20014
2.74089
0.981489
0.056539
1.28121
-0.720282
0.276221
0.397371
0.0172973
0.0799038
-1.47155
0.217506
1.81607
-0.532048
-0.00188444
0.886363
0.506766
0.0088851
1.85976
0.44326
0.190486
0.742358
0.0424831
1.65001
0.144367
-0.372786
1.65085
-0.206329
2.44819
0.0282687
-0.51467
-0.0370955
3.10056
0.217321
-6.01335
-6.16724
0.458973
1.05521
0.797647
0.00421471
-0.526874
-0.532282
-0.883983
1.52211
0.415578
1.42857
0.0801848
0.632661
-0.602259
0.252645
-0.412903
-0.0017557
-0.295145
0.13332
1.59365
0.0649567
0.124414
0.0178427
1.97476
0.0111194
-0.951964
-0.301323
-0.411139
2.01439
-0.425658
-0.2953
0.391639
1.82693
0.491668
0.144052
0.00389108
-0.386976
1.65372
0.0118536
0.246408
-0.346755
-0.408043
2.00219
1.51773
-0.0841081
-0.104717
-0.329783
0.895354
2.03943
-1.88377
-4.96446
-0.558957
1.31694
-0.407445
0.230276
2.18618
-0.359787
-0.374367
-0.0698429
0.147854
1.41188
-0.426891
-0.745123
2.50581
-0.429224
2.09996
-0.249548
0.125713
2.12216
0.671427
-0.772844
1.03349
0.0830983
1.99726
0.0774482
1.72432
0.703848
-0.4337
-6.57936
0.844664
-0.558689
2.69308
1.45879
0.0496182
-0.0231173
-0.567755
0.330979
-0.0982612
0.11214
-0.719135
1.64756
0.0803923
0.539497
-0.561716
0.765189
-0.599474
-0.0758265
-0.319357
1.45963
-0.489207
1.52036
1.47908
-0.348678
0.345036
2.18993
-0.414843
-0.0294267
-0.18817
0.046881
0.222908
-0.170569
1.25696
1.53512
-0.875215
-0.752189
-1.79436
-0.761754
-0.188435
0.24231
1.47732
-0.426248
0.100258
1.56787
1.39372
-0.234035
-0.263273
-0.393488
0.343466
1.56643
0.211032
-0.338183
-0.430053
0.221418
0.39077
0.0631563
0.519614
-0.469005
0.710328
0.13956
0.0671095
-5.28848
-0.435747
-0.262276
0.242371
-1.12247
1.22744
0.103182
1.48898
1.65992
-0.103953
0.0684059
0.0902122
1.5068
1.94295
2.69381
0.184982
0.945471
1.23056
0.288977
0.87083
1.26068
1.01485
0.04224
2.07972
0.300465
1.48053
2.74882
0.542404
0.938318
0.0855241
-0.0910144
1.92261
0.835656
0.650625
-0.606186
0.00585438
1.00731
2.64836
-1.85104
0.101836
0.978654
0.313636
0.346104
-0.559115
1.55249
0.0221111
-5.35781
1.05402
0.136977
-0.397958
0.576646
0.137286
1.67952
1.48347
-0.322613
0.00325461
-0.256801
-8.6456
2.04669
1.06734
0.074332
1.02959
0.237605
-0.579201
-0.0940791
1.35238
1.52839
0.093275
-1.11271
-3.28911
1.45108
0.978004
2.37563
1.60631
-8.90795
-0.0411201
0.190141
0.912396
-8.23254
-0.248654
1.96891
-0.377875
0.661986
2.14072
2.22136
0.0583223
-0.456754
-0.576002
-8.01438
-0.772136
-8.36141
0.354422
1.36143
-0.510105
0.344549
0.188527
1.90196
-0.83793
1.07617
1.69691
0.904313
-1.19893
-0.437361
1.56888
1.52242
1.90732
-0.590468
0.788701
-7.31062
0.692355
1.5233
-0.0516095
2.65904
0.975948
-0.378938
-0.275918
0.373395
1.53138
-0.702845
0.0598403
2.31848
1.35917
0.646354
0.248581
0.610651
-0.494946
2.36433
0.100595
0.839717
2.2186
-11.1737
-0.353275
-5.95055
-0.438742
0.15842
1.78691
1.79155
2.33298
-3.35199
0.0601538
-0.609362
0.957369
1.51913
-0.472156
-1.34719
1.50811
-0.563571
-0.520103
-0.860813
-1.40808
-0.139021
1.89074
0.00025185
0.0929648
-0.410015
1.44161
0.0170238
2.92666
2.17656
1.53984
1.17782
0.0389938
0.0110389
2.73123
-0.0461015
0.0563294
-0.35988
1.49402
-2.11074
0.32972
1.08118
0.047347
-0.628811
1.74356
-1.41827
-7.24264
1.01077
-0.25979
3.08915
1.02953
1.32732
1.64864
-0.545063
0.249687
2.48076
0.676582
1.95286
0.262292
0.477312
-0.329313
0.0230211
0.0374428
-4.25312
1.55319
1.4775
-0.556799
0.00147409
-0.118196
2.24211
1.7908
-0.0439501
1.50711
1.10607
-0.616782
0.75535
1.35249
-6.77417
2.33633
0.0582648
0.0533894
2.4406
0.986639
-0.0116839
0.98064
-0.334764
-0.549606
0.621189
0.886873
1.66926
2.15873
-0.531163
0.607874
-0.543404
0.00861966
2.09497
0.491091
-0.598738
-0.484604
-0.0943341
0.132623
1.19736
-0.333181
-1.27354
1.5115
2.05606
0.0526157
1.64431
-1.60692
-0.590867
-1.835
0.655066
-0.612979
1.66229
0.249544
-0.823941
1.27615
1.76859
-0.692822
-0.566548
1.34125
2.10362
0.473157
2.26821
0.251106
1.02583
0.391603
1.6787
0.0704555
2.04602
-0.581892
0.329556
1.43366
-0.141277
-0.386955
1.50556
-11.5681
0.353462
1.74733
2.33087
-0.300159
0.182197
0.419758
0.212015
1.36504
1.05843
0.381289
-0.64166
0.134625
2.22948
0.306873
0.118483
-0.532395
2.34633
-0.161206
0.0806793
1.47195
1.15715
0.0215206
-0.27727
1.25391
0.28721
0.177023
0.622046
-1.39897
2.27652
1.47725
1.05447
1.1051
0.126842
-0.7863
2.5682
0.525704
2.57386
-0.368973
1.48577
0.0224546
-6.17559
0.844843
0.839581
2.69986
-0.425603
0.93435
0.908519
-1.96487
0.803397
-0.569114
-0.66528
1.47302
-0.574588
-0.37455
-0.498949
-0.295697
-0.158812
1.63842
0.00877679
2.48782
1.50734
0.125074
-0.587386
-0.335942
0.536606
-0.761009
-0.392069
-4.11316
2.08342
0.00418504
0.0889521
-0.662582
2.38237
0.00525599
-0.423577
2.4353
1.34669
-0.606344
0.0564851
1.05608
0.210371
1.42092
0.0785195
-0.322984
0.621069
1.39489
0.496984
1.235
2.47105
0.0804017
-0.47168
1.51738
-8.19476e-05
-0.106608
1.01143
1.13423
0.66341
-0.604535
0.236336
0.0888296
0.303998
2.09186
0.503129
0.288821
0.233964
-0.0485383
-0.00997244
1.51492
0.128377
1.38824
1.43269
2.08239
-2.0155
-1.30456
2.55381
0.0312755
-0.560703
1.58876
-0.52093
1.70212
0.0688193
1.46889
-0.507063
-5.63846
-0.488096
-0.00311616
-6.34241
0.805202
2.63224
-0.136065
-1.24572
-0.415671
1.55119
-0.203693
0.688768
-0.700971
2.60904
-0.612332
0.779388
-0.511151
0.875647
1.5052
0.552068
-3.06707
-0.329724
2.41137
1.56233
0.575946
1.36031
-0.0279354
1.17449
1.17816
0.899222
-5.43481
-0.025567
1.88478
0.310231
0.0374295
1.22004
-0.54708
-0.124639
0.0484054
1.63805
1.6015
-0.439461
0.253596
-0.604366
-0.349297
0.285979
-0.141694
0.12196
1.45922
-0.0899464
-1.54357
1.74946
-0.22297
-0.249464
-0.0596132
-0.52321
-0.444696
-0.448196
0.0812512
-0.596117
1.41154
2.36294
0.0578285
-0.240759
2.44143
2.28937
-0.299985
-0.299517
1.54027
-10.4861
0.0936973
-0.18523
0.0872132
0.794128
-6.83158
0.727181
1.02965
-0.456822
-0.193443
-0.687196
-0.082908
1.28779
0.642995
0.939986
-0.464707
1.28415
2.24187
-2.31222
-0.585804
1.67444
0.417466
0.931897
0.0593244
-0.305433
-0.479307
-0.0473537
1.55087
2.58055
1.65821
0.109045
-0.0883485
1.51271
2.18295
-0.322709
1.59566
1.51699
2.28478
0.338362
0.0798177
0.291782
-0.0926895
2.27394
0.264125
-0.0537086
1.02374
-0.0257414
0.428334
-0.01789
-0.970104
1.43514
1.15009
1.06221
0.725687
-3.14592
-0.204072
-0.128635
0.802988
-1.47315
-0.839942
0.0725818
-0.620995
-0.836158
0.812162
-0.311708
-6.4881
-2.88518
-0.167195
1.07335
-0.981275
-0.504459
1.69691
-0.349793
2.34005
-0.364358
-6.54462
1.76764
2.10925
0.0869108
0.119667
0.224504
1.55009
0.796465
-1.78159
0.0287426
0.0613642
-0.174119
1.48061
0.0736229
0.900595
0.090733
1.49864
-0.747451
0.0730102
0.0372288
1.82643
-0.60961
-0.923536
-0.517021
2.31874
-0.423807
-0.466682
-1.19307
1.51977
-0.520347
0.0947156
0.427287
0.687303
0.131387
1.01326
-0.329589
1.22539
1.50004
1.73527
0.704756
0.0590846
-0.162514
1.14893
-0.575243
1.79496
1.01315
0.0213064
0.0544804
-0.0492098
0.0147193
0.0628822
1.70899
0.633419
-0.0380127
1.50556
-0.696725
1.19247
2.66861
-0.0109008
-1.50721
1.05227
0.18411
0.0529219
-0.058296
-0.400878
1.51273
0.0831087
0.033904
0.0601924
-2.14937
1.91496
-0.602969
0.0106814
1.50922
0.189969
2.14009
1.72881
2.00283
0.431408
0.929199
0.442918
0.158308
1.09192
1.47929
-0.420092
-0.139298
-3.22869
-0.255748
-0.649502
1.51563
-1.24557
-0.724554
-0.610615
-0.414284
0.04797
1.51946
0.0415955
0.0859328
-5.70904
1.5284
2.62524
0.193661
-1.04404
0.84758
-0.228213
1.4927
0.127188
0.0770801
1.80383
0.0208265
2.47901
1.01589
1.50399
-0.296966
1.95065
0.0949018
1.73932
0.0592031
-0.720671
-0.537894
-0.443751
0.993611
0.152371
-0.307205
2.33391
1.51488
1.62364
2.12501
1.6559
1.82257
-0.123954
1.55605
1.54266
1.56109
-0.108792
-0.34699
-0.482644
-1.51827
0.307789
1.67327
-5.43148
2.36856
-1.52853
0.082059
2.56072
2.14934
-0.142565
-0.451164
1.51808
0.78117
-0.0697572
1.4011
-5.61349
-0.50237
1.50132
2.07531
0.071707
1.64555
1.93242
-0.000271731
-0.369185
1.94388
0.655744
0.0588068
-0.605793
0.223054
-0.920652
1.40755
1.08905
0.0839788
-0.256597
-0.339122
0.305629
0.0462381
0.426312
2.19945
0.0323016
2.86285
1.51802
0.501819
1.6972
-0.607445
-4.8194
-0.51541
1.51186
0.0669528
-5.27286
-0.287062
0.77088
0.876518
0.0848612
1.02053
-8.72527
0.74747
-0.31839
0.0957238
1.2063
0.457892
1.94539
1.54356
1.57745
1.45008
-0.145963
-0.652559
-0.61661
0.221713
-0.317503
-0.187467
1.18021
-0.317743
0.0590507
0.0861556
-0.589902
-0.707759
1.06949
0.700858
0.169411
-0.354985
0.712673
-0.546202
-0.523106
0.314143
0.15803
1.6429
1.13711
1.91781
-5.9251
1.36726
0.0681669
2.09862
-0.231401
0.811503
-1.78473
-0.122163
2.43837
2.55468
1.26347
0.756173
1.03555
1.36446
2.46524
0.999279
-0.734196
-0.678674
0.374969
-1.53437
-3.53956
1.51157
1.47673
0.142439
0.288023
1.22303
1.37841
2.69171
-1.32704
1.19612
-8.43111
-0.11434
2.15683
-0.0477964
1.23803
-0.272377
0.61834
0.61708
2.81518
0.161632
-0.486204
0.785996
0.31562
-0.607021
-5.61811
-1.57432
1.66976
0.161241
0.770364
2.28775
2.10613
-0.00589017
-2.87576
0.148769
0.278148
1.74786
1.45402
2.08141
0.863406
-1.20981
2.18359
1.34244
-1.66107
1.12958
1.5425
1.88161
-1.02343
-0.395725
0.00192246
1.28658
2.39879
0.766397
-0.688896
-0.894863
2.70546
-1.80351
-0.730497
2.50564
1.31981
0.147171
1.19252
-0.458293
0.804463
-0.209857
-1.67098
0.0788848
-0.532974
0.156845
-0.154281
-11.0386
-5.88163
-2.6461
0.311123
-8.07169
-0.568507
1.32966
1.39279
0.710908
-9.21177
0.296331
0.245142
-0.15843
2.84823
0.959413
-0.54408
1.32433
-0.213394
-0.539434
1.19939
1.1858
1.47752
2.88921
0.00828276
-0.0462698
-0.588744
0.253652
0.995109
1.4465
-0.477641
2.20771
1.02822
1.60269
-0.323967
0.0310337
0.108537
1.54158
1.51726
1.59091
1.50809
2.64363
2.57478
-0.224219
1.32872
1.91455
-0.520087
2.07371
0.0488382
2.544
2.05343
0.164119
1.70798
0.749475
1.12099
0.149221
1.52412
-0.649599
1.30821
0.514848
0.964678
-0.0618025
1.494
0.051835
0.305267
2.45498
2.44665
0.981968
-5.82355
0.4263
-0.0718963
-0.0455488
1.2142
2.19415
-5.87338
1.56086
1.42726
0.723525
1.53379
-0.612602
-0.26663
0.0879384
2.70491
0.395264
0.151734
1.72903
-0.0616257
0.109695
0.812164
0.3687
1.15826
0.501729
-0.302127
0.881322
1.17851
0.955238
1.09419
2.60403
2.12692
1.85598
1.96724
2.39887
0.694579
0.039754
-0.417493
-1.80746
2.42877
-0.313797
1.50326
1.33769
-0.604916
0.759243
1.66519
-0.436785
0.741425
0.940617
2.92589
-0.548331
0.648206
0.165329
1.70048
0.188943
-0.419242
2.38609
2.02921
1.44264
1.50604
-0.241335
0.617088
-5.00194
2.56951
0.0595525
2.79407
-0.344779
-0.608168
-9.35111
0.727228
-5.24399
0.0519901
0.036945
0.567749
0.159174
0.555817
-0.446482
0.00590455
-0.203882
-6.06208
-0.424245
-1.9166
0.171781
-0.00969338
-0.418489
-0.775359
1.51482
1.54592
1.92901
1.50446
0.585212
0.590422
3.11697
1.4666
-0.86094
0.00920028
-0.0751022
1.16369
1.32055
2.21212
-0.805842
-0.781092
1.18395
0.00381458
0.45189
1.88029
-5.83723
-0.608214
-6.48712
2.59966
-0.482767
1.04851
1.913
-0.422408
1.17413
0.0401622
-0.600996
-0.537674
0.129546
1.02113
1.7743
1.8794
-1.72868
-5.89619
0.934461
-5.00968
-0.301491
-0.152124
0.156424
-0.196605
0.128258
-0.478722
-0.53677
-0.60345
2.29808
-0.384238
2.52103
-0.623521
-0.0505474
0.535256
-0.119308
2.12022
1.44722
1.76749
0.186419
-0.210277
-0.671675
2.03848
-6.02322
1.11966
0.0820275
1.81517
2.11878
0.0798994
1.50713
2.41423
1.63827
1.62387
-3.29457
-0.252615
0.604355
-0.495731
0.0500813
0.875229
1.01853
0.199733
-0.889787
0.417793
0.118353
1.27774
1.0705
-0.363067
2.53578
0.24049
0.00544735
0.315514
1.49255
-0.286269
0.0146466
1.62322
-0.733554
0.175407
-0.183239
1.56573
1.49207
1.41851
0.121977
1.41745
1.73108
1.68572
-0.212876
0.0824725
0.358557
1.29002
-0.859134
-8.70686
-0.451112
-1.68564
-0.454297
0.0230754
0.0413942
0.083668
-5.33993
-0.566983
-0.743301
0.122988
-0.216637
0.59525
-0.586687
1.60649
3.12413
0.521065
-0.193052
0.685717
0.207549
0.436412
0.0298953
-0.280652
-0.581578
0.251828
1.97183
0.00816649
2.36949
0.0214023
1.41112
1.20701
0.639566
-10.7827
0.79662
2.64887
-0.425498
1.50984
1.46607
2.20254
0.242988
2.02097
1.59078
-8.73789
1.69726
-0.568893
-2.30241
2.06447
1.32047
-1.79105
-0.0142088
1.94383
0.0184447
-0.399485
0.0772524
0.0729827
1.1549
0.842532
1.50547
1.38115
1.29485
-3.16979
-0.422122
-0.193197
1.47011
2.78675
-0.31625
-2.20367
-10.3458
1.47812
0.235265
0.252758
0.580191
-0.399572
1.14887
-0.466813
0.226049
2.40194
0.70975
-1.14219
-0.302778
-0.52687
-0.473031
-8.17726
-0.607203
-0.612057
1.78369
0.83904
-0.450091
2.43879
0.01116
-0.633517
-0.188347
-2.15234
1.61366
-5.38388
0.544028
1.48648
0.144048
-0.224087
-0.144606
-0.900373
-0.355516
1.63555
-0.738425
0.0514186
-5.62689
1.46026
1.61965
-0.489847
1.89805
1.75251
2.27722
2.3429
1.65766
0.337875
2.71261
-6.69275
1.44195
0.253106
-0.733582
1.82285
-0.447778
2.29218
0.738472
-1.30252
-8.17299
-7.66408
1.61152
-0.443864
-0.247888
0.224838
-1.33412
-0.947436
0.946281
0.344193
1.07241
2.59716
-5.97013
-0.563652
-0.765442
1.53753
1.13018
-0.394497
3.08491
0.0479759
0.113633
0.959234
-1.41093
1.44674
1.53488
1.71895
1.72323
-1.65478
0.785477
1.43753
0.398879
-0.510581
0.0221625
1.60847
1.68941
2.05887
-0.392675
0.195673
0.686922
0.936584
0.0907993
-0.694915
1.24839
-0.263078
1.32014
1.55375
-5.22415
2.36021
-0.409958
2.59942
1.69729
-0.690861
0.0042032
0.0715708
0.583483
1.58675
-0.629617
2.02941
1.42793
0.709323
0.0667731
0.397646
-0.350267
0.705589
-6.00929
0.88691
-0.339539
1.46815
-7.4368
0.0451065
-0.178878
1.85305
2.1365
0.743277
-7.00177
0.76121
0.00106057
0.233514
0.876154
-0.417551
-0.343467
2.52001
-0.726537
-0.0915406
-0.612004
-1.63538
-0.132986
1.57093
-5.81964
-0.159993
1.57623
0.942969
1.62196
-0.57344
0.672359
2.55601
-3.03898
1.44836
0.410837
-0.400243
0.558584
0.399949
-0.965111
2.60919
1.70875
0.179703
2.54168
1.94355
1.83656
-5.62533
-8.32881
0.899918
-1.51825
-0.0969535
-1.54005
-1.42237
-1.51421
1.17376
0.610393
0.873457
0.982303
-0.435865
1.08868
1.47197
-1.52484
1.54674
0.962557
1.50618
0.00549555
0.0437126
-0.48771
-8.62404
-0.554547
-0.198603
1.4563
-0.752333
2.28671
-0.604504
1.45745
0.872337
0.0879862
0.232953
1.54603
0.693442
0.420751
1.34099
0.102997
-0.570207
2.16272
1.77576
-0.40639
-1.07532
0.0925998
1.33382
0.0774644
0.580623
-1.61131
0.148503
-0.0267669
0.15186
1.30466
1.22309
-0.767095
0.683116
0.0316635
0.0501665
-0.66435
1.85345
-0.525132
1.4994
0.0174413
1.30459
1.59664
0.880926
1.38602
0.171882
-0.43873
0.105708
-5.65741
-0.460024
-0.399028
-0.0591682
-0.236305
1.21124
0.0411037
1.49401
-0.204704
-0.37034
-2.11808
0.0558959
1.56543
-0.533164
1.45981
0.4408
-0.569179
-0.304622
-0.522869
1.06838
1.59895
0.0580428
0.363543
-5.00516
1.74338
0.0032389
0.393927
-0.607656
1.88032
0.734854
0.0383784
1.606
1.54572
1.81324
0.351497
1.84673
-3.23934
0.122125
-0.156838
1.42315
0.987819
0.447232
0.073733
-0.678036
-0.620121
0.799293
0.173924
-0.625609
2.40103
-3.58497
1.77895
1.068
-0.256108
0.0406895
0.161315
0.0375916
0.239967
0.324924
1.41361
0.0926473
1.51183
-2.18091
0.517203
-0.323302
0.279602
-0.697092
1.85251
2.56221
1.64347
0.782806
0.205044
0.978255
-0.745459
-0.148253
0.127842
-0.0311861
-0.429047
-0.717454
-0.677018
-0.433557
1.32445
1.45225
-1.97525
0.445772
1.69572
-0.472081
-1.54492
1.61619
0.0343153
-0.806428
0.0651675
-0.144455
0.00701144
2.42641
0.126159
1.42217
-1.31852
-0.720465
-0.458356
1.45568
0.306585
1.22145
-1.23158
-0.581608
0.166643
0.273884
1.73233
1.31534
0.329359
-0.210481
-0.234575
2.66606
-0.374172
1.69593
1.85071
-0.123793
0.0246392
0.684862
-10.4284
-0.514319
1.3136
0.868407
1.44826
-0.488485
1.63845
0.251128
2.13864
0.269953
1.33125
1.88865
1.25348
0.315405
-0.609743
0.533236
-2.06439
1.25763
0.702611
1.80692
0.226428
2.26994
0.343119
2.41688
0.0584287
1.87608
-0.130183
1.12049
-1.33644
1.44438
0.709822
0.629085
2.28763
1.49113
0.381375
-0.430803
0.846623
1.42517
0.0487473
-7.59431
1.09974
0.156594
1.94338
-0.498985
2.3117
0.426072
3.15604
2.33689
1.05816
0.915809
-1.27699
0.180524
2.48888
0.22541
0.0449486
-0.0101688
2.54089
0.743582
1.27607
2.1926
-0.730319
1.62767
-0.156061
1.77305
0.0981455
1.67013
1.52969
2.06102
0.0425124
-5.55501
0.489774
-0.537528
0.680496
0.116597
0.154308
1.92237
2.177
0.0381382
0.431588
-0.133665
1.94214
1.23475
1.3697
0.956596
-0.12564
-5.36946
-0.383785
1.54352
-2.22841
-0.26943
0.141711
1.04119
0.707673
-0.4748
2.64002
-0.257401
2.28686
0.352462
2.38576
-0.271044
0.205914
0.092049
0.0832431
1.27986
1.48106
0.13036
-0.280238
0.0307219
-0.253543
2.15773
-0.430288
0.128794
-0.352028
-0.317319
0.405371
1.81868
0.673018
0.128691
0.0673946
1.50077
2.79751
-0.539327
0.157505
1.44615
-0.180829
0.807989
0.0878895
1.02366
-0.29884
-7.36579
-0.37727
-0.270852
-0.0322407
0.202422
-1.32962
-0.411957
0.00360414
1.18719
1.60401
1.31139
2.70845
-0.914733
2.51141
-4.66129
2.34156
-0.628429
-0.780687
2.61323
0.641767
-0.310622
1.49455
0.0298079
1.6193
-0.554253
-5.42103
0.351067
-0.395673
-0.443785
0.00822143
-0.0289249
0.63442
1.84678
-0.646596
0.707201
-2.08061
0.289963
-0.295148
0.047878
-0.314462
-0.288633
-1.63417
1.99388
0.0547458
2.18236
0.592988
-0.53477
0.514994
-1.25071
0.0897788
1.30499
1.8703
2.74219
1.15169
1.26246
0.671367
-6.13938
2.64267
2.81227
1.63536
-0.742058
-0.497579
-2.02945
1.38287
0.955108
0.51557
1.23034
-0.296243
0.0582643
-1.48655
2.27169
-0.66937
0.258292
-0.424411
1.42426
0.394942
3.03991
2.83656
1.33236
0.0994269
0.363673
-3.74369
0.580402
2.91308
0.132611
0.093942
1.07891
0.00855684
0.363795
-0.0634623
-0.203481
0.378397
0.181846
0.691919
0.0533435
0.509889
2.08497
0.353352
1.59307
-0.423535
-0.271188
2.52235
-1.00976
0.0363425
0.304095
0.668543
0.221943
-0.512747
0.196244
0.138509
0.0949577
3.07818
-10.4379
-1.80002
-0.502622
-1.04338
0.207706
0.295241
-0.480118
-1.39703
0.0435631
-2.4345
-1.14597
-0.499168
0.217024
0.183114
0.236466
2.99466
0.191293
0.473435
-0.0303277
0.376805
-6.0659
-0.202719
2.05253
1.51178
0.492773
-0.296341
1.45093
1.60391
-0.148759
-0.687874
0.120861
2.04338
-0.476024
1.41457
0.156504
2.29304
0.279172
-0.425119
-1.05418
1.63792
-0.355943
1.34032
-0.758162
2.86669
-0.472003
-0.188827
-1.01551
0.672107
-0.496178
-0.744329
-0.468571
0.302539
0.585788
-0.49376
-0.35647
-0.00249473
0.184844
-0.373592
-1.15027
1.21775
-2.75362
1.29223
-0.466187
1.65535
2.62128
1.38296
-5.75726
1.4965
0.243105
0.0554375
-0.00476991
-0.320057
-2.45123
0.177225
-0.215199
0.569581
0.0638864
-1.13763
-0.219638
-1.27828
0.746855
1.52295
-1.66632
-0.51394
-0.412927
0.0544798
-0.278179
0.87644
-3.49458
-0.515512
1.51301
-0.223075
0.789623
-0.718167
-1.33674
-0.579661
-0.929824
3.04994
0.419651
-0.525048
0.411628
2.47283
2.52822
-0.425691
-0.16166
1.49583
0.0624822
0.176636
2.53872
0.830694
1.2905
3.08649
-0.413488
0.359494
0.284142
2.24466
1.56353
1.53195
1.87763
1.08643
0.0678095
0.108021
0.728361
0.406172
-9.022
2.58659
-0.739798
-0.851637
0.0524579
-0.369984
0.725278
-0.416008
-0.17753
0.362735
1.55452
1.62084
1.70077
-0.830399
2.21028
2.51436
-1.67569
0.929568
0.0258472
0.0800196
0.0673326
0.895748
-0.255328
-0.484279
-0.796169
2.80333
-0.599417
1.72253
1.51517
1.96957
1.10221
1.18121
-0.296634
0.0538314
0.817596
0.0395077
-2.10436
-1.80075
0.173487
-0.457729
1.84134
-0.477757
0.0775782
0.339713
-5.95088
-0.444379
-6.85936
1.34289
-0.163509
0.14307
0.745038
-0.584202
0.500849
-2.01281
0.0284175
1.62105
-0.595661
2.58797
0.0500331
2.77955
0.00516898
0.13197
0.301575
1.32261
1.27482
-2.86741
-0.0223363
-0.278353
0.277728
1.04333
3.10801
1.97642
0.478338
-0.465579
0.776821
-0.660242
1.70231
-0.236743
0.900108
-0.379656
-0.44222
-5.51827
0.455034
0.0654492
-5.86622
1.02318
0.943003
2.48167
2.68884
-7.47882
-2.2062
0.0920079
-1.24754
2.58791
0.283691
-0.643148
0.700498
1.10626
-0.322366
0.0435009
0.263669
0.0376346
1.34763
-0.300569
0.37582
0.179502
-0.833057
-2.41125
-0.336862
-2.54235
-2.10539
1.64872
-0.426056
-0.416731
-0.157274
-0.672064
2.84893
1.06832
1.41185
-0.173321
0.756753
0.0561408
0.596771
0.501863
-0.479732
-8.69906
2.57844
1.5989
0.0579187
-7.37881
2.96437
-0.464353
-7.10219
-0.37266
0.736885
-0.499989
-0.330537
2.23263
-0.0275461
1.37348
0.642092
-0.442271
-0.172263
0.172912
0.717079
-2.82464
0.0971275
0.485557
1.47278
-0.527601
-6.19113
0.19796
-0.254768
-1.48937
-1.26981
2.78142
1.0041
-0.64423
0.693253
0.454089
2.41906
0.834949
-10.0709
0.876931
1.89881
1.61286
-0.397249
1.33539
-0.286853
2.55597
0.0566916
1.53878
-0.594312
-0.377836
0.0627251
-0.401642
0.848599
0.561103
-11.0076
-0.515653
1.76378
-0.242913
0.00810139
2.09272
1.19632
2.03685
1.42366
-0.609397
0.0308437
0.134992
1.47774
0.0125275
1.85066
1.13384
2.53971
-0.469028
1.98144
0.681832
2.5809
-0.438387
-0.74886
2.63344
-0.466677
1.10186
-0.686773
2.24961
2.53676
1.63174
-2.50337
1.4978
1.93343
-0.360337
0.654841
-0.391324
2.06581
-0.462093
-0.293416
-2.9664
-3.70133
1.89943
0.680786
-3.64002
0.774326
2.53243
-0.796188
-0.203352
-4.51164
-0.838437
1.22973
-0.0453459
1.44389
1.4039
-3.90796
2.86343
0.0305934
2.14366
2.11479
0.162856
0.0259044
1.31659
-1.66017
-0.0943698
1.29811
1.11605
-0.445107
1.40875
-0.400045
2.29525
1.6281
0.565385
-0.1285
1.6493
-0.278346
0.920197
1.97663
0.376856
0.0490547
1.91741
1.59654
-0.528037
-5.97903
1.1131
1.67026
2.55469
-7.72258
2.704
2.7256
2.75496
-0.20755
1.86383
-0.608495
1.51128
2.00358
1.96005
1.65497
2.19524
3.03304
1.31445
-8.87315
0.0370207
-7.24765
3.00376
0.803211
-0.272274
-0.510644
1.40824
2.2256
1.44591
0.483893
-0.0119207
2.20746
-1.72317
1.5914
-0.510506
0.730154
0.0495051
0.376778
0.974567
-0.60781
-0.606364
-0.191093
-0.245081
-0.0400916
1.82792
-0.266497
0.299299
1.39802
-1.31982
0.880236
0.056372
-1.28742
-0.570131
-9.72631
2.10062
2.26761
-0.459343
0.671288
1.93145
1.77062
0.0399703
-0.53453
1.63459
-9.3943
2.0687
-1.23414
2.01428
0.949735
0.279834
1.87708
0.988643
1.96313
0.524003
0.737093
-0.355706
-5.72085
-1.49033
0.0678628
1.92658
-0.631935
-0.345966
-0.637248
2.17029
1.94163
0.551046
1.10303
2.1712
-1.95089
1.42427
0.136724
-0.439961
1.42067
-0.417571
-0.686878
-1.16268
-8.22141
-0.18495
-0.66932
0.132658
-2.20632
-6.39467
1.22605
2.59332
2.84302
2.45479
-0.625654
1.60877
-0.626864
1.39074
2.16692
0.263711
1.89272
-0.640597
0.512322
-0.395293
-0.000515131
2.05905
-1.10854
1.69068
-1.14221
-0.296343
-8.02004
1.73491
1.6783
1.51017
-0.648986
1.41497
-0.379989
-4.4666
-5.31167
0.459671
2.59848
-2.62679
-0.165965
-0.511239
1.47595
1.44104
0.0299119
0.966605
-0.823403
2.20302
2.02081
-0.335396
-0.222185
2.14403
-0.399292
-0.886081
0.0973963
1.96101
2.20603
-0.591173
1.033
-0.180114
2.54692
-2.74625
-0.373675
0.00314873
2.37963
0.0878428
-0.334348
-0.262764
2.04158
1.19322
2.02725
-0.0398819
-2.26005
1.65978
2.96528
-5.37811
1.32304
0.0547595
-3.87833
0.0595228
0.536416
-0.536169
1.00393
-0.42012
1.01497
-0.291107
-0.458859
1.85645
2.22139
1.407
-1.5378
-0.373521
1.72241
-0.82711
0.532916
-0.468135
0.735735
-1.89886
1.61859
1.72824
0.015983
1.61807
2.50449
-0.167081
1.19374
1.70793
-5.97454
0.936974
-0.406509
0.73061
0.493275
1.20152
0.00890334
0.49203
-0.117585
-3.51342
2.08677
0.552583
-0.160129
-0.400253
-0.0833591
1.567
-1.24094
2.74173
-0.559308
-10.0099
-0.292978
1.91121
1.68476
1.99349
-8.8837
2.40696
-0.834122
1.14921
0.263632
-1.56977
1.39611
0.673892
-0.159297
1.0138
-6.28422
1.263
-6.44169
-0.417052
0.0173814
-1.16427
-1.32666
1.3212
2.47513
0.17441
-0.617205
1.9179
-1.5504
2.24371
0.612437
0.128549
0.84598
1.51685
0.778484
-0.265359
0.270437
0.0817887
0.405558
0.571512
-1.51362
-0.500388
0.111373
0.830245
-0.21728
3.03051
1.60448
1.48934
2.26456
0.286029
1.68007
-0.638015
-7.2709
-0.453658
1.51032
2.94494
1.40072
-0.867916
2.09085
1.3884
1.41292
0.140147
0.0166247
0.783591
2.75353
0.224296
-0.465821
2.1045
2.13323
1.56369
1.48527
1.81932
1.05246
-0.405426
-0.535117
1.6388
-4.99119
-5.92158
1.49234
-0.482162
-0.160833
0.429323
1.61061
1.67098
1.7005
-0.11125
1.99091
2.03755
0.150644
1.78606
1.56224
1.31817
1.14034
0.970035
0.757685
0.0256773
1.90975
1.77097
-1.75717
1.34718
-0.12646
0.0809489
2.45388
1.84361
0.0157169
-0.617563
-0.373609
1.89747
1.04893
0.315937
0.0531064
0.307451
-0.292403
0.365434
-0.566263
-0.102765
1.06204
-0.143007
-0.936205
-0.706546
2.31008
-0.522943
-4.85371
-0.563595
2.48745
-0.253345
0.279988
0.335638
-3.33568
1.18219
1.41459
0.918204
2.17776
1.20206
0.112316
-9.56021
-0.609901
0.0419893
1.74172
-2.51001
-0.589853
-3.02355
-0.225885
-5.50837
-0.547402
-1.98059
-0.0940605
0.600686
1.48181
1.93699
-0.196187
0.100529
2.18729
1.66899
-0.596024
-0.227705
-8.06972
0.906757
0.262693
0.82433
1.27599
-0.252526
-0.252357
-0.26811
0.429844
-0.747173
-10.8127
0.241214
-0.538018
-9.39048
-3.23907
-0.594407
0.219269
-6.65924
0.7569
-0.56975
1.4854
1.33521
0.342039
1.93409
-0.647669
2.48492
-0.383187
0.167055
-1.14109
1.49114
0.903794
-5.88384
-7.16053
1.53376
1.81416
2.58103
-0.625624
-10.1519
-0.607636
-0.0476317
0.0121628
-0.624193
0.494134
-1.70709
0.867031
-0.611039
1.10723
0.166828
0.000163874
2.2554
1.32149
-1.16121
0.0624259
-1.42806
-9.56436
1.94806
2.84271
-5.19092
1.82102
1.4324
0.00744637
-0.464962
1.88398
1.80822
-2.09025
-0.246883
-0.471305
-0.647616
-1.09858
-1.07335
-1.04807
0.991516
-0.0270223
1.65439
-0.670156
-3.1531
1.4099
-1.02898
-3.11403
0.138466
1.14541
-3.82236
-0.53088
-3.48065
-0.543994
-2.50903
2.6198
-7.75132
-0.161366
-0.649783
1.63429
-7.58296
-0.227893
-1.59938
-0.996816
-0.380997
1.68924
0.0216649
-0.621521
1.30919
0.0202822
-0.330972
-1.46903
-0.834481
1.0427
1.21888
1.51818
-6.78251
2.23137
-0.259424
0.00741292
0.166334
-2.48316
-0.557733
-0.73038
-0.690802
0.262353
0.680555
0.138857
-0.265012
-0.746342
1.39255
-0.852812
1.5904
-1.17516
0.975882
-0.174272
-0.237376
-0.824778
3.03784
-0.481631
-4.59218
-3.9473
-0.601516
1.51077
0.119083
-1.21528
0.0856979
-3.0131
-0.618318
-6.15937
-0.962845
1.61834
-1.74509
0.30914
-3.60433
0.0545485
1.29915
0.153999
0.639219
-0.347342
1.95583
-7.39846
-0.458763
2.09638
0.58292
-7.1339
-0.258161
-1.25449
-0.679905
-0.288393
1.91405
-0.442186
0.656427
-8.97801
-1.21753
-1.33067
-1.62896
-6.09816
0.839582
-0.162216
1.4955
0.583433
-0.943591
-0.043967
-0.592767
1.84931
2.21256
-3.9267
0.100879
1.60226
1.49414
1.14643
-0.572032
-0.943273
-1.01963
1.50741
0.485354
-0.641333
-1.45522
0.830922
1.78294
-0.20052
-0.491109
0.128296
2.07199
-1.44255
-1.61581
0.0752157
1.30558
0.102944
-0.516409
2.24577
1.86245
0.123947
-0.617094
1.88934
0.770085
-0.0422542
1.35711
-0.251389
-0.752315
-1.15843
-0.622202
1.82606
1.58159
-0.0203932
-0.475009
-0.114906
-0.181678
1.62661
-0.613169
1.09067
1.97071
2.1116
-0.284924
1.51742
1.30293
1.64509
1.74698
-0.130222
1.75951
0.0121818
1.50955
0.830756
1.62845
-0.607664
1.88017
1.792
1.356
0.992275
-0.413969
1.04266
0.126214
-0.526511
2.01695
2.02389
-0.519504
1.83525
-0.622756
-5.09951
1.61531
1.62549
-1.36573
0.00618361
-9.56047
-0.583897
-1.36335
-0.437344
-1.31502
-0.350952
1.36289
2.75623
1.87486
-0.215543
-0.393698
1.58146
0.832639
-0.318878
-0.731642
-0.361628
-1.65528
-5.60325
-5.6091
1.43704
0.0976762
0.806598
0.053974
0.0493073
-0.353915
0.0388664
0.293852
0.745947
1.0279
-0.369445
0.63578
-1.85691
-0.777817
1.03692
0.853271
0.00182001
0.212025
1.00081
0.0422522
0.602646
-0.416776
1.49084
1.24225
2.37959
1.51176
-0.557492
-0.32306
-0.455721
-0.335913
0.0619732
0.0820972
-0.0573624
-0.522584
2.81561
0.193995
-0.234189
2.20798
-0.52509
-0.92829
-0.397452
-0.608811
-10.1835
0.386069
-1.15803
1.44277
-0.106524
-0.517224
-1.23466
-0.320375
-0.707658
-0.273875
0.203062
1.18572
-0.479575
-0.457087
-1.26219
0.581774
-0.680558
1.62367
2.26535
-0.326476
1.65025
0.840133
1.12172
2.51426
-0.550646
0.930728
0.768813
0.732951
2.13809
-0.437565
-0.0509969
-0.269482
1.59572
2.26191
-0.417776
0.0901194
-0.651263
-0.575263
0.799676
-0.444255
-1.55203
-0.362809
0.614407
-9.13941
0.40159
0.446637
1.32512
0.357822
-8.09836
0.183144
0.0711951
-0.123253
2.41794
2.72744
2.00617
2.91766
1.33341
1.08883
1.67414
1.44332
1.37271
-0.522394
1.53606
-0.282948
-5.92265
2.21746
-0.116988
-0.727662
2.61629
0.106027
-0.664019
0.834062
0.732372
1.83014
-3.42984
1.39667
2.42122
-0.537621
-5.11148
-1.44442
1.04783
-0.585693
1.91755
-0.0304238
1.83495
1.51087
-0.477047
1.75119