/*--------------------------------*- C++ -*----------------------------------*\
| =========                 |                                                 |
| \\      /  F ield         | OpenFOAM: The Open Source CFD Toolbox           |
|  \\    /   O peration     | Version:  2306                                  |
|   \\  /    A nd           | Website:  www.openfoam.com                      |
|    \\/     M anipulation  |                                                 |
\*---------------------------------------------------------------------------*/
FoamFile
{
    version     2.0;
    format      ascii;
    arch        "LSB;label=32;scalar=64";
    class       surfaceScalarField;
    location    "2.25";
    object      phi;
}
// * * * * * * * * * * * * * * * * * * * * * * * * * * * * * * * * * * * * * //

dimensions      [0 3 -1 0 0 0 0];

oriented        oriented;

internalField   nonuniform List<scalar> 
20045
(
0.258241
-0.293193
0.0349526
-0.551411
0.211006
0.340404
0.140937
0.851025
-0.991962
0.0867619
-0.114889
0.0281268
-0.443031
0.429048
0.013983
-0.250819
1.04826
-0.797438
-0.534505
0.230169
0.304335
0.0357905
0.228233
-0.264023
0.242787
0.223102
-0.465889
-0.382611
-0.0899813
0.472592
0.00922496
0.252505
-0.26173
1.05382
-0.551212
-0.502608
0.199613
-0.196708
-0.00290458
-0.642406
0.502962
0.139443
-0.16481
0.554413
-0.389603
-0.545024
0.162413
-0.0500605
0.194455
-0.144395
0.268931
-0.350046
0.0811151
-0.833353
1.21214
-0.378787
-0.377818
0.00532644
0.372491
0.227681
-0.215827
-0.011854
0.0712773
0.128335
-0.0872066
-0.464204
0.277121
0.32039
-0.597511
0.437566
0.0694023
-0.506969
-0.352172
0.629293
0.0600903
-0.0701028
0.0100125
-0.50119
1.00309
-0.501902
0.878238
0.105098
-0.983336
-0.972147
0.59226
0.379887
-0.0739043
-0.193218
0.267122
0.757178
-0.564187
-0.192991
-0.366443
0.639428
-0.272986
1.08411
-0.629189
-0.454922
-0.293858
0.329648
1.12636
-0.564379
-0.56198
0.724015
0.147355
-0.87137
-0.0323644
0.199687
-0.167323
-1.0662
0.420505
0.645697
0.319518
0.257875
-0.577393
0.0259121
0.214269
-0.240181
0.0704353
-0.102375
0.03194
1.07652
-1.07513
-0.00138622
0.74118
-0.253026
-0.488154
0.323738
0.417442
0.522153
0.531667
0.443103
-0.479941
0.036838
0.622583
0.291017
-0.9136
0.946719
-0.222704
0.050222
0.84128
-0.891502
0.656178
-1.1024
0.446224
0.958303
-0.709462
-0.248842
-0.442165
-0.515513
0.957678
-0.045106
-0.163849
0.208955
0.351539
-0.125431
-0.226108
-0.363672
-0.0793587
0.0695964
0.712526
-0.782123
0.865668
0.0395532
-0.905221
0.348118
-0.714561
1.06876
-0.74423
-0.324533
0.0133502
0.236818
-0.250168
0.400704
0.66806
0.495805
-0.814553
0.318748
0.196679
0.0310025
0.27075
0.159442
-0.430192
0.808913
0.153239
-0.962152
-0.0306315
0.11721
-0.0865787
-0.341563
0.0638576
0.277705
0.441983
-0.199196
0.959367
-0.974483
0.0151161
-0.0715748
0.0409433
0.0656816
0.285858
-0.142548
-0.519242
0.66179
0.185207
-0.109903
-0.0753042
0.910966
-0.13777
-0.773196
0.68953
-0.619933
-0.0466259
0.957592
0.235014
-0.399824
-0.258004
0.496961
-0.238958
0.368771
-0.659818
0.291047
0.516101
0.600982
-1.11708
0.454395
-0.371561
-0.0828341
0.674213
-0.178408
-1.0528
0.183852
0.868949
-0.00155629
0.259797
-0.242078
0.308451
-0.0663725
0.586827
-0.795938
0.209111
-0.800105
0.0292619
0.770843
0.516706
0.0887975
-0.605504
-0.451175
0.382112
0.0690626
-0.825974
-0.0245589
0.850532
0.381277
-0.0665349
-0.314742
0.209289
-0.310916
0.101627
-0.100033
-0.403675
0.503709
0.312911
-0.330484
0.0175722
0.740556
0.208471
-0.949027
0.0749097
-0.0148194
0.0124438
-0.154195
0.141751
0.629073
-0.309555
-0.107588
0.182632
-0.0750445
0.770973
0.355386
-0.269756
-0.37265
-0.189706
0.20215
-0.147894
1.01356
0.0282953
-0.270374
-0.153148
0.0455605
0.230629
0.606117
-0.836746
0.653617
-0.969759
0.316142
0.1851
-0.225774
0.196623
0.0291511
-0.107589
0.137543
-0.0299541
0.672019
-0.500452
-0.171567
-0.262147
0.217041
0.663651
-1.05596
0.392312
-0.107251
0.177416
-0.0701645
0.0243679
-0.133222
0.108854
0.572456
-0.13489
0.815784
0.268328
-0.59986
0.457311
0.692315
-1.02812
0.335804
0.346026
-0.0770954
0.228512
-0.215162
-0.40897
0.335072
0.0738986
-0.412586
0.0502263
-0.308849
0.258623
0.686787
0.271516
0.568853
-0.729701
0.160847
0.797513
0.0911465
-0.888659
-1.01152
0.795975
0.21554
-0.263071
-0.254818
0.51789
1.01349
-0.326704
-0.478123
-0.00181806
0.446312
-0.297652
-0.148659
0.00383691
-0.0197423
0.0159054
0.573061
0.398798
-0.971859
0.617385
-0.574307
-0.0430781
-0.169339
0.0792147
0.0901243
-0.161785
-0.0639883
1.1446
-0.45229
-0.340524
0.364214
-0.0236899
0.562546
-0.92349
0.360944
0.303734
-0.745898
0.502306
0.303778
-0.806084
0.710028
-0.341257
0.969672
-0.120967
-0.848705
0.0929915
-0.536231
0.44324
0.954336
-0.696183
-0.258153
-0.145602
0.220431
-0.074829
0.0270577
0.910874
-0.937931
1.06899
-0.19075
-0.826985
0.0295258
0.797459
-0.501045
0.434318
0.0667263
1.01281
-0.496713
0.148714
0.30568
-0.644899
0.770015
-0.125116
-0.679531
0.820468
0.0114108
-0.167466
0.156055
0.114109
-0.141368
0.0272594
-0.0164337
-0.199388
0.215822
0.863025
-0.0206418
-0.842383
1.2201
-0.581367
-0.638733
-0.234389
0.217956
0.540599
-0.866605
0.326006
0.0828971
-0.0124618
-0.857355
-0.512435
0.658936
-0.1465
-0.650691
0.517185
0.133505
-0.0100067
-0.0394372
0.0494439
0.32046
0.633876
-0.0221259
0.0259629
0.216284
0.230028
-0.697755
0.0528554
-0.736305
0.927043
-0.190738
-0.683534
0.772073
-0.0885391
-0.61105
-0.423119
1.03417
0.0497533
-0.28427
0.234517
0.409927
-0.485334
0.0754067
0.675823
0.140214
-0.816037
0.017024
-0.762544
0.74552
-0.432428
0.934734
0.207328
-0.561817
0.35449
-0.386331
1.04998
-0.837902
0.575667
0.262235
-0.0732041
0.0830078
-0.00980367
0.370596
-1.01654
0.645949
-0.81723
0.316039
-0.617315
-0.394543
0.925217
-0.597064
-0.328153
-0.283884
0.309796
0.133956
-0.141636
0.00767981
-0.764658
-0.21141
0.976068
-0.770724
1.08491
-0.314184
0.986323
-0.678097
-0.308226
0.0441766
-0.231143
0.186967
-0.224958
-0.534994
0.759952
-0.20582
0.215045
-0.436322
0.173251
-0.621921
-0.216111
0.838031
0.0961962
0.0266582
-0.122854
0.0642393
-0.576675
0.172287
-0.246191
0.85413
-0.0566173
-0.150701
0.118337
-0.142801
0.174159
-0.0313574
-0.146643
1.00967
-0.803902
0.578945
0.259094
0.0416797
-0.300773
-0.714027
0.150876
0.563151
0.349801
0.636523
1.06853
-0.69793
0.653526
-1.05554
0.402017
0.278597
-0.644593
0.365996
0.0492182
-0.427036
-0.482717
0.713346
0.651479
-0.902298
0.156282
-0.636643
0.480361
-1.05467
0.555701
0.49897
-0.0596313
-0.391544
0.184421
0.157059
-0.34148
0.61654
-0.117139
-0.499401
0.132572
-0.621566
0.648623
-0.266606
-0.073918
0.59818
0.879243
-0.847203
-0.0320404
-0.0118391
-0.138156
0.149995
0.668055
0.0627134
-0.730768
0.174542
0.138635
-0.313177
-0.00747048
0.573535
-0.566065
-0.249333
0.836161
0.584254
-0.376926
-0.0607395
0.179141
-0.118402
0.760163
-0.197617
0.0983156
-0.00796345
-0.0903521
0.183784
0.057499
-0.241283
-0.11188
0.115924
-0.0040445
0.932028
-0.629748
-0.30228
0.225956
-0.996679
-0.12218
0.0103007
-0.870213
0.259673
0.61054
0.888019
-0.248591
0.24953
-0.985835
1.22584
-0.584769
-0.641072
-0.0126398
0.108836
0.947425
-0.394128
-0.553297
-0.607264
0.124999
0.482265
-0.964083
0.961879
0.00220453
0.298503
-0.693469
0.394966
-0.0178562
0.0518931
-0.0340369
-0.481841
0.621552
-0.139711
0.0328343
-0.204989
0.172155
-0.162499
0.0552478
-0.125077
0.0174875
-0.676437
-0.293321
0.521847
-0.764326
0.242478
0.190945
-0.30155
0.110605
0.474036
0.283142
0.538234
-0.381952
0.0118958
0.102213
0.537102
0.350917
-0.50824
0.0282622
0.479978
0.30911
0.638315
0.40468
0.149733
0.284953
-0.0940074
-0.298342
-0.0221073
0.320449
0.0169206
-0.0901247
-0.613863
0.606393
-0.22386
0.305093
-0.0812334
-0.902836
0.861648
0.0411878
0.128333
0.414169
-0.542501
-0.184799
-0.138583
0.323382
0.768177
-0.83379
0.0656131
-0.606836
-0.447836
1.16268
-0.822635
-0.340041
-0.101204
0.089365
0.771578
-0.473075
-0.285449
0.807296
-0.0364446
-0.250793
0.287238
0.884849
-0.112531
-0.772319
0.971121
-0.175086
-0.796035
-0.327386
0.290941
0.844034
-0.492588
-0.351445
-0.161733
0.783404
-0.621671
0.392397
-0.571381
0.178985
-0.209703
-0.001179
0.210882
-0.0429079
0.0801836
-0.0372758
1.05285
-0.809725
-0.24313
-0.547983
-0.463532
0.730031
0.149212
-0.814032
-0.0888038
-0.0558561
0.23964
0.237767
-0.849631
0.611863
0.00409649
0.12986
-0.539856
1.11292
0.316931
0.615097
1.01945
-0.650634
-0.368817
-0.799288
0.583177
0.728439
-1.08477
0.35633
-0.627136
-0.0450485
0.672184
-0.246316
-0.18129
0.427606
0.819759
-0.27916
-0.0213024
0.280396
0.274938
-0.0639898
-0.500197
-0.707276
1.00911
-0.301831
-0.164157
0.0213556
-0.0706003
0.00986079
0.12577
-1.08985
0.616195
-0.865528
0.182061
-0.259752
0.370823
-0.111071
-0.00319093
0.0899528
-0.517135
0.34053
0.176605
0.393953
0.278066
-0.139447
0.364553
-0.225106
0.487565
0.12982
-0.62078
0.858547
0.581961
-0.0652548
-0.226215
-0.487811
0.975594
-0.654994
-0.320601
0.956268
-0.965147
0.349264
0.615883
0.805315
-0.874394
0.0690788
-0.454171
0.354138
-0.13272
-0.0366187
-0.198177
-0.627796
0.296019
-0.561599
0.26558
0.429023
0.41501
0.67302
-0.967513
0.294493
0.236457
-0.555348
0.318891
-0.968447
0.168342
0.0105861
0.370691
-0.699973
0.934454
-0.234482
-0.24184
0.321051
-0.0792105
-0.426024
-0.108481
-0.137475
-0.231602
0.369077
0.0964231
0.000551469
-0.0969746
-0.343056
-0.157989
0.362691
0.446661
-0.809353
0.903378
-0.594268
0.361731
-0.452191
-0.00198091
0.481061
-0.244605
-0.688839
-0.149062
-0.143928
0.19999
-0.0560618
0.975723
-0.35314
-0.471107
0.763633
-0.292527
-0.128603
0.153361
-0.0247583
0.725401
-0.108861
-0.297307
-0.552324
-0.513958
0.932317
-0.41836
0.630701
-0.992289
0.361588
0.443869
0.718808
-0.0722058
0.077721
-0.0055152
0.0895113
-0.716647
0.700917
-1.06055
0.359636
0.0395822
0.145625
-0.0778013
0.646655
-0.170489
0.786684
-0.357957
0.636553
0.177458
-1.01081
-0.91951
0.613807
0.305703
0.652119
-0.117081
-0.535038
0.934013
-0.165836
-0.416446
-0.53136
-0.48871
0.389703
0.504978
-0.510709
0.00573139
0.321015
-0.315689
-0.729272
0.65147
0.856159
0.220357
-0.800442
0.329335
0.875967
-0.145936
0.156316
-0.214725
0.0584087
-0.0375609
-0.575253
0.612814
-0.900508
0.166893
0.733615
0.731225
-0.731225
-0.315128
0.911385
-0.596257
0.284465
-0.423912
0.638886
-0.434922
-0.203965
-0.930356
0.962242
-0.0318864
0.353775
-0.0476119
-0.306163
0.276122
-0.100054
-0.176068
0.131035
-0.315834
0.0268545
0.546323
-0.831772
-0.815276
0.959967
-0.144691
-0.287964
0.650656
-0.263312
-0.0413087
0.304621
-0.141905
0.232283
-0.0903784
-0.376949
0.426167
0.940515
-0.736312
-0.204203
-0.0926767
-0.516225
0.608902
-0.25011
0.265241
-0.0151315
0.147697
-0.288346
0.140649
-1.0671
0.455199
0.6119
-0.0852106
-0.0296781
0.213349
-0.057033
-0.0139941
0.273135
-0.25914
0.424191
0.628664
-0.27859
0.0152782
-0.0919632
-0.259121
0.351084
-0.499824
0.79835
-0.298526
-0.00963789
0.0876237
-0.0779858
0.454253
-0.224083
0.77918
-0.0185813
-0.760598
0.0280076
-0.431683
-0.00205154
0.677875
0.437545
0.30361
-0.741155
0.481261
-0.407598
-0.0736633
-1.01187
0.184889
-0.421901
0.207916
0.213985
0.34738
0.498075
-0.845455
-0.630972
0.585924
0.0464744
-0.916288
0.869813
-0.146489
0.190665
-0.0700597
0.0773522
-0.00729251
0.0227897
-0.321131
-0.431006
0.273546
0.15746
-0.685946
-0.184266
0.623141
0.144685
0.083068
-0.227753
-0.141386
0.0127833
0.160521
-0.704807
0.544286
0.161585
0.537152
-0.698737
0.274583
-0.71533
0.854432
-0.139102
-0.718021
0.556288
-0.0515341
-0.0185687
-0.414192
-0.236499
-0.272726
0.0635643
0.209161
-0.861262
0.361438
0.662746
-0.755423
0.214697
0.66127
-0.313004
0.316493
-0.00348903
0.245361
-0.726833
0.481472
0.171554
-0.28271
0.111156
0.538343
-0.83565
-0.651178
-0.0323556
-0.330288
-0.0112749
-0.0628261
-0.0732562
0.136082
0.333679
0.0549321
-0.0606421
0.00571
0.789758
-0.442378
-0.765745
0.960937
-0.195192
0.259866
0.196283
-0.456149
-0.368626
0.222138
-0.237002
-0.0357233
0.300251
0.338636
-0.277036
-0.751083
-0.20894
0.0650116
0.607183
0.425053
0.156908
-0.800645
0.850867
0.031849
-0.408107
0.376258
-0.0832922
-0.829607
0.912899
0.0770265
-0.0801269
0.00310047
0.317813
-0.26806
-0.18054
0.572937
0.605229
-0.512237
-0.396047
-0.121087
-0.00440238
-0.414968
0.41937
0.39979
-1.01084
-0.0669351
-0.493557
0.560492
0.0349381
-0.175114
0.140176
-0.649653
0.0553329
0.59432
0.962452
-0.671435
-0.00969969
0.0953892
-0.0856895
-0.225332
-0.0247777
0.192009
0.356097
-0.548106
0.105098
-0.132675
0.0275772
0.66662
0.374039
-1.04066
-0.40222
1.14278
0.0913731
0.00505
-0.256081
-0.575342
0.831423
0.418961
0.725644
0.839262
-0.677677
-0.367757
0.230282
0.0797691
-0.122677
-0.306381
1.03482
0.123563
-0.757146
0.633583
0.944776
-0.135222
-0.809554
-0.387888
0.684018
-0.29613
0.394055
-0.256428
-0.507835
0.764263
-0.237848
0.272431
-0.0345834
-0.281383
-0.485445
0.766828
0.0802986
-0.222203
0.0476943
-0.057701
0.509011
-0.790393
-0.704586
-0.210312
0.914898
-0.0528126
-0.488044
0.540857
0.000682489
1.09444
-1.12017
0.0257329
0.219361
-0.131335
-0.0880263
0.00712784
-0.320132
0.255793
0.247915
-0.329171
0.0828543
-0.775543
0.980593
-0.20505
0.0335783
-0.257438
0.485206
0.224822
-0.846731
-0.228399
0.151757
-0.0453016
-0.106456
0.54167
-0.116617
-0.208255
0.229698
-0.0214428
-0.184103
0.216938
-1.1519
0.534582
0.895735
0.152522
-0.111636
0.259332
-0.216767
0.476632
0.823167
-0.276843
-0.216297
0.00804125
-0.103109
-0.626162
0.271048
0.22253
-0.211119
-0.912902
0.012394
-0.214723
0.220232
-0.0486779
-1.00732
0.626326
0.380996
0.809989
0.149378
0.206609
-0.0735805
-0.133028
0.289374
-0.271162
-0.0182114
-0.881448
0.317069
-1.03833
0.524368
-0.298012
0.239598
0.0584137
0.0114139
-0.0735051
0.0620911
1.04722
-0.0124184
-1.0348
0.153918
0.00861873
-0.162537
-0.137471
-0.271499
0.238709
-0.0294192
-0.068098
0.0691789
-0.00108089
0.402851
-0.061128
-0.341723
0.00947395
-0.077572
0.845401
-0.63693
-0.0274453
-0.153317
0.180762
-0.980092
0.204549
0.0129481
0.0439917
-0.233698
-0.155526
0.30021
0.0307652
-0.0188694
0.254697
0.159981
-0.414678
0.3992
-0.12845
0.388576
-0.356727
0.204459
-0.180091
0.0870646
-0.328905
0.711827
-0.193493
-0.518335
0.546865
-0.0510975
-0.495767
-0.457436
-0.0787953
0.173287
0.0326979
-0.205985
0.346672
-0.441176
0.0945038
1.10049
-0.0445174
-1.05597
0.173225
0.0337649
-0.20699
-0.492237
0.670579
-0.178343
0.463882
0.52822
-0.992102
-0.00340529
0.240223
-0.269524
0.443468
-0.173944
0.227909
0.0919895
-0.319899
-0.777495
0.390831
0.386664
0.0660165
0.00316246
-0.846944
0.142358
0.318396
-0.189353
-0.129043
0.453266
-0.605779
0.152513
-0.099472
-0.193721
0.156406
0.938031
0.819067
-0.136478
-0.68259
-0.832597
0.117267
0.328851
-0.555067
0.653628
-1.06329
0.409664
-0.109114
0.293535
0.00270395
-0.401133
0.309169
-0.168426
0.218652
-0.0965213
-0.780106
0.876627
0.391181
0.380397
-0.722722
0.759291
-0.0365681
0.0219548
-0.0847809
-0.6409
-0.237591
-0.121389
0.136177
-0.014788
0.149612
-0.332412
0.1828
0.0485064
0.0277778
-0.0762842
-0.103705
0.556971
-0.619778
-0.261876
0.881654
-0.754718
-0.249217
1.00394
0.469222
-0.37488
-0.0943426
-0.181557
0.0203384
0.161219
0.143248
-7.9803e-05
-0.143168
-0.960309
0.0398987
0.92041
0.0221197
0.199936
-0.222056
0.792453
-0.888814
0.096361
-0.481127
0.344475
0.181464
-0.525939
0.0135967
-0.134986
-0.272604
-0.307423
0.580027
0.627963
-1.01429
-0.94863
0.827107
0.121523
0.122037
-0.0169394
0.710615
-0.225409
-0.0779714
-0.212743
0.290714
-0.00907624
0.133121
-0.124045
-0.260596
0.804011
-0.543415
0.857191
-0.692497
-0.164694
1.02683
-0.973552
-0.0532823
0.780274
-0.377032
-0.403243
0.0398259
-0.234752
0.194926
-0.300597
-0.00825244
-0.962083
0.838685
0.123398
0.0525564
-1.01464
-0.126235
0.699062
-0.572827
-0.537078
-0.272647
0.204579
-0.170571
-0.0340084
-0.784215
-0.195876
-0.192939
0.133193
0.0597462
0.28381
-0.109268
-0.892817
0.853611
0.0392061
-0.214828
0.0749363
-0.18484
0.166259
-0.0123409
-0.591553
0.109712
0.151581
-0.172686
0.0211045
-0.358175
0.367019
-0.0088446
0.371
-0.0172244
-0.259329
0.539169
0.186233
0.368526
-0.0368052
0.342225
-0.305419
-0.148701
0.558629
-0.624726
0.394549
0.230177
0.0673152
-0.00129877
0.772905
-0.381724
0.596801
-0.35144
-0.191785
-0.202778
0.394563
0.253638
-0.734558
0.48092
0.553341
-0.606153
0.989172
-0.434841
-0.554331
-0.00405973
-0.520241
-0.104485
-0.731322
0.998365
-0.267043
-0.0414376
-0.24554
0.899067
-1.04505
0.260837
-0.22694
0.0172377
-0.144804
-0.00139109
0.119103
-0.00317853
-0.490815
-0.517925
1.12991
-0.440383
0.187637
-0.259391
0.0717537
0.0543965
0.221725
-0.663832
-0.355112
1.01894
0.474036
0.345723
-0.00644376
-0.147847
0.15429
0.823072
0.108534
0.010555
-0.119089
0.541467
0.17036
-0.362897
-0.987447
0.172171
-0.216653
0.00997549
0.206678
0.560399
0.665442
0.228081
0.113258
-0.341339
0.9675
0.0593346
0.589917
-0.834978
0.245062
-0.838069
-0.00141054
0.83948
-0.792975
1.01104
-0.218064
0.144742
-0.00739438
-0.137347
-0.370478
0.998441
0.0606401
0.269132
-0.329772
0.0308699
-0.753592
0.241537
-0.0072506
-0.234286
-0.89491
1.14488
-0.249973
-0.247735
0.552663
-0.304928
1.1619
-0.511635
-0.650262
0.0110602
-0.602715
0.591655
0.0718804
0.00547182
-0.425289
0.88917
0.562112
-0.87724
0.954283
-0.323582
-0.187991
0.160546
-0.866951
0.0288814
1.02117
-0.348145
-0.0123083
-1.04049
0.237275
-0.0230054
0.261432
0.572712
-0.834145
0.553745
-0.137656
-0.416089
0.627285
-0.968013
0.340728
-0.133894
0.00990527
0.123989
-0.209564
-0.471997
0.681561
0.360158
-0.273093
-0.274552
0.0067306
0.267821
0.164945
0.248374
-0.413319
0.0775931
0.126986
-0.854778
0.994752
-0.139974
0.0711404
0.0058861
0.437987
0.212896
-0.650882
0.395908
0.370728
-0.766635
0.16594
0.486179
-0.0230401
0.992712
9.8079e-05
0.784936
-0.785034
-0.00156879
-0.00806911
0.0583599
0.0196203
-0.0779802
0.64228
-0.536411
-0.105869
0.443425
0.545747
0.251574
-0.158522
-0.0930516
-0.279178
0.809313
-0.530135
0.00443932
0.170213
-0.174652
0.26645
-0.666092
0.399642
-0.454892
-0.161356
0.616248
0.76181
-0.0937552
0.285483
0.268262
-0.0472989
-0.385732
0.433031
0.290911
-0.807136
0.0404138
0.215596
-0.25601
0.191007
-0.0629272
-0.12808
0.00383875
0.0680417
-0.0529717
0.715765
-0.662793
-0.0988574
0.940138
0.77573
-0.631276
-0.144454
0.632936
-0.544138
-0.530761
0.195582
0.335178
-0.032441
-0.402481
-0.21235
0.173123
0.0392275
0.0671493
0.13946
0.135722
0.736926
-0.872648
0.214479
0.188372
0.132767
-0.887485
-0.444492
0.176445
0.268048
-0.322474
-0.244504
0.566978
0.486217
-0.23152
-0.83341
0.545445
0.356529
-0.304277
-0.0522521
-0.553807
0.801191
-0.247384
-0.427734
0.455741
-0.449528
0.580847
-0.131319
-0.695549
0.962311
-0.266762
-0.02169
0.206187
-0.184497
0.121505
-0.110091
-0.370193
-0.644661
0.984954
-0.340293
-0.531905
0.68278
0.502473
-0.522211
0.0197389
-0.0558878
-0.222145
0.278033
-1.01179
0.712577
0.299209
0.00428439
-0.0673182
0.0630338
-0.0156718
0.533084
-0.79368
0.67423
-0.420592
-0.285233
-0.634277
-0.698649
0.698747
0.4824
0.0347857
0.327896
0.180874
-0.50877
-0.333091
0.312405
0.0206867
0.323871
-0.28917
-0.0347011
0.169008
-0.422798
0.25379
-0.257701
0.399539
-0.141837
-0.751204
-0.160718
0.911922
0.205064
-0.260952
0.456286
0.185994
-0.962742
0.710276
0.252466
0.243683
0.0561729
-0.299856
0.00364898
0.190263
-0.239363
0.0491006
-0.648138
-0.272349
0.441356
0.138298
0.203922
-0.164096
0.298811
-0.149199
0.230471
-0.485289
0.0338623
0.279049
0.0483492
-0.388109
0.339759
-0.552163
-0.438561
0.990724
0.211473
-0.258772
-0.520555
-0.0584988
0.579053
0.132891
0.181782
-0.314673
0.0137263
1.12825
-0.742929
-0.385317
0.167764
0.651303
0.0106062
0.423559
-0.360009
-0.0635505
-0.268169
0.652825
-0.384656
-0.569458
-0.203187
0.772644
-0.455753
0.186229
-0.380757
-0.150003
1.03555
-0.443865
-0.591682
-0.248648
0.0249762
0.223671
0.36333
0.0727673
-0.436097
-0.173799
0.195919
-0.117127
0.412829
-0.295701
-0.0578669
-0.0221353
-0.212254
-0.00739862
0.571546
0.464002
-0.498962
0.919467
-0.261077
0.853337
-0.251967
0.00331971
-0.82
0.250542
0.710648
-0.621137
-0.115346
-0.628052
0.135815
0.529391
-0.655626
0.665671
-0.703232
0.821913
-0.0165983
-0.19094
-0.119976
-0.247348
-0.101678
0.349026
-0.300612
-0.0298714
0.720224
0.12533
-0.845553
0.00508205
-0.246784
0.241702
0.00472477
0.366245
-0.977329
0.611084
0.847767
-0.0553136
-0.888256
0.912676
-0.0244198
0.209233
-0.145376
-0.908655
-0.103131
-0.325319
0.858675
-0.0199909
0.26936
1.03279
-0.407439
-0.62535
-0.586293
-0.0654637
0.651756
0.0613138
0.495698
-0.557012
-0.676397
0.0267444
-0.191145
-0.111621
0.302766
-0.472857
0.59642
0.144842
0.503125
-0.647967
-0.500958
-0.0366481
0.537606
-0.880384
0.0733368
0.807047
0.140185
0.534045
-0.230782
0.479736
0.300539
-0.261867
-0.160035
0.706708
-0.827675
0.0868459
-0.362354
0.275508
-0.271151
0.267745
0.677466
0.0304038
-0.707869
0.601765
-0.862842
-0.00222135
-0.0156348
-0.245265
0.647076
-0.40181
-0.565531
0.292927
-0.0150376
0.276025
-0.260987
0.217801
-0.0460024
-0.171798
0.248725
0.0690885
-0.259816
0.588667
-0.0515983
-0.246413
-0.15398
0.167577
0.359543
-0.220908
0.116878
-0.0649845
-0.185773
0.179057
0.00671507
0.205777
-0.227695
0.021918
-0.706836
0.569066
0.0917679
-0.612322
-0.0133988
-0.270486
0.0142705
0.543048
-0.557318
0.320524
-0.342631
0.336107
-0.702187
0.36608
-0.441616
0.716919
-0.275303
0.261889
-0.969165
0.0961738
-0.0275975
-0.921032
0.425643
0.70427
-0.720373
-0.113037
-0.658012
-0.307135
-0.410428
0.178825
-0.0853036
0.0183634
0.0669402
1.10529
-0.544892
0.925725
-0.224809
-0.223342
-0.15885
0.382192
-0.937473
0.366477
0.570997
0.280179
-0.0276747
-0.162007
0.506482
0.161008
-0.0897306
-0.257399
0.299447
-0.238807
-0.0983533
0.296825
-0.198472
-0.102891
0.823115
0.183978
-0.242885
0.0589066
0.887608
-1.15742
0.546135
0.611286
0.228451
0.203694
-0.432145
0.586133
-0.530801
-0.0553323
-0.518349
0.270613
-0.27688
-0.0165197
0.379849
0.884698
-0.96799
0.401682
-0.173773
-0.382001
0.672912
-1.01928
0.729587
0.289698
0.299962
-0.699867
0.399904
-0.679456
0.724053
-0.0445969
0.371022
-0.519724
0.0139145
0.202194
0.267028
-0.0447588
-0.615059
0.208412
-0.916286
0.357
0.559286
0.241567
-0.82786
0.732071
-0.0312094
-0.576054
0.126935
0.324605
1.00978
-0.332805
-0.676973
-0.284365
0.257882
-0.580356
0.15602
-0.922426
0.856962
-0.642739
0.386311
0.454186
-0.800593
0.624219
0.176374
-0.927408
0.608955
0.318453
-0.34275
-0.122212
0.15715
-0.958289
0.679914
0.278374
0.609352
-0.979831
-0.836607
-0.0181712
1.05982
-0.406188
0.790498
-0.279801
-0.510697
-0.0211844
-0.133284
0.154468
0.112819
0.481455
0.527061
-0.697136
-0.103457
0.154131
0.206026
0.210379
0.34786
-0.558239
0.373484
-0.216426
-0.0553236
-0.967616
1.02294
-0.34283
0.349496
-0.781923
-0.571342
-0.382983
0.954324
0.24535
-0.311885
-0.659814
0.212918
0.446896
-0.00566235
0.0218696
-0.0162073
0.82947
-0.925991
0.402955
-0.64822
0.48019
0.194322
-0.674513
0.25777
-0.0701327
-0.788338
0.228875
0.559462
-0.644106
0.189214
0.380284
-0.648453
0.395026
-0.30818
-0.0029464
-0.00271595
-0.0421641
0.98694
-0.587652
0.730922
-0.14327
0.955918
-0.00184471
-0.954074
-0.724532
-0.000456796
-0.259295
0.053787
0.677438
0.124666
0.0286944
0.0820438
-0.0433368
0.327802
0.496552
0.0746008
0.24927
-0.837404
-0.0554129
-0.877965
0.427135
-0.821262
0.173561
0.178954
-0.352515
0.868563
0.0436763
-0.912239
-0.103202
0.0958079
-0.328559
-0.709767
-0.765266
-0.109128
-0.28935
0.891115
-0.317033
0.446469
-0.129436
-0.824774
0.272611
-0.274993
0.485372
-0.40672
-0.600602
-0.240393
-0.272866
0.348273
-0.449995
0.0918201
1.006
-0.147321
0.604603
-0.518924
-0.0856787
0.08535
0.0937912
0.253827
0.988174
-0.9417
-0.00576793
-0.21357
0.315197
-0.471919
0.500181
-0.440109
-0.514809
0.204073
0.172678
-0.376751
-0.771052
0.0398265
-0.110103
0.730034
-0.61993
-0.103522
-0.784734
-0.667339
0.730052
1.11581
-0.484291
-0.631515
-0.100906
0.308821
0.832414
-0.400215
-0.432199
0.255007
-0.277142
0.0884242
-0.0300643
-0.181587
0.021311
0.160276
-0.163658
0.491554
-0.388119
0.997472
-0.0194223
-0.151148
-0.259676
-0.0869957
0.346672
-0.00513626
0.834606
0.226615
0.11417
-0.340785
-0.35717
0.549179
0.400595
0.408718
-0.342672
-0.10182
0.499369
-0.177958
-0.32141
-0.0231338
-0.0074382
0.030572
0.0575345
-0.704496
0.646961
-0.888259
0.122993
0.209282
-0.407389
0.834524
-0.00407617
0.259083
0.129297
-0.44633
-0.992513
0.503804
-0.886933
0.305566
-0.432876
0.0559266
-0.377212
-0.555534
0.932746
-0.962493
-0.0365972
-0.124014
0.160611
0.786993
-0.603141
0.625763
-0.56445
0.154411
0.500236
-0.654646
0.169988
-0.361133
-0.674481
-0.261329
0.935811
-0.117863
0.30523
-0.187367
-0.410444
0.768777
-0.358333
0.823957
-0.568583
-0.255374
0.819833
0.0237533
-0.843586
-0.461147
-0.696274
-0.303536
-0.0267523
0.369925
0.643566
-0.0103044
0.0919962
-0.0816919
-0.625582
-0.162756
0.643796
0.568344
-0.504077
0.613907
-0.109831
0.15999
-0.149435
0.159718
0.388204
-0.547922
-0.0523788
0.236357
-0.100629
-0.85766
-0.906351
0.393353
-0.036824
-0.144632
0.316918
0.0702142
0.695212
-0.765426
-0.489686
-0.101867
0.622728
0.28065
0.0668936
-0.228679
0.461591
-0.566049
0.104458
0.0909524
-0.351761
0.260809
0.568845
-0.154676
0.253373
0.790182
-0.361159
0.837787
-0.488292
-0.112647
-0.234977
0.347624
0.710356
0.073048
0.0194585
-0.639959
0.430395
0.601011
-0.606147
-0.421049
-0.373808
0.794857
-0.542026
-0.395447
-0.900014
0.928114
-0.0281006
-0.104331
-0.355827
0.254148
0.53477
0.255413
0.0741291
-0.292959
0.21883
-0.315702
-0.658781
-0.184589
-0.703659
0.888247
0.846996
-0.37296
-0.244404
0.284818
0.541208
-0.869768
0.425162
-0.35576
-0.399386
0.94108
-0.541694
0.362461
0.462204
0.301928
-0.764132
0.931648
-0.582334
-0.349314
-0.330925
-0.677147
0.957762
-0.280615
0.532682
0.0719205
-0.270496
0.26642
0.401906
0.75999
-0.199276
0.178091
0.0520088
0.00292322
0.902681
-0.503883
0.432472
0.672818
-0.388549
0.208611
0.179938
0.238103
-0.429889
0.711908
-0.0344426
0.55604
0.234458
-0.648365
-0.0569904
0.705355
0.177603
-0.0239786
-0.153625
0.142966
0.0763953
0.127399
-0.920374
-0.266237
0.289027
0.667709
-0.586101
-0.0816088
0.146414
0.352955
-0.144844
0.0712634
0.228617
0.227199
-0.455816
-0.410311
0.758429
-0.0437943
-0.421959
0.99495
-0.572991
-0.240108
0.405053
-0.0118226
-0.489136
1.04196
-0.485086
-0.328946
0.547041
0.0390919
0.281158
-0.294557
-0.149566
0.127876
-0.271346
-0.133563
-0.00782269
0.443873
-0.13966
0.760984
-0.621324
-0.263082
0.249088
-0.316178
0.103436
-0.309775
0.00623856
-0.87129
0.615209
0.216431
0.227037
0.0948207
-0.326466
0.231645
0.233945
0.0745061
0.755444
0.426284
-1.18173
-0.0997606
-0.0146295
0.11439
-0.0228701
-0.742875
0.735692
0.380115
0.732852
-0.662638
-0.983529
-0.035715
0.0652904
0.0714746
0.429784
0.592037
0.290236
-0.882273
0.349295
-0.0287711
-0.0255902
-0.296288
-0.0922615
-0.54247
-0.471803
0.439362
0.322892
0.638044
0.54437
-0.527204
-0.0171657
0.171265
0.00779241
-0.0687076
0.235004
-0.0292275
0.718856
0.188925
-0.907782
-0.376504
0.278151
-0.214769
0.133056
0.0817138
-0.322778
0.00369799
0.31908
0.411857
0.321923
-0.73378
0.217697
0.26852
0.647206
-0.0129236
-0.249223
0.340319
-0.383655
-0.0776419
0.107766
-0.0301239
-0.907661
0.513118
0.785938
-0.622263
-0.163675
0.0120758
-0.124699
0.112624
0.817779
-0.870751
0.901645
-0.0546494
0.184783
0.440981
-0.125721
-0.00784237
0.372023
-0.279419
-0.0926035
-0.499299
-0.111166
1.00369
-0.513628
-0.490058
0.825772
-0.383537
-0.442234
0.377192
-0.651457
0.274265
0.0319996
0.486429
-0.00536747
-0.0747496
0.466824
-0.392074
0.124082
0.24794
-0.340014
-0.211304
-0.031581
0.736592
-0.00474835
-0.731843
-0.36613
0.259671
-0.211322
-0.211831
0.0533082
0.0995793
0.547496
-0.126968
0.175475
-0.0054558
0.00836062
-0.109988
0.138283
-0.352889
0.5073
0.0132656
0.209264
-0.0491181
-0.270142
0.744178
-0.00998534
0.554355
-0.130016
-0.110065
-0.225657
0.454274
-0.190308
0.728922
-0.538613
-0.742544
-0.1044
-0.335859
0.711603
-0.375744
0.0494041
-0.260708
0.288327
-0.0600945
-0.0198785
-0.217818
0.237696
-0.744973
0.259886
0.111716
-0.121416
0.430873
-1.0947
0.292353
-0.867694
-0.235733
0.556123
-0.303968
0.467744
-0.240544
0.013045
-0.594727
0.652261
0.00159845
-0.139754
0.106037
-0.480917
-0.0903871
-0.548186
0.638573
0.273176
0.268999
1.10581
-0.72192
-0.383892
-0.206354
0.0593695
0.192791
0.0205492
-0.21334
-0.72048
0.132828
0.175674
0.0153328
-0.00420902
-0.115348
0.119557
0.40852
-0.744379
0.0805274
0.400572
0.0420473
-0.44262
-0.812016
0.621708
0.12709
0.0353031
-0.162393
0.330995
-0.975656
-0.13262
0.00103167
0.131588
0.162754
-0.0356648
-0.000341338
0.655182
-0.489241
0.545437
0.454165
-0.236468
-0.809712
0.23837
-0.606598
0.494754
0.111845
0.370418
-0.791467
-0.444548
-0.277529
0.722077
0.0735753
0.360743
-0.272692
0.22508
0.968134
-0.119307
-0.848827
-0.00166898
-0.835735
0.746508
0.0733252
0.453036
0.379378
-0.147182
-0.000664328
0.127748
-0.259912
-0.301688
0.0107384
-0.0905754
0.079837
0.0299586
-0.752953
0.722994
-0.0451835
0.256745
-0.211561
0.267139
-0.827508
0.560369
-0.0824437
-0.491863
-0.0253958
-0.0499037
0.600545
-0.301729
-0.181221
0.482949
-0.333731
-0.352215
0.401771
-0.229092
-0.228029
0.0193749
0.208654
-0.238556
0.333377
-0.85907
-0.110411
-0.0440145
0.154425
0.115772
0.281908
-0.39768
0.601999
-0.887417
0.285417
0.0406381
-0.504842
0.132444
-1.02735
-0.451038
-0.549902
1.00094
-0.84515
0.0313864
0.813764
-1.06286
-0.704986
0.02553
-0.245226
0.252854
-0.00762834
-0.886414
-0.306269
1.02513
0.337494
-0.177513
0.073218
-0.298875
-0.154993
0.423513
0.136205
0.088344
-0.34802
0.0136037
-0.105866
0.0922626
-0.186777
0.0411748
-0.0718351
0.0839109
-0.241202
0.469653
-0.970039
0.61482
0.355219
-0.312147
0.290844
0.527547
0.187168
-0.00956427
-0.229582
0.303711
-0.421419
-0.238395
-0.486377
0.179141
0.307236
-0.0249582
-0.166938
0.191896
-0.359622
0.450574
-0.079364
0.642515
0.53916
-0.312545
0.465614
-0.799346
0.402515
-0.509834
0.10732
0.100841
-0.00545219
0.0782062
-0.000485207
-0.932659
0.555447
0.403732
0.42204
0.0140792
-0.173215
0.159135
-1.13675
0.457219
-0.183218
0.240717
-0.172214
-0.0137678
-0.199
0.212768
-0.502021
0.200292
-0.910461
0.809832
0.762861
-0.282671
-0.161956
0.145305
0.0166515
0.131603
-0.176905
-0.136829
-0.988831
0.394862
0.593969
-0.129287
0.114657
-0.0629751
0.257046
-0.194071
0.769915
0.131731
-0.00891629
0.198773
-0.189857
-0.231622
0.244888
0.0810611
-0.0414789
0.649221
-0.808079