/*--------------------------------*- C++ -*----------------------------------*\
| =========                 |                                                 |
| \\      /  F ield         | OpenFOAM: The Open Source CFD Toolbox           |
|  \\    /   O peration     | Version:  2306                                  |
|   \\  /    A nd           | Website:  www.openfoam.com                      |
|    \\/     M anipulation  |                                                 |
\*---------------------------------------------------------------------------*/
FoamFile
{
    version     2.0;
    format      ascii;
    arch        "LSB;label=32;scalar=64";
    class       volVectorField;
    location    "2.6";
    object      U;
}
// * * * * * * * * * * * * * * * * * * * * * * * * * * * * * * * * * * * * * //

dimensions      [0 1 -1 0 0 0 0];

internalField   nonuniform List<vector> 
5098
(
(2.60414 0.7511 0)
(2.20321 0.0297009 -2.45147e-20)
(2.097 0.0625545 -2.71093e-21)
(1.62172 -0.732586 7.07791e-19)
(1.819 -0.337077 0)
(0.94371 -0.457669 0)
(2.2789 0.00655737 2.93166e-20)
(2.13041 -0.189451 6.8593e-22)
(2.33414 0.0177335 -5.2813e-20)
(2.47138 -0.378887 -5.50709e-20)
(1.55566 -0.749897 0)
(2.35112 -0.0773336 1.65678e-19)
(2.57131 -0.418099 -7.75187e-21)
(1.0103 -0.495918 0)
(1.92524 -0.0753933 3.45289e-20)
(2.00405 -0.0269139 1.25199e-21)
(1.25417 -0.656687 -7.18971e-20)
(1.52885 -0.753538 0)
(-0.612973 -0.138021 5.73106e-19)
(1.13098 -0.587093 8.1163e-20)
(1.87682 0.483368 -7.10413e-20)
(1.92924 0.0290595 3.34202e-21)
(2.17769 -0.83852 0)
(0.874419 -0.0664389 2.71269e-20)
(0.838707 -0.394232 0)
(1.55945 -0.634805 0)
(1.96061 -0.0340625 1.19428e-19)
(1.92769 -0.819935 1.84751e-19)
(-0.29534 0.244269 -1.73164e-18)
(1.80089 -0.787898 0)
(2.43557 -0.141271 -9.81759e-20)
(0.783421 -0.38296 0)
(1.90987 0.144412 -1.2854e-19)
(1.42774 -0.74249 0)
(2.42 0.161537 -3.48085e-20)
(3.10467 -0.451988 1.12992e-18)
(1.92515 -0.474682 1.37476e-19)
(2.00895 0.0292309 -3.43859e-21)
(1.41375 -0.492813 5.19094e-19)
(1.47173 -0.681252 0)
(1.63099 -0.745498 -3.32899e-19)
(1.69744 -1.19148 -2.15296e-19)
(1.57648 -0.641998 0)
(2.45867 0.288146 5.02089e-20)
(2.44273 0.482643 4.20228e-20)
(2.08506 0.0654112 6.86622e-21)
(1.32861 -0.677874 2.69026e-20)
(1.18046 -0.411594 0)
(2.44948 -0.139154 0)
(1.6251 -0.698714 7.54725e-20)
(2.29372 0.0889599 4.77203e-20)
(1.69176 0.351948 -4.33382e-19)
(-0.246217 -0.0382875 -1.20733e-20)
(2.10147 -0.0981071 1.6631e-19)
(1.0089 -0.505976 -3.15667e-19)
(1.61861 0.053508 0)
(1.86204 0.30135 -2.34794e-19)
(1.72441 -0.715986 0)
(0.92726 -0.458432 0)
(1.94587 0.0590914 2.39228e-22)
(1.81791 0.208593 -2.63282e-20)
(0.656289 -0.325163 -8.98652e-20)
(2.47014 0.236687 0)
(2.55372 -0.421778 0)
(-0.313044 -0.155762 5.18006e-19)
(0.872957 -0.439931 3.953e-19)
(1.9847 0.00521087 7.13665e-21)
(2.24225 0.0955484 8.71297e-21)
(2.14961 -0.251468 1.66675e-19)
(1.76254 -0.748001 2.20386e-19)
(1.9112 0.223421 1.63652e-20)
(1.0748 -0.200936 -1.66151e-20)
(2.00089 -0.831931 0)
(1.47425 -0.677437 0)
(1.89967 0.0850769 -1.22828e-20)
(1.18688 -0.581477 -3.61477e-19)
(1.95019 0.0964263 0)
(1.57989 0.140461 4.0382e-19)
(2.71513 0.0939605 1.58524e-20)
(1.66969 0.154081 0)
(1.7757 -0.0327534 0)
(2.31824 -1.21166 2.26205e-19)
(1.7439 -0.338137 4.86564e-19)
(1.49917 -0.73758 -1.10678e-20)
(1.49274 -0.764002 4.84245e-20)
(1.62958 -0.716231 1.65812e-19)
(0.189343 0.144447 -2.51455e-19)
(1.96983 0.0194377 2.10151e-21)
(2.37735 -0.195534 3.40875e-20)
(1.83492 0.300415 -1.99485e-20)
(2.33702 -0.251639 -7.13655e-21)
(-2.43163 1.26432 1.19234e-18)
(2.37203 -0.0977601 -2.00957e-19)
(1.64175 -0.717714 -3.77451e-19)
(1.40121 -0.51931 9.15509e-20)
(0.792884 -0.687828 1.63139e-19)
(1.10563 -0.554065 -3.0264e-19)
(1.58763 0.200716 2.9872e-19)
(1.81434 0.142071 -8.62765e-21)
(2.10051 -0.506404 -1.12173e-19)
(1.72522 -0.616084 -3.94985e-20)
(1.06725 -0.526996 -3.74704e-19)
(0.0155694 -0.0621535 -2.12914e-20)
(2.08216 0.0857144 -2.13781e-20)
(1.60201 0.111565 -4.59002e-19)
(2.42332 0.933482 0)
(1.91097 0.276821 2.47443e-19)
(2.07451 0.05477 1.41356e-20)
(1.12342 -0.458625 7.08013e-20)
(1.56706 -0.758018 0)
(1.11055 -0.534589 -8.11937e-19)
(2.26567 0.691766 8.37749e-19)
(1.92511 0.000157448 -2.44554e-19)
(-2.03489 0.385165 2.05955e-19)
(1.87307 0.562096 1.00797e-19)
(0.0497683 0.109232 0)
(2.20081 -1.12169 3.58047e-19)
(2.78292 1.15891 0)
(1.99567 0.0839835 1.96229e-20)
(0.91375 -0.111884 -4.16902e-19)
(1.73966 0.331412 3.559e-19)
(1.6666 1.75082 -1.16138e-19)
(2.46832 -0.359378 3.84487e-20)
(1.41011 -1.5691 -2.11915e-19)
(-2.12152 0.873004 -1.90715e-18)
(0.626063 -0.318018 8.97551e-21)
(2.16598 -0.13894 1.43171e-19)
(2.15941 -0.803445 -2.13861e-19)
(1.41994 -0.190282 -1.09228e-19)
(-2.13984 0.556435 -4.62328e-19)
(1.12955 -0.979521 -1.08381e-19)
(1.21528 -0.544563 -5.21696e-19)
(1.24255 -0.543632 4.36812e-19)
(2.65996 1.2267 -1.30282e-19)
(1.56999 -0.576347 -1.0968e-19)
(2.15416 -0.517102 1.53806e-19)
(2.0935 2.22687 4.74036e-19)
(1.91243 0.269863 1.68728e-19)
(0.931297 -0.45934 0)
(2.10264 -0.0711226 -5.29229e-19)
(1.60651 0.460173 -2.8889e-19)
(1.40335 -0.341547 4.9199e-20)
(1.84158 -0.837137 3.51599e-19)
(2.27807 0.072889 -1.47221e-20)
(2.01611 0.00470412 -4.48731e-20)
(2.0465 0.0848306 0)
(2.15235 -0.266524 1.71496e-19)
(1.74092 -0.33831 0)
(2.4551 -0.145546 2.48104e-19)
(1.73206 -0.792693 1.30871e-19)
(1.88772 -0.942961 -1.05877e-19)
(2.8971 0.507685 0)
(1.74568 -0.366926 3.32319e-20)
(2.00263 -0.0187895 0)
(0.175561 0.0697047 -3.13381e-19)
(0.903019 -0.361397 -1.7312e-19)
(1.72514 -0.705814 -3.95473e-19)
(1.71754 -0.59919 -2.7238e-20)
(1.57566 -0.737599 -2.72555e-19)
(-0.186865 -0.0543977 1.76603e-18)
(2.0155 -0.4487 -3.7199e-19)
(1.91557 -0.0999599 -4.69033e-20)
(2.69836 0.463445 -5.2654e-19)
(1.81929 -0.186874 -3.01578e-19)
(1.48287 -0.713173 -4.62425e-20)
(2.50508 -0.0616807 -9.0579e-20)
(1.80549 -0.344268 -1.17995e-19)
(2.42532 -0.58223 0)
(1.07751 -0.515878 5.6959e-20)
(1.75541 -0.59592 -4.32763e-19)
(0.712007 -0.541369 -1.15919e-19)
(1.6317 -0.670887 -2.57273e-19)
(2.16949 0.548999 8.99536e-20)
(1.92059 -0.791375 3.29841e-19)
(2.43248 -0.0113682 0)
(1.93484 0.0235239 0)
(1.79648 -0.329184 -1.87788e-19)
(3.00903 -0.399334 -5.78099e-20)
(1.79108 -0.1839 4.17928e-19)
(0.370262 0.00713313 0)
(2.01735 2.36086 0)
(2.23077 -0.973013 -3.08612e-19)
(1.80265 -0.5878 5.3217e-19)
(1.46855 -0.699985 0)
(1.89199 -0.224921 0)
(2.67815 0.482087 4.9339e-19)
(1.59596 0.21603 0)
(1.95101 -0.457526 4.72416e-19)
(1.04294 -0.510268 7.01642e-19)
(-0.0744373 -1.70505 -3.42543e-19)
(2.61005 0.924309 0)
(1.60985 -0.307181 1.05608e-19)
(2.02271 -0.847674 0)
(1.79681 0.0219812 -1.04991e-20)
(2.49079 -0.0505092 1.01681e-20)
(-2.33481 1.04997 -1.12508e-18)
(2.54031 -1.04712 2.45939e-19)
(2.16855 -0.527422 0)
(2.05949 0.011631 -2.1998e-21)
(1.77349 -0.580148 -7.87457e-20)
(1.01024 -0.879636 -1.84773e-19)
(1.71334 0.288435 5.42566e-21)
(2.42836 0.539608 5.05696e-21)
(2.16964 -0.0158884 4.44525e-21)
(1.64308 0.0618027 1.90076e-19)
(0.868447 -0.363298 -1.23944e-19)
(2.57641 0.000996724 -1.05992e-20)
(1.27357 -0.594397 0)
(2.19742 -0.12329 0)
(1.34089 -0.649416 -3.62277e-19)
(2.01676 -0.192154 -1.53897e-19)
(1.70383 0.266757 2.88426e-19)
(1.71759 -0.349436 -1.08061e-19)
(2.14837 0.0381125 -1.54147e-19)
(2.03793 -0.0614383 -1.09573e-19)
(1.25738 0.158661 -4.48419e-19)
(1.88231 0.0930188 0)
(1.56659 -0.753313 -9.21334e-20)
(-2.27752 1.29445 2.53203e-19)
(2.05125 0.0409079 1.11962e-19)
(2.36595 -0.280725 -2.65386e-20)
(1.65893 -0.366436 0)
(2.05162 0.0644505 1.6622e-20)
(2.34868 -0.311248 1.36419e-19)
(-1.63614 0.403209 1.73189e-19)
(2.04928 -0.199215 0)
(0.477586 -0.147255 0)
(1.93437 0.0647726 0)
(2.06595 -0.513031 0)
(1.82937 -0.724653 2.50139e-21)
(1.84979 0.410359 0)
(0.667119 -0.29166 -4.52459e-19)
(2.43051 -1.01479 -2.38291e-19)
(1.98984 0.0149683 -2.31191e-21)
(2.43903 0.099871 -6.0434e-20)
(2.25222 0.0284679 0)
(1.55785 1.34393 -1.58443e-19)
(0.461244 -1.44166 -6.34228e-19)
(2.52376 -0.418166 0)
(1.82946 -0.0433432 2.98075e-19)
(2.23063 -1.40946 -7.53519e-19)
(2.2169 0.602768 0)
(2.10972 0.0151469 0)
(1.11847 -0.293316 7.62698e-19)
(1.83593 0.429738 -3.70174e-19)
(2.29896 -0.13571 -1.7534e-19)
(1.13364 -0.546027 8.43535e-20)
(1.56792 -0.745899 -6.91719e-20)
(1.42138 -0.733731 0)
(2.28245 -0.0826359 4.72388e-20)
(2.22569 0.676341 -4.75627e-20)
(1.9347 -0.816474 3.39781e-19)
(-1.16867 1.58946 8.70018e-19)
(0.70122 -1.15983 1.57137e-19)
(1.96416 -0.0156456 -2.25327e-19)
(0.52448 -1.64405 6.37435e-19)
(1.59163 -0.515179 9.49886e-20)
(1.40784 -0.546795 2.59809e-20)
(1.21043 -0.431158 -3.20496e-19)
(1.91864 0.0759123 -1.16601e-20)
(2.69371 0.437506 7.22786e-20)
(-0.62287 -0.0884847 3.27238e-19)
(0.78227 -0.369496 8.63226e-20)
(1.953 -0.844712 0)
(1.96839 -0.04006 -7.30498e-22)
(1.11994 -0.534666 3.1962e-20)
(-0.0412602 -0.0723148 -2.07552e-18)
(1.5394 -0.740973 0)
(1.06813 -1.0842 0)
(1.85759 -0.0144996 -2.76129e-20)
(-0.0756715 -1.34471 4.2431e-19)
(1.95012 0.0692009 -2.84069e-20)
(-0.00170716 -0.114206 -9.44038e-19)
(1.77132 -0.545834 0)
(1.2232 -0.495263 2.34035e-21)
(0.396689 -0.247188 8.03076e-21)
(1.65591 -1.12652 -1.80017e-19)
(1.9437 -0.85085 0)
(2.31889 -0.735463 0)
(1.99442 -0.150147 0)
(1.14462 -0.896232 -6.3313e-20)
(2.07138 -0.076518 6.87929e-20)
(-1.48235 0.25628 -6.84123e-19)
(2.07186 -0.140552 -7.64869e-20)
(2.1519 -0.572939 -4.61724e-20)
(1.12715 -0.68437 0)
(1.91031 0.029085 0)
(2.06561 0.0903581 -5.46583e-20)
(2.47725 -0.0298082 7.27844e-20)
(1.89467 -0.0349177 -2.51784e-19)
(1.62118 -1.5827 0)
(0.0678657 0.91083 1.32137e-18)
(1.1042 -0.0894444 -2.24099e-19)
(2.41151 0.436483 2.9813e-20)
(2.02784 -0.649658 3.5588e-19)
(1.8702 -0.289829 9.67864e-21)
(2.37587 0.0118302 0)
(2.47205 -0.114774 -8.82702e-20)
(2.02518 0.0562048 0)
(2.04051 0.00340118 -1.43216e-19)
(2.03641 0.0722472 4.44081e-20)
(2.34624 0.00272073 7.57849e-20)
(1.66842 -0.44975 5.04031e-19)
(1.91874 0.383245 2.0249e-19)
(0.956504 -0.464514 -5.08865e-20)
(1.85555 -0.763775 -2.09733e-19)
(2.66528 1.68522 -1.50479e-19)
(2.07747 -0.0203377 0)
(1.87569 -0.470897 0)
(1.42803 -0.71982 0)
(2.29697 -0.24377 3.47314e-20)
(-0.810782 1.73368 9.24837e-20)
(0.866059 -0.431134 4.14893e-19)
(1.91704 0.0303333 4.22052e-21)
(2.60131 -0.419242 -2.99257e-20)
(0.242552 0.00115971 6.15459e-19)
(1.97694 2.14707 -4.95005e-20)
(2.1077 0.0159225 -1.49913e-20)
(2.24983 -0.12156 5.03688e-19)
(0.950097 -0.406817 0)
(2.706 0.0935919 -1.96364e-20)
(0.135308 1.37521 -2.55687e-18)
(2.51391 -0.214007 -2.8746e-19)
(-2.20206 1.63649 -4.01512e-20)
(1.93269 0.0721252 -6.5242e-21)
(1.3973 -0.462268 3.49485e-19)
(2.22847 0.665433 0)
(2.00611 0.10203 -8.61973e-20)
(1.13127 -0.464191 -7.48544e-19)
(1.98325 0.086494 -1.80836e-20)
(1.33601 -0.647193 0)
(2.23827 -0.116164 -1.48745e-19)
(1.09149 -0.531305 2.3468e-19)
(2.36142 -0.733228 -9.19402e-20)
(1.7871 -0.754162 -2.9795e-19)
(2.36649 0.0948847 -4.32848e-20)
(2.46264 -0.357859 9.259e-21)
(0.995828 -0.493392 4.57499e-19)
(2.12723 -0.0894043 2.04991e-19)
(1.87235 -0.43104 0)
(1.85933 -0.846216 -3.32729e-19)
(1.74461 -0.748973 -9.00937e-19)
(2.6699 -0.00801171 1.26467e-20)
(2.00151 -0.00182328 3.59829e-20)
(2.87154 1.50066 0)
(1.79336 0.103686 0)
(2.00061 -0.155159 -1.69228e-19)
(1.11745 0.612224 4.26787e-19)
(2.78238 1.08135 0)
(2.31749 -0.0238574 1.47178e-19)
(1.61788 -0.717593 -4.04438e-21)
(0.960524 0.274296 -5.50573e-19)
(0.938157 -0.407724 -4.0008e-19)
(1.05803 -0.875174 6.53447e-20)
(1.90028 -0.0135434 -2.91042e-22)
(1.18342 -0.802202 2.15891e-19)
(2.13366 -0.465601 -1.27172e-19)
(2.17274 0.0592946 0)
(1.43596 -0.16506 -9.42124e-20)
(1.1786 -0.0723257 0)
(1.98611 0.0938232 -4.20518e-19)
(2.05391 -0.452098 0)
(2.23382 0.0352432 -1.35094e-19)
(1.96976 0.0769544 -1.82167e-20)
(2.44388 0.280764 -4.81647e-20)
(1.19783 -0.470085 4.22841e-19)
(1.95129 0.0399077 -3.3777e-19)
(1.90344 0.132089 -3.84281e-19)
(2.07548 -0.888934 0)
(0.730489 -1.80002 0)
(1.27341 -0.513002 -4.16858e-19)
(2.59606 0.318528 0)
(3.29912 0.0852175 -8.62295e-19)
(1.88534 0.127343 0)
(1.07698 -0.339404 2.2259e-20)
(0.844045 -0.413496 7.93483e-20)
(1.78917 -0.609712 6.31799e-19)
(1.25319 -0.538453 -1.19731e-20)
(2.39948 -0.545368 0)
(1.99787 0.0734728 1.58037e-20)
(1.90804 0.031497 -2.18393e-19)
(0.669302 -0.347037 -1.0659e-20)
(1.93817 0.0410878 -1.90091e-19)
(2.25033 0.0074957 -4.70416e-20)
(2.29728 0.220578 -3.85455e-20)
(3.19438 0.612368 3.44782e-19)
(2.42201 0.234388 -5.31678e-20)
(0.490968 -1.42578 -8.18164e-20)
(1.73933 -0.536954 0)
(0.0986899 -0.152974 1.5296e-20)
(1.99383 0.126193 -1.47482e-19)
(2.64173 -0.0791664 0)
(1.98648 0.0520419 1.28127e-19)
(1.1853 -0.572121 -3.05091e-19)
(1.70989 1.1494 1.335e-19)
(3.01472 -1.13979 0)
(1.4458 -0.687992 1.11302e-19)
(3.65731 -1.58542 0)
(1.96176 0.0216 3.39752e-20)
(2.05493 -0.188452 -5.66619e-20)
(1.30587 0.722412 1.26347e-18)
(1.07556 -0.118338 0)
(1.64005 0.209476 2.05382e-19)
(1.89561 0.0890255 1.38863e-19)
(0.253294 -0.0904612 0)
(1.79798 0.0734822 0)
(2.01623 -0.206118 0)
(0.15795 -0.0753115 1.05983e-19)
(0.770798 -0.260926 -2.72787e-20)
(2.34333 -0.18883 0)
(1.95876 -0.0300605 0)
(1.44128 -0.334504 3.67267e-20)
(-0.326794 -0.612551 0)
(2.39201 0.412852 7.3931e-21)
(2.92111 0.911096 1.90173e-19)
(2.01864 0.0519307 1.07418e-20)
(1.88409 0.391212 -4.60705e-21)
(0.963891 0.345743 6.33029e-19)
(2.9865 1.12124 -2.07688e-19)
(2.40479 -0.192164 6.05953e-21)
(2.07908 -0.134639 1.40696e-19)
(1.64898 -0.226744 -2.28399e-19)
(1.93079 0.69206 -2.38658e-21)
(2.04122 0.0898548 0)
(1.21592 -0.821399 -2.09643e-19)
(-2.42454 1.03818 0)
(1.09701 -0.614427 -5.12064e-20)
(1.69727 -0.308987 0)
(2.5554 0.485848 0)
(1.33893 -0.640137 -2.48871e-19)
(2.07318 0.0625983 -1.47811e-20)
(-0.257145 0.247087 -1.8623e-18)
(2.10249 -0.017403 2.82048e-21)
(1.8584 -0.739204 3.38625e-19)
(3.07666 0.772587 2.1802e-19)
(-2.1868 1.91726 2.27116e-18)
(2.0474 8.90045e-05 2.9785e-20)
(2.13759 -0.852771 1.23081e-19)
(1.8837 0.00752477 -2.39762e-19)
(3.20782 -1.41698 0)
(1.80814 -0.165084 -4.34439e-19)
(1.84976 -0.508109 3.52281e-19)
(2.03874 0.184518 -5.2484e-19)
(0.968774 -0.512602 -5.86872e-20)
(1.63849 1.15242 -1.28522e-19)
(2.9035 1.01293 2.91632e-19)
(2.4124 -0.623995 0)
(1.86101 -0.0470352 0)
(1.62661 0.675377 -7.43402e-19)
(2.03891 -0.0726194 8.88098e-20)
(1.45208 -0.734647 0)
(2.29422 -0.148264 -1.26594e-19)
(1.98518 0.0452535 -2.81992e-19)
(1.24532 -0.672492 -3.64621e-20)
(1.53458 -0.761247 1.43876e-19)
(2.35902 0.223837 -4.22878e-21)
(1.61894 -1.21628 7.46652e-21)
(2.43769 -0.351917 -2.56439e-19)
(1.9791 -0.469491 2.44185e-19)
(3.3617 0.56472 7.75509e-19)
(1.592 -0.660966 3.26124e-19)
(2.00025 0.0314653 -1.67936e-21)
(1.03326 0.206868 4.60614e-19)
(2.12967 2.09592 0)
(1.73416 -0.507088 2.04439e-19)
(1.55782 -0.749741 0)
(-1.70469 0.183949 -2.38339e-18)
(1.8704 -1.16573 0)
(0.635964 -0.295865 -1.99349e-19)
(1.69028 -0.729105 -4.56827e-19)
(2.97017 0.696138 -3.50991e-19)
(2.13296 -0.874264 0)
(1.43631 -0.662714 0)
(2.52544 -0.465539 0)
(1.98014 0.0175449 1.14702e-19)
(3.38219 -1.61255 -1.7885e-18)
(0.133251 -0.0642135 1.32462e-18)
(1.63774 -0.345219 -6.89257e-21)
(3.46317 0.58685 -8.51987e-19)
(2.10793 0.148522 0)
(1.29424 1.76289 2.45089e-19)
(2.55419 1.10371 1.27757e-19)
(2.44431 -1.46234 -5.51244e-19)
(1.60896 -0.748877 2.77246e-19)
(2.67295 0.407904 -1.34598e-22)
(1.2034 -0.584662 5.102e-19)
(2.20951 0.431456 0)
(1.91339 -0.224472 5.04508e-20)
(1.57272 -0.606713 -5.00462e-20)
(1.83508 0.052774 2.40348e-20)
(3.3206 0.252119 -4.53894e-19)
(1.71024 -0.310601 0)
(2.50197 0.554392 0)
(2.86885 -1.45455 0)
(-2.60612 1.58717 0)
(1.99249 -0.0186041 0)
(1.47055 -0.569012 1.40354e-19)
(3.85414 0.305734 6.79889e-19)
(1.51476 -0.637038 3.88185e-19)
(1.95846 0.0856641 2.28723e-19)
(1.54257 -0.74532 0)
(2.11186 -0.880613 2.70924e-21)
(-0.485906 -0.4394 0)
(1.50653 -0.759184 -8.99605e-20)
(-0.481164 0.00204632 7.67552e-19)
(3.9731 -0.0428751 -4.16472e-19)
(1.97792 0.0575663 2.69237e-19)
(2.09063 0.0316855 -7.5661e-20)
(3.02428 -0.753412 -3.15352e-19)
(2.28277 0.0347097 0)
(-1.79285 0.995457 1.80184e-18)
(2.03737 0.0109057 0)
(1.5672 0.816958 1.56528e-20)
(2.52068 0.00941106 0)
(2.09495 0.208575 -9.60733e-20)
(2.06968 -0.097774 0)
(0.989796 -0.385837 -2.8205e-19)
(0.396279 -0.518835 2.32269e-19)
(1.99655 -0.0983152 -4.66785e-20)
(1.35671 0.348624 4.15073e-19)
(0.288852 -0.141075 -2.1723e-19)
(1.85381 -0.320627 0)
(1.08697 -0.267072 -1.07913e-18)
(1.99811 0.0948142 8.00767e-21)
(3.57162 -0.524861 -1.16026e-18)
(1.90351 0.0323842 2.8586e-21)
(2.28986 -1.01592 5.52166e-19)
(4.07646 0.376193 0)
(1.82647 -0.822225 -7.22043e-20)
(1.52047 -0.692191 0)
(2.62755 -0.0629832 9.52149e-21)
(0.530745 -0.177463 6.93187e-20)
(1.39377 -0.786898 0)
(2.37231 0.349465 0)
(1.61112 -0.608199 -6.88356e-20)
(2.43764 0.552893 0)
(1.81072 1.61572 1.05192e-19)
(2.97478 0.604699 -3.43286e-19)
(-2.1203 0.672335 -7.936e-19)
(1.44523 -0.748188 -5.94754e-20)
(1.87959 0.0537128 -4.05669e-21)
(1.20536 -0.700335 -2.64266e-21)
(0.153832 -0.299532 -1.64127e-19)
(1.91531 -0.0312586 4.65315e-19)
(1.18092 -0.626255 4.14009e-20)
(0.46727 -0.226208 0)
(2.27843 -0.0305934 -6.06017e-20)
(1.55807 -0.614093 9.49803e-20)
(0.50336 0.114652 7.5312e-20)
(3.49411 -0.269918 9.10047e-19)
(2.92635 1.41247 0)
(1.84537 -0.540601 -3.53928e-19)
(1.97226 0.246656 2.19633e-21)
(3.63746 0.559418 -1.00214e-19)
(2.39713 -0.0488297 -2.09272e-19)
(1.53929 -0.753088 3.64618e-20)
(1.22323 -0.960724 1.42018e-19)
(1.52839 -0.622995 -9.3668e-20)
(1.53342 -0.767335 2.21863e-21)
(2.29759 -0.157744 -1.76324e-19)
(1.54594 -0.760836 -4.08483e-20)
(1.8054 -0.314373 0)
(1.90653 -0.212306 -4.2278e-19)
(0.402663 1.35232 0)
(1.38854 -0.734052 -4.28461e-20)
(2.00165 0.79242 3.55543e-19)
(-1.27051 1.93971 1.43515e-18)
(2.00473 0.0807571 -4.72397e-21)
(0.709061 -0.331515 1.12532e-20)
(-0.974346 1.78312 0)
(2.24122 -0.821152 3.21595e-19)
(2.23541 -0.875765 7.32644e-20)
(-0.504373 1.79987 -1.21928e-18)
(1.84457 0.489814 0)
(1.67525 0.424904 0)
(0.292324 0.227508 0)
(1.46318 -0.463774 -3.24338e-20)
(1.94581 -0.0558285 -4.10996e-19)
(1.37431 0.123172 0)
(1.76158 -0.620596 0)
(2.20718 0.128934 -1.01274e-20)
(1.82 -0.907111 3.87374e-21)
(2.0923 0.39009 -2.9433e-19)
(1.75973 -0.39954 -7.60864e-20)
(1.81944 -0.00794792 4.66196e-20)
(1.99497 0.0113136 -5.13498e-21)
(2.00284 0.0724672 -2.87524e-20)
(2.0041 0.448628 -2.34932e-20)
(1.9596 1.08515 0)
(0.243272 -0.318218 1.20847e-20)
(-1.09842 0.725118 0)
(1.05947 0.0918231 0)
(2.71438 0.0539148 -3.93512e-19)
(1.48406 -0.754544 0)
(2.46128 0.199546 0)
(1.94375 -0.143264 6.49028e-19)
(1.93745 -0.851195 0)
(2.05611 0.40112 3.83265e-19)
(3.32003 0.0152892 4.51849e-19)
(3.17453 0.211202 1.46504e-19)
(1.99702 0.0653291 1.94941e-21)
(1.23887 1.15377 2.3351e-19)
(2.26492 -0.864505 3.58707e-21)
(2.05682 -0.817026 -4.83825e-21)
(1.249 -0.490787 4.07352e-19)
(1.23472 -0.729479 0)
(1.00137 -0.497853 0)
(1.30338 -0.612349 -1.45358e-19)
(0.45021 -0.511415 -3.06163e-19)
(1.4519 -0.695931 0)
(1.2122 -0.695352 7.45894e-20)
(-0.0667043 -0.19841 0)
(-1.80559 1.43202 2.15487e-18)
(1.1986 -0.56233 -5.27644e-19)
(3.217 -0.152502 -1.92202e-20)
(3.16542 0.406494 3.65152e-19)
(1.29639 -0.451608 8.24291e-20)
(2.2476 -0.080295 8.3175e-20)
(2.30413 0.852531 0)
(2.39902 0.696243 0)
(1.111 -0.030552 0)
(-0.272966 0.624809 -7.93477e-19)
(1.47339 -0.57471 0)
(2.23602 0.622682 0)
(1.97414 -0.0294309 0)
(2.5397 -0.441137 -4.477e-20)
(-1.77258 0.127406 5.13782e-19)
(2.07807 -0.798547 -1.80858e-19)
(1.46227 -0.491285 7.65606e-20)
(1.88917 0.210667 0)
(1.33178 -0.8525 0)
(2.02774 -0.616043 -3.24624e-19)
(1.56968 0.490114 6.16126e-19)
(1.00052 -0.495949 -7.57697e-20)
(2.07166 0.110013 -9.68094e-21)
(1.75062 -0.494162 3.74715e-19)
(1.03702 0.376109 -9.96122e-19)
(0.356974 -0.608767 0)
(1.28865 1.23467 -5.58875e-19)
(0.476217 0.237399 -6.24354e-19)
(3.11733 -0.0151731 0)
(2.46986 -0.0873736 0)
(1.75821 -0.0577315 0)
(2.01567 0.0174339 -4.15334e-19)
(1.49498 0.233839 -4.24836e-19)
(1.67596 0.144833 0)
(3.74156 1.26278 1.77069e-18)
(1.85907 -0.832568 3.38673e-19)
(2.56621 -0.328433 5.98007e-20)
(1.16314 -0.548334 6.51132e-20)
(2.07375 -0.265906 0)
(2.36331 -0.0176611 3.00232e-20)
(1.80919 -0.461773 0)
(1.54836 -0.636095 -9.18514e-20)
(1.80011 -0.817108 0)
(2.18333 -0.784011 3.95106e-19)
(1.65325 -0.330174 -1.30081e-21)
(2.0323 0.0583602 -1.29331e-20)
(2.54612 -0.360169 0)
(1.87742 -0.807217 0)
(1.66719 -0.717596 -4.77813e-19)
(2.30336 0.32387 -8.16561e-21)
(1.52758 -0.74361 4.34147e-20)
(0.927206 -0.446816 4.13707e-19)
(1.92687 -0.121148 0)
(1.62395 0.186581 -6.38726e-19)
(2.24824 0.00950785 -4.71336e-20)
(1.5046 -0.449709 -3.04958e-20)
(2.02131 0.0438956 -1.66822e-20)
(2.03229 0.0560946 0)
(1.26365 -0.379964 5.79109e-19)
(1.01327 0.135549 -6.33892e-19)
(3.66926 0.186563 1.015e-20)
(1.81248 0.210489 -7.2396e-19)
(1.18547 -0.564109 5.83704e-20)
(1.78732 0.538619 -2.08071e-18)
(1.77558 -0.261007 2.23717e-20)
(2.06534 -0.0939676 -3.82702e-20)
(2.31685 0.272631 1.46284e-18)
(-0.391939 0.0518364 6.17671e-21)
(1.44507 -0.676358 1.06891e-19)
(1.51947 -0.753744 9.29041e-20)
(1.83075 0.0528345 6.19638e-21)
(2.42179 -0.176767 0)
(3.7362 -1.38188 1.64388e-18)
(1.20408 -0.58633 2.30469e-19)
(1.74804 -0.271483 2.25335e-19)
(-0.80175 -0.0593573 0)
(1.69347 -0.414417 -6.019e-20)
(1.94346 0.0285296 1.84987e-21)
(1.95422 0.00298472 0)
(-0.35893 -0.49357 2.11768e-19)
(1.55394 -0.728196 2.64845e-20)
(1.92355 0.243311 0)
(1.13034 -0.430384 0)
(1.52745 -0.343112 -3.55247e-20)
(1.56754 -0.49551 -9.26747e-21)
(2.65226 0.0331044 1.41875e-19)
(0.233841 -0.114896 0)
(2.06559 -0.00729265 -3.6645e-19)
(1.88384 -0.367513 -3.7954e-20)
(2.25081 -0.756881 2.21692e-20)
(1.29863 -0.514182 5.12311e-19)
(1.52565 -0.72686 -8.43717e-20)
(1.46757 -0.773125 5.62394e-20)
(3.65736 0.0377852 -8.79128e-21)
(1.89738 -0.813507 0)
(2.89916 0.637234 -1.37464e-18)
(1.65558 -0.663669 2.39395e-19)
(2.13423 1.82016 1.64435e-19)
(0.898197 0.514822 0)
(1.22067 -0.262394 -5.11948e-19)
(1.30192 -0.56228 -6.21576e-19)
(1.44211 -0.70693 1.01109e-19)
(-1.87332 0.65183 -1.72564e-18)
(2.68065 1.67677 0)
(-0.390219 -0.25129 -8.32539e-19)
(2.31804 0.497302 0)
(-0.07234 0.256875 -1.75252e-18)
(0.19814 0.358536 1.3548e-18)
(0.490481 -2.03598 0)
(1.46652 -0.751119 3.63544e-20)
(1.66711 -0.170718 -9.2918e-20)
(-2.31748 0.80152 5.28274e-19)
(1.74919 -0.698778 4.33019e-19)
(1.19515 -0.573278 -2.36426e-19)
(1.2684 -0.587821 0)
(2.02756 0.0945381 1.28245e-19)
(3.34216 0.23811 0)
(2.20614 0.109558 -2.91203e-21)
(-0.392048 0.833669 -1.68681e-18)
(0.626445 -0.258038 2.69671e-19)
(2.03988 0.0878415 0)
(1.94953 -0.783849 -3.23096e-19)
(2.50013 -0.25971 8.27888e-20)
(1.42166 -0.787509 1.4262e-19)
(1.53957 -0.712761 0)
(1.44697 -0.776847 -1.26904e-19)
(3.66373 0.300321 -1.03396e-18)
(1.63927 0.189099 8.18096e-19)
(1.7981 -0.230059 0)
(2.11694 -0.0411435 1.26779e-19)
(0.451817 1.46846 1.13692e-18)
(-1.66579 0.0948215 -2.95229e-19)
(2.25552 -0.584143 1.23269e-19)
(1.26785 -0.607925 0)
(1.73692 -0.0737769 -9.06338e-21)
(2.00282 0.0534859 7.99934e-22)
(2.62088 -0.351748 8.78687e-20)
(2.24336 0.0245563 0)
(1.30734 -0.892693 7.16826e-20)
(1.72244 -0.476855 -3.14244e-22)
(1.3482 -0.414631 6.36022e-20)
(3.7355 0.263033 0)
(2.10535 -0.815308 -1.40435e-19)
(1.38094 -0.682846 1.7125e-19)
(1.76145 -0.454898 -4.68689e-19)
(0.183041 0.073834 0)
(2.5048 -0.352144 2.6142e-19)
(2.12962 -0.791017 1.15701e-19)
(1.37093 -0.641476 -1.08531e-19)
(1.88914 0.197116 0)
(-2.22039 0.871961 1.84459e-18)
(1.54473 -0.39832 0)
(1.09607 -1.03951 1.46676e-19)
(1.65063 -0.523145 0)
(1.94356 -0.143737 -2.39238e-19)
(2.13989 -0.230268 -2.4267e-19)
(3.29617 1.0245 -8.98398e-19)
(1.42455 -0.277472 0)
(2.07511 -0.885529 -2.16415e-19)
(2.03547 0.0588331 0)
(2.35695 0.345514 0)
(2.18009 -0.894549 5.78412e-20)
(1.25091 -0.911889 7.4037e-20)
(0.67143 -0.13219 1.69814e-19)
(2.18405 -0.585039 -7.46533e-20)
(1.67332 0.284055 2.68478e-19)
(1.30294 -0.729138 -2.08697e-20)
(2.03545 0.297583 1.37903e-19)
(0.157383 -0.694349 -3.72667e-20)
(1.80921 -1.1221 0)
(2.35466 0.0998033 0)
(0.602358 -0.586586 0)
(1.50871 -0.733004 1.50991e-19)
(1.26573 -0.449414 -3.59829e-19)
(1.5502 0.047241 0)
(0.890885 -0.450744 1.75444e-19)
(2.28435 -0.159649 -1.63081e-19)
(1.1623 -0.566533 -6.58972e-20)
(1.45446 -0.544495 -1.16801e-19)
(2.2457 -0.888693 0)
(-1.88844 0.506959 1.32751e-18)
(-0.631511 -0.24297 -6.24976e-19)
(0.345321 -1.90828 0)
(-0.578148 0.0147564 -1.16292e-18)
(2.00963 0.00978322 1.27526e-20)
(2.34016 0.277326 9.42575e-20)
(1.96335 0.051141 2.43484e-19)
(2.83967 0.781139 -3.71175e-19)
(2.37091 0.118308 4.64184e-21)
(1.49242 0.998449 0)
(2.00689 -0.789541 0)
(0.733812 -0.372334 1.72856e-19)
(-1.5075 0.630047 0)
(1.69139 -0.388786 -6.08985e-20)
(2.2227 -0.791852 -2.0455e-19)
(1.0651 -0.503746 4.33798e-19)
(1.93791 -0.0419756 -5.07924e-20)
(1.73347 0.31362 -2.64751e-19)
(1.61435 -0.649574 -2.3562e-19)
(1.70249 -0.683066 -4.36153e-19)
(1.53837 -0.498219 0)
(1.79599 -0.709645 4.12271e-19)
(1.9312 -0.0410403 0)
(2.60147 -0.380229 -7.60063e-21)
(2.08823 1.15072 1.06893e-20)
(2.22205 -0.747899 -3.12096e-19)
(2.29027 -0.389113 -2.00713e-19)
(-1.96733 1.25719 -1.61549e-18)
(0.154068 -0.420528 0)
(1.61357 -0.686506 -2.72395e-20)
(1.53041 -1.08854 -1.42271e-19)
(2.19876 0.426341 -1.44692e-19)
(1.89721 -0.771038 3.78937e-19)
(2.17694 0.0882024 -4.12189e-21)
(-2.09757 0.551807 7.04941e-19)
(1.90822 -0.799657 -6.32287e-20)
(0.456891 0.0375624 0)
(1.26843 -0.62258 1.93196e-19)
(1.81885 -0.417431 2.48609e-19)
(2.06038 0.0342935 -3.59715e-23)
(1.2748 -0.565116 9.1216e-19)
(-0.4758 1.76739 -8.46409e-22)
(1.72112 0.564056 0)
(1.51888 -0.748105 -6.18419e-20)
(1.34518 -0.838614 -9.65813e-21)
(1.18083 -0.375656 -6.87209e-19)
(1.47731 -0.722188 6.85118e-20)
(3.2511 0.590285 -3.87318e-19)
(2.21228 0.301608 6.46568e-21)
(1.04434 -0.429479 3.11655e-19)
(1.87046 -0.431797 0)
(2.4502 0.110139 -1.04029e-19)
(2.20341 -0.0469849 -2.87524e-21)
(3.06762 0.481441 -3.68062e-19)
(2.51778 -0.175109 0)
(3.42551 0.437121 3.76417e-20)
(-0.543525 0.348991 1.68009e-18)
(1.70073 -0.740395 9.24447e-19)
(2.5495 0.27089 2.23529e-20)
(3.06905 -1.65954 -9.22371e-19)
(-1.6717 0.246653 2.49796e-18)
(2.06113 -0.778552 3.72136e-19)
(2.08823 -0.018368 -4.1225e-21)
(-1.03352 1.41382 -1.80884e-21)
(2.36161 -0.151156 2.46763e-20)
(1.60426 0.289572 0)
(2.00066 0.0792712 0)
(2.35304 0.408081 0)
(1.83942 -0.721921 -3.5749e-19)
(1.66752 -0.574485 6.05422e-20)
(-0.289503 1.76844 0)
(1.31498 -0.410079 -1.49018e-19)
(0.893678 -1.98701 0)
(2.71218 -0.864316 0)
(0.545867 1.54137 0)
(1.92892 0.0333463 0)
(-2.10083 0.769813 -5.74015e-19)
(-0.101514 -0.751585 0)
(2.16032 -0.941948 2.39522e-19)
(1.73065 0.0241887 0)
(1.98593 0.0462978 0)
(1.95344 0.194217 8.14754e-22)
(0.195581 -0.57501 0)
(1.89938 -0.661326 0)
(-0.534269 1.39114 0)
(2.15303 0.00702216 2.35842e-20)
(2.07668 0.242891 0)
(2.27118 -0.879209 -7.24151e-21)
(1.67584 0.774694 -5.09927e-21)
(-1.38907 0.328718 -2.71353e-19)
(2.01005 0.0557081 5.97412e-19)
(-0.23327 -0.0170591 -5.18897e-20)
(1.11983 0.772533 -5.30919e-19)
(1.50566 0.661777 0)
(2.47609 -0.331213 8.80721e-21)
(1.7318 -0.225267 -2.2001e-19)
(1.68983 1.50276 1.31369e-19)
(1.85198 0.369239 3.6973e-19)
(0.868594 -0.326166 -6.54291e-19)
(1.60086 -0.706388 -3.63494e-19)
(1.97497 -1.06907 3.20965e-20)
(1.57049 -0.719444 0)
(2.49548 -0.488151 -1.18987e-20)
(1.61234 -0.696784 3.21326e-20)
(2.55223 0.123172 -6.50452e-20)
(1.1206 -0.552022 0)
(1.86235 0.055516 -2.72542e-19)
(3.27215 0.562878 -1.11715e-18)
(1.43639 -0.59194 4.71196e-19)
(1.32572 -0.609642 -5.69309e-19)
(1.7442 -0.805175 0)
(1.846 -0.814591 0)
(2.01762 -0.877995 2.13896e-19)
(2.36643 -0.383098 -1.23774e-19)
(3.06205 -0.23647 -4.79458e-19)
(1.89343 0.0354754 -3.45363e-22)
(1.29329 -0.374145 -1.38344e-19)
(1.74824 -0.551659 3.95888e-19)
(2.39067 0.164358 0)
(2.35668 0.225735 1.27947e-20)
(-1.0407 -0.382361 -1.26058e-18)
(1.77153 -0.722159 1.59092e-19)
(1.14511 -0.257778 -4.89503e-20)
(-0.712873 1.30473 9.54529e-19)
(2.95622 -0.141925 4.00342e-19)
(2.54213 0.446009 7.51764e-20)
(2.37368 0.499587 0)
(1.53832 -0.733162 0)
(2.3105 -0.871187 -8.34357e-22)
(1.23389 -0.288425 0)
(1.91096 -0.435675 1.65221e-19)
(1.67441 0.232851 4.63209e-19)
(1.73634 0.387925 -1.35737e-19)
(1.67621 -0.687685 9.45456e-19)
(2.01898 0.0417696 -3.75356e-22)
(1.85569 0.0136539 0)
(1.95318 0.0439139 -2.76343e-21)
(0.836074 1.39283 -1.2396e-18)
(2.08631 0.166667 0)
(2.71448 -0.411794 0)
(1.98 -0.801126 1.37573e-19)
(1.92836 0.486062 1.97818e-19)
(1.15004 -0.209851 0)
(2.04646 -0.577676 1.10287e-22)
(2.27784 -0.112059 1.1702e-19)
(2.25972 0.225384 2.61834e-20)
(1.81205 0.450567 3.96167e-19)
(1.51284 -0.774185 -7.8793e-20)
(1.32002 -0.159202 0)
(-1.75587 1.5515 -4.14851e-18)
(0.578547 -0.258984 9.78611e-19)
(2.10833 -0.0191212 1.54719e-20)
(-1.22774 1.05785 -1.83649e-18)
(1.87338 -0.784026 2.68717e-20)
(2.49316 0.204816 1.70603e-19)
(1.7728 -1.04238 0)
(1.92652 0.128828 2.2167e-21)
(1.82394 0.00696529 8.48595e-20)
(2.27873 -0.0414565 -1.38614e-19)
(2.15109 0.422507 -9.9704e-20)
(2.2815 -0.823016 0)
(1.42351 -0.752424 0)
(2.34893 0.0168826 0)
(2.26112 0.320365 -5.21918e-20)
(1.14198 -0.538918 6.80229e-19)
(2.53501 1.56876 -1.05836e-19)
(1.54866 -0.169447 0)
(0.773242 -0.564002 -3.90225e-20)
(1.5302 -0.738145 6.79426e-20)
(0.651278 -1.27076 0)
(1.9097 0.280834 -1.21942e-19)
(1.66045 0.229712 -1.54715e-19)
(2.36428 -0.348013 -4.23827e-20)
(2.01944 0.0564901 -1.20728e-20)
(0.762171 -0.287009 0)
(2.11265 0.143036 -1.4656e-19)
(2.08315 -0.442715 0)
(2.06835 -0.283163 9.71206e-21)
(1.03341 0.0157151 0)
(2.23659 0.759806 5.31165e-20)
(1.77131 -0.719232 -4.21477e-19)
(2.38655 0.637864 0)
(1.8621 -0.150237 -4.14518e-19)
(2.02565 0.0660085 1.72712e-20)
(1.72022 -0.0933657 0)
(1.21167 -0.579298 0)
(0.635967 0.0884725 -8.35991e-20)
(2.55687 -0.0710628 -1.02311e-20)
(1.55733 -0.676802 -3.87035e-20)
(0.954542 -0.545009 -1.22077e-20)
(2.16815 -0.119143 5.92881e-21)
(2.62577 0.472023 8.65358e-19)
(1.81004 0.360637 -1.71474e-21)
(2.10828 0.39 0)
(3.41206 0.300873 4.84631e-19)
(1.79245 -0.817606 0)
(1.59115 -0.730759 -3.97417e-19)
(1.88442 -0.818239 -4.83501e-19)