# Force and moment coefficients
# dragDir     : (1.000000e+00 0.000000e+00 0.000000e+00)
# sideDir     : (0.000000e+00 0.000000e+00 -1.000000e+00)
# liftDir     : (0.000000e+00 1.000000e+00 0.000000e+00)
# rollAxis    : (1.000000e+00 0.000000e+00 0.000000e+00)
# pitchAxis   : (0.000000e+00 0.000000e+00 -1.000000e+00)
# yawAxis     : (0.000000e+00 1.000000e+00 0.000000e+00)
# magUInf     : 1.000000e+00
# lRef        : 1.000000e+00
# Aref        : 2.000000e+00
# CofR        : (0.000000e+00 0.000000e+00 0.000000e+00)
#
# Time        	Cd            	Cd(f)         	Cd(r)         	Cl            	Cl(f)         	Cl(r)         	CmPitch       	CmRoll        	CmYaw         	Cs            	Cs(f)         	Cs(r)         
0.005         	1.212099e+02	5.636655e+00	1.155732e+02	1.099366e+02	1.755281e+02	-6.559146e+01	1.205598e+02	-5.496830e+01	6.060495e+01	-9.974212e-17	6.060495e+01	-6.060495e+01
0.01          	1.502616e+02	-4.412997e+00	1.546746e+02	1.590876e+02	-6.607437e+01	2.251620e+02	-1.456182e+02	-7.954380e+01	7.513080e+01	-9.675441e-17	7.513080e+01	-7.513080e+01
0.015         	1.372745e+02	-6.086227e+00	1.433607e+02	1.494469e+02	-6.784322e+01	2.172902e+02	-1.425667e+02	-7.472347e+01	6.863725e+01	-9.015198e-17	6.863725e+01	-6.863725e+01
0.02          	1.181619e+02	-5.335017e+00	1.234969e+02	1.288319e+02	2.275728e+00	1.265562e+02	-6.214024e+01	-6.441597e+01	5.908096e+01	-8.258364e-17	5.908096e+01	-5.908096e+01
0.025         	1.101634e+02	-4.205383e+00	1.143687e+02	1.185741e+02	5.183633e+01	6.673780e+01	-7.450736e+00	-5.928706e+01	5.508168e+01	-7.614564e-17	5.508168e+01	-5.508168e+01
0.03          	1.077043e+02	-3.933362e+00	1.116376e+02	1.155710e+02	6.553625e+01	5.003473e+01	7.750757e+00	-5.778549e+01	5.385213e+01	-7.319605e-17	5.385213e+01	-5.385213e+01
0.035         	1.054029e+02	-3.525717e+00	1.089286e+02	1.124543e+02	7.473724e+01	3.771710e+01	1.851007e+01	-5.622717e+01	5.270145e+01	-7.246619e-17	5.270145e+01	-5.270145e+01
0.04          	1.029660e+02	-3.926265e+00	1.068923e+02	1.108185e+02	6.789269e+01	4.292585e+01	1.248342e+01	-5.540927e+01	5.148301e+01	-7.288273e-17	5.148301e+01	-5.148301e+01
0.045         	1.023820e+02	-4.676174e+00	1.070582e+02	1.117344e+02	5.345790e+01	5.827647e+01	-2.409288e+00	-5.586719e+01	5.119101e+01	-7.422638e-17	5.119101e+01	-5.119101e+01
0.05          	1.016750e+02	-6.596960e+00	1.082720e+02	1.148689e+02	2.369865e+01	9.117027e+01	-3.373581e+01	-5.743446e+01	5.083750e+01	-7.600194e-17	5.083750e+01	-5.083750e+01
0.055         	9.999580e+01	-8.214869e+00	1.082107e+02	1.164255e+02	-5.177895e+00	1.216034e+02	-6.339066e+01	-5.821277e+01	4.999790e+01	-7.695228e-17	4.999790e+01	-4.999790e+01
0.06          	9.851947e+01	-9.087336e+00	1.076068e+02	1.166941e+02	-1.582042e+01	1.325146e+02	-7.416748e+01	-5.834707e+01	4.925973e+01	-7.751826e-17	4.925973e+01	-4.925973e+01
0.065         	9.842089e+01	-1.134706e+01	1.097680e+02	1.211150e+02	-5.536237e+01	1.764774e+02	-1.159199e+02	-6.055751e+01	4.921045e+01	-7.836124e-17	4.921045e+01	-4.921045e+01
0.07          	1.003716e+02	-1.361734e+01	1.139889e+02	1.276063e+02	-9.690329e+01	2.245096e+02	-1.607064e+02	-6.380313e+01	5.018580e+01	-7.853556e-17	5.018580e+01	-5.018580e+01
0.075         	1.007772e+02	-1.540637e+01	1.161836e+02	1.315900e+02	-1.313890e+02	2.629790e+02	-1.971840e+02	-6.579499e+01	5.038862e+01	-7.861425e-17	5.038862e+01	-5.038862e+01
0.08          	1.004619e+02	-1.703104e+01	1.174929e+02	1.345240e+02	-1.627074e+02	2.972314e+02	-2.299694e+02	-6.726198e+01	5.023093e+01	-7.860862e-17	5.023093e+01	-5.023093e+01
0.085         	1.010429e+02	-1.878262e+01	1.198255e+02	1.386082e+02	-1.971644e+02	3.357726e+02	-2.664685e+02	-6.930408e+01	5.052145e+01	-7.803716e-17	5.052145e+01	-5.052145e+01
0.09          	1.009065e+02	-1.974584e+01	1.206523e+02	1.403981e+02	-2.170915e+02	3.574896e+02	-2.872906e+02	-7.019907e+01	5.045324e+01	-7.695277e-17	5.045324e+01	-5.045324e+01
0.095         	1.011638e+02	-2.063717e+01	1.218010e+02	1.424381e+02	-2.347150e+02	3.771531e+02	-3.059341e+02	-7.121906e+01	5.058189e+01	-7.642769e-17	5.058189e+01	-5.058189e+01
0.1           	1.017023e+02	-2.133294e+01	1.230352e+02	1.443681e+02	-2.494898e+02	3.938579e+02	-3.216739e+02	-7.218406e+01	5.085113e+01	-7.608957e-17	5.085113e+01	-5.085113e+01
0.105         	1.023794e+02	-2.241854e+01	1.247979e+02	1.472165e+02	-2.728376e+02	4.200541e+02	-3.464458e+02	-7.360823e+01	5.118969e+01	-7.530735e-17	5.118969e+01	-5.118969e+01
0.11          	1.020088e+02	-2.318391e+01	1.251927e+02	1.483767e+02	-2.852956e+02	4.336723e+02	-3.594839e+02	-7.418833e+01	5.100442e+01	-7.431185e-17	5.100442e+01	-5.100442e+01
0.115         	1.027231e+02	-2.484988e+01	1.275729e+02	1.524228e+02	-3.188244e+02	4.712472e+02	-3.950358e+02	-7.621140e+01	5.136153e+01	-7.341982e-17	5.136153e+01	-5.136153e+01
0.12          	1.037891e+02	-2.669651e+01	1.304856e+02	1.571821e+02	-3.546679e+02	5.118500e+02	-4.332589e+02	-7.859106e+01	5.189456e+01	-7.268963e-17	5.189456e+01	-5.189456e+01
0.125         	1.046861e+02	-2.822597e+01	1.329121e+02	1.611381e+02	-3.839628e+02	5.451009e+02	-4.645318e+02	-8.056904e+01	5.234307e+01	-7.198316e-17	5.234307e+01	-5.234307e+01
0.13          	1.054886e+02	-2.955295e+01	1.350416e+02	1.645945e+02	-4.082985e+02	5.728931e+02	-4.905958e+02	-8.229726e+01	5.274431e+01	-7.105367e-17	5.274431e+01	-5.274431e+01
0.135         	1.058511e+02	-3.076123e+01	1.366124e+02	1.673736e+02	-4.282466e+02	5.956202e+02	-5.119334e+02	-8.368680e+01	5.292557e+01	-7.023600e-17	5.292557e+01	-5.292557e+01
0.14          	1.061014e+02	-3.126487e+01	1.373662e+02	1.686311e+02	-4.375753e+02	6.062064e+02	-5.218908e+02	-8.431555e+01	5.305068e+01	-6.909709e-17	5.305068e+01	-5.305068e+01
0.145         	1.072558e+02	-3.245245e+01	1.397082e+02	1.721607e+02	-4.587068e+02	6.308674e+02	-5.447871e+02	-8.608033e+01	5.362789e+01	-6.791297e-17	5.362789e+01	-5.362789e+01
0.15          	1.076627e+02	-3.336051e+01	1.410232e+02	1.743837e+02	-4.741570e+02	6.485407e+02	-5.613489e+02	-8.719187e+01	5.383135e+01	-6.689828e-17	5.383135e+01	-5.383135e+01
0.155         	1.081418e+02	-3.429454e+01	1.424364e+02	1.767309e+02	-4.894990e+02	6.662299e+02	-5.778644e+02	-8.836547e+01	5.407092e+01	-6.586583e-17	5.407092e+01	-5.407092e+01
0.16          	1.084609e+02	-3.530248e+01	1.437634e+02	1.790659e+02	-5.067148e+02	6.857807e+02	-5.962477e+02	-8.953295e+01	5.423047e+01	-6.495315e-17	5.423047e+01	-5.423047e+01
0.165         	1.084128e+02	-3.625125e+01	1.446640e+02	1.809153e+02	-5.215332e+02	7.024485e+02	-6.119909e+02	-9.045764e+01	5.420640e+01	-6.403559e-17	5.420640e+01	-5.420640e+01
0.17          	1.084953e+02	-3.711842e+01	1.456138e+02	1.827322e+02	-5.348024e+02	7.175345e+02	-6.261685e+02	-9.136609e+01	5.424767e+01	-6.315937e-17	5.424767e+01	-5.424767e+01
0.175         	1.088389e+02	-3.834223e+01	1.471811e+02	1.855234e+02	-5.543727e+02	7.398960e+02	-6.471343e+02	-9.276169e+01	5.441945e+01	-6.247528e-17	5.441945e+01	-5.441945e+01
0.18          	1.089043e+02	-3.958508e+01	1.484893e+02	1.880744e+02	-5.733524e+02	7.614268e+02	-6.673896e+02	-9.403721e+01	5.445213e+01	-6.174082e-17	5.445213e+01	-5.445213e+01
0.185         	1.092978e+02	-4.058418e+01	1.498820e+02	1.904662e+02	-5.889500e+02	7.794161e+02	-6.841831e+02	-9.523308e+01	5.464890e+01	-6.112687e-17	5.464890e+01	-5.464890e+01
0.19          	1.091780e+02	-4.143240e+01	1.506104e+02	1.920428e+02	-6.004394e+02	7.924822e+02	-6.964608e+02	-9.602138e+01	5.458898e+01	-6.045445e-17	5.458898e+01	-5.458898e+01
0.195         	1.092438e+02	-4.214576e+01	1.513896e+02	1.935353e+02	-6.103769e+02	8.039122e+02	-7.071445e+02	-9.676767e+01	5.462191e+01	-5.966190e-17	5.462191e+01	-5.462191e+01
0.2           	1.093375e+02	-4.284540e+01	1.521829e+02	1.950283e+02	-6.207658e+02	8.157940e+02	-7.182799e+02	-9.751413e+01	5.466873e+01	-5.892668e-17	5.466873e+01	-5.466873e+01
0.205         	1.092051e+02	-4.336569e+01	1.525708e+02	1.959365e+02	-6.281425e+02	8.240790e+02	-7.261108e+02	-9.796826e+01	5.460257e+01	-5.809853e-17	5.460257e+01	-5.460257e+01
0.21          	1.091110e+02	-4.385085e+01	1.529618e+02	1.968127e+02	-6.342524e+02	8.310651e+02	-7.326588e+02	-9.840633e+01	5.455548e+01	-5.725118e-17	5.455548e+01	-5.455548e+01
0.215         	1.088008e+02	-4.432084e+01	1.531216e+02	1.974425e+02	-6.387272e+02	8.361696e+02	-7.374484e+02	-9.872124e+01	5.440039e+01	-5.643790e-17	5.440039e+01	-5.440039e+01
0.22          	1.085468e+02	-4.462993e+01	1.531768e+02	1.978067e+02	-6.409623e+02	8.387690e+02	-7.398656e+02	-9.890335e+01	5.427341e+01	-5.549852e-17	5.427341e+01	-5.427341e+01
0.225         	1.083925e+02	-4.507169e+01	1.534641e+02	1.985358e+02	-6.459491e+02	8.444849e+02	-7.452170e+02	-9.926791e+01	5.419623e+01	-5.477469e-17	5.419623e+01	-5.419623e+01
0.23          	1.081160e+02	-4.534276e+01	1.534588e+02	1.988016e+02	-6.475396e+02	8.463412e+02	-7.469404e+02	-9.940078e+01	5.405802e+01	-5.408340e-17	5.405802e+01	-5.405802e+01
0.235         	1.080958e+02	-4.576930e+01	1.538651e+02	1.996344e+02	-6.524836e+02	8.521179e+02	-7.523007e+02	-9.981718e+01	5.404788e+01	-5.354507e-17	5.404788e+01	-5.404788e+01
0.24          	1.074701e+02	-4.594676e+01	1.534168e+02	1.993636e+02	-6.505307e+02	8.498943e+02	-7.502125e+02	-9.968179e+01	5.373503e+01	-5.283936e-17	5.373503e+01	-5.373503e+01
0.245         	1.075360e+02	-4.629634e+01	1.538323e+02	2.001287e+02	-6.545695e+02	8.546982e+02	-7.546339e+02	-1.000643e+02	5.376799e+01	-5.229965e-17	5.376799e+01	-5.376799e+01
0.25          	1.075631e+02	-4.688260e+01	1.544457e+02	2.013283e+02	-6.622095e+02	8.635378e+02	-7.628737e+02	-1.006642e+02	5.378156e+01	-5.168758e-17	5.378156e+01	-5.378156e+01
0.255         	1.071526e+02	-4.715419e+01	1.543068e+02	2.014610e+02	-6.636917e+02	8.651527e+02	-7.644222e+02	-1.007305e+02	5.357632e+01	-5.111174e-17	5.357632e+01	-5.357632e+01
0.26          	1.069639e+02	-4.751374e+01	1.544777e+02	2.019914e+02	-6.666737e+02	8.686651e+02	-7.676694e+02	-1.009957e+02	5.348197e+01	-5.047323e-17	5.348197e+01	-5.348197e+01
0.265         	1.068530e+02	-4.786448e+01	1.547175e+02	2.025820e+02	-6.709846e+02	8.735665e+02	-7.722756e+02	-1.012910e+02	5.342650e+01	-4.990448e-17	5.342650e+01	-5.342650e+01
0.27          	1.066054e+02	-4.812067e+01	1.547260e+02	2.028467e+02	-6.727187e+02	8.755654e+02	-7.741420e+02	-1.014233e+02	5.330268e+01	-4.933947e-17	5.330268e+01	-5.330268e+01
0.275         	1.066229e+02	-4.846279e+01	1.550856e+02	2.035484e+02	-6.769146e+02	8.804631e+02	-7.786889e+02	-1.017742e+02	5.331143e+01	-4.880475e-17	5.331143e+01	-5.331143e+01
0.28          	1.065643e+02	-4.880223e+01	1.553665e+02	2.041687e+02	-6.810193e+02	8.851881e+02	-7.831037e+02	-1.020844e+02	5.328214e+01	-4.830768e-17	5.328214e+01	-5.328214e+01
0.285         	1.070876e+02	-4.931522e+01	1.564028e+02	2.057180e+02	-6.904770e+02	8.961950e+02	-7.933360e+02	-1.028590e+02	5.354379e+01	-4.792392e-17	5.354379e+01	-5.354379e+01
0.29          	1.076785e+02	-4.997117e+01	1.576497e+02	2.076209e+02	-7.019836e+02	9.096045e+02	-8.057940e+02	-1.038104e+02	5.383927e+01	-4.750770e-17	5.383927e+01	-5.383927e+01
0.295         	1.080347e+02	-5.048396e+01	1.585187e+02	2.090027e+02	-7.107214e+02	9.197241e+02	-8.152227e+02	-1.045013e+02	5.401737e+01	-4.722174e-17	5.401737e+01	-5.401737e+01
0.3           	1.081659e+02	-5.079980e+01	1.589657e+02	2.097655e+02	-7.150710e+02	9.248365e+02	-8.199538e+02	-1.048827e+02	5.408295e+01	-4.680280e-17	5.408295e+01	-5.408295e+01
0.305         	1.084526e+02	-5.126698e+01	1.597196e+02	2.109866e+02	-7.231057e+02	9.340923e+02	-8.285990e+02	-1.054933e+02	5.422632e+01	-4.653285e-17	5.422632e+01	-5.422632e+01
0.31          	1.086314e+02	-5.152499e+01	1.601564e+02	2.116814e+02	-7.273538e+02	9.390352e+02	-8.331945e+02	-1.058407e+02	5.431569e+01	-4.624266e-17	5.431569e+01	-5.431569e+01
0.315         	1.091953e+02	-5.217342e+01	1.613687e+02	2.135421e+02	-7.387541e+02	9.522962e+02	-8.455251e+02	-1.067710e+02	5.459763e+01	-4.599857e-17	5.459763e+01	-5.459763e+01
0.32          	1.096905e+02	-5.264501e+01	1.623355e+02	2.149805e+02	-7.472044e+02	9.621849e+02	-8.546947e+02	-1.074902e+02	5.484523e+01	-4.577426e-17	5.484523e+01	-5.484523e+01
0.325         	1.099135e+02	-5.302733e+01	1.629409e+02	2.159682e+02	-7.530088e+02	9.689769e+02	-8.609928e+02	-1.079841e+02	5.495677e+01	-4.553718e-17	5.495677e+01	-5.495677e+01
0.33          	1.101926e+02	-5.338214e+01	1.635748e+02	2.169569e+02	-7.586970e+02	9.756539e+02	-8.671755e+02	-1.084785e+02	5.509631e+01	-4.527444e-17	5.509631e+01	-5.509631e+01
0.335         	1.104623e+02	-5.372348e+01	1.641857e+02	2.179092e+02	-7.643803e+02	9.822895e+02	-8.733349e+02	-1.089546e+02	5.523113e+01	-4.500302e-17	5.523113e+01	-5.523113e+01
0.34          	1.108155e+02	-5.410306e+01	1.649185e+02	2.190216e+02	-7.703390e+02	9.893606e+02	-8.798498e+02	-1.095108e+02	5.540773e+01	-4.469260e-17	5.540773e+01	-5.540773e+01
0.345         	1.109540e+02	-5.439454e+01	1.653485e+02	2.197431e+02	-7.747394e+02	9.944825e+02	-8.846109e+02	-1.098715e+02	5.547700e+01	-4.443112e-17	5.547700e+01	-5.547700e+01
0.35          	1.111145e+02	-5.473582e+01	1.658503e+02	2.205861e+02	-7.799716e+02	1.000558e+03	-8.902647e+02	-1.102931e+02	5.555724e+01	-4.413905e-17	5.555724e+01	-5.555724e+01
0.355         	1.113265e+02	-5.505876e+01	1.663853e+02	2.214440e+02	-7.851628e+02	1.006607e+03	-8.958848e+02	-1.107220e+02	5.566326e+01	-4.388019e-17	5.566326e+01	-5.566326e+01
0.36          	1.115681e+02	-5.540844e+01	1.669765e+02	2.223850e+02	-7.908564e+02	1.013241e+03	-9.020489e+02	-1.111925e+02	5.578404e+01	-4.368525e-17	5.578404e+01	-5.578404e+01
0.365         	1.115573e+02	-5.566701e+01	1.672243e+02	2.228913e+02	-7.942016e+02	1.017093e+03	-9.056472e+02	-1.114457e+02	5.577866e+01	-4.345989e-17	5.577866e+01	-5.577866e+01
0.37          	1.117636e+02	-5.602385e+01	1.677875e+02	2.238113e+02	-7.998510e+02	1.023662e+03	-9.117567e+02	-1.119057e+02	5.588181e+01	-4.332278e-17	5.588181e+01	-5.588181e+01
0.375         	1.117021e+02	-5.624522e+01	1.679473e+02	2.241926e+02	-8.030538e+02	1.027246e+03	-9.151501e+02	-1.120963e+02	5.585106e+01	-4.320104e-17	5.585106e+01	-5.585106e+01
0.38          	1.118275e+02	-5.654813e+01	1.683756e+02	2.249237e+02	-8.074097e+02	1.032333e+03	-9.198716e+02	-1.124619e+02	5.591373e+01	-4.307883e-17	5.591373e+01	-5.591373e+01
0.385         	1.119933e+02	-5.690397e+01	1.688973e+02	2.258013e+02	-8.127569e+02	1.038558e+03	-9.256575e+02	-1.129006e+02	5.599667e+01	-4.294516e-17	5.599667e+01	-5.599667e+01
0.39          	1.120055e+02	-5.715858e+01	1.691641e+02	2.263227e+02	-8.165089e+02	1.042832e+03	-9.296702e+02	-1.131613e+02	5.600276e+01	-4.284516e-17	5.600276e+01	-5.600276e+01
0.395         	1.118925e+02	-5.731826e+01	1.692107e+02	2.265290e+02	-8.179752e+02	1.044504e+03	-9.312397e+02	-1.132645e+02	5.594625e+01	-4.270882e-17	5.594625e+01	-5.594625e+01
0.4           	1.119052e+02	-5.755412e+01	1.694593e+02	2.270134e+02	-8.212469e+02	1.048260e+03	-9.347536e+02	-1.135067e+02	5.595258e+01	-4.259375e-17	5.595258e+01	-5.595258e+01
0.405         	1.118856e+02	-5.773890e+01	1.696245e+02	2.273634e+02	-8.236530e+02	1.051016e+03	-9.373347e+02	-1.136817e+02	5.594280e+01	-4.246579e-17	5.594280e+01	-5.594280e+01
0.41          	1.118505e+02	-5.791834e+01	1.697689e+02	2.276872e+02	-8.257697e+02	1.053457e+03	-9.396133e+02	-1.138436e+02	5.592527e+01	-4.235617e-17	5.592527e+01	-5.592527e+01
0.415         	1.118922e+02	-5.810632e+01	1.699985e+02	2.281048e+02	-8.283079e+02	1.056413e+03	-9.423603e+02	-1.140524e+02	5.594610e+01	-4.224390e-17	5.594610e+01	-5.594610e+01
0.42          	1.118849e+02	-5.831385e+01	1.701988e+02	2.285126e+02	-8.309870e+02	1.059500e+03	-9.452433e+02	-1.142563e+02	5.594247e+01	-4.215275e-17	5.594247e+01	-5.594247e+01
0.425         	1.119204e+02	-5.848489e+01	1.704053e+02	2.288901e+02	-8.332035e+02	1.062094e+03	-9.476486e+02	-1.144451e+02	5.596018e+01	-4.205610e-17	5.596018e+01	-5.596018e+01
0.43          	1.119493e+02	-5.863117e+01	1.705804e+02	2.292116e+02	-8.348451e+02	1.064057e+03	-9.494509e+02	-1.146058e+02	5.597463e+01	-4.197274e-17	5.597463e+01	-5.597463e+01
0.435         	1.120046e+02	-5.880699e+01	1.708116e+02	2.296186e+02	-8.372336e+02	1.066852e+03	-9.520428e+02	-1.148093e+02	5.600231e+01	-4.191826e-17	5.600231e+01	-5.600231e+01
0.44          	1.120121e+02	-5.893910e+01	1.709512e+02	2.298903e+02	-8.386002e+02	1.068491e+03	-9.535454e+02	-1.149452e+02	5.600606e+01	-4.187898e-17	5.600606e+01	-5.600606e+01
0.445         	1.122008e+02	-5.916819e+01	1.713690e+02	2.305372e+02	-8.422877e+02	1.072825e+03	-9.575563e+02	-1.152686e+02	5.610040e+01	-4.182803e-17	5.610040e+01	-5.610040e+01
0.45          	1.123600e+02	-5.941221e+01	1.717722e+02	2.311844e+02	-8.462051e+02	1.077390e+03	-9.617973e+02	-1.155922e+02	5.617998e+01	-4.182388e-17	5.617998e+01	-5.617998e+01
0.455         	1.124033e+02	-5.954072e+01	1.719440e+02	2.314847e+02	-8.476165e+02	1.079101e+03	-9.633589e+02	-1.157424e+02	5.620165e+01	-4.180014e-17	5.620165e+01	-5.620165e+01
0.46          	1.123403e+02	-5.961446e+01	1.719548e+02	2.315693e+02	-8.479606e+02	1.079530e+03	-9.637453e+02	-1.157846e+02	5.617017e+01	-4.174704e-17	5.617017e+01	-5.617017e+01
0.465         	1.123447e+02	-5.974927e+01	1.720939e+02	2.318432e+02	-8.492298e+02	1.081073e+03	-9.651514e+02	-1.159216e+02	5.617233e+01	-4.172930e-17	5.617233e+01	-5.617233e+01
0.47          	1.124390e+02	-5.991379e+01	1.723528e+02	2.322666e+02	-8.511977e+02	1.083464e+03	-9.673310e+02	-1.161333e+02	5.621952e+01	-4.169857e-17	5.621952e+01	-5.621952e+01
0.475         	1.124441e+02	-6.003759e+01	1.724817e+02	2.325193e+02	-8.525340e+02	1.085053e+03	-9.687936e+02	-1.162596e+02	5.622205e+01	-4.168654e-17	5.622205e+01	-5.622205e+01
0.48          	1.123854e+02	-6.015036e+01	1.725358e+02	2.326861e+02	-8.537854e+02	1.086472e+03	-9.701285e+02	-1.163431e+02	5.619271e+01	-4.170559e-17	5.619271e+01	-5.619271e+01
0.485         	1.123758e+02	-6.028941e+01	1.726652e+02	2.329547e+02	-8.551783e+02	1.088133e+03	-9.716556e+02	-1.164773e+02	5.618792e+01	-4.169500e-17	5.618792e+01	-5.618792e+01
0.49          	1.124391e+02	-6.047372e+01	1.729128e+02	2.333865e+02	-8.574472e+02	1.090834e+03	-9.741404e+02	-1.166933e+02	5.621953e+01	-4.169925e-17	5.621953e+01	-5.621953e+01
0.495         	1.123516e+02	-6.055241e+01	1.729040e+02	2.334564e+02	-8.578675e+02	1.091324e+03	-9.745957e+02	-1.167282e+02	5.617578e+01	-4.169336e-17	5.617578e+01	-5.617578e+01
0.5           	1.123735e+02	-6.073066e+01	1.731042e+02	2.338349e+02	-8.602077e+02	1.094043e+03	-9.771251e+02	-1.169174e+02	5.618677e+01	-4.171413e-17	5.618677e+01	-5.618677e+01
0.505         	1.122595e+02	-6.081308e+01	1.730726e+02	2.338857e+02	-8.607358e+02	1.094622e+03	-9.776787e+02	-1.169429e+02	5.612977e+01	-4.172364e-17	5.612977e+01	-5.612977e+01
0.51          	1.122368e+02	-6.096471e+01	1.732015e+02	2.341662e+02	-8.622567e+02	1.096423e+03	-9.793398e+02	-1.170831e+02	5.611840e+01	-4.174390e-17	5.611840e+01	-5.611840e+01
0.515         	1.121907e+02	-6.108112e+01	1.732718e+02	2.343529e+02	-8.637875e+02	1.098140e+03	-9.809639e+02	-1.171765e+02	5.609536e+01	-4.175770e-17	5.609536e+01	-5.609536e+01
0.52          	1.121484e+02	-6.121218e+01	1.733605e+02	2.345727e+02	-8.650868e+02	1.099659e+03	-9.823731e+02	-1.172864e+02	5.607418e+01	-4.178606e-17	5.607418e+01	-5.607418e+01
0.525         	1.121489e+02	-6.135326e+01	1.735021e+02	2.348554e+02	-8.668425e+02	1.101698e+03	-9.842702e+02	-1.174277e+02	5.607444e+01	-4.181191e-17	5.607444e+01	-5.607444e+01
0.53          	1.121129e+02	-6.148341e+01	1.735963e+02	2.350797e+02	-8.681452e+02	1.103225e+03	-9.856850e+02	-1.175399e+02	5.605647e+01	-4.184898e-17	5.605647e+01	-5.605647e+01
0.535         	1.121100e+02	-6.161236e+01	1.737224e+02	2.353347e+02	-8.696805e+02	1.105015e+03	-9.873478e+02	-1.176674e+02	5.605500e+01	-4.187713e-17	5.605500e+01	-5.605500e+01
0.54          	1.120794e+02	-6.171574e+01	1.737951e+02	2.355108e+02	-8.707054e+02	1.106216e+03	-9.884608e+02	-1.177554e+02	5.603968e+01	-4.188304e-17	5.603968e+01	-5.603968e+01
0.545         	1.122128e+02	-6.190085e+01	1.741136e+02	2.360145e+02	-8.733177e+02	1.109332e+03	-9.913249e+02	-1.180072e+02	5.610639e+01	-4.188455e-17	5.610639e+01	-5.610639e+01
0.55          	1.121499e+02	-6.198480e+01	1.741347e+02	2.361195e+02	-8.741619e+02	1.110281e+03	-9.922216e+02	-1.180598e+02	5.607495e+01	-4.191205e-17	5.607495e+01	-5.607495e+01
0.555         	1.122496e+02	-6.217546e+01	1.744251e+02	2.366005e+02	-8.768462e+02	1.113447e+03	-9.951465e+02	-1.183003e+02	5.612481e+01	-4.193395e-17	5.612481e+01	-5.612481e+01
0.56          	1.122284e+02	-6.225909e+01	1.744875e+02	2.367466e+02	-8.778678e+02	1.114614e+03	-9.962411e+02	-1.183733e+02	5.611421e+01	-4.193639e-17	5.611421e+01	-5.611421e+01
0.565         	1.122899e+02	-6.238362e+01	1.746735e+02	2.370571e+02	-8.795515e+02	1.116609e+03	-9.980801e+02	-1.185286e+02	5.614494e+01	-4.195108e-17	5.614494e+01	-5.614494e+01
0.57          	1.123491e+02	-6.250228e+01	1.748514e+02	2.373537e+02	-8.810612e+02	1.118415e+03	-9.997381e+02	-1.186769e+02	5.617457e+01	-4.196298e-17	5.617457e+01	-5.617457e+01
0.575         	1.123486e+02	-6.257214e+01	1.749207e+02	2.374929e+02	-8.816964e+02	1.119189e+03	-1.000443e+03	-1.187464e+02	5.617428e+01	-4.195983e-17	5.617428e+01	-5.617428e+01
0.58          	1.125284e+02	-6.277417e+01	1.753025e+02	2.380767e+02	-8.847772e+02	1.122854e+03	-1.003816e+03	-1.190384e+02	5.626419e+01	-4.196888e-17	5.626419e+01	-5.626419e+01
0.585         	1.125918e+02	-6.288093e+01	1.754728e+02	2.383537e+02	-8.863439e+02	1.124698e+03	-1.005521e+03	-1.191769e+02	5.629592e+01	-4.196545e-17	5.629592e+01	-5.629592e+01
0.59          	1.127391e+02	-6.303527e+01	1.757743e+02	2.388096e+02	-8.888962e+02	1.127706e+03	-1.008301e+03	-1.194048e+02	5.636954e+01	-4.195008e-17	5.636954e+01	-5.636954e+01
0.595         	1.128475e+02	-6.314980e+01	1.759974e+02	2.391472e+02	-8.904438e+02	1.129591e+03	-1.010017e+03	-1.195736e+02	5.642377e+01	-4.194928e-17	5.642377e+01	-5.642377e+01
0.6           	1.129960e+02	-6.329772e+01	1.762937e+02	2.395914e+02	-8.928313e+02	1.132423e+03	-1.012627e+03	-1.197957e+02	5.649800e+01	-4.194177e-17	5.649800e+01	-5.649800e+01
0.605         	1.130910e+02	-6.341208e+01	1.765031e+02	2.399151e+02	-8.947683e+02	1.134683e+03	-1.014726e+03	-1.199576e+02	5.654549e+01	-4.192779e-17	5.654549e+01	-5.654549e+01
0.61          	1.131799e+02	-6.352607e+01	1.767059e+02	2.402320e+02	-8.965869e+02	1.136819e+03	-1.016703e+03	-1.201160e+02	5.658993e+01	-4.192020e-17	5.658993e+01	-5.658993e+01
0.615         	1.133768e+02	-6.369094e+01	1.770677e+02	2.407587e+02	-8.993211e+02	1.140080e+03	-1.019700e+03	-1.203793e+02	5.668840e+01	-4.190195e-17	5.668840e+01	-5.668840e+01
0.62          	1.134357e+02	-6.377308e+01	1.772088e+02	2.409819e+02	-9.007485e+02	1.141730e+03	-1.021239e+03	-1.204909e+02	5.671785e+01	-4.189225e-17	5.671785e+01	-5.671785e+01
0.625         	1.137133e+02	-6.397074e+01	1.776840e+02	2.416547e+02	-9.043174e+02	1.145972e+03	-1.025145e+03	-1.208274e+02	5.685663e+01	-4.187855e-17	5.685663e+01	-5.685663e+01
0.63          	1.138340e+02	-6.410464e+01	1.779387e+02	2.420433e+02	-9.063804e+02	1.148424e+03	-1.027402e+03	-1.210216e+02	5.691701e+01	-4.186863e-17	5.691701e+01	-5.691701e+01
0.635         	1.140526e+02	-6.428848e+01	1.783410e+02	2.426295e+02	-9.096240e+02	1.152254e+03	-1.030939e+03	-1.213148e+02	5.702628e+01	-4.185872e-17	5.702628e+01	-5.702628e+01
0.64          	1.142639e+02	-6.445499e+01	1.787189e+02	2.431739e+02	-9.124705e+02	1.155644e+03	-1.034057e+03	-1.215870e+02	5.713196e+01	-4.184769e-17	5.713196e+01	-5.713196e+01
0.645         	1.145371e+02	-6.464694e+01	1.791840e+02	2.438310e+02	-9.158136e+02	1.159645e+03	-1.037729e+03	-1.219155e+02	5.726855e+01	-4.181388e-17	5.726855e+01	-5.726855e+01
0.65          	1.147688e+02	-6.483072e+01	1.795995e+02	2.444303e+02	-9.191967e+02	1.163627e+03	-1.041412e+03	-1.222151e+02	5.738441e+01	-4.182523e-17	5.738441e+01	-5.738441e+01
0.655         	1.149446e+02	-6.498139e+01	1.799260e+02	2.449074e+02	-9.218078e+02	1.166715e+03	-1.044262e+03	-1.224537e+02	5.747231e+01	-4.175328e-17	5.747231e+01	-5.747231e+01
0.66          	1.151065e+02	-6.513619e+01	1.802427e+02	2.453789e+02	-9.243928e+02	1.169772e+03	-1.047082e+03	-1.226894e+02	5.755325e+01	-4.184000e-17	5.755325e+01	-5.755325e+01
0.665         	1.151503e+02	-6.521599e+01	1.803663e+02	2.455823e+02	-9.256356e+02	1.171218e+03	-1.048427e+03	-1.227911e+02	5.757516e+01	-4.181585e-17	5.757516e+01	-5.757516e+01
0.67          	1.154655e+02	-6.543762e+01	1.809032e+02	2.463408e+02	-9.298981e+02	1.176239e+03	-1.053069e+03	-1.231704e+02	5.773277e+01	-4.179942e-17	5.773277e+01	-5.773277e+01
0.675         	1.156063e+02	-6.558756e+01	1.811938e+02	2.467814e+02	-9.321466e+02	1.178928e+03	-1.055537e+03	-1.233907e+02	5.780314e+01	-4.181404e-17	5.780314e+01	-5.780314e+01
0.68          	1.156825e+02	-6.569036e+01	1.813728e+02	2.470632e+02	-9.338901e+02	1.180953e+03	-1.057422e+03	-1.235316e+02	5.784123e+01	-4.178342e-17	5.784123e+01	-5.784123e+01
0.685         	1.159488e+02	-6.590883e+01	1.818576e+02	2.477665e+02	-9.378743e+02	1.185641e+03	-1.061758e+03	-1.238832e+02	5.797440e+01	-4.178936e-17	5.797440e+01	-5.797440e+01
0.69          	1.161362e+02	-6.608084e+01	1.822170e+02	2.482979e+02	-9.407187e+02	1.189017e+03	-1.064868e+03	-1.241489e+02	5.806809e+01	-4.179416e-17	5.806809e+01	-5.806809e+01
0.695         	1.162726e+02	-6.622707e+01	1.824996e+02	2.487267e+02	-9.432003e+02	1.191927e+03	-1.067564e+03	-1.243634e+02	5.813629e+01	-4.179097e-17	5.813629e+01	-5.813629e+01
0.7           	1.164330e+02	-6.638474e+01	1.828178e+02	2.492025e+02	-9.457342e+02	1.194937e+03	-1.070335e+03	-1.246013e+02	5.821651e+01	-4.179449e-17	5.821651e+01	-5.821651e+01
0.705         	1.165822e+02	-6.654002e+01	1.831222e+02	2.496622e+02	-9.483651e+02	1.198027e+03	-1.073196e+03	-1.248311e+02	5.829109e+01	-4.180851e-17	5.829109e+01	-5.829109e+01
0.71          	1.167686e+02	-6.670650e+01	1.834751e+02	2.501816e+02	-9.512434e+02	1.201425e+03	-1.076334e+03	-1.250908e+02	5.838432e+01	-4.181875e-17	5.838432e+01	-5.838432e+01
0.715         	1.169228e+02	-6.687039e+01	1.837932e+02	2.506636e+02	-9.538546e+02	1.204518e+03	-1.079186e+03	-1.253318e+02	5.846139e+01	-4.183289e-17	5.846139e+01	-5.846139e+01
0.72          	1.171255e+02	-6.704475e+01	1.841703e+02	2.512151e+02	-9.568461e+02	1.208061e+03	-1.082454e+03	-1.256075e+02	5.856277e+01	-4.183846e-17	5.856277e+01	-5.856277e+01
0.725         	1.172774e+02	-6.719246e+01	1.844699e+02	2.516624e+02	-9.591512e+02	1.210814e+03	-1.084982e+03	-1.258312e+02	5.863871e+01	-4.184125e-17	5.863871e+01	-5.863871e+01
0.73          	1.174042e+02	-6.733933e+01	1.847435e+02	2.520829e+02	-9.616849e+02	1.213768e+03	-1.087726e+03	-1.260414e+02	5.870211e+01	-4.185244e-17	5.870211e+01	-5.870211e+01
0.735         	1.175039e+02	-6.744534e+01	1.849492e+02	2.523946e+02	-9.632834e+02	1.215678e+03	-1.089481e+03	-1.261973e+02	5.875194e+01	-4.185717e-17	5.875194e+01	-5.875194e+01
0.74          	1.176171e+02	-6.758122e+01	1.851984e+02	2.527796e+02	-9.653044e+02	1.218084e+03	-1.091694e+03	-1.263898e+02	5.880857e+01	-4.187735e-17	5.880857e+01	-5.880857e+01
0.745         	1.178058e+02	-6.774040e+01	1.855462e+02	2.532866e+02	-9.680116e+02	1.221298e+03	-1.094655e+03	-1.266433e+02	5.890292e+01	-4.188972e-17	5.890292e+01	-5.890292e+01
0.75          	1.180041e+02	-6.791553e+01	1.859196e+02	2.538351e+02	-9.708862e+02	1.224721e+03	-1.097804e+03	-1.269176e+02	5.900204e+01	-4.189643e-17	5.900204e+01	-5.900204e+01
0.755         	1.181293e+02	-6.805136e+01	1.861807e+02	2.542321e+02	-9.730460e+02	1.227278e+03	-1.100162e+03	-1.271160e+02	5.906467e+01	-4.191846e-17	5.906467e+01	-5.906467e+01
0.76          	1.182856e+02	-6.819786e+01	1.864835e+02	2.546814e+02	-9.753634e+02	1.230045e+03	-1.102704e+03	-1.273407e+02	5.914281e+01	-4.193095e-17	5.914281e+01	-5.914281e+01
0.765         	1.183963e+02	-6.832047e+01	1.867167e+02	2.550372e+02	-9.772330e+02	1.232270e+03	-1.104752e+03	-1.275186e+02	5.919813e+01	-4.193697e-17	5.919813e+01	-5.919813e+01
0.77          	1.185521e+02	-6.846302e+01	1.870151e+02	2.554781e+02	-9.795407e+02	1.235019e+03	-1.107280e+03	-1.277391e+02	5.927603e+01	-4.196563e-17	5.927603e+01	-5.927603e+01
0.775         	1.186585e+02	-6.858977e+01	1.872482e+02	2.558380e+02	-9.813676e+02	1.237206e+03	-1.109287e+03	-1.279190e+02	5.932924e+01	-4.199403e-17	5.932924e+01	-5.932924e+01
0.78          	1.187899e+02	-6.871734e+01	1.875072e+02	2.562245e+02	-9.834554e+02	1.239680e+03	-1.111568e+03	-1.281123e+02	5.939493e+01	-4.200742e-17	5.939493e+01	-5.939493e+01
0.785         	1.189419e+02	-6.886174e+01	1.878037e+02	2.566654e+02	-9.857808e+02	1.242446e+03	-1.114114e+03	-1.283327e+02	5.947097e+01	-4.203112e-17	5.947097e+01	-5.947097e+01
0.79          	1.191545e+02	-6.902694e+01	1.881814e+02	2.572083e+02	-9.885014e+02	1.245710e+03	-1.117106e+03	-1.286042e+02	5.957723e+01	-4.204734e-17	5.957723e+01	-5.957723e+01
0.795         	1.192758e+02	-6.915065e+01	1.884264e+02	2.575771e+02	-9.905701e+02	1.248147e+03	-1.119359e+03	-1.287885e+02	5.963788e+01	-4.206785e-17	5.963788e+01	-5.963788e+01
0.8           	1.193884e+02	-6.927057e+01	1.886589e+02	2.579295e+02	-9.924931e+02	1.250423e+03	-1.121458e+03	-1.289648e+02	5.969419e+01	-4.209238e-17	5.969419e+01	-5.969419e+01
0.805         	1.195625e+02	-6.941114e+01	1.889737e+02	2.583848e+02	-9.948884e+02	1.253273e+03	-1.124081e+03	-1.291924e+02	5.978127e+01	-4.210975e-17	5.978127e+01	-5.978127e+01
0.81          	1.197057e+02	-6.953569e+01	1.892414e+02	2.587771e+02	-9.971288e+02	1.255906e+03	-1.126517e+03	-1.293886e+02	5.985286e+01	-4.211081e-17	5.985286e+01	-5.985286e+01
0.815         	1.198481e+02	-6.966440e+01	1.895125e+02	2.591769e+02	-9.991871e+02	1.258364e+03	-1.128776e+03	-1.295885e+02	5.992407e+01	-4.212433e-17	5.992407e+01	-5.992407e+01
0.82          	1.200410e+02	-6.982554e+01	1.898665e+02	2.596920e+02	-1.001992e+03	1.261684e+03	-1.131838e+03	-1.298460e+02	6.002048e+01	-4.215093e-17	6.002048e+01	-6.002048e+01
0.825         	1.201116e+02	-6.992105e+01	1.900326e+02	2.599537e+02	-1.003625e+03	1.263579e+03	-1.133602e+03	-1.299769e+02	6.005580e+01	-4.216204e-17	6.005580e+01	-6.005580e+01