/*--------------------------------*- C++ -*----------------------------------*\
| =========                 |                                                 |
| \\      /  F ield         | OpenFOAM: The Open Source CFD Toolbox           |
|  \\    /   O peration     | Version:  2306                                  |
|   \\  /    A nd           | Website:  www.openfoam.com                      |
|    \\/     M anipulation  |                                                 |
\*---------------------------------------------------------------------------*/
FoamFile
{
    version     2.0;
    format      ascii;
    arch        "LSB;label=32;scalar=64";
    class       volVectorField;
    location    "8.7";
    object      U;
}
// * * * * * * * * * * * * * * * * * * * * * * * * * * * * * * * * * * * * * //

dimensions      [0 1 -1 0 0 0 0];

internalField   nonuniform List<vector> 
5098
(
(2.39092 1.03519 0)
(2.0631 0.0824134 -6.04749e-20)
(2.51096 -0.0272517 -1.54204e-21)
(1.62739 -0.714184 4.22294e-19)
(3.36696 -1.08878 0)
(0.978411 -0.467015 0)
(2.50168 0.0189028 9.56912e-20)
(2.99731 -0.204998 1.94907e-21)
(2.69984 -0.0424187 -3.3662e-20)
(1.82897 -0.296358 3.10013e-19)
(-2.66896 1.21499 0)
(2.01475 -0.00811965 7.37395e-20)
(2.26584 0.130776 1.62289e-20)
(1.01659 -0.498341 0)
(2.58764 -0.498583 1.66132e-19)
(1.84451 0.0697268 -1.15733e-21)
(-2.50405 1.07394 -8.39951e-19)
(-2.43776 1.80931 0)
(-0.244685 0.216147 2.28441e-19)
(-2.37868 1.07593 9.60772e-19)
(1.80547 0.493265 -8.36e-20)
(1.78259 0.0775699 -4.40578e-21)
(2.37482 -0.786457 0)
(0.850563 -0.0172417 2.66438e-20)
(-0.370678 0.397008 0)
(1.54818 -0.612966 0)
(1.99354 0.00794077 1.16814e-19)
(2.01398 -0.807743 2.7841e-20)
(-0.325834 0.211744 -7.01015e-19)
(2.15795 -0.870839 0)
(2.32871 -0.0989591 -4.25831e-20)
(0.800762 -0.391774 0)
(2.07056 0.0519957 -1.05639e-19)
(-2.56003 0.671731 0)
(2.49582 0.376151 4.25228e-22)
(3.70895 0.59015 7.89673e-19)
(1.97544 -0.410972 6.46243e-20)
(2.08341 -0.018407 -2.31995e-21)
(1.38757 -0.470751 4.09487e-19)
(1.65937 -0.738573 0)
(1.63983 -0.731517 -1.85651e-19)
(-0.0128457 2.46665 -1.13211e-18)
(1.5713 -0.614944 0)
(2.49992 -0.303839 7.57717e-20)
(2.33457 0.688382 -4.22898e-20)
(2.05612 0.0807622 8.90175e-21)
(-2.5124 1.23492 3.14112e-19)
(1.15648 -0.405634 0)
(2.30135 -0.114053 0)
(1.62629 -0.675554 4.56879e-20)
(2.20013 0.131075 1.12507e-19)
(1.62587 0.403323 -4.52465e-19)
(0.218112 -0.141366 2.64688e-22)
(2.11129 -0.0505991 9.83709e-20)
(1.03886 -0.515144 -2.24602e-19)
(1.62153 0.0779726 0)
(1.85475 0.247273 -2.37158e-19)
(1.73896 -0.680408 0)
(0.941493 -0.465985 0)
(2.07045 -0.0274629 -4.05644e-20)
(1.67893 -0.429403 -1.44307e-20)
(-1.85162 1.03548 -9.45991e-19)
(2.50287 0.399896 0)
(2.17005 0.165426 0)
(0.253077 -0.158104 1.24477e-18)
(0.89228 -0.449622 3.23227e-19)
(2.50514 0.0537556 -1.08756e-21)
(2.27397 0.187532 2.68119e-20)
(2.1621 -0.187222 5.53191e-20)
(1.79666 -0.728832 1.02922e-19)
(1.90384 0.175529 9.66779e-21)
(1.01577 -1.24345 6.19401e-21)
(2.11995 -0.816273 0)
(-1.10543 0.0962298 0)
(1.84537 -0.309229 3.1288e-20)
(1.2281 -0.59487 -2.22745e-19)
(1.69483 -0.243841 0)
(1.56079 0.153248 3.77919e-19)
(2.26943 -0.293879 9.51346e-20)
(1.65006 0.130409 0)
(1.7745 -0.0489606 0)
(1.11689 1.63452 2.91778e-19)
(1.76907 -0.295228 3.39748e-19)
(-2.44453 0.778869 -1.72859e-19)
(-2.33714 1.74219 6.27767e-19)
(1.98938 -0.808839 -6.35498e-19)
(0.169019 0.180368 -2.57854e-19)
(1.70281 -0.260916 3.39364e-22)
(3.05118 -0.0254356 6.84103e-20)
(1.53148 -0.404884 -7.6718e-21)
(2.29854 -0.123253 -1.05728e-21)
(1.06804 -0.484525 4.97991e-19)
(2.45501 -0.0478129 -9.5237e-20)
(1.64596 -0.696407 -2.24807e-19)
(1.36853 -0.492869 7.19979e-20)
(0.543646 -0.864851 -1.15994e-19)
(1.18044 -0.583038 -1.33987e-19)
(1.48661 0.214111 2.87155e-19)
(1.76151 -0.288372 1.09403e-20)
(2.16152 -0.417533 -8.36241e-21)
(2.59688 -1.02389 -8.88259e-19)
(1.09749 -0.539041 -2.54554e-19)
(1.15208 1.20235 -9.86868e-19)
(2.55242 -0.0783655 7.88153e-21)
(1.57489 0.131396 -4.29592e-19)
(2.26407 1.09988 0)
(1.93387 0.226464 2.5447e-19)
(2.30756 0.092955 6.14493e-20)
(1.105 -0.454226 6.25342e-20)
(-2.63792 1.29196 0)
(1.16983 -0.555856 -4.16104e-19)
(0.81387 0.322841 3.27673e-19)
(1.91644 -0.022122 -1.75812e-19)
(1.07236 -0.327328 1.18723e-19)
(1.74323 0.563454 1.21299e-19)
(-0.448926 0.233684 0)
(1.65583 1.4375 1.00024e-18)
(2.42182 1.40488 0)
(1.46335 -0.413569 -5.2587e-20)
(0.884014 -0.0671241 -4.03893e-19)
(1.68759 0.398832 3.71629e-19)
(1.43284 1.7713 -3.19078e-19)
(1.77606 -0.362822 -1.97713e-19)
(-0.760374 2.34278 -5.21568e-19)
(0.514766 -0.564819 -6.70581e-19)
(-1.84692 0.880425 9.77836e-20)
(2.27853 -0.0377254 8.00013e-20)
(2.33374 -0.745969 1.7921e-19)
(1.4045 -0.176061 -9.36215e-20)
(1.08273 -0.337266 -2.26534e-19)
(-1.35679 2.16823 -7.35954e-19)
(1.19693 -0.539604 -4.40588e-19)
(1.22163 -0.537091 3.66313e-19)
(2.33223 1.41515 -3.19576e-20)
(0.689511 -1.95918 -2.62775e-18)
(3.67003 -0.231405 5.41479e-19)
(1.76262 2.20299 1.32238e-19)
(1.90916 0.228586 1.76323e-19)
(0.945084 -0.464602 0)
(2.10929 -0.0662593 -3.27975e-19)
(1.6023 0.485278 -3.06429e-19)
(3.04754 0.110086 7.01139e-19)
(1.94121 -0.852523 -1.23771e-20)
(2.48049 -0.0224319 -7.33859e-21)
(2.02365 0.0679002 -6.28648e-20)
(2.50474 -0.0536941 0)
(2.14078 -0.19707 7.30372e-20)
(2.94101 -1.67603 0)
(2.86678 0.0082614 3.34652e-19)
(1.9005 -0.837183 -6.6941e-20)
(1.64445 1.75018 -9.61763e-19)
(1.52819 0.858258 0)
(3.198 -1.58497 3.43852e-19)
(2.08935 0.0406309 0)
(0.162536 0.100044 -3.17407e-19)
(0.897012 -0.352954 -1.62058e-19)
(1.74089 -0.675782 -2.03448e-19)
(2.14476 -1.5887 -5.62535e-19)
(1.58856 -0.728227 -1.57424e-19)
(-0.144334 0.0904401 7.53401e-19)
(2.0458 -0.397712 -1.35806e-19)
(2.60317 -0.532009 -2.18954e-19)
(0.483384 0.67377 -3.15841e-19)
(1.87015 -0.192941 -2.03673e-19)
(-2.15754 1.72389 -4.61967e-19)
(2.31154 -0.137723 -6.20246e-20)
(3.39129 -1.41298 -1.27495e-18)
(2.53693 -0.220679 0)
(-0.940954 0.891215 4.52949e-19)
(1.79402 -0.538076 -2.41595e-19)
(0.671614 -0.990264 8.24838e-20)
(1.62741 -0.643896 -1.57921e-19)
(2.13105 0.567198 1.88597e-19)
(2.00637 -0.771946 3.5841e-20)
(2.60728 -0.054071 0)
(1.93574 0.00437125 0)
(1.78843 -0.283441 -1.23738e-19)
(3.24126 0.642288 -1.60229e-20)
(1.81391 -0.172474 3.10433e-19)
(0.348129 0.0353703 0)
(1.55598 1.98634 0)
(2.07961 1.32088 -6.28534e-19)
(1.874 -0.525587 2.55212e-19)
(-2.07298 1.78174 0)
(1.91138 -0.197255 0)
(2.58776 0.848682 1.16526e-19)
(1.53207 0.242485 0)
(1.99461 -0.39723 2.02873e-19)
(1.08941 -0.526461 4.15387e-19)
(0.371597 0.332563 -2.50043e-19)
(0.830115 0.574043 0)
(1.60314 0.236091 1.32584e-19)
(2.15217 -0.84304 0)
(1.83017 -0.33125 2.96194e-20)
(2.33091 -0.122898 6.57015e-21)
(1.11845 -0.403568 -5.5041e-19)
(2.49662 0.638984 1.90044e-19)
(3.90314 -0.00484069 0)
(2.08632 0.0409483 -1.13381e-21)
(1.83547 -0.51726 -3.70271e-20)
(-1.14294 1.79946 -1.07345e-18)
(1.68426 0.331586 5.57817e-21)
(2.34202 0.701077 -4.17268e-20)
(2.35547 0.0082112 6.98855e-21)
(1.52261 -0.0069847 1.20688e-19)
(0.870478 -0.358289 -1.14952e-19)
(2.68086 0.130854 -9.29804e-21)
(1.2597 -0.5832 0)
(2.40603 -0.061195 0)
(1.49988 -0.709351 9.6294e-20)
(2.01236 -0.142382 -9.82173e-20)
(1.72905 0.298139 2.94118e-19)
(1.83364 0.33955 -1.24217e-19)
(2.06537 0.0908438 -2.32471e-19)
(2.40305 -0.0739259 -2.79584e-19)
(-0.135615 0.247683 -1.89567e-19)
(1.92073 -0.347056 0)
(-2.67408 1.51304 -1.32264e-18)
(0.762725 -0.511648 9.3321e-20)
(1.99902 0.0547135 1.4866e-19)
(2.27898 -0.104683 -3.90112e-21)
(1.6694 -0.339931 0)
(2.62903 0.118119 -8.74513e-21)
(2.27702 -0.151971 2.38571e-21)
(0.674281 -0.169364 1.43073e-19)
(2.07338 -0.135051 0)
(0.478147 -0.137342 0)
(1.98371 0.0241381 0)
(2.1157 -0.440129 0)
(2.37906 -0.779118 -6.10174e-20)
(1.80141 0.411653 0)
(0.681268 -0.293129 -4.36277e-19)
(1.92667 0.920609 -3.41618e-19)
(1.92478 0.0488152 7.57084e-22)
(2.59955 -0.0616886 -4.05162e-20)
(2.31294 -0.0530014 0)
(1.37999 1.35502 -2.57258e-19)
(-0.161032 0.988959 -1.05513e-18)
(3.1893 0.404463 0)
(1.89485 -0.0225349 2.43489e-19)
(0.788943 1.64493 -9.8106e-19)
(2.1644 0.592107 0)
(2.74688 0.000634864 0)
(1.10759 -0.275284 7.00609e-19)
(1.78681 0.450219 -4.09256e-19)
(2.28615 -0.0551443 -7.60512e-20)
(1.13578 -0.542206 6.6818e-20)
(-2.67333 1.32726 -8.80291e-19)
(-2.63496 1.07971 0)
(2.36455 -0.0637589 2.07134e-20)
(2.09379 0.80562 -1.72907e-19)
(2.03272 -0.799611 6.46724e-21)
(-0.596086 -0.0312387 3.06871e-19)
(-0.63485 1.53946 5.38317e-19)
(1.98808 0.021298 -1.81126e-19)
(-0.0881293 0.783004 9.74507e-19)
(1.91865 -2.02704 2.25948e-18)
(0.306984 0.223891 -2.494e-19)
(1.18978 -0.426972 -2.7812e-19)
(1.70635 0.0132831 1.69343e-20)
(2.59445 0.852711 1.27207e-20)
(0.294966 -0.130814 5.73302e-19)
(-0.0911766 0.17404 6.42471e-19)
(2.06512 -0.84453 0)
(2.11799 0.0441007 1.22536e-21)
(-2.24289 1.35187 3.20055e-19)
(-0.112304 0.0753646 -8.84495e-19)
(-2.58197 1.03106 0)
(0.523315 -0.66686 0)
(1.87363 -0.00876346 -2.25222e-20)
(0.535752 0.359088 3.0775e-19)
(1.79756 0.0946708 -9.27243e-20)
(-0.198862 0.0997206 -3.97155e-19)
(0.742607 -0.617182 0)
(1.19789 -0.491125 2.76468e-21)
(0.629293 1.37851 -6.91887e-19)
(-0.22264 2.4502 -1.51121e-18)
(2.23892 1.10656 0)
(2.54041 -0.547855 0)
(2.01417 -0.123202 0)
(-1.51976 2.07023 -4.11289e-19)
(2.92537 -0.194789 2.01351e-19)
(0.694535 -0.14253 -6.04793e-19)
(2.85523 -0.135028 -2.23719e-19)
(3.3361 -0.0681156 -6.58607e-19)
(-1.90775 0.999639 0)
(1.97243 0.0215923 0)
(2.68172 -0.0223463 3.94551e-20)
(2.36119 -0.138653 5.02074e-20)
(1.57237 -0.000473104 -1.16301e-19)
(-0.488984 2.42175 0)
(-1.23634 -0.730305 4.18616e-19)
(1.12237 -0.0715569 -2.09256e-19)
(2.3514 0.538737 -4.9471e-20)
(2.11394 -0.584221 3.27438e-20)
(0.954598 -0.24117 -1.91484e-19)
(2.52302 0.142801 0)
(2.31784 -0.117066 -4.53395e-20)
(2.03744 0.0150329 0)
(2.06046 0.0308135 -1.07624e-19)
(2.37024 -0.103734 -3.27887e-20)
(2.72249 0.114647 6.14459e-20)
(1.67402 -0.428392 3.58163e-19)
(1.84547 0.406699 2.32322e-19)
(-2.18478 1.32242 -5.21158e-19)
(1.91993 -0.739567 -6.20982e-20)
(2.26772 1.74465 -5.12294e-20)
(2.09154 -0.00442459 0)
(1.90717 -0.389144 0)
(-2.60485 1.18561 0)
(2.2878 -0.158862 7.37091e-21)
(-0.754773 -0.0992928 3.23954e-20)
(0.907589 -0.449328 2.82719e-19)
(1.99934 -0.0884719 -8.85278e-20)
(2.32371 0.164458 1.04745e-19)
(0.236704 0.0196504 6.25836e-19)
(1.74843 2.08401 2.55151e-20)
(2.62299 0.0880253 6.73293e-21)
(2.25575 -0.0641202 2.1378e-19)
(0.94711 -0.403734 0)
(2.40521 -0.303527 -1.15412e-19)
(-1.23577 -0.759522 -8.26907e-19)
(3.21991 0.279845 -4.53227e-19)
(0.211255 -0.531233 -2.08354e-20)
(1.7824 -0.274312 1.21159e-20)
(1.37217 -0.446023 2.86149e-19)
(2.0797 0.85947 0)
(1.99001 0.0667361 -8.33565e-20)
(1.11957 -0.46007 -6.56208e-19)
(1.44344 -0.3374 5.04674e-20)
(1.39887 -0.667492 0)
(2.31434 -0.0719725 -6.40297e-20)
(1.09926 -0.529995 1.83111e-19)
(2.62824 -0.561048 2.80663e-19)
(1.82667 -0.730132 -1.25321e-19)
(2.31644 0.0835919 -1.06024e-19)
(2.27947 -0.0734277 -1.38183e-20)
(1.04195 -0.512981 2.84249e-19)
(2.16256 -0.0461704 1.08113e-19)
(1.90743 -0.331865 0)
(1.96636 -0.865766 1.42932e-20)
(1.77409 -0.729694 -4.29748e-19)
(2.307 -0.254276 2.7041e-20)
(1.98931 0.0384871 3.29382e-20)
(1.38374 0.968306 0)
(1.7313 -0.267463 0)
(2.13768 -0.0472559 -9.81768e-20)
(0.295363 0.248457 1.753e-19)
(2.47459 1.34387 0)
(2.2619 -0.0473436 6.99191e-20)
(2.06802 -0.856155 -1.07945e-20)
(0.948886 0.296064 -5.55599e-19)
(0.944222 -0.40821 -3.66678e-19)
(-1.35381 1.93271 3.95302e-19)
(1.91222 -0.101383 5.07403e-20)
(-1.54156 1.90465 1.58985e-18)
(3.94251 -0.046487 -7.09683e-19)
(2.01631 -0.0234077 0)
(1.43965 -0.137606 -8.21881e-20)
(1.22587 -1.29577 0)
(1.9729 0.0813084 -3.97335e-19)
(2.08111 -0.376332 0)
(2.01204 -0.0159359 -6.64229e-20)
(1.65594 -0.247594 2.55029e-20)
(2.57548 -0.27808 -6.33666e-20)
(1.17524 -0.466015 3.66889e-19)
(1.97305 0.0631125 -3.07131e-19)
(2.01223 0.202616 -4.39418e-19)
(2.37049 -0.929969 0)
(-0.17458 1.20175 0)
(1.24618 -0.505083 -3.49565e-19)
(2.52051 -0.319446 0)
(3.30925 0.945989 -5.76239e-19)
(1.58346 -0.365294 0)
(0.829038 -1.37636 -8.29155e-21)
(-2.14667 1.17386 8.27863e-19)
(1.8461 -0.549524 3.134e-19)
(1.1441 0.425828 -6.5035e-20)
(2.48798 -0.2365 0)
(1.66157 -0.239551 -2.80439e-20)
(1.7302 0.0170874 -1.46164e-19)
(-1.95911 0.935905 -1.17452e-19)
(1.97823 0.0221009 -1.61255e-19)
(2.78197 0.101433 -4.62904e-20)
(2.58309 -0.145046 -2.78836e-20)
(2.84376 1.1279 1.6278e-19)
(2.46393 0.465742 4.21056e-20)
(-0.33712 1.21535 -2.33446e-19)
(1.7828 -0.484422 0)
(0.719438 1.2592 1.0713e-18)
(1.98197 0.097828 -1.47601e-19)
(2.2367 -0.188249 0)
(1.98918 0.0222662 1.15898e-19)
(1.24483 -0.592374 -1.61656e-19)
(1.54982 1.1842 2.113e-19)
(2.80424 0.433221 0)
(1.45489 -0.681098 7.24166e-20)
(-0.931556 -0.924507 0)
(2.16521 0.0606102 5.4436e-20)
(2.81061 -0.379736 -2.2233e-19)
(0.208294 0.731875 8.33926e-19)
(1.08765 -0.0914488 0)
(1.56415 0.225582 2.01296e-19)
(1.98062 0.0427379 1.27128e-19)
(-0.396462 0.208928 0)
(1.59728 0.0202085 0)
(2.06255 -0.142633 0)
(-0.393762 0.240549 1.01231e-18)
(1.20544 0.482908 -4.68276e-20)
(2.9711 0.0877862 0)
(1.99756 0.00256895 0)
(1.63203 -2.10203 4.66188e-19)
(0.493985 -0.205622 0)
(2.33426 0.476178 5.59481e-20)
(2.61726 1.26977 6.41889e-20)
(1.87521 0.406338 -1.04103e-19)
(1.80866 0.371877 -6.15171e-21)
(0.94048 0.372935 6.38387e-19)
(2.60088 1.431 -8.88133e-20)
(2.28388 -0.113784 1.55771e-21)
(2.15977 -0.0570068 8.65004e-20)
(1.64733 -0.178054 -1.87806e-19)
(1.27486 -0.447157 -8.65776e-23)
(2.00934 0.0114596 0)
(-1.65208 1.9556 -1.53782e-18)
(0.955896 -0.520173 0)
(-0.930166 -0.175925 -1.62303e-20)
(2.55011 -1.79907 0)
(1.9876 -0.326339 0)
(1.4514 -0.681669 -3.56255e-20)
(2.28358 0.104689 5.10641e-21)
(-0.24901 0.118995 -7.87452e-19)
(2.12917 0.0258638 1.4537e-21)
(1.92506 -0.706328 1.03541e-19)
(2.77406 1.20198 8.83092e-20)
(0.0823226 -0.535138 6.86999e-19)
(2.67195 0.0379203 4.83292e-21)
(2.31941 -0.832546 -1.18538e-19)
(1.96167 0.034466 -2.48984e-19)
(0.393235 -0.221054 0)
(1.84791 -0.136119 -3.21118e-19)
(1.92118 -0.443939 1.67873e-19)
(1.9934 0.101133 -5.7688e-19)
(-2.18284 0.930181 -7.02502e-19)
(1.48347 1.17765 -1.64299e-19)
(2.55305 1.33025 1.09091e-19)
(3.46535 0.412511 0)
(2.49536 -0.465423 0)
(-0.0321753 0.115145 -2.88406e-19)
(2.11979 -0.0930549 5.37575e-20)
(-2.61345 1.21596 0)
(2.27129 -0.0596083 -5.34987e-20)
(1.99587 0.0137811 -2.5959e-19)
(-2.49525 0.98652 -4.42359e-19)
(-2.7256 1.14209 1.95304e-18)
(2.54246 -0.179205 -2.3947e-21)
(-0.584333 2.51974 -3.81796e-20)
(2.29773 -0.123861 9.62328e-20)
(2.02055 -0.400457 7.97197e-20)
(3.14153 1.23161 4.29615e-19)
(1.58721 -0.637268 2.10924e-19)
(1.37232 -0.193178 5.90191e-21)
(1.0393 0.240364 4.573e-19)
(1.8232 1.8806 0)
(1.79732 -0.463589 1.26949e-19)
(-2.53782 1.60514 0)
(1.06231 -0.163113 -1.57864e-18)
(0.54697 2.23509 0)
(-1.84685 1.05782 -2.03848e-18)
(1.70404 -0.704087 -2.43996e-19)
(0.614494 0.49901 -1.3403e-19)
(2.43285 -0.882193 0)
(-1.6825 -0.226806 0)
(3.25848 0.317541 0)
(1.99732 0.0809652 1.07917e-19)
(-0.230857 -0.60626 -5.46006e-19)
(-0.138644 0.409324 5.76456e-19)
(1.63881 -0.32256 -8.23333e-21)
(3.05545 1.25914 -5.11296e-19)
(2.04291 0.270746 0)
(1.12243 1.76837 3.68603e-19)
(2.25662 1.3212 -3.74234e-22)
(-0.973795 -1.12746 -2.18877e-19)
(1.75641 -0.793927 -7.58264e-20)
(2.32994 -0.333873 7.96222e-21)
(1.28394 -0.614093 1.8945e-19)
(2.21104 0.505938 0)
(2.80933 -0.374841 2.07709e-19)
(-0.00971634 -0.0408748 3.02103e-19)
(1.99088 -0.0211235 1.13815e-20)
(3.30921 1.08377 -2.95234e-19)
(2.82787 -1.71673 0)
(2.42043 0.829504 0)
(0.582286 0.144482 0)
(0.863472 -0.507963 0)
(1.77455 0.0316591 0)
(1.44984 -0.546212 1.05624e-19)
(3.41459 1.23626 4.69277e-19)
(1.50106 -0.616757 2.69772e-19)
(2.07568 0.052453 1.93784e-19)
(-2.43196 1.65392 0)
(2.30073 -0.874386 3.14106e-21)
(-0.326599 0.434388 0)
(-2.47444 1.75183 -1.17332e-18)
(-0.252684 0.215539 3.25413e-19)
(3.22657 0.911844 -2.91789e-19)
(1.98443 0.0961349 2.90006e-19)
(2.03172 0.260508 -1.0162e-19)
(3.01066 0.620582 -1.89001e-19)
(2.56991 0.0274814 0)
(0.180592 -0.581871 6.41164e-19)
(2.00937 0.0137622 0)
(1.51631 0.800265 1.66338e-20)
(2.3471 -0.148126 0)
(2.0741 0.216925 -1.37969e-19)
(2.08933 -0.0801055 0)
(0.976564 -0.374842 -2.59657e-19)
(0.347988 -0.225114 1.04992e-18)
(2.63973 -0.285 -1.70881e-19)
(1.38196 0.30669 4.13249e-19)
(-0.572754 0.373427 -2.07184e-18)
(3.15022 -1.2116 0)
(1.08097 -0.244891 -9.92316e-19)
(1.61641 -0.259968 -1.52916e-20)
(3.22223 0.489787 -7.64726e-19)
(1.70636 0.0139836 -9.36062e-22)
(2.52156 0.767178 8.96002e-19)
(2.10375 0.91731 0)
(1.91105 -0.826651 -9.97376e-21)
(1.84615 -0.800001 0)
(2.28722 -0.179592 1.14538e-20)
(0.531659 -0.170053 6.84994e-20)
(-1.99165 2.02868 0)
(2.35359 0.457088 0)
(0.840668 -1.34271 -1.65408e-18)
(2.36224 0.777654 0)
(1.569 1.64127 2.95988e-19)
(2.69982 1.07094 -1.52036e-19)
(0.989333 -0.254412 -5.10931e-19)
(-2.66352 1.08059 -7.90345e-19)
(1.98178 0.0165692 -3.29968e-21)
(-1.09711 1.42773 -1.46118e-19)
(0.331082 -0.230783 -6.58833e-19)
(1.90779 -0.00989067 3.63588e-19)
(-2.43152 0.965858 5.05625e-19)
(-1.67622 0.942568 0)
(2.43544 0.182297 1.00724e-20)
(-0.311389 -1.08364 2.11441e-18)
(0.463511 0.164157 7.58311e-20)
(3.32414 0.694129 6.08921e-19)
(2.48306 1.61396 0)
(1.91439 -0.483083 -1.70181e-19)
(1.69786 -0.255134 1.64897e-22)
(1.32147 0.752248 -5.19723e-20)
(2.92141 0.00657755 -3.42258e-19)
(-2.65771 1.04825 5.34017e-19)
(-1.57796 2.21567 9.74474e-19)
(1.51389 -0.600592 -6.60024e-20)
(-2.68446 1.14537 1.26299e-20)
(3.03959 -0.0301 -3.82078e-19)
(-2.66081 1.01143 -5.99885e-19)
(2.80418 -1.3822 0)
(1.9561 -0.158249 -2.87984e-19)
(-1.05473 -0.313309 0)
(-2.15437 0.789734 -7.19901e-19)
(-0.713878 -0.0103443 1.90849e-19)
(-0.839271 -0.210854 4.94404e-19)
(1.61824 -0.337816 1.14218e-20)
(-0.475464 0.396543 8.88452e-20)
(-0.825036 0.143126 0)
(2.46776 -0.748292 -4.70629e-19)
(2.56573 -0.855386 -2.63848e-19)
(-1.00091 -0.0471072 -4.53484e-19)
(1.74539 0.471349 0)
(1.6685 0.451211 0)
(0.269426 0.258058 0)
(1.06062 -2.17042 -3.52388e-19)
(1.92966 -0.0482303 -3.21786e-19)
(1.36196 0.13154 0)
(2.54223 -0.967738 0)
(2.25682 0.216358 -3.11589e-20)
(1.3817 1.65256 -2.33003e-20)
(2.07877 0.262769 -4.23725e-19)
(2.99859 0.414575 -1.09198e-18)
(1.6284 0.0405956 8.78084e-20)
(2.06784 -0.0186209 -6.76654e-20)
(1.64345 -0.231306 4.55182e-20)
(1.92455 0.497679 -2.9848e-20)
(1.75771 1.16432 0)
(0.361063 -0.231251 -1.68192e-21)
(-0.401354 -0.707283 0)
(1.07302 0.123226 0)
(2.90899 0.449852 -2.80477e-19)
(-2.29416 1.84803 0)
(2.45333 0.440068 0)
(1.96592 -0.117695 4.4694e-19)
(2.13111 -0.874382 0)
(2.00883 0.191612 4.47572e-19)
(3.267 0.868926 2.94229e-19)
(3.05848 0.895492 9.7793e-20)
(1.36065 -0.32625 -6.12944e-21)
(1.07328 1.18712 2.8248e-19)
(2.52739 -0.814839 -1.01555e-20)
(2.60659 -0.848332 4.62429e-20)
(1.22077 -0.484172 3.48035e-19)
(-2.26036 0.906927 0)
(1.01639 -0.50324 0)
(-1.74849 1.45432 -1.21372e-18)
(0.383291 -0.215507 -1.39804e-18)
(-1.64866 0.125946 0)
(-2.43774 0.85359 1.12224e-18)
(0.255049 -0.192319 0)
(-0.157119 -0.630242 6.43143e-19)
(1.18635 -0.555733 -4.35452e-19)
(3.3753 0.749455 -1.32924e-20)
(2.9907 1.02388 2.10813e-19)
(1.26265 -0.442037 6.90639e-20)
(2.96372 -0.0144332 1.66088e-19)
(2.20316 0.973175 0)
(2.28786 0.953835 0)
(1.12126 -0.00576064 0)
(-0.55924 0.239517 -3.09246e-19)
(1.45203 -0.545167 0)
(2.18883 0.717299 0)
(1.62912 0.011743 0)
(2.03893 0.197264 2.35115e-20)
(0.884612 -0.330332 2.30276e-19)
(2.22021 -0.759253 7.95598e-20)
(0.730973 -2.09918 1.01933e-18)
(1.71037 -0.378826 0)
(-1.70627 2.12471 0)
(2.11554 -0.534486 -2.94622e-20)
(1.57071 0.486026 6.53756e-19)
(-0.612653 0.614659 -5.71764e-19)
(2.57835 -0.0457911 3.33072e-21)
(1.82663 -0.436244 2.21327e-19)
(1.0127 0.390772 -1.01893e-18)
(0.319868 -0.226525 0)
(1.14827 1.20522 -6.66443e-19)
(0.438574 0.287352 -6.36505e-19)
(3.10833 0.76685 0)
(2.20267 -0.0232329 0)
(2.22548 -0.055506 0)
(2.06205 0.0343563 -3.66324e-19)
(1.44657 0.222563 -4.16762e-19)
(1.67085 0.105641 0)
(2.09992 1.26149 8.1494e-19)
(1.93399 -0.832679 5.52266e-20)
(2.16594 -0.0108543 -3.31333e-21)
(-2.12788 1.41833 6.39296e-19)
(2.10579 -0.212818 0)
(2.49777 0.114392 -2.33047e-20)
(1.85223 -0.384877 0)
(-0.312692 -1.07021 -2.0741e-18)
(1.86372 -0.819495 0)
(2.35138 -0.707982 -3.28548e-19)
(3.10017 0.474595 5.76321e-21)
(2.32517 0.531005 1.28652e-19)
(2.19407 -0.0128255 0)
(1.94665 -0.793615 0)
(1.67572 -0.696098 -2.76874e-19)
(2.27928 0.454685 -6.18112e-20)
(-2.57375 1.53624 6.60503e-19)
(0.936508 -0.453892 3.6181e-19)
(1.94331 -0.0634832 0)
(1.58615 0.175378 -6.1089e-19)
(2.40754 0.021348 -8.87763e-20)
(1.31285 -2.3267 -4.65308e-19)
(2.19932 -0.154747 1.44204e-19)
(2.44186 -0.535468 0)
(1.236 -0.382644 5.01415e-19)
(1.02295 0.161848 -6.24679e-19)
(3.21732 1.0414 7.06279e-21)
(1.80673 0.196097 -7.18775e-19)
(-2.30664 1.45816 5.83899e-19)
(-0.0423119 0.548136 -1.34864e-18)
(2.7352 0.848864 1.00226e-18)
(2.0974 -0.0283846 -2.53773e-20)
(0.295374 0.335452 6.29091e-19)
(-0.207474 0.144364 -2.00268e-21)
(-2.34663 1.59236 1.08273e-18)
(-2.45415 1.53241 1.2513e-18)
(1.88863 -0.122999 8.16668e-20)
(2.30605 -0.0964233 0)
(0.301069 -0.397242 4.69777e-19)
(1.29606 -0.621378 7.40243e-20)
(1.73268 -0.238911 1.68289e-19)
(-0.258514 0.309063 0)
(1.71031 -0.389986 -4.25237e-20)
(1.76735 0.11586 -1.35606e-21)
(2.04851 0.0381007 0)
(0.4142 -0.209418 4.57322e-19)
(-1.52777 0.726436 5.52237e-19)
(1.75783 -0.354026 0)
(1.10917 -0.425377 0)
(1.54291 -2.17532 -4.51166e-19)
(1.61824 -2.47941 -2.13049e-19)
(2.85264 0.426312 9.85343e-20)
(-0.408687 0.285669 0)
(1.92433 -0.00187593 -2.27561e-19)
(3.50618 -1.00262 -2.98892e-19)
(2.44488 -0.631469 -3.48259e-20)
(1.26934 -0.504153 4.25493e-19)
(-2.33543 1.7039 -8.74506e-19)
(-2.33286 1.9029 7.04537e-19)
(3.55151 1.04154 -6.117e-21)
(2.61526 1.18837 0)
(1.68587 0.851053 -6.23369e-19)
(1.65392 -0.628866 1.46944e-19)
(1.8281 1.85082 6.62589e-20)
(0.85629 0.533802 0)
(1.20057 -0.261097 -4.61605e-19)
(1.27878 -0.549391 -5.10463e-19)
(-2.00315 1.78241 8.96247e-19)
(0.610167 -0.479198 -7.30268e-19)
(1.91329 1.35475 0)
(-0.170707 0.487208 -3.63473e-19)
(2.21495 0.575819 0)
(-0.989075 -0.8943 -5.24162e-19)
(-0.108685 0.760986 8.52304e-19)
(0.142165 0.446168 0)
(-2.13357 1.84398 3.63548e-19)
(1.68643 -0.130526 -7.65714e-20)
(1.10552 -0.42751 2.84525e-19)
(1.77196 -0.662958 2.21253e-19)
(-1.358 1.19393 -1.89246e-18)
(1.25178 -0.576442 0)
(1.99189 0.0253072 1.25325e-19)
(0.574004 0.257095 0)
(2.23444 0.250567 -6.64997e-21)
(-0.654363 0.377533 -7.14019e-19)
(0.633841 -0.255458 2.62413e-19)
(2.23693 -0.62111 0)
(2.04281 -0.759866 -3.67712e-20)
(3.14165 0.420437 1.20143e-19)
(-2.15828 1.96227 1.57901e-18)
(-1.53467 0.254262 0)
(-2.17916 1.91893 -1.41128e-18)
(2.79141 1.00933 -7.09351e-19)
(1.64796 0.173697 7.82838e-19)
(2.75452 -1.0655 0)
(2.84938 -0.26427 4.29556e-19)
(-0.627974 0.350277 6.75468e-19)
(1.15787 -0.224116 -1.2036e-19)
(2.33872 -0.423929 -7.585e-20)
(-2.40511 1.44524 0)
(2.13725 -0.827702 -7.76646e-20)
(1.36241 0.224768 -2.69691e-21)
(2.12487 -0.00411064 2.21541e-20)
(2.3664 0.0258896 0)
(-1.7766 2.22081 6.33853e-19)
(1.75449 -0.444952 2.54559e-21)
(1.31602 -0.406843 5.26401e-20)
(1.12049 0.590609 0)
(2.26211 -0.781439 1.02884e-19)
(-1.78761 1.62364 1.45876e-18)
(1.83648 -0.39367 -2.80523e-19)
(-0.259702 0.100004 0)
(1.09983 -0.447622 -1.53807e-19)
(2.28625 -0.740633 -6.46683e-20)
(-2.18768 1.52634 -1.0775e-18)
(1.54884 -0.366083 0)
(0.963159 -0.354496 9.9968e-19)
(2.03633 -2.32921 0)
(-1.35994 2.14847 7.88585e-19)
(1.88976 -2.09693 0)
(1.93029 -0.112324 -1.69304e-19)
(2.17623 -0.140783 -9.3398e-20)
(2.3763 1.26977 -4.07716e-19)
(1.38843 -1.88979 0)
(2.25531 -0.893239 1.89879e-19)
(2.00598 0.00818335 0)
(2.36253 0.451698 0)
(2.52633 -0.907468 -2.27704e-19)
(-1.58379 2.20608 6.01507e-19)
(0.636199 -0.0940647 1.67305e-19)
(2.28021 -0.461959 2.56576e-20)
(1.69501 0.267936 2.6535e-19)
(-1.58606 1.19329 -4.50757e-19)
(2.06222 0.297788 1.94468e-19)
(0.344078 -0.264194 -1.04175e-19)
(0.789434 2.17892 0)
(2.45317 0.299349 0)
(0.293886 -0.108826 0)
(-2.49122 0.50132 2.49307e-18)
(1.23597 -0.443229 -3.08452e-19)
(1.53741 0.0826558 0)
(-2.27668 1.16797 1.92906e-18)
(2.29971 -0.0734225 -6.23273e-20)
(-2.35385 1.3223 -7.15189e-19)
(1.43202 -0.517499 -8.79189e-20)
(2.52449 -0.85587 0)
(1.00897 -0.276414 8.80308e-19)
(0.425459 -0.145961 -1.04015e-18)
(0.24049 0.385364 0)
(-0.360843 0.449864 -4.96996e-19)
(1.61255 0.0362397 -1.8518e-20)
(2.72879 -0.243544 9.88634e-20)
(1.98005 0.0395706 2.06548e-19)
(2.55307 1.15005 -1.32938e-19)
(2.39831 0.229332 -7.78539e-21)
(-1.2985 -0.580534 0)
(2.11626 -0.75753 0)
(-2.06027 1.02908 1.93917e-18)
(-0.0398595 -0.633683 0)
(1.69982 -0.355462 -4.35623e-20)
(2.42607 -0.710467 2.81856e-19)
(1.06314 -0.504191 3.72731e-19)
(2.49056 -0.289286 -1.5654e-19)
(1.75355 0.315181 -2.69937e-19)
(1.60872 -0.620108 -1.52378e-19)
(1.71193 -0.647077 -2.48594e-19)
(1.30047 -2.19285 0)
(1.83595 -0.671556 1.85062e-19)
(2.14965 -0.212098 0)
(2.15417 0.0755693 -2.7836e-21)
(1.85593 1.23382 4.03603e-20)
(0.610998 -0.405932 1.83831e-19)
(2.25087 -0.206015 7.67501e-21)
(0.166054 -0.593668 -5.27006e-19)
(0.354975 -0.274866 0)
(0.568548 -0.973775 -6.69523e-19)
(-0.890815 2.59617 -1.10474e-18)
(2.05526 0.50167 -2.21008e-19)
(1.97467 -0.745618 8.23036e-20)
(2.15026 0.0194906 -6.48023e-21)
(0.744376 -0.469304 2.51641e-19)
(2.35002 -0.870547 3.8953e-19)
(0.420373 0.0770259 0)
(-2.46578 1.38371 2.13974e-18)
(1.84789 -0.338179 1.51638e-19)
(2.12689 0.034542 -8.46277e-24)
(1.25407 -0.556303 7.51719e-19)
(-1.03736 -0.289516 3.59594e-20)
(1.70018 0.552108 0)
(-2.57014 0.889777 -9.85655e-19)
(-1.86681 2.16632 -9.36079e-20)
(1.15337 -0.365997 -6.11514e-19)
(-2.36838 0.349872 1.16405e-18)
(2.00641 0.985753 -1.7217e-19)
(2.08623 0.487439 4.75712e-21)
(1.03334 -0.424985 2.80101e-19)
(1.87786 -0.329687 0)
(2.53441 0.198155 -3.89992e-20)
(2.63459 -0.0485304 -5.36144e-21)
(2.83651 1.00556 -1.94551e-19)
(-1.13029 -0.812284 0)
(3.31309 1.25641 6.40986e-21)
(-0.597346 -0.734725 5.02534e-19)
(1.72183 -0.724047 4.95302e-19)
(0.126448 -0.00541553 1.1443e-20)
(-0.907514 -0.961407 -3.54988e-19)
(1.02437 -0.202788 1.69295e-18)
(2.19197 -0.728862 -8.62141e-20)
(2.30068 0.0106912 -8.68569e-22)
(-0.474181 -0.110756 -9.50823e-21)
(2.91668 0.0911091 3.65199e-20)
(0.366792 0.734045 0)
(1.99759 0.0212768 0)
(2.28038 0.521044 0)
(1.89686 -0.686688 -1.31501e-19)
(2.28384 -1.56465 1.49799e-18)
(-1.02102 0.015225 0)
(1.2791 -0.404909 -1.26896e-19)
(-0.115703 0.957624 0)
(3.42241 0.614522 0)
(-1.17984 -0.214011 0)
(1.87244 0.00641348 0)
(0.959386 -0.335672 -3.09659e-19)
(0.420734 -0.251216 0)
(2.525 1.01965 9.56866e-19)
(1.17537 0.0287234 0)
(1.39325 0.0908291 0)
(1.93335 0.184931 2.45695e-21)
(0.3714 -0.273156 0)
(3.40511 0.265757 0)
(-0.781842 0.172052 0)
(2.54901 0.0046325 7.76546e-21)
(1.68785 -0.163796 0)
(2.67597 -0.828905 3.57006e-20)
(1.11992 -0.502344 1.37014e-21)
(0.492037 -0.128961 -2.94902e-19)
(1.97968 0.0303226 5.64138e-19)
(0.0657118 -0.174261 -8.21107e-19)
(1.06522 0.777436 -5.6758e-19)
(1.45428 0.62875 0)
(2.26534 -0.0944437 -1.24546e-20)
(1.72974 -0.195638 -1.64313e-19)
(1.47609 1.52244 1.7627e-19)
(1.81758 0.34323 4.06535e-19)
(0.857363 -0.311543 -6.20912e-19)
(1.60037 -0.688079 -2.27985e-19)
(1.76915 1.64165 1.24896e-19)
(-0.341002 -0.00608285 0)
(2.89419 0.455474 -3.58132e-19)
(-0.0803375 -0.243436 7.88784e-19)
(2.64672 0.377463 -2.37362e-20)
(-0.870484 0.879039 0)
(1.89044 0.0140064 -2.32487e-19)
(2.31003 1.05639 -7.02985e-19)
(1.42021 -0.571306 3.5761e-19)
(1.30792 -0.595976 -4.48695e-19)
(1.80283 -0.811669 0)
(1.90771 -0.80938 0)
(2.67287 1.12426 1.40162e-18)
(2.29497 -0.16977 4.79336e-20)
(3.34627 0.649397 -3.5768e-19)
(1.77046 -0.0561746 4.39792e-20)
(1.26127 -0.373809 -1.20491e-19)
(1.81751 -0.488567 2.2053e-19)
(2.45341 0.304586 0)
(2.36507 0.309514 -3.44619e-20)
(0.883722 -0.0934784 -1.30452e-18)
(1.92022 0.260314 3.08985e-18)
(2.67837 0.110915 -7.58841e-19)
(-0.742065 0.372575 4.32694e-19)
(3.14865 0.651081 2.98672e-19)
(2.44974 0.794609 -2.40568e-20)
(2.28821 0.601488 0)
(-2.623 1.36279 0)
(2.6273 -0.792646 2.40759e-20)
(1.21802 -0.288052 0)
(1.94406 -0.348475 7.92419e-20)
(1.64896 0.218573 4.55404e-19)
(1.66162 0.438864 -1.44228e-19)
(1.67884 -0.657554 5.42858e-19)
(1.27867 0.180079 2.08858e-21)
(1.34252 -0.0627349 0)
(1.98309 -0.0858887 -8.61124e-21)
(-0.879582 0.178345 -6.63511e-19)
(2.12717 0.279824 0)
(2.0429 0.0749144 0)
(2.08657 -0.785254 -8.1775e-21)
(1.91767 0.493744 2.48173e-19)
(1.1431 -0.201958 0)
(4.39843 -0.0212377 1.72762e-19)
(2.86837 0.0308382 1.29135e-19)
(2.32053 0.345203 7.6846e-20)
(1.75645 0.419294 4.19394e-19)
(-2.72796 1.01697 -1.1043e-18)
(1.20852 -1.52586 0)
(-0.144375 -0.579063 -1.23215e-18)
(0.601187 -0.265251 9.42281e-19)
(1.98405 0.0192032 1.28603e-20)
(-0.398731 -0.665725 -5.49869e-19)
(1.94276 -0.765122 7.30464e-21)
(2.59509 0.410854 4.74548e-20)
(0.680062 2.00651 0)
(1.98428 0.126883 2.48023e-21)
(1.86239 0.00518619 7.08235e-20)
(2.00666 -0.00631699 -6.72247e-20)
(2.13306 0.514922 -2.09027e-19)
(2.54097 -0.727677 0)
(-2.67175 0.990559 0)
(2.57855 0.018717 0)
(2.26304 0.454768 -1.38384e-19)
(1.13349 -0.53545 5.744e-19)
(2.15832 1.66629 -2.0106e-20)
(1.52391 -0.120618 0)
(0.232562 0.0295472 -2.47741e-19)
(-2.57551 0.76272 1.10589e-18)
(-0.685963 1.51316 0)
(1.90514 0.244075 -1.27643e-19)
(1.66013 0.209684 -1.49503e-19)
(3.3512 0.138392 -9.23231e-20)
(2.00921 0.0572914 1.19702e-19)
(0.757108 -0.273012 0)
(2.14585 0.19242 -2.30771e-19)
(2.10622 -0.367806 0)
(2.11929 -0.208513 1.25792e-20)
(1.05478 0.0403608 0)
(2.13947 0.845625 1.93121e-19)
(1.80136 -0.68896 -1.91652e-19)
(2.31246 0.856752 0)
(1.87123 -0.0986432 -3.1694e-19)
(2.27047 -0.44274 -1.38035e-19)
(2.09114 -1.0065 0)
(1.21521 -0.571802 0)
(0.589371 0.136709 -8.41709e-20)
(2.25939 -0.167906 -7.65811e-21)
(-0.348359 -0.688421 -9.40175e-19)
(0.398137 1.30421 1.80255e-19)
(2.87987 -0.0270081 -6.18259e-21)
(0.860442 0.586409 5.49634e-19)
(1.75919 0.364431 -1.77839e-21)
(2.0218 0.510121 0)
(3.1375 1.07032 3.04184e-19)
(1.86488 -0.824334 0)
(1.59348 -0.715307 -2.38392e-19)
(1.96076 -0.809394 -7.7346e-20)