/*--------------------------------*- C++ -*----------------------------------*\
| =========                 |                                                 |
| \\      /  F ield         | OpenFOAM: The Open Source CFD Toolbox           |
|  \\    /   O peration     | Version:  2306                                  |
|   \\  /    A nd           | Website:  www.openfoam.com                      |
|    \\/     M anipulation  |                                                 |
\*---------------------------------------------------------------------------*/
FoamFile
{
    version     2.0;
    format      ascii;
    arch        "LSB;label=32;scalar=64";
    class       surfaceScalarField;
    location    "0.6";
    object      phi;
}
// * * * * * * * * * * * * * * * * * * * * * * * * * * * * * * * * * * * * * //

dimensions      [0 3 -1 0 0 0 0];

oriented        oriented;

internalField   nonuniform List<scalar> 
7520
(
-0.965841
0.594566
0.371275
-1.23764
-0.24721
1.48485
-0.013351
-1.59154
1.60489
0.274947
-0.0389356
-0.236011
-0.227447
1.42565
-1.1982
-0.135706
0.147034
-0.0113276
-0.293208
2.10902
-1.81581
0.031395
-1.47166
1.44026
-1.10653
1.09318
0.600847
0.258414
-0.859261
-0.205751
-0.0567719
0.262523
-0.20446
-1.82873
2.03319
0.591211
0.132634
-0.723845
-0.140301
0.192313
-0.0520123
-1.83741
1.00385
0.833563
0.162277
1.61493
-1.77721
-0.160255
-0.035851
0.196106
-0.00204966
0.250434
-0.248385
-0.287979
0.0836385
0.204341
0.0768438
-0.237099
-0.526449
-0.192595
0.719044
-1.09061
1.25289
-0.0538393
-0.361523
0.415362
0.206278
-0.177479
-0.0287992
-0.0361192
0.141548
-0.105429
0.292208
-0.283998
-0.00820919
0.856117
1.18605
-2.04217
-0.0457919
0.367508
-0.321716
-0.0989613
-0.189018
0.304068
-0.0506273
-0.253441
-0.956066
1.66225
-0.706185
-0.0700337
-0.0278912
0.0979249
-1.79512
1.97218
-0.17706
-0.121006
0.171273
-0.050267
-0.119379
-1.20494
1.32432
-0.538713
0.730788
-0.192075
0.295935
-0.594801
0.298865
0.898354
-1.6338
0.735445
0.102136
-0.371203
0.269066
-0.0663277
-0.158558
0.224885
-0.0317125
0.306659
0.566153
-0.113797
-0.452356
0.332054
-0.0398461
1.69115
-1.107
-0.584157
-0.295309
-0.736239
1.03155
-1.51605
1.56048
-0.0444306
0.0337932
0.118889
-0.152682
0.334178
-0.103548
-0.23063
-1.30339
0.347324
0.318042
-0.0888969
-0.229145
1.73802
0.154298
-1.89231
-0.724612
0.166666
0.557946
-0.115631
0.121919
-0.00628832
1.01868
0.563914
-1.58259
0.0183951
-0.154101
-0.774765
0.0530348
0.72173
0.341807
-1.29773
0.955918
-0.0504255
-0.139545
0.189971
-0.164381
0.0943473
-2.45028
1.20862
1.24166
1.83272
-1.14297
-0.689748
-0.0231925
-0.0741756
0.097368
-1.11917
0.999794
0.918271
-0.327059
0.029257
-0.144888
0.00672379
-0.147025
1.12376
-2.25485
1.13109
0.303242
1.43477
-1.3011
1.00882
0.292278
0.365299
-0.27119
-0.0941085
-0.482063
0.82387
0.762175
-1.25572
0.493541
0.393062
-0.105926
-0.287136
0.644291
-0.221095
-0.423196
0.735698
-1.63818
0.902477
0.186489
-0.163735
-0.0227546
2.37293
-0.95413
-1.4188
0.526829
-0.843429
0.3166
1.38174
-1.17443
-0.207302
-0.91395
0.139186
-1.61336
-0.836917
0.695311
-0.0493279
-0.645983
0.276544
-0.676439
0.399895
0.0905591
-0.211565
0.295623
-0.297673
0.330961
-0.0268928
0.0526684
-0.0493465
-0.00332187
1.35525
1.01768
-1.44786
1.58502
-0.137163
1.2023
0.630423
-1.10324
1.17333
-0.0700819
-0.0173336
-0.117199
0.134533
1.29346
-1.49792
0.279106
0.23182
-0.129684
0.973255
-0.0530985
-0.920157
0.00867081
0.131777
-0.140448
-0.599102
0.376055
0.223046
1.4844
-0.748705
-0.817646
0.683282
0.134364
0.867203
-0.699514
-0.16769
-0.132494
0.165017
-0.032523
0.414984
-0.292858
-0.122126
2.12826
-1.37965
-0.748617
0.579864
-0.535931
-0.42991
-1.27586
0.793793
-1.83865
1.54545
0.212883
-0.0962956
-0.116587
-0.262386
0.0566351
-0.231591
0.230841
0.000750636
-0.669137
0.743525
-0.0743877
1.98785
-1.08949
-0.306162
0.0834526
0.22271
-0.802321
0.275872
0.0723685
-0.105469
0.0331005
0.117788
0.577523
-0.715624
0.298287
0.417337
1.1668
-2.07246
0.905663
0.0816444
0.124634
-0.09214
-0.632472
-0.285386
-0.0199865
0.305373
1.09581
-0.49496
-0.0278308
0.373077
-0.345246
-0.0366479
-0.236778
0.273426
0.144597
-0.138614
-0.00598359
0.71245
-1.8414
1.12895
0.434792
-0.488631
-0.3623
-0.10175
0.46405
-0.137453
-0.168709
0.089873
0.28785
-0.377723
0.17922
0.0413346
-0.220555
-0.0766614
0.255882
-0.65102
-0.0646034
0.442488
-0.710673
0.268185
-0.715828
1.34322
-0.627387
0.306271
-0.367092
0.0608214
-1.06122
-0.214634
-0.0490999
-0.07474
0.12384
1.43946
-0.420778
-0.599442
0.470621
0.128821
-0.0515705
0.306409
-0.254838
0.35341
-0.0950114
-0.258398
0.263006
-1.85454
0.351116
-1.86716
-1.9962
0.875114
1.12108
-0.87779
-0.423312
-1.30473
0.784763
0.519963
1.6285
0.214207
-1.84271
0.238315
-0.304642
0.290193
0.37772
-0.667914
-0.0717951
-0.716812
0.788607
-0.272022
-1.0327
-1.83051
0.0353893
0.0481285
0.00453989
0.0869632
-0.170599
0.0836356
0.324179
-0.374605
0.57484
0.292364
-0.191095
0.159382
-0.126656
0.0451805
0.0814752
0.847311
-0.456753
-0.390558
-0.62134
-1.21607
0.464549
-0.536344
0.0337848
-0.584972
0.551187
-0.170117
-0.0749113
0.245029
-1.39174
0.679894
0.711846
0.338258
-0.565705
-0.153066
0.575449
-0.422383
0.170037
-0.206156
0.586942
-0.274938
-0.312004
1.30268
-0.329427
0.270259
-0.359156
1.00038
0.097458
-1.09784
0.340328
-0.38612
-0.358807
-1.20788
1.56669
1.21374
0.7307
0.763769
-0.487225
-0.902169
0.363456
-0.683694
0.933894
-0.250201
-0.0371158
-0.0213778
0.0584936
0.273006
-0.343551
0.0705451
-0.670558
0.788347
-0.308643
-0.169654
0.478297
-0.229808
0.0596901
-0.920525
0.95431
0.319532
-0.906109
0.586577
-0.490272
-0.10883
0.753805
-0.45787
0.203503
-0.0170136
0.225165
0.0610507
-0.286216
-0.153349
-0.515788
-0.834432
0.0203794
0.814053
0.146446
0.246616
-0.797037
-0.841138
-0.856005
-0.535736
-0.00988988
0.145088
-0.135198
0.84917
-0.369731
-0.479439
-0.850336
0.134508
-1.1475
2.12994
-0.982442
0.410561
0.176382
0.301527
-0.254813
-0.0467143
-0.718123
0.625983
0.649483
-0.944792
1.81244
-0.0594052
-1.75304
-1.78308
2.23891
-0.455829
-0.0355688
0.122532
0.472541
1.12635
-1.59889
0.0455918
-0.210166
0.164574
-0.269498
1.7798
-1.5103
0.000555618
0.172416
-0.172972
-0.905418
1.25456
-0.349138
-0.0152732
-0.70285
-0.214827
-0.619605
0.322842
-0.250118
-1.69403
1.94414
-0.546197
0.629835
-1.79823
1.00119
0.263114
0.00899566
-0.27211
0.189427
-0.226075
0.0609209
1.64958
-1.7105
-0.410823
-0.680751
1.09157
-0.574292
0.469891
0.104401
2.32261
-1.50403
-0.818576
0.560284
-0.971107
0.176632
-0.188061
0.0114297
0.0969299
0.751249
-0.848179
0.093768
-0.0946451
0.000877177
0.845662
0.819616
-1.66528
-0.285189
-0.532457
-0.101678
0.278046
-0.176369
-0.961718
0.666989
0.29473
-0.118353
0.0598133
0.0585402
0.777722
0.0714475
1.13984
-2.17191
1.03207
-2.47533
1.09595
1.37938
-1.05625
-1.41908
-0.390236
0.410149
-0.0199135
-0.326691
0.398862
-0.0721713
0.419233
-1.022
0.602767
0.0279888
1.11442
-1.14241
-0.511117
0.461789
1.09199
-0.0916034
1.02244
0.986372
-2.00882
-0.24047
0.126105
0.114365
-0.0658151
-0.895903
1.75394
-0.349527
-1.40441
0.184569
-0.138977
0.000727725
-0.216895
0.181044
0.874265
0.879677
0.327353
0.527636
-0.854988
0.414863
-0.0473548
-0.0685547
0.170665
-0.10211
-0.281327
0.350915
-0.0695879
-1.79176
0.858948
0.932814
-0.0443777
-0.282314
0.958994
-0.516507
0.927237
-0.459776
-0.467461
0.166076
0.168102
-1.93816
1.85079
0.087376
1.02038
-0.700853
-0.000197476
-0.139113
0.139311
0.00986288
0.111235
-0.121098
0.145195
-0.251121
1.58147
-0.457708
0.0594464
-0.198697
0.13925
0.00176557
-0.128421
-0.33308
0.276308
0.926108
-0.979206
-0.647029
0.675018
0.32729
-0.102125
2.10902
0.0609108
-0.0307252
-0.0301856
-0.341136
1.26724
-0.253397
0.165883
0.0875138
0.164258
0.250726
0.112259
0.453895
0.839429
-0.549236
0.515176
-0.417425
-0.0977514
0.316476
-1.22189
-0.128211
0.218084
-1.64124
1.39113
0.166256
0.0103758
-1.60985
0.339425
-0.390995
-0.201147
0.0490318
0.152115
-0.596949
-1.19481
1.10991
1.01836
1.51506
-0.835169
-1.82873
0.398866
-0.426697
-0.341656
-0.0346773
0.376333
0.191137
-0.309714
0.118577
-1.20749
0.471253
-0.24536
-0.282365
0.527725
0.752529
-0.494115
-0.106079
-1.74095
1.84703
0.806246
0.134702
-1.44375
1.30905
0.87226
1.09992
-0.886291
1.28836
-0.815823
-0.0465831
0.432391
-0.385808
-0.840336
0.811469
0.028867
0.120229
-0.0607828
-0.100645
0.374736
-0.274092
-0.360312
-0.14544
0.505752
-0.511771
1.72552
-0.306019
-0.398016
0.704035
0.204968
-0.171175
0.16919
-1.27243
0.255653
-0.324208
0.0145398
-2.02567
1.13825
0.88742
0.541185
-0.408551
0.0110127
-0.0967637
0.403034
1.03037
1.29223
1.62956
-0.516359
-1.1132
0.163018
-0.0570414
-0.105977
0.795261
0.586475
-0.418498
0.076842
0.538052
-1.53519
0.99714
-0.194102
0.206373
-0.0122711
0.521581
0.962823
-0.261415
-0.109787
0.769798
-0.442446
-0.577927
1.43404
0.199901
0.0129822
1.90274
-0.735939
0.195233
-0.186563
1.79291
-0.163357
0.135469
0.471931
0.043245
0.0256956
0.339603
-1.68436
-0.956292
0.954541
0.00175161
0.00927442
-0.173009
1.85121
0.0498325
-1.90104
-0.776276
0.470257
0.274911
0.0784989
-0.352891
0.0817004
-0.193008
-0.981426
1.57938
-1.63258
0.0532025
0.163154
-0.50037
0.337216
-0.934893
1.45647
-0.883878
1.59633
0.259166
-0.0960121
0.741106
-0.44282
1.7839
-0.490437
0.00202887
0.201713
-0.203741
-0.159547
-0.0315222
0.19107
0.159367
0.00365076
0.173316
-0.817045
0.147634
0.11216
-0.259794
0.619117
0.724099
-1.77209
1.41329
0.155845
-0.518145
-0.50067
1.26284
-1.14305
1.37101
-0.227959
0.562122
-2.07319
1.8037
2.18887
-0.833616
0.86699
0.824163
-0.0873209
0.295439
1.28394
-1.21561
0.214711
1.0009
0.319716
-0.370344
-0.383196
0.338818
-0.261617
0.184956
0.117046
-1.22404
0.666299
-0.949051
0.282752
-1.83043
0.879389
0.951037
-0.578458
-0.677257
0.115852
-0.139044
0.101918
-0.620987
0.705449
-0.084462
-0.644439
0.491373
1.25297
0.935897
-1.78308
0.0574329
0.0871643
1.60797
-1.40157
-0.206408
-0.276554
1.40291
-1.22451
1.99493
-0.770419
-0.806564
0.865213
-0.0586486
0.222202
-1.34138
0.167102
0.231761
-0.309375
0.481988
-0.172613
-0.186643
-0.106214
1.32076
0.381374
-1.0132
0.631823
0.046201
-1.60085
1.55465
-0.0719919
-0.159599
0.0941272
-0.488404
0.394277
-0.587853
0.899219
-0.311366
0.251454
-0.176484
-0.0749706
-0.219809
0.659054
-0.439245
-1.9398
1.69259
1.84989
-0.494058
-1.35583
0.482969
-0.729371
0.246402
-0.0272887
0.218426
0.198593
-0.688864
-0.860347
1.70601
0.0594392
0.0129293
1.81244
-1.02155
1.11848
-0.0512448
0.0512448
-0.600607
0.266589
-1.71445
2.19939
-0.873532
-1.32586
-0.446301
1.01639
-0.570087
-0.021745
0.234596
-0.212851
1.02037
-0.985508
-0.0348655
-0.383063
-0.40689
0.789953
0.949126
-1.97629
1.02716
0.0345584
-0.874894
-0.271131
0.111583
-0.358043
-0.403845
0.761887
0.622179
0.541822
-1.164
-1.27748
-0.409328
0.717262
-0.307934
-0.614238
1.34515
-0.730911
1.40484
-1.34391
-0.0841939
0.231828
0.172093
0.462668
0.181623
-1.23749
0.730755
0.506738
-1.29288
1.61813
-0.32525
-0.0245306
0.19827
-0.17374
-1.46751
-0.787336
-0.0482313
-0.05073
-1.61236
0.464861
-0.421493
0.320848
-0.450283
-0.356281
0.00265396
-0.196756
-0.537661
1.5601
0.0600771
-0.4216
-1.52305
0.0926077
1.43044
0.453903
-0.659584
0.205681
-0.904326
0.220632
0.252461
-0.640788
0.388327
1.70081
-0.145504
-1.55531
-0.0272112
-0.122004
0.149215
-0.296109
0.449518
0.480471
-0.929988
-0.321806
1.32565
0.197329
0.691617
0.747841
-0.0119268
1.53693
0.255983
-1.33905
1.38525
-0.168895
-0.0413554
0.21025
-0.21214
-0.0201053
0.232245
-1.65948
0.434965
-0.354486
0.240689
-0.57154
-0.384752
0.297052
0.877302
-0.51357
-0.363732
0.218145
0.113909
-1.0309
1.88209
-0.851194
0.22567
-0.257192
-0.11293
0.385936
0.276456
-0.585832
-0.0389449
-0.224246
0.26319
-0.224851
-0.0384278
0.263279
0.621661
-0.62201
0.000348874
0.0126362
0.07732
-0.0899562
-0.333017
0.367952
-0.034935
0.618899
-0.807995
0.189096
0.398588
-0.0788715
-0.292575
0.500551
-0.207976
0.957285
-1.11156
-0.930614
-0.373616
-0.130139
0.503755
0.107794
0.522042
-0.318784
-0.255508
0.880288
-0.00298557
0.128922
-1.29499
1.16606
-0.313725
0.0283392
-0.175901
-0.475119
-0.348642
0.128832
0.227617
-0.227061
-1.17584
-0.0527863
-0.12304
0.175827
1.11805
-1.0206
1.03564
0.814253
0.363499
0.563737
-0.112516
-1.6208
1.73331
0.285079
0.64492
-0.929999
-0.452729
-0.878873
0.384531
0.494343
0.69347
-0.239568
0.0288722
0.11673
-0.145602
2.24549
-1.2008
-1.04469
0.153806
-0.355299
0.201492
0.213367
0.637792
-0.851159
0.0792857
0.118748
-0.198034
1.64106
0.0415354
-1.6826
0.24746
0.00297455
-0.300123
0.360201
-0.256207
0.0296178
0.22659
0.326508
-0.0308851
0.00305075
0.0518666
-0.0549173
-0.666675
-0.217245
0.88392
1.15567
0.545143
1.0786
-0.94968
0.234936
-0.822788
-1.8039
1.69782
0.0210521
-0.25783
0.362669
-0.606295
0.243626
0.786503
0.728559
1.16139
-1.3046
0.143215
1.16982
-0.478204
-0.179513
0.122471
-0.0684971
0.231267
-0.16277
-1.40691
-0.290839
1.69775
-0.382141
0.497355
-0.115214
-0.0023357
-0.0489091
0.575707
0.849941
-0.170623
-0.0698473
1.18444
-2.13498
0.950538
-0.801311
0.105222
0.696089
1.59882
-0.458975
0.107164
0.15688
-0.873692
-0.312889
0.00713546
0.305753
0.0329003
-0.286341
-0.640898
1.02227
0.031983
0.0617849
0.239027
0.0679875
-0.307014
0.077485
0.942889
-0.260433
-0.45024
-0.22939
-0.442187
0.4222
0.450399
-0.900682
0.203514
-0.120062
-0.0320318
0.213076
-2.01541
0.903856
0.336501
-0.254502
-0.0819991
0.183538
-0.133947
-0.0495912
0.273274
0.841148
-0.0884863
0.0143107
-0.0435654
-1.49707
1.54063
-0.283505
-0.330226
0.613731
-0.0849317
0.0955603
-0.0106286
-0.191612
0.857911
-0.29516
-0.254173
0.549333
-0.312211
0.564673
-0.801434
1.69454
-0.893103
-0.815569
0.224418
0.591151
1.66779
-0.0392856
-0.242418
-0.00504838
0.247466
0.337682
-0.0498316
-0.204713
-0.224067
0.895348
0.689671
0.56659
-1.3699
0.803314
-0.815756
-0.196821
1.01258
0.0522912
-0.426503
0.374212
-0.105628
0.137341
-0.0317128
0.476772
0.017058
-0.49383
-0.0687385
0.324391
-0.888018
0.144728
-0.00317955
-0.128448
-0.19576
-0.16662
0.468551
-0.301931
-0.285681
0.346132
-0.0604514
0.44772
-0.380713
-0.0670075
0.745653
-0.432776
-0.0159574
-0.0333891
-0.599609
-0.364025
0.963634
1.23543
-0.962152
-0.0653457
-0.359257
0.424603
-0.232494
-0.46702
-1.16643
1.46968
0.612742
-0.235021
-1.24306
0.852124
0.390936
0.474214
-0.187857
-0.286358
1.78146
-1.78146
-1.68994
0.0765792
-0.882009
-0.0991223
-0.675165
0.774287
0.510926
-0.578188
0.0672621
0.115041
0.297953
0.02952
-0.327473
-0.0657271
0.263582
-0.197855
-0.542343
1.05026
-0.507912
-0.249049
-0.0342877
0.283337
0.806522
-0.58432
-1.09967
0.283917
-0.0543655
-0.277378
0.331743
0.0396701
-1.25528
-0.663972
-0.9813
0.317328
0.871842
-0.0826768
0.247201
-0.164524
-0.31895
0.406429
-0.0874796
-0.333224
0.231547
-0.095734
-0.159665
-0.0414812
0.0533363
-0.0387999
-0.147584
0.186384
0.189634
0.0416335
-0.328225
0.0356491
0.053671
-0.166918
0.113247
0.0620338
0.0632441
-0.125278
0.289696
-0.279374
-0.010322
-0.0814437
0.215429
-0.133985
-0.684902
0.967654
0.713123
-0.907445
0.194322
-0.189567
-0.0905357
0.280102
-0.0119523
-1.93438
1.94633
0.827202
-0.672812
-0.154391
0.291271
-0.110669
-0.199045
-0.131709
0.02624
-0.066353
0.220159
0.384726
-0.854571
0.469845
-0.43533
-1.50283
-0.470097
0.849072
-0.378975
-0.231173
0.09372
0.466235
-0.320683
-0.145553
0.0177794
-0.617388
-0.62813
-0.29361
0.355254
-0.0616444
-0.600821
0.355461
-0.0966999
0.567321
0.173545
-0.163682
-1.37654
-0.00310983
-0.327257
0.603713
-0.0514254
-0.219705
-0.25694
0.0941697
0.250102
-0.332778
-0.100889
-0.995694
0.310792
1.91231
-0.132516
-1.69403
2.14903
-1.08691
-1.06213
-0.170454
0.546509
-0.153624
-0.760326
0.438073
-0.591422
-0.287388
-0.0255005
-0.41663
-0.563276
0.979906
-0.0553062
-0.131255
0.186561
0.0909093
-0.9687
-1.78452
-0.349555
-0.360353
0.709907
0.139337
-0.422842
-0.287728
-0.0487459
0.336474
0.55
-0.115208
0.281657
0.192558
1.94655
-0.997426
-0.925495
0.508865
-0.282184
-0.0650324
0.347217
-0.0539109
0.0797043
-1.06521
-0.287563
-0.0262187
0.313782
-0.11827
-0.0461109
0.934337
-1.2391
0.304763
-0.644836
-0.034352
1.81581
0.476233
-0.840258
1.12347
-2.01678
0.893315
-1.96212
1.18213
0.779997
0.194826
0.117198
-0.312024
0.159943
0.858287
0.109699
0.798364
-0.908063
-0.0271453
-0.171551
-0.0799956
0.562964
0.168166
-0.636185
0.468019
1.25919
-1.37171
0.726692
-0.181481
0.211377
-0.0298956
-1.51132
-0.178617
-0.681212
-0.666877
0.293261
0.166946
0.00352595
-0.170472
-0.688075
0.361872
0.326203
-0.443842
0.397259
-1.06549
-0.587099
1.65259
-0.189453
-0.193797
0.172052
0.450686
-0.448098
-0.00258852
-0.795345
1.67473
-0.199844
-0.994073
0.547772
0.510752
0.448242
0.631544
-1.17389
-0.0885011
-0.015946
0.104447
1.35503
-0.113528
-1.08467
-0.38338
-0.115307
0.498687
-0.0632182
0.248174
-0.0349521
0.241138
-0.206185
-0.265996
-0.0316766
0.26038
0.579049
-0.610666
0.349271
-0.0790127
-0.417848
0.321084
-0.183156
0.00501057
0.178146
0.297769
-0.108155
-0.189614
-0.174438
-0.049768
0.224206
-0.202119
-0.0212367
0.223356
0.237679
0.0357471
-0.308399
-0.191972
0.551659
1.19776
0.335098
-0.363205
0.0281071
0.264822
0.427495
-0.692317
-0.337813
0.423765
-0.0859521
-0.32396
0.298671
-0.707999
-0.178599
0.411339
-0.08716
0.223846
-0.0538089
-0.163417
-0.0467493
1.75851
-0.93889
0.525673
-0.60429
0.0786175
-1.46101
0.294571
0.170977
0.13083
-0.301807
-0.0585815
-0.0597719
-0.834345
-1.12778
0.41308
-0.0727524
-0.666257
-0.868934
0.300284
-0.0612569
0.133721
0.316965
0.794672
-0.79846
-0.781467
1.34806
-1.5768
0.169894
0.424376
0.152777
-0.577154
-0.00214116
-0.248242
-0.410592
0.658834
0.162095
-0.0228446
-0.751739
-0.651539
1.40328
-0.931602
-0.964099
1.8957
0.383348
0.573691
-0.957039
0.0309867
-0.282968
-0.0106421
-0.289162
-0.29667
-0.21154
-0.112164
0.323704
0.684286
0.104321
0.305887
0.160349
-0.240919
-0.676811
0.263406
-0.202495
-0.62968
1.21065
-0.580968
-0.182745
-0.236787
-1.59678
0.158672
-0.013584
-0.51784
-0.100068
-0.277656
-0.870158
0.353651
-0.165336
-0.952642
-0.297987
1.25063
-0.410682
0.848754
0.627428
0.38896
-0.354489
-1.04272
-0.97269
-1.28036
1.2455
0.112907
0.0547142
0.0513976
-0.122626
0.0712286
-0.710594
0.623997
0.0865966
0.771525
-0.786798
0.236873
0.0996279
-1.1749
-0.0681613
0.18417
-0.23708
0.0529096
0.542468
0.0791938
-1.36032
0.00727068
1.35305
0.0511198
0.138514
-0.0193386
0.269245
-0.249906
-0.285301
0.476706
0.103158
0.104451
0.0403728
-0.144824
-1.17759
0.828067
0.155916
0.00617888
-0.208531
-0.146768
-0.397821
0.126395
0.077119
-0.193994
-0.276762
0.00667938
0.21991
0.338094
1.51269
-0.614902
1.48189
1.01102
0.412992
-0.819882
-0.0558946
-1.30443
0.529063
-0.368185
0.443617
-0.0754319
-0.111973
-0.0266409
0.319005
0.0260486
-0.0725229
0.16687
-0.0199376
1.42164
-1.4017
0.101275
-0.804125
-0.14101
-0.29536
-0.0792442
-0.329505
-0.317231
0.406204
-0.0889733
0.0469945
-1.47709
1.43009
0.448174
0.16142
0.349506
-0.970816
-0.518657
1.019
-0.500341
0.0318661
0.0727699
-0.206717
-0.596677
0.414812
0.181865
0.411463
-0.493467
0.0820041
-0.24803
-0.509753
0.757783
-0.309704
-0.0764158
-1.9992
0.00650523
0.258436
-0.256407
0.0741825
0.176521
-0.0206049
0.369149
-0.729501
2.17125
-0.961166
-1.21008
0.378982
0.474393
0.203784
-0.223122
0.246046
0.109209
-0.22086
-0.00977024
-0.217923
0.308482
-0.626473
0.767871
-1.0159
0.181195
-0.119608
-0.061587
-0.407127
-1.68226
0.791566
0.890696
-1.71492
1.70297
-1.0118
0.555803
0.455994
-0.498547
-0.0657173
0.564264
0.216876
0.663412
0.364618
0.228407
0.542731
0.528915
0.0879677
-0.295643
-0.0250401
1.01578
1.15547
0.146107
0.0245578
1.21241
-0.998204
-0.0519165
-1.35932
1.41124
1.13001
0.0677514
-0.329578
-0.0919148
-0.295318
-0.50916
-0.302076
-0.282174
-0.101021
0.183218
-0.916019
0.732801
-0.493511
2.23143
-1.40565
-0.825787
0.0386105
0.180454
0.054142
0.592974
0.195373
1.6692
-1.59262
0.99149
-1.92309
-1.19642
-0.0505912
1.24701
-0.821566
0.360062
0.461504
-0.340843
0.145083
1.96298
0.0323547
-1.99533
-0.999977
1.6088
-0.608826
0.0747886
0.271344
-1.26827
0.654034
-0.0137745
0.18003
-1.30815
0.165095
-0.0567721
0.0238049
0.0329671
-0.20198
0.23635
-0.0343707
0.0505328
-0.43295
0.382417
0.646284
0.308256
-0.557014
-0.131061
-0.0320378
0.924009
-0.889451
-0.0856982
-0.0849006
-0.292848
0.0637034
0.182359
0.58872
-0.771078
0.145527
0.425699
-0.571227
0.258145
-0.640065
0.38192
-0.451149
-1.33321
0.526563
0.806646
-0.0326109
0.804103
0.335844
-1.13995
-0.649274
0.260561
-0.287685
0.0271238
0.208867
-0.0442933
-0.295453
0.00772506
-0.33093
-0.775333
0.226097
-0.526044
0.860771
-0.334727
-0.71079
-0.191378
1.92734
-0.789095
-0.10725
0.20705
-1.19767
-0.0426792
-1.25087
1.29355
0.16501
0.0787119
-0.243722
0.787994
-0.461869
-0.326125
0.342256
-0.0358476
-0.169866
-1.0814
0.370608
-0.710403
1.09493
-0.0103022
-0.322777
0.345978
0.271757
0.0260121
0.891162
-0.420906
0.0816095
0.689915
-0.967723
0.335251
-1.89118
0.927081
1.59934
-1.55235
-1.65331
1.63337
-0.0691343
-1.50957
0.327521
1.18204
0.346652
0.502419
0.0448956
-0.871878
0.772755
-0.167817
-0.132205
0.300022
-1.15545
0.433445
0.722007
0.181601
0.653939
-0.83554
-0.0931697
-1.18719
0.866448
-0.0281055
-0.838343
0.200213
0.710197
-1.21087
-0.27672
-0.0208914
0.0807047
1.64258
-1.60105
-0.337795
-0.981106
-0.352103
0.654726
0.0436144
-1.24003
1.10072
-0.296613
-1.8037
-0.0250363
-0.13314
-0.964702
0.381071
0.17172
1.8039
0.30512
0.0621892
-1.1274
0.178636
-0.137302
0.0892961
-0.449608
0.344821
-0.629279
0.284458
-0.177805
0.00700511
0.1708
0.266303
-0.271351
0.00481589
-0.286143
-1.07381
1.1614
-0.0875952
-0.716851
0.701137
-1.29792
0.596784
-0.852817
-0.0767482
0.135288
-1.3832
0.0594398
1.32376
-0.415224
0.977345
-0.664257
0.755166
0.152914
0.912362
0.694953
-0.924343
-0.814898
-0.247152
1.06205
-0.834658
-1.31766
0.565917
-0.163712
0.167396
-0.00368404
0.104554
-0.115183
0.718324
-1.35922
0.175848
-0.55942
0.383572
-0.0974452
0.668553
-0.571108
-1.03379
0.524032
0.0490857
0.0317956
-0.267807
0.433293
1.76578
0.197198
-0.771612
0.881311
-0.312191
0.10366
-0.674049
1.31756
-0.643512
-0.0958769
0.0879722
0.115531
0.432629
-0.0172666
0.957732
1.17221
0.480179
-0.922999
0.270369
-1.7744
-0.224731
0.171945
0.0263654
-1.04696
-0.267566
-0.971534
-0.260495
0.0694006
0.869046
-0.435754
-0.561186
-0.155671
0.73472
0.2287
-1.67421
0.329117
1.34509
-0.0615322
0.538238
0.393546
-1.41603
-0.367051
0.820922
-0.36884
-0.452082
0.93269
-0.367245
-0.565445
-0.229479
0.0529958
0.713523
-0.695507
-0.0180158
-1.71523
0.806771
0.908464
0.896155
0.798381
0.00169241
0.165254
0.853824
-0.555153
-1.39298
0.621031
0.771954
-1.94414
1.65331
0.503721
0.745964
-1.24969
0.842984
-0.703798
1.55482
-0.72556
-0.829264
-1.08246
0.224159
-0.101688
0.0762619
-0.110408
0.236513
-0.0658221
0.16338
-0.0975577
0.129803
-0.350898
-1.24077
-0.230885
0.57415
-0.405984
-0.0445985
-0.0500466
0.837021
-0.150535
-0.686487
0.863526
-0.501654
-0.176231
0.148942
0.00883414
1.15256
0.225874
-0.0608642
-0.227518
-0.806267
-1.48668
0.534043
-0.0516118
-0.125867
0.147974
0.176996
0.157024
-0.105626
-0.552595
-0.966356
0.14257
-0.103146
-0.0394245
0.216884
-0.677942
-0.835954
1.5139
0.161668
0.0148532
0.0441844
1.01658
0.961994
-1.97857
-0.578519
0.961867
0.271399
-0.112017
0.187747
-1.02337
-0.651862
1.67523
-0.902683
-0.954994
0.391718
0.31383
-0.0933595
-0.220471
0.347794
-0.717525
-0.234582
1.16414
-0.463008
-0.233535
0.138523
-0.185271
-0.722174
0.00105129
1.84916
-1.69782
-0.151342
-0.985064
-0.501621
0.184231
0.198406
0.0766256
-0.985409
-0.233673
1.21908
0.263892
0.415309
-0.00384577
-1.55296
-2.12176
0.829505
1.29225
-0.240468
-0.00722228
0.24769
1.02972
-0.670565
-0.359158
0.133041
-0.205564
0.106634
0.124206
0.939168
-2.00466
0.791618
0.141072
-0.468335
-0.45716
-0.168015
0.0367608
0.177457
0.695018
-1.37296
0.0277337
0.404658
-0.261966
0.724634
-0.745839
0.53637
0.209469
0.670362
0.884462
0.492574
0.0506084
0.521685
-0.783396
0.26171
2.07319
-1.74408
0.211242
-0.590659
0.174856
0.034011
0.111851
0.0239017
0.162482
0.0033748
-0.167086
0.634731
0.0388433
-1.71871
-0.030162
-0.210306
-0.0930422
-0.029584
1.19895
-0.571519
0.841145
-0.641048
-0.200097
0.00637644
0.15864
-0.0422943
-0.0144777
0.413202
0.0299326
0.233346
-0.278195
-0.343815
-1.94007
0.892687
1.04738
-0.13558
0.0183807
-0.0566257
0.1435
0.187461
-0.311891
-0.328897
0.494976
-1.51835
-0.144683
-0.952738
1.96932
0.636559
-0.20285
-0.433709
-0.786979
-0.389074
-0.189114
0.11258
-1.1244
0.407058
-0.716087
0.309029
-0.224558
0.190171
0.0343867
-0.0243441
1.00784
0.98709
-1.69424
1.74408
-1.49018
0.798495
0.691687
1.01326
-1.966
2.09533
-1.06496
-1.00991
-0.95911
0.487581
0.217867
-0.166675
-0.321729
-1.49673
-0.0128369
0.0138416
-1.31845
1.17995
-1.90029
0.720344
-0.0692251
0.30754
-0.561397
0.739167
-0.148016
0.906553
1.32488
-1.45416
0.78011
-0.0516673
-0.851016
-1.35351
0.182389
0.00778169
1.71492
-1.75421
-0.0617193
-1.30325
0.0232141
0.717055
-0.267538
-1.49173
1.72403
-0.232308
0.345424
1.60091
0.461422
0.00254071
-0.463963
1.89742
-0.905932
0.271724
0.201309
0.551723
-0.727625
0.119815
0.151942
0.143083
0.681083
-0.824166
-0.678366
-0.30871
1.07271
-1.05841
-0.0142928
-0.314432
0.288213
-1.49111
0.763871
0.727242
0.558249
0.229745
-0.819079
0.134277
0.968213
-0.519971
0.324363
-0.613525
0.182118
-0.235927
-0.712248
0.464006
-0.983633
-0.919913
1.90355
0.255973
-0.277209
0.284167
-0.315053
1.15512
-0.607344
0.185787
0.998293
-1.61319
0.132865
0.14159
0.25085
-1.213
-0.0478552
0.642421
0.0566
0.193737
-0.597581
-1.3742
0.592735
0.288468
-0.421922
0.133454
0.0789042
-0.352996
1.09354
1.0555
1.27268
-0.967915
-0.0958777
0.181481
0.169433
0.500667
0.290045
-0.321721
-0.698841
-0.955187
1.96845
0.170881
-0.203492
-0.836638
-1.03702
1.87366
-1.54926
0.549288
-0.0803708
-0.401951
0.315999
-1.531
0.00795061
-0.257345
0.664403
-1.02794
-0.912134
1.84916
0.666129
-1.20187
1.04138
-0.733121
-0.378041
-0.359473
0.348831
-0.31414
0.248795
-1.67771
0.319462
-0.838119
1.01412
-1.96931
-0.843011
0.309033
-0.358864
-0.0665374
-1.42519
0.904844
-0.551193
1.27256
0.89786
-1.76386
0.865998
1.72933
-0.922558
2.03319
-0.950858
-0.97736
1.92822
0.321146
1.28366
-1.01976
-0.80856
-1.3132
-0.968057
-0.522125
0.478488
-0.903726
1.69808
-0.794356
-0.140017
1.35656
-1.21654
-1.01114
-0.962564
1.9737
0.872835
0.199873
0.29681
0.413795
-0.764681
0.164719
0.599963
0.0691323
-0.326324
0.49038
-1.47544
-0.770607
-0.417801
-0.292793
0.287124
-0.387192
-0.786746
1.28029
-1.944
0.955407
0.988592
-0.00463911
-1.68876
1.6934
0.16144
-0.303024
0.105169
0.401387
-1.73721
1.73721
-0.154399
-0.0527083
0.207108
-0.483433
1.02526
0.165165
0.0172237
-0.777045
-0.577427
0.681747
-1.69424
-0.105994
-1.29111
0.269563
1.28115
-1.24147
-1.25397
0.268562
0.31299
-0.367285
0.0542957
0.185823
0.5277
-0.197473
0.0196683
-0.974638
-1.22393
0.153018
1.07091
-1.39604
0.0513217
-0.410806
-0.887115
-0.0403998
0.144851
0.199407
-0.10718
0.353226
-0.0114009
0.0180803
0.394929
-0.361948
-0.3503
-0.856973
1.68235
-0.825377
0.3763
0.230188
-0.219566
0.448587
-0.229022
-0.378647
0.233207
0.414286
-0.649049
0.234763
-0.7962
1.27597
-0.772248
-1.60568
-1.73851
0.261429
-1.08159
0.0646075
1.05693
1.18856
0.0145815
-0.979284
1.21953
-0.488773
-0.311278
0.300975
0.629981
0.584818
0.258166
1.95794
-0.94382
-0.979937
-0.919525
1.89946
1.17944
-0.0620033
-1.11744
-0.0968536
0.524349
-0.25254
0.22801
0.166614
1.31675
-1.48336
-1.56683
1.55235
0.0144806
1.56683
-1.63337
0.250439
-0.319664
-0.555911
1.26611
0.104551
-0.270836
0.306583
-1.6242
0.18045
1.75336
-0.855504
-0.48769
-0.144618
0.149628
-0.481866
0.920344
0.292793
-0.0913006
0.745559
-0.563694
0.204103
-0.279074
-0.607963
-0.068476
0.515936
-2.16015
0.559303
-0.093964
0.489187
-0.395223
-0.998571
-0.901722
0.12103
0.375351
0.645033
-0.929181
0.157568
-0.256608
-0.383456
0.130697
-1.99337
0.983457
-0.00087936
-0.123352
-0.209426
0.00667104
-0.200665
-0.197203
-1.34711
0.912488
-1.65632
0.743831
0.0770254
0.289482
-0.366507
-0.463346
0.428669
-1.01099
1.28055
0.384946
0.576921
1.26482
-1.41603
0.221312
0.0535991
1.66936
-1.95773
0.288373
-0.311939
-0.136159
-0.897518
0.0591746
0.40757
-0.522877
-0.203359
0.297529
-0.833127
-0.141063
-0.0489504
0.190013
-1.48915
0.218928
1.27023
-0.232175
0.283295
-0.0448725
-0.185315
0.230188
1.18823
-1.14462
0.23269
-0.225685
0.641105
0.133183
0.266731
-0.213821
-0.251461
0.345181
0.241316
0.63691
-0.878226
-0.447409
0.0144592
-0.897749
-0.971754
1.8695
0.0131279
-0.54176
0.620377
-0.70461
1.70297
-0.285602
0.283461
0.0776816
0.0812626
-0.0442857
1.98169
-0.965919
-1.31202
0.88075
-0.561288
-0.536757
1.30871
-0.240032
0.269964
0.124625
-0.12696
-0.374588
0.402695
-0.344112
0.231948
-0.141632
-0.413035
0.305855
0.999253
0.260561
-0.25389
0.253561
-0.00636023
0.0503878
-0.431616
0.330594
0.510122
-0.872069
0.24511
-0.285399
0.0402894
0.301977
-0.223265
0.36168
0.693092
-1.05477
-0.29653
0.164326
0.242803
-0.653485
1.28432
-0.665199
1.0467
0.945874
0.00894412
0.492954
-1.03138
0.383087
-0.498296
-0.166371
1.0043
0.942256
-1.67797
1.67797
1.43423
-0.938084
1.10727
-0.0166098
1.5463
-1.52969
0.911606
1.03284
0.931642
-1.91528
0.0484299
-1.06433
-1.32254
-0.158974
-1.39353
1.5525
-0.442955
-0.157865
0.0977804
0.609712
0.217453
-0.325607
-0.953594
1.79686
-0.843268
-0.197782
0.317596
0.0115122
0.1822
0.51127
2.01581
-0.78077
-1.23504
1.55283
-1.49339
1.1328
0.238208
0.267963
-0.00879694
0.0383938
1.61119
0.529382
1.0089
0.873189
0.0294981
0.23184
-0.261338
-0.392852
0.246084
0.215535
-0.233089
0.0175547
0.193971
-0.266396
0.0724254
0.429502
-0.461539
0.370674
-0.553418
-0.0603531
0.459219
0.0538782
0.134485
-0.0194441
-0.830265
0.359195
0.471071
0.150562
-0.139634
-0.0109276
1.75421
-1.57261
-0.444904
0.143047
0.301857
-1.64258
-0.385421
0.298261
-0.981881
1.89349
0.292801
-0.372046
1.92167
-0.99003
0.275825
-0.354837
-0.203455
-0.821906
-1.34404
-0.351947
1.43017
1.34496
-1.09411
-0.107319
0.188963
-0.142987
-1.48959
-0.333155
0.324946
0.275977
-0.416987
-0.411106
0.322132
-0.120014
-1.30588
1.25397
-1.42675
1.47996
-1.125
-0.559929
0.462177
0.710838
0.431916
-0.456956
-0.0980061
0.109606
0.390447
-0.500052
-0.389358
1.26362
-0.988037
-0.965499
-1.91734
-0.116464
0.111499
0.00496455
0.00939612
1.39859
-1.40799
0.817058
-0.590961
0.358095
-0.433527
1.51896
-0.909245
0.861381
0.8933
-1.75468
0.259291
0.0335023
0.671598
-0.197205
0.235145
-0.858727
0.0546023