/*--------------------------------*- C++ -*----------------------------------*\
| =========                 |                                                 |
| \\      /  F ield         | OpenFOAM: The Open Source CFD Toolbox           |
|  \\    /   O peration     | Version:  2306                                  |
|   \\  /    A nd           | Website:  www.openfoam.com                      |
|    \\/     M anipulation  |                                                 |
\*---------------------------------------------------------------------------*/
FoamFile
{
    version     2.0;
    format      ascii;
    arch        "LSB;label=32;scalar=64";
    class       volVectorField;
    location    "2.3";
    object      U;
}
// * * * * * * * * * * * * * * * * * * * * * * * * * * * * * * * * * * * * * //

dimensions      [0 1 -1 0 0 0 0];

internalField   nonuniform List<vector> 
13486
(
(1.49255 -0.279337 5.48155e-19)
(1.70003 0.22598 2.56523e-19)
(2.14464 0.0108077 0)
(0.841498 -0.442416 -1.4413e-19)
(2.38302 -0.549861 1.69632e-19)
(2.34853 0.0616334 8.14585e-21)
(2.60197 -0.456245 1.34805e-21)
(2.04036 -0.752995 -2.82879e-19)
(1.96662 -0.423288 0)
(2.05686 0.624063 0)
(1.36349 -1.24814 -1.78278e-19)
(2.37105 0.0705333 0)
(1.36791 -0.480428 -5.41961e-19)
(2.47892 0.516705 3.948e-20)
(2.51147 -0.367506 9.11288e-20)
(2.01609 0.62405 -1.47221e-19)
(-1.89922 0.658593 8.07741e-19)
(1.00132 -0.879353 -3.46674e-19)
(2.28287 0.0178927 2.64028e-21)
(1.65364 -0.101573 -5.55435e-19)
(1.44538 -0.789427 -5.33255e-20)
(1.38561 -0.492739 6.99707e-19)
(1.72405 0.224313 -2.05e-19)
(2.05171 -0.510611 0)
(2.07961 0.498577 4.79822e-20)
(2.05063 -0.469708 -5.10075e-20)
(0.333878 -0.330227 1.30952e-19)
(2.16299 -0.0527694 1.85679e-19)
(2.00792 0.0219534 0)
(2.01046 -0.176465 -9.57837e-20)
(1.43661 -0.734992 -3.61066e-20)
(2.64978 -0.158743 -1.0206e-19)
(2.34715 -0.344662 1.76482e-19)
(1.96804 -0.0380658 0)
(2.04919 -0.727137 0)
(1.94191 -0.0132337 1.55519e-21)
(2.00625 0.0370428 2.79162e-20)
(1.54577 -0.729512 2.75849e-19)
(1.93747 0.0554707 3.87449e-21)
(1.97958 -0.268183 2.79753e-19)
(2.47777 -0.840966 0)
(0.916596 -0.459585 -6.28213e-19)
(2.06326 0.0410132 0)
(2.08533 0.422874 -2.32953e-19)
(2.10657 0.413322 9.60219e-20)
(2.37057 0.0695829 9.28315e-20)
(2.5741 -2.1248 2.82578e-18)
(2.02514 0.00472624 -2.19554e-21)
(2.0033 0.031612 -2.12399e-20)
(2.35937 -0.0565544 1.06207e-19)
(1.99376 0.0162075 3.17472e-19)
(1.94293 0.0323373 0)
(2.46209 0.208727 -1.11349e-19)
(1.69565 -0.64565 -4.03762e-19)
(1.08609 -0.622433 0)
(2.35571 -0.556432 -1.15297e-19)
(2.03949 0.0437819 -1.70933e-20)
(1.93595 0.0348132 9.94725e-21)
(2.36027 -0.339983 2.04995e-19)
(1.99279 0.0516793 0)
(1.46255 -1.06631 -1.68994e-19)
(2.01528 0.0481976 0)
(3.02968 -0.693676 -3.69414e-19)
(1.44949 -0.793519 -6.36862e-22)
(1.66519 -0.538217 0)
(1.99762 0.0255242 1.50998e-20)
(0.890455 -0.459645 -1.42516e-19)
(1.47576 -0.00411776 1.85262e-19)
(1.96843 -0.444907 -1.59991e-19)
(1.95487 -0.00565203 -8.29374e-21)
(0.686786 -0.342835 1.63423e-19)
(0.946361 -0.639584 -1.5571e-20)
(1.97516 -0.13697 2.07925e-19)
(-0.189 1.32377 -7.64769e-19)
(2.00533 0.0639642 3.13431e-21)
(2.03087 0.0353007 3.83054e-21)
(2.01447 0.0615329 -1.11538e-20)
(2.51572 -0.391953 -3.73593e-20)
(1.99085 -2.41126 -1.04553e-18)
(1.74824 0.0353065 0)
(1.98483 -0.00453257 1.9286e-21)
(1.65279 0.328101 -1.62947e-20)
(3.00454 -0.923923 -4.20995e-20)
(2.13336 0.0413411 -1.70375e-20)
(1.48505 -0.292802 -1.07348e-18)
(1.46413 1.51148 0)
(1.914 0.251702 3.35555e-20)
(1.97874 0.0483271 -4.74919e-19)
(1.89313 0.205202 -2.07682e-19)
(1.94023 0.86097 -1.5541e-19)
(2.75054 0.0282931 -3.59566e-20)
(2.16315 -0.649215 -1.47762e-19)
(1.55207 -0.372529 1.41411e-19)
(1.6897 0.0416037 1.44097e-20)
(1.89255 -0.612509 6.46537e-20)
(2.01432 0.0130307 5.27003e-22)
(0.496066 -0.441303 0)
(1.37643 -0.709187 7.26017e-20)
(1.99446 -0.265527 -5.34162e-19)
(-1.61452 0.0435841 8.32665e-20)
(2.05698 0.018065 0)
(2.43895 0.517978 1.10789e-20)
(1.45175 -0.7397 4.3256e-22)
(1.93108 0.0354826 -1.18617e-20)
(1.42095 1.4503 0)
(-1.57176 -0.0744682 7.55211e-20)
(1.97042 0.0781427 1.06336e-21)
(1.9285 0.067745 9.05138e-21)
(2.26065 -2.30497 1.6555e-18)
(1.84682 -0.840074 0)
(1.31339 -0.630663 0)
(2.72737 -0.332232 -8.25949e-20)
(1.70213 -0.627355 2.96253e-21)
(2.04506 0.032735 1.30253e-21)
(1.15592 -0.118526 0)
(1.25451 -0.620982 -2.41025e-19)
(2.07908 0.508391 0)
(2.01805 -0.0279077 0)
(1.96627 -0.143938 0)
(1.99789 0.0246286 1.32615e-20)
(0.782056 -0.957006 2.12339e-19)
(1.41059 -1.06522 0)
(1.86203 -0.557976 0)
(1.91868 0.0530684 -1.18938e-20)
(1.93982 -0.704088 0)
(1.93622 0.0237088 0)
(2.21318 -0.274763 6.10286e-21)
(2.16625 0.0779193 9.37649e-20)
(1.93727 -0.0115711 -1.38624e-20)
(1.66082 -0.476578 -3.16522e-20)
(1.9466 0.0224077 1.2676e-21)
(2.6684 -2.11215 -6.96289e-19)
(2.27159 0.539751 1.26248e-18)
(-0.113552 -0.319069 1.19074e-18)
(2.01195 0.0148056 -5.16629e-20)
(1.93429 0.372737 -2.2841e-19)
(0.759215 0.632101 -1.57361e-19)
(1.86988 -0.836685 0)
(1.99928 0.0256 -4.14745e-21)
(2.05883 -0.612325 -1.01977e-19)
(2.39906 -0.20805 -2.0264e-19)
(2.49702 0.208288 9.28342e-20)
(2.55599 -0.00779029 0)
(1.76724 0.0319372 0)
(2.04808 0.00537062 5.73166e-21)
(2.46585 -0.913464 -3.93023e-19)
(2.12339 0.225417 -2.74172e-20)
(0.386633 1.48671 0)
(2.37783 -0.0821497 0)
(2.02765 0.000801754 0)
(2.0191 0.0253797 4.71639e-21)
(2.506 -0.467049 0)
(2.0486 -0.00132822 -2.02451e-21)
(1.63743 0.325455 -1.38386e-19)
(2.18959 0.25734 0)
(2.14264 0.0268069 0)
(1.64934 -0.755223 0)
(0.69622 -0.466607 -1.89828e-20)
(1.79843 -0.734073 5.74536e-19)
(2.03142 0.0873688 4.58533e-20)
(2.34536 -0.025586 6.46452e-20)
(1.80487 -0.714152 -8.72785e-19)
(3.0008 -0.0701409 -4.35476e-20)
(0.813448 -0.391779 2.76038e-19)
(1.92264 0.0235947 0)
(2.57761 0.471738 -8.52913e-20)
(2.38671 0.483006 -2.10089e-20)
(0.55077 -0.196357 -6.76037e-19)
(2.12689 0.220496 7.04144e-20)
(-0.0444057 -0.293616 3.28775e-19)
(2.55804 0.309404 1.13465e-19)
(2.18502 0.237411 7.4477e-20)
(2.00286 0.0897711 -3.8127e-19)
(2.37124 -0.189263 9.11415e-21)
(2.02645 0.00275964 -8.10547e-23)
(1.59416 -0.757053 0)
(2.53129 0.813774 1.27303e-19)
(2.48622 -0.291231 2.9429e-19)
(1.9903 0.0624198 -5.21187e-19)
(2.53066 0.0216975 0)
(2.02329 -0.314923 5.63923e-19)
(2.04542 0.026926 2.68867e-21)
(2.44754 -0.127115 -4.57988e-21)
(0.70368 -0.334937 0)
(2.17442 0.0915647 4.41323e-20)
(2.1548 -0.0542181 -8.49314e-20)
(2.02633 0.00753634 -1.03518e-22)
(2.04183 -0.0991919 -3.08225e-20)
(2.50721 -0.820665 0)
(1.12272 -0.542767 -3.09846e-19)
(1.998 0.0247368 0)
(2.08725 0.0171331 0)
(1.90317 0.0325119 0)
(1.3816 0.730377 -2.90196e-19)
(1.89662 0.0354028 0)
(1.27959 -1.25013 -4.05727e-20)
(1.65519 -0.50005 7.19909e-20)
(2.33593 -0.0321254 3.74254e-20)
(1.1361 -0.562693 -1.19858e-19)
(2.54706 0.443207 -4.01793e-20)
(1.44853 -0.724911 3.85768e-20)
(2.16683 0.0822311 -2.76447e-21)
(1.41772 -0.686648 -3.18882e-19)
(1.73909 -0.758825 4.17997e-20)
(2.02946 0.0940181 -5.52483e-20)
(1.91424 0.020997 6.52059e-22)
(1.31475 -0.72218 -7.81449e-20)
(1.90568 -0.0777695 4.23242e-19)
(1.92412 0.0432671 0)
(2.17645 0.0864117 0)
(2.11409 -0.0552588 1.15935e-19)
(1.91198 -0.451538 7.40114e-20)
(1.66751 -0.0824402 5.08336e-19)
(1.94107 0.0709036 1.52892e-21)
(2.35422 0.102116 -9.38692e-21)
(1.78768 -0.124897 6.40655e-21)
(2.04371 -0.16856 0)
(1.9391 0.853959 4.09382e-19)
(1.63485 -0.390027 0)
(3.05995 0.11119 0)
(-1.85424 0.384366 -1.57512e-18)
(2.40348 -0.0879964 0)
(2.04144 -0.606804 2.36849e-19)
(2.38327 -0.0318523 0)
(2.42461 0.31001 -1.8669e-20)
(1.33037 -0.631055 1.94806e-19)
(2.47014 0.152336 -4.37972e-21)
(1.52553 -0.709547 2.26442e-20)
(1.83135 -0.0556623 1.76143e-21)
(1.92018 0.231063 -1.55639e-21)
(2.03635 -0.309163 -1.81129e-19)
(1.35735 -0.229658 1.12769e-19)
(2.38826 -0.245799 2.55551e-19)
(0.949642 -0.46687 2.15118e-19)
(1.52624 -0.780833 0)
(1.10678 -0.540509 2.30586e-20)
(2.00995 -0.046735 5.02579e-20)
(2.10239 0.0114568 -9.28564e-21)
(0.964028 -0.467998 6.23261e-19)
(2.40514 -0.0760656 0)
(2.31433 -0.377061 0)
(2.01589 0.0833777 5.82398e-19)
(2.04447 0.0140794 0)
(0.968102 -0.482897 2.08172e-19)
(1.9308 0.0892241 1.29452e-20)
(1.8149 0.0451 0)
(2.31771 -0.0143618 -3.94178e-20)
(2.02561 -0.338177 1.72801e-19)
(0.0832372 0.193366 2.15783e-18)
(2.04783 0.406991 0)
(1.54736 -0.758165 -3.4749e-20)
(1.12167 -0.0903986 7.94208e-20)
(1.05459 -0.517337 3.04789e-19)
(1.91694 0.0587322 0)
(1.80954 -0.0162887 2.09889e-21)
(1.59864 -0.773811 1.93757e-20)
(2.65836 -0.137611 7.52396e-20)
(1.76118 -0.128981 -8.09879e-21)
(0.618248 -0.407024 1.99732e-20)
(2.27347 -0.36875 1.22386e-19)
(1.80469 0.206569 0)
(1.93856 0.0810725 -5.93318e-22)
(2.51684 -0.372532 -2.14523e-19)
(1.60128 -0.766106 -2.41814e-20)
(2.28094 -0.760892 -1.73471e-19)
(0.859802 -0.398436 0)
(1.84474 -0.0559361 -1.48086e-20)
(1.46059 -0.749581 -5.42878e-20)
(2.03034 -0.0261094 -2.44737e-19)
(1.20386 1.0129 0)
(1.61572 0.800408 2.00521e-19)
(1.99259 0.0720096 -1.40439e-19)
(2.05731 -0.178142 0)
(2.3824 0.149711 7.41256e-20)
(1.24924 -0.60473 2.58243e-19)
(2.02997 -0.318044 -9.64342e-20)
(1.83168 -0.00513888 0)
(1.38326 -0.397899 0)
(1.90779 0.0702187 8.51508e-21)
(2.14098 0.252585 5.23458e-20)
(1.39952 -0.394095 4.04156e-20)
(2.1317 -0.207547 -2.05428e-19)
(1.92367 0.0902664 3.07604e-19)
(2.12882 -0.720222 -1.16245e-19)
(1.36741 -0.987552 1.7831e-19)
(-0.616091 -0.497812 6.63668e-19)
(2.44855 -0.215084 2.45146e-19)
(1.91667 -0.0135362 1.81817e-20)
(2.39329 0.304813 3.03003e-20)
(2.01952 -0.0234938 0)
(1.51288 -0.78179 0)
(1.97654 0.073631 -1.84378e-20)
(1.29061 -0.623117 2.36685e-19)
(2.00717 0.0272555 -5.0885e-20)
(1.9929 -0.0492927 4.67363e-20)
(2.02441 -0.104979 0)
(2.10695 -0.0208094 -8.545e-20)
(2.34663 0.124428 -6.24473e-20)
(1.93577 0.0673914 -2.82717e-19)
(2.59958 -0.571808 5.02838e-20)
(2.90485 -0.190002 4.45484e-20)
(1.20634 -0.731255 -8.73114e-21)
(2.14332 0.241891 -4.50281e-20)
(2.62609 -0.1695 9.60785e-20)
(1.99016 0.0249347 -4.86191e-21)
(1.42499 -0.654521 0)
(0.459455 -0.0950398 0)
(2.33055 -0.028973 7.78052e-20)
(1.89053 0.224765 -2.66227e-20)
(1.99416 0.0250085 0)
(2.56479 1.55376 -2.00237e-18)
(0.705825 -0.370736 0)
(2.42855 0.819782 -2.81271e-20)
(2.71528 -0.312609 -7.70495e-20)
(1.91686 -1.11892 0)
(1.92049 0.359072 -1.39755e-19)
(1.99092 0.0773017 2.73401e-20)
(1.89426 0.187007 -1.7743e-20)
(1.89594 -0.0797046 -4.65446e-19)
(1.85366 -0.0674315 0)
(1.99103 0.02362 -2.70367e-20)
(1.97605 0.0810844 5.493e-22)
(2.01004 0.0635998 6.56907e-20)
(1.67097 0.086736 -2.69265e-19)
(0.852899 0.601188 2.90243e-19)
(2.73396 -0.0162017 5.85225e-20)
(2.29039 -0.392144 -5.64692e-19)
(2.1451 -0.206663 0)
(2.25016 0.147133 1.06321e-21)
(2.32458 -0.398721 -1.0161e-19)
(2.00187 0.0333359 6.88136e-19)
(2.19042 -0.652813 0)
(2.82602 0.0552291 -8.61322e-22)
(1.51588 0.306332 0)
(2.61644 -0.478359 -1.60745e-19)
(1.95473 -0.573535 -1.76384e-19)
(0.763006 -0.365186 2.57177e-19)
(2.48267 -0.481314 -1.45601e-19)
(2.00989 0.15279 0)
(1.93953 0.0851368 2.30474e-20)
(1.85317 -0.0722573 1.81143e-20)
(1.68191 0.0923005 2.54267e-19)
(2.34245 -0.403832 3.99458e-19)
(2.4419 -0.138381 1.83604e-19)
(1.50474 -0.717952 -1.06638e-19)
(2.03488 0.00720336 1.12479e-21)
(2.25727 -0.189879 0)
(1.12034 -0.426111 6.21013e-19)
(3.04909 0.0829649 0)
(1.98438 0.0795657 -7.17872e-22)
(2.25615 -0.0960295 3.35966e-19)
(2.29113 0.164024 -6.84675e-20)
(2.3711 0.135632 5.99567e-20)
(0.640337 -0.434402 -1.17327e-19)
(1.93925 0.0717983 3.53556e-19)
(2.04991 0.00510955 0)
(-0.223313 1.16237 -6.09197e-19)
(2.22734 -0.277253 -1.20043e-19)
(1.89046 0.208086 1.41076e-20)
(1.91086 -0.421371 6.94661e-20)
(2.34969 -0.00845158 0)
(2.73654 0.107712 3.17585e-20)
(1.81005 0.136143 5.40729e-19)
(1.97265 0.0844266 4.26508e-19)
(2.02662 -0.187646 0)
(2.03897 -0.00180965 -1.46628e-22)
(2.0128 -0.084867 -4.72031e-20)
(3.06478 -1.65792 5.07314e-19)
(1.63375 -0.100502 7.05635e-20)
(2.2282 -0.23845 1.1411e-19)
(1.99679 0.0183109 -4.5383e-21)
(2.25856 -0.18887 0)
(2.36859 0.311658 -7.21354e-20)
(1.55861 -0.751841 3.43068e-20)
(2.3869 0.24044 2.42881e-20)
(1.98381 0.0395097 2.6694e-19)
(1.3699 0.0387007 0)
(1.96645 0.0833167 3.1391e-20)
(1.96459 -1.07397 0)
(3.53724 0.495491 -3.39028e-19)
(2.01957 -0.0379984 0)
(2.18372 -0.740078 -5.76707e-21)
(1.40111 -0.18239 -1.51195e-19)
(1.60065 0.735151 4.83481e-19)
(2.99968 -1.71953 -1.71901e-18)
(1.84119 -0.0174141 0)
(2.26223 0.0596839 -5.49713e-20)
(2.01107 0.178786 -1.48158e-19)
(-2.16301 1.43751 -8.96035e-19)
(1.40244 -0.773882 5.78848e-21)
(1.68936 -0.0957131 -7.67356e-19)
(2.08724 -0.172925 5.1722e-20)
(2.08754 0.173737 1.00862e-19)
(1.53374 -0.505411 0)
(1.4427 0.235543 2.90244e-19)
(1.99752 0.0319488 1.31835e-20)
(0.792061 -0.412458 8.35244e-20)
(1.54559 -0.748449 -1.19079e-19)
(-2.54553 1.37993 -1.61084e-18)
(2.45155 -0.220307 0)
(-2.56281 1.55698 0)
(2.12434 0.99495 0)
(2.06208 -0.0866922 0)
(0.696458 -0.209688 -6.00169e-20)
(2.6107 -0.452605 0)
(2.01048 0.390359 0)
(1.70565 0.0592171 1.04866e-19)
(2.46163 -0.29197 -3.04139e-19)
(2.24295 -0.18492 -2.75001e-19)
(1.74177 0.274035 8.68189e-19)
(1.99428 0.0190777 -7.72706e-20)
(2.53383 1.50418 0)
(2.14972 -0.178239 0)
(1.9237 0.0663267 3.02086e-19)
(2.04409 0.0553368 5.29113e-20)
(1.3981 0.776055 0)
(0.6601 -0.326876 1.11165e-19)
(2.2635 -0.774803 1.95282e-19)
(2.44719 0.490997 0)
(2.39629 -0.072641 1.82181e-19)
(1.99426 0.0744576 -3.49127e-19)
(1.33759 -0.547684 1.14389e-20)
(1.11368 -0.409737 0)
(2.01937 0.184403 2.78384e-19)
(2.44357 0.0490925 0)
(2.01953 -0.0953189 0)
(2.20025 0.159931 -1.23916e-20)
(1.93307 0.0963258 1.60854e-19)
(0.299623 -0.386246 -1.70356e-19)
(2.33962 0.486547 8.20079e-21)
(1.42122 -0.404954 -2.68468e-19)
(2.0879 -0.0582226 3.58345e-20)
(2.10791 0.174835 7.81585e-20)
(2.34551 0.302768 1.93263e-19)
(2.3559 -0.756314 0)
(2.08567 -0.336532 9.66321e-20)
(1.40643 -0.114565 0)
(1.97502 0.0815171 -1.73148e-20)
(2.34927 -0.192867 0)
(1.4971 0.0132197 3.91773e-19)
(0.550033 -0.788255 -2.99115e-18)
(2.06838 -0.162888 0)
(-0.469296 -0.154371 5.45243e-20)
(2.13941 -0.186683 -1.23534e-19)
(1.97457 0.177338 4.3976e-20)
(1.80627 -0.302358 7.33471e-19)
(1.49968 0.712695 -3.09805e-19)
(1.41015 -0.392465 -7.63234e-19)
(3.51388 0.423566 0)
(2.00011 0.0308316 -1.29633e-20)
(1.51219 -0.733639 -2.546e-19)
(1.99538 0.189854 0)
(1.87724 0.205169 1.93166e-20)
(2.36815 -0.060426 -2.21711e-20)
(2.83758 0.751454 0)
(2.00575 0.0230419 0)
(0.609854 -0.305066 0)
(1.59797 -0.753967 8.26657e-20)
(2.07788 -0.741648 1.39243e-19)
(2.45183 -0.838524 1.07584e-20)
(2.3855 0.785134 0)
(1.75193 -0.211408 4.98028e-19)
(2.02041 0.0048442 -7.74973e-22)
(2.33332 0.443441 -9.93694e-21)
(1.3147 -0.717607 1.17977e-19)
(1.89384 0.18688 0)
(2.01589 0.0262077 0)
(0.854432 -0.183456 -4.24318e-19)
(1.50968 -0.49786 -1.87564e-19)
(1.96985 -0.206632 0)
(1.35503 -0.657844 -2.26068e-19)
(2.07672 0.0133172 4.40769e-21)
(2.01843 0.00702032 -1.34095e-21)
(0.859162 -0.410473 0)
(1.90755 0.00895962 8.07897e-21)
(1.99537 0.0179671 -1.17646e-20)
(2.43167 0.0396405 7.76241e-20)
(1.94403 -0.593611 0)
(-0.681741 -0.685527 -1.03776e-18)
(2.32571 0.143107 6.81262e-20)
(2.00921 0.0599765 6.02404e-20)
(1.9931 0.00191479 -8.28451e-21)
(2.61811 0.422558 0)
(1.71114 0.267791 -2.31259e-19)
(2.83979 -0.090006 -1.90012e-19)
(-2.41257 1.14847 2.61971e-19)
(1.98978 0.0525922 0)
(1.41235 -0.772603 -5.88531e-21)
(0.601781 -0.167332 0)
(2.01198 0.0281887 -2.33352e-19)
(2.00434 0.062289 1.04527e-19)
(1.88713 0.030849 -5.8989e-20)
(1.59728 -0.762604 0)
(2.15947 0.0417434 -2.97251e-20)
(1.19091 0.370011 8.00706e-19)
(2.32806 -0.751178 0)
(1.67659 0.0434409 3.2767e-19)
(2.57574 -0.584596 -5.71983e-20)
(2.12984 -0.011336 0)
(1.47238 -0.746448 2.58366e-20)
(1.774 0.0458694 4.77481e-21)
(2.05179 0.0189712 0)
(-1.14835 -0.638871 1.33818e-18)
(1.8655 0.195017 0)
(1.77314 -0.812193 2.33055e-19)
(1.56471 -0.763764 6.73293e-20)
(2.02438 0.0110939 1.64214e-22)
(2.3521 0.0852293 -3.15596e-20)
(1.43116 0.217366 1.54046e-19)
(1.80648 -0.333373 -2.70656e-19)
(1.85512 -0.010412 -5.11382e-21)
(1.81397 -0.820461 2.48457e-21)
(2.20836 -0.244363 1.10879e-19)
(2.61607 0.432189 1.75848e-19)
(1.9161 -0.854826 0)
(1.99312 0.0394606 -2.36659e-19)
(2.22831 0.746759 -6.9561e-19)
(1.4267 -0.126096 0)
(2.00507 0.0345205 4.28417e-21)
(1.95144 0.0106227 0)
(1.31844 -0.425646 6.58968e-19)
(2.1527 -0.803934 0)
(2.03888 0.00231774 -2.91829e-21)
(2.28912 -0.0924199 -1.9093e-19)
(1.48144 -0.725107 4.58572e-20)
(0.708476 -0.355621 1.17368e-19)
(2.32029 -0.000918059 -1.67572e-21)
(1.3852 -0.657907 1.98172e-19)
(1.84804 -0.552662 2.59253e-19)
(1.54642 -0.379043 0)
(0.712342 -0.351356 -6.30334e-20)
(2.37932 -0.696342 -4.07249e-20)
(0.781436 -0.369058 -7.43689e-20)
(2.01612 -0.00230694 1.12831e-21)
(1.53524 -0.618189 0)
(2.11526 0.00338074 -1.17923e-21)
(0.764838 -0.351543 0)
(1.49476 -0.760836 6.00812e-24)
(1.34099 -0.575633 -1.00083e-20)
(0.365148 -0.249379 0)
(2.11381 -0.568655 7.55558e-20)
(1.65247 -0.531511 0)
(2.83184 0.675798 0)
(1.54206 -0.729887 -3.07382e-19)
(1.53934 0.277698 2.33868e-19)
(1.6307 0.0862117 0)
(1.82001 0.155335 -1.47473e-19)
(2.52444 -0.919504 4.63093e-19)
(1.57863 -0.756281 1.55505e-19)
(2.93422 1.07096 0)
(2.12068 -0.0378884 0)
(1.47262 -0.752925 -1.10832e-19)
(1.90285 -0.140683 0)
(2.16432 0.032092 0)
(1.48333 -1.03074 -5.6255e-21)
(2.10539 -0.421229 -3.64773e-19)
(1.80346 -0.46018 2.24326e-19)
(2.23446 -0.399813 1.71334e-20)
(0.652754 -0.308887 1.39225e-19)
(1.98464 0.0463255 1.20159e-19)
(1.58655 -0.405703 0)
(2.18367 0.381327 -3.42233e-20)
(1.47691 -0.260906 0)
(2.13053 0.00455107 0)
(1.98581 0.124561 0)
(2.20343 0.146652 -1.01792e-20)
(1.90159 -0.0818715 2.1636e-19)
(2.03923 0.00877402 -7.49533e-21)
(1.6291 -0.409913 0)
(0.48202 -0.353111 -1.01697e-19)
(2.14797 0.940512 3.26659e-20)
(1.93865 -0.717793 2.45025e-20)
(1.95785 0.00894168 -2.57231e-20)
(2.0153 -0.302944 1.53284e-19)
(2.01645 0.0540703 -2.00326e-19)
(0.36821 -0.304087 0)
(2.35705 0.135637 0)
(1.51978 0.740251 0)
(1.30305 -0.599787 -4.7288e-19)
(1.50117 -0.608578 -4.77582e-20)
(0.427599 -0.113323 0)
(2.19728 0.38652 0)
(2.49453 0.307591 5.35209e-20)
(2.05897 -0.0282353 -5.6989e-20)
(1.95605 0.536064 2.24017e-19)
(1.73131 -0.748371 0)
(0.96675 -0.887132 -4.37752e-20)
(2.27596 0.0614613 1.74925e-20)
(1.47924 -0.464839 -4.48789e-19)
(2.22193 0.059825 -5.65529e-20)
(2.32332 0.444171 4.35158e-20)
(1.86428 -0.599738 6.088e-20)
(1.30267 -0.604386 8.25705e-19)
(1.69586 -0.268468 3.77095e-20)
(2.05821 0.0285085 2.97856e-21)
(1.99853 0.0131651 -6.04971e-20)
(1.2292 -0.577336 -7.13668e-20)
(1.78849 0.0535898 -2.76773e-21)
(1.75822 1.92708 2.2016e-20)
(1.37342 -0.657345 1.16535e-19)
(2.20491 0.133742 0)
(1.96798 0.281931 -9.28855e-21)
(2.16075 -0.0546701 -1.99248e-19)
(2.88627 0.295289 1.24259e-19)
(1.44986 -0.433658 -4.0927e-19)
(1.92256 -0.690666 -2.66827e-19)
(2.07001 0.00676176 5.4693e-19)
(2.37263 -0.0567428 -3.12135e-19)
(2.16756 0.584553 -2.63749e-20)
(2.47815 -0.217843 -1.245e-19)
(1.23773 -0.221773 -8.95935e-19)
(2.10351 0.000893193 -1.55652e-19)
(1.22476 -0.288964 0)
(1.51678 -0.710437 -9.70866e-20)
(1.96543 0.0183602 5.12334e-19)
(1.84982 -0.00510244 -2.18531e-21)
(-0.286106 1.75886 0)
(1.61911 -0.744674 0)
(2.04758 0.376378 1.94906e-19)
(1.11257 -0.216573 5.57558e-19)
(1.68661 -0.632985 -8.17986e-20)
(2.206 -0.735215 -1.27815e-19)
(2.30616 -0.405314 3.0783e-19)
(3.07779 0.028529 0)
(2.06124 0.410066 1.02998e-19)
(1.12419 -0.804021 3.69696e-21)
(2.58276 0.79427 1.42036e-19)
(2.0004 -0.285213 -3.21526e-19)
(0.803275 -0.37893 -2.27476e-19)
(2.00847 -0.284186 -1.50227e-19)
(2.07037 -0.346905 5.12079e-20)
(2.37712 1.00882 0)
(1.89569 -0.0945964 -1.76508e-20)
(1.8756 0.0293241 5.42893e-20)
(2.01278 0.00397762 2.16969e-21)
(0.851176 -0.416427 7.57449e-19)
(1.98457 -0.284237 4.81431e-19)
(2.02472 0.0922692 -2.13164e-20)
(1.55513 -0.746989 -9.28927e-20)
(2.02748 -0.0670988 -5.80101e-20)
(2.17178 0.0117196 1.39315e-19)
(1.33489 -1.01692 -2.28175e-20)
(2.48664 0.775654 -1.44506e-19)
(-1.23622 -0.473654 -1.45237e-18)
(0.998787 -0.489568 -2.5056e-19)
(2.01635 0.00257651 0)
(2.02645 0.0553339 -1.40791e-20)
(1.52896 -0.843527 -5.79843e-20)
(1.39255 -0.210368 8.14066e-19)
(2.0397 -0.00629488 0)
(3.011 0.0437783 -9.12703e-20)
(1.27308 -0.551666 1.87315e-19)
(1.99401 0.0272858 -5.16449e-19)
(1.13694 -0.542323 -1.09126e-19)
(1.63761 0.0958403 3.72202e-21)
(2.23947 -0.195432 1.86926e-19)
(2.24928 0.0376835 7.98699e-20)
(1.79319 -0.821376 -3.22523e-19)
(2.0514 0.0178556 1.087e-20)
(1.5357 -0.615102 -1.12755e-19)
(2.12648 -0.0365908 1.86879e-19)
(2.04987 -0.0754447 -1.55962e-19)
(2.17154 0.0761369 -5.3788e-21)
(2.1597 -0.00371731 -3.39502e-19)
(1.21062 -0.55619 -3.61771e-19)
(2.04641 0.0182296 0)
(1.57276 -0.747029 6.47394e-20)
(2.03912 0.0486286 3.89774e-20)
(1.24718 -0.439935 -3.02786e-21)
(2.30152 -0.00380463 -1.37871e-20)
(2.249 -0.427524 -1.89808e-19)
(2.00329 0.016012 -3.96293e-19)
(2.1163 0.284689 5.74952e-20)
(0.589877 -0.285919 -1.14196e-19)
(2.18394 0.0244818 0)
(1.96272 0.0821555 -1.57054e-20)
(2.28148 0.177888 7.00852e-20)
(1.5417 -0.603334 0)
(2.16772 0.0472385 1.08281e-19)
(2.2262 0.144035 8.63463e-20)
(2.16163 0.0326278 8.02078e-24)
(2.51554 -0.834832 8.89417e-21)
(1.90464 0.0167495 0)
(1.81303 0.317435 4.15343e-19)
(2.038 0.0642735 2.39578e-20)
(1.34479 -0.649462 2.5831e-19)
(2.03797 -0.204009 0)
(1.52863 0.23976 -6.76658e-19)
(0.77817 -0.776784 3.78071e-19)
(2.68695 1.25229 -3.61371e-19)
(1.24798 -0.245295 8.70149e-19)
(2.08107 -0.00672099 9.97622e-21)
(0.749804 -0.377486 9.38128e-20)
(1.94035 -0.121387 -3.37608e-19)
(2.12361 -0.320862 -1.43745e-19)
(1.79917 0.129563 -3.121e-19)
(2.03255 0.0175971 0)
(1.99696 0.0338423 -2.29202e-19)
(0.10642 -0.150458 2.81109e-19)
(-0.627935 0.29421 0)
(1.96331 -0.478628 0)
(2.0299 0.00167057 0)
(-2.24292 0.889248 0)
(2.08279 0.295798 0)
(1.18006 -0.214037 0)
(1.7997 -0.151611 -2.1062e-21)
(2.37825 -0.77332 -1.94916e-19)
(2.48347 0.149691 0)
(1.79325 0.316035 6.2704e-19)
(1.07825 0.654899 -1.45656e-19)
(2.07618 0.169712 5.60213e-21)
(1.5115 -0.889808 -3.19417e-20)
(1.18742 0.0159674 -2.25429e-21)
(0.739671 -0.354995 9.87449e-20)
(2.04918 0.020398 -1.23345e-19)
(2.35662 -0.0719175 1.46112e-20)
(2.06015 0.297153 -1.37821e-19)
(1.88978 0.187328 -4.1579e-19)
(2.07678 0.875552 -1.266e-19)
(3.40785 0.476164 0)
(1.42576 -0.800417 1.95596e-20)
(1.33818 -0.439121 -7.2231e-19)
(2.00162 0.0264872 -7.11708e-19)
(2.39085 -0.7043 -2.23034e-19)
(2.0698 -0.0420503 5.36116e-20)
(2.71709 -0.656467 -9.76033e-21)
(2.17075 -0.326005 -4.15847e-20)
(2.1277 -0.556923 -2.61758e-19)
(2.00182 0.146603 1.54251e-19)
(2.98154 1.49504 0)
(1.85516 0.00389551 -3.54256e-21)
(1.7175 0.0409706 -9.63268e-20)
(2.64677 -0.436202 0)
(1.91269 0.0520801 0)
(1.84995 -0.846877 -3.42112e-21)
(0.987077 -0.49632 9.86126e-20)
(1.78477 -0.150699 -3.66599e-20)
(1.94669 0.030305 0)
(1.90494 -0.0784148 -4.43513e-19)
(1.83915 0.198734 -8.06501e-20)
(1.55376 -0.747035 3.90407e-20)
(2.20382 0.0855281 4.33706e-20)
(0.721294 -0.346875 0)
(1.4199 -0.796929 2.35422e-20)
(2.23956 0.130333 0)
(1.87951 -0.0934476 1.6882e-20)
(2.75085 0.103598 -3.2575e-20)
(2.00392 0.0288402 -8.61808e-22)
(2.4025 0.489619 3.87147e-20)
(2.87021 0.938792 -3.97509e-20)
(1.80273 -0.532513 5.3857e-19)
(1.38869 -0.703563 0)
(1.61075 -0.466825 -6.69091e-20)
(1.28302 -0.057287 0)
(2.51223 0.104568 -4.23467e-20)
(1.55167 -0.75503 8.14611e-20)
(1.95261 -0.466098 9.27085e-20)
(1.95412 0.0741016 1.44148e-20)
(1.5963 -0.792256 -1.26209e-19)
(1.15425 -0.566959 -2.98344e-19)
(1.37907 -0.443576 -4.18109e-19)
(2.00514 0.0257634 -4.5545e-21)
(1.61322 -0.449824 5.49666e-20)
(1.25391 -0.571832 2.97616e-19)
(1.43451 -0.464484 4.59317e-19)
(1.49155 -0.611156 6.21855e-20)
(1.69264 -0.467266 -3.47386e-20)
(1.90954 -0.613868 2.66631e-19)
(2.42464 -1.17681 2.19723e-18)
(2.04231 -0.0049725 7.03718e-21)
(1.02488 0.498274 1.05487e-19)
(2.33262 0.300407 -1.96679e-20)
(2.32825 -0.581034 0)
(-2.34808 0.990263 -2.6969e-18)
(2.11084 -0.0697502 -2.42871e-19)
(2.00398 0.133535 0)
(2.49588 0.116052 0)
(1.45424 -0.427675 -4.88665e-20)
(2.1862 -0.460071 -1.52125e-19)
(2.35827 0.120659 3.14491e-20)
(2.09969 -0.411005 4.78055e-19)
(2.0514 0.837958 1.20302e-19)
(1.64601 0.00130077 3.41669e-19)
(1.56358 -0.755061 -5.2949e-22)
(1.83565 0.562977 0)
(1.46515 -0.491779 4.39891e-19)
(1.58794 -2.11049 1.28812e-19)
(1.59816 -0.781956 9.56076e-20)
(1.79527 -0.698991 8.86368e-20)
(1.52721 -0.690067 -4.90409e-20)
(2.01339 0.0282801 1.70278e-19)
(1.93964 0.0637999 -5.28464e-21)
(2.01629 -0.155113 1.03108e-19)
(1.5707 -0.758445 -5.59181e-20)
(2.34398 0.123757 -2.10279e-20)
(1.93645 0.0652076 1.76416e-19)
(1.21923 -0.27685 -3.5765e-19)
(1.90538 -0.115793 2.75736e-19)
(2.11755 0.641132 0)
(2.38266 0.23319 -3.01938e-20)
(2.00149 0.0641554 3.93074e-20)
(1.5336 -0.351669 -1.41009e-19)
(2.01084 1.70128 7.32724e-20)
(1.87963 -0.60102 1.98781e-19)
(1.99692 -0.0152645 7.6506e-20)
(1.43046 0.077312 -5.29815e-19)
(2.60609 -0.423825 0)
(1.95339 0.0704844 2.54493e-20)
(2.21707 0.0612077 7.69165e-20)
(1.91377 -0.0197874 0)
(1.4586 -0.0142354 3.03095e-19)
(2.19979 0.0996036 0)
(1.88942 1.72186 1.15689e-20)
(2.35523 0.00123241 0)
(1.85384 -0.00783216 0)
(2.35743 0.0518569 4.77664e-20)
(2.32032 0.102825 -1.67351e-22)
(2.59455 -0.134508 -2.55027e-19)
(1.90201 0.179759 -1.89219e-19)
(1.6812 1.07537 -1.20238e-19)
(2.00135 0.0658996 -7.27147e-20)
(2.09098 0.296411 0)
(2.81042 -1.73387 -1.1474e-19)
(2.37521 0.0581104 4.62505e-20)
(1.87715 -0.0675384 -3.43923e-20)
(2.32647 -0.573927 0)
(2.90821 0.283697 1.87894e-19)
(2.35833 1.5311 2.18955e-20)
(2.03082 0.0133822 2.63069e-20)
(1.73258 -0.784651 0)
(1.53167 -1.02595 1.28019e-19)
(2.06181 0.124813 0)
(2.03415 -0.131212 -5.2519e-20)
(0.256421 -0.0142568 0)
(2.97784 -1.22211 0)
(1.68726 -0.289737 0)
(2.10948 -0.798491 0)
(1.1158 -1.33033 -3.17787e-20)
(1.59599 -0.744888 -1.81261e-20)
(1.89231 -0.0736059 -3.24567e-19)
(1.49328 -0.732207 -5.60415e-20)
(1.33419 -0.594929 0)
(1.52635 -0.69676 -3.84957e-20)
(-0.299734 0.81288 -2.13735e-18)
(1.56414 -0.737318 0)
(1.54002 -0.566122 -4.69276e-19)
(1.99033 0.0539349 4.64368e-21)
(2.32151 0.290198 4.17086e-20)
(2.49401 -0.841755 4.12609e-20)
(1.85419 0.173066 0)
(2.27643 -0.733466 0)
(2.8797 -0.420945 1.42705e-19)
(1.8164 0.0541017 -8.86198e-22)
(1.9913 0.0285498 1.01026e-20)
(1.43601 -0.410931 2.97812e-21)
(1.99431 0.0216923 1.70065e-20)
(2.058 0.0224909 4.41508e-22)
(2.00652 0.146866 2.2135e-19)
(1.96707 0.0720564 -1.47475e-20)
(1.94828 -0.551612 0)
(0.314617 -0.624769 0)
(2.05538 0.0233875 0)
(1.99166 0.0158156 0)
(1.78305 -0.356448 1.98897e-19)
(2.36677 -0.153179 0)
(1.37469 -1.18717 3.11636e-19)
(1.81911 -0.614097 -4.53691e-21)
(1.40514 -0.481797 -6.89998e-19)
(0.991215 0.78498 1.01225e-19)
(1.58012 -0.736416 -3.61596e-20)
(1.49383 -1.39848 -1.98489e-19)
(1.97178 0.00766764 6.07809e-20)
(1.58679 -0.764855 -5.49777e-20)
(1.97302 0.0703853 -2.43772e-20)
(2.3161 0.0490183 0)
(2.4326 -0.375568 0)
(1.73221 0.484976 0)
(2.24205 -0.442847 1.00197e-19)
(1.68114 -0.508878 0)
(1.87049 0.564359 0)
(1.99543 0.0157975 0)
(1.82281 -0.463269 2.09249e-19)
(2.07331 0.178326 -2.02192e-19)
(1.96673 0.0200648 0)
(1.82989 -0.17023 -3.98191e-20)
(1.98421 0.160329 -2.19667e-19)
(2.56859 0.700034 -2.95525e-19)
(1.60649 -0.752643 2.78675e-19)
(1.95878 0.599583 -1.00563e-22)
(1.73158 0.0238136 4.19457e-22)
(1.90466 0.0700734 -8.40527e-21)
(1.83524 -0.0327318 -7.85573e-21)
(2.3171 0.10927 3.09646e-21)
(1.9937 0.0257749 2.18767e-20)
(1.82922 0.052285 -3.05762e-19)
(2.13752 -0.0356637 0)
(1.34711 -0.510164 3.09255e-21)
(1.95528 0.074554 3.16613e-19)
(1.04138 -0.817866 1.65837e-19)
(2.1594 -0.305785 -1.21334e-19)
(1.14118 -0.237016 -6.08215e-19)
(2.32306 0.0927871 -1.00472e-21)
(2.87161 -0.0767501 2.73464e-19)
(1.99857 0.0342813 0)
(2.01519 0.324483 -2.3708e-20)
(1.95266 0.0341814 4.31397e-21)
(1.82364 -0.0443327 2.16409e-20)
(1.38286 -0.755528 -1.35291e-19)
(1.99953 0.0126079 1.66478e-19)
(2.04888 0.0276191 -3.31595e-21)
(2.05392 0.00480283 -6.05372e-21)
(2.05624 0.0120611 0)
(2.13002 0.720788 0)
(1.41886 -0.682954 3.41e-19)
(1.00143 -0.481409 1.17023e-19)
(2.01929 -0.00683249 8.68623e-22)
(1.96488 0.0796864 6.32393e-19)
(2.00289 0.339329 7.2137e-20)
(1.49965 0.219988 0)
(1.81318 0.0833906 0)
(1.65871 -0.394765 -3.01265e-21)
(2.29671 0.0236873 7.36445e-20)
(2.00726 0.568052 2.92556e-19)
(2.51557 -0.00170318 0)
(2.04845 0.0235224 0)
(2.15772 -0.627451 3.5696e-19)
(2.00362 -0.183717 2.59648e-19)
(0.192639 -0.0798479 -2.73861e-20)
(1.88765 0.00579254 0)
(3.12997 -1.27171 2.05444e-19)
(1.87375 -0.259838 -1.83489e-20)
(1.53451 -0.824282 -7.6496e-20)
(1.99044 -0.0449209 -3.54981e-19)
(2.4191 -0.725443 0)
(2.20634 -0.482886 1.20289e-19)
(1.75557 -0.759649 -1.10312e-19)
(0.0524924 0.0106612 0)
(1.99705 0.0124135 2.15905e-20)
(1.91768 0.125017 -2.05321e-19)
(1.97596 -0.0018179 2.17047e-23)
(2.79864 -0.00115167 1.13238e-20)
(2.13016 1.67483 6.39059e-19)
(1.89921 0.0276387 0)
(1.13501 -0.447582 -4.23064e-21)
(2.02028 0.373432 -6.59091e-20)
(1.94653 -1.02653 -2.54321e-19)
(2.0842 0.292654 1.63576e-19)
(1.33578 -0.701715 4.90682e-20)
(1.95488 0.00994814 -7.81274e-19)
(2.02995 0.0930908 1.20151e-20)
(1.91866 0.0845539 -1.42382e-20)
(1.78822 -0.427403 0)
(1.92761 0.00100913 6.28583e-21)
(1.17654 -0.555992 2.37627e-19)
(2.24217 -0.0916171 -3.68999e-19)
(2.01262 0.0648279 -2.86154e-19)
(2.01344 -0.129475 4.78357e-20)
(1.70828 -0.200482 7.2989e-19)
(2.05763 -0.0190049 -8.50742e-21)
(1.79972 0.0784224 1.77881e-19)
(2.00084 0.0266622 1.50976e-20)
(2.25781 -0.405188 -1.99123e-19)
(2.53643 0.824051 -2.1911e-19)
(1.70283 -0.641939 6.40223e-20)
(2.02678 0.00697939 0)
(1.82893 0.346526 0)
(1.14424 -0.192258 0)
(1.4013 -0.448889 5.34136e-19)
(2.15391 0.0704737 -4.60642e-19)
(1.81758 0.217679 0)
(1.57752 -0.363553 -4.18723e-19)
(1.81149 0.18675 0)
(1.78454 -0.328128 -3.26854e-19)
(1.86623 -0.0885767 -3.55148e-20)
(1.92245 -0.522653 -2.93562e-19)
(1.96648 0.0490049 0)
(1.9428 0.0548023 0)
(1.9226 -0.0190714 2.05785e-20)
(2.46439 0.127758 4.36863e-21)
(2.28329 -0.0713981 9.82388e-20)
(2.57569 1.62401 -1.12616e-20)
(2.6414 -0.0230089 0)