/*--------------------------------*- C++ -*----------------------------------*\
| =========                 |                                                 |
| \\      /  F ield         | OpenFOAM: The Open Source CFD Toolbox           |
|  \\    /   O peration     | Version:  2306                                  |
|   \\  /    A nd           | Website:  www.openfoam.com                      |
|    \\/     M anipulation  |                                                 |
\*---------------------------------------------------------------------------*/
FoamFile
{
    version     2.0;
    format      ascii;
    arch        "LSB;label=32;scalar=64";
    class       volScalarField;
    location    "4";
    object      p;
}
// * * * * * * * * * * * * * * * * * * * * * * * * * * * * * * * * * * * * * //

dimensions      [0 2 -2 0 0 0 0];

internalField   nonuniform List<scalar> 
13486
(
9.27926
7.94266
0.0506993
-16.1099
1.63686
-0.363613
-0.106628
4.28328
5.76925
4.22919
-27.2793
1.58615
9.74251
0.168904
1.45932
4.59947
-20.6098
1.58513
2.03179
8.45735
-12.5454
9.60977
7.78374
-19.0658
4.05259
-17.2352
-20.1925
-5.76039
-0.00249818
-6.45356
-9.32081
1.71717
-9.8585
-4.19889
4.30453
0.000690997
-0.583596
7.14584
-1.02346
5.93421
-1.57489
10.1515
0.0382441
3.96863
3.82031
1.50135
-20.1857
-0.00031846
-0.548599
-4.32106
5.75869
-1.19143
1.41709
7.28635
0.919975
1.99743
-0.791542
-1.18492
-9.37992
-1.19419
-33.4153
-1.05229
-10.3741
-11.6605
-27.7937
-0.660291
-18.1948
9.53157
5.69479
-0.597228
-18.3645
1.1652
6.10641
-12.6084
-0.783858
-0.767803
-0.67976
1.33431
-20.3074
-1.46729
-0.000365465
8.06753
-10.6212
0.191569
9.30854
4.51429
-0.132288
5.49241
6.56189
4.73103
1.75216
3.47692
8.79974
8.22058
5.91166
-0.00488071
-20.2497
-22.442
5.81726
-20.9129
0.0261503
0.458796
-22.8136
-1.16385
5.10696
-21.167
6.43532
-1.02867
-20.8494
2.83293
5.25826
1.27
7.28848
-0.120535
11.1202
5.61868
4.09621
-4.01083
6.16706
-0.421139
1.56167
-31.8695
6.29105
-1.04329
5.25312
-1.1359
3.81265
2.09423
-3.66371
-18.5503
-1.11371
-19.0353
-13.1564
-11.4426
5.97823
5.72903
11.5133
3.05156
-0.396408
4.51439
-7.45738
1.45335
1.83124
-1.54093
-0.0329061
-15.6553
0.103904
7.69199
-4.6514
-0.00228796
4.071
0.875135
0.00641147
8.23059
2.49932
0.00884516
1.92205
-3.5032
6.28971
-1.32665
-2.97149
6.28572
1.97777
10.0865
-1.21006
-0.843229
0.947776
12.8709
0.113763
-11.4062
-13.6623
2.54714
4.79508
2.80471
-0.0176867
-46.9539
-0.249023
-8.16521
6.42141
1.86026
5.39264
-0.093522
2.38057
-23.2135
0.380503
-5.62351
0.000249661
-5.43009
-1.19084
5.9881
-0.482298
-0.180079
-1.33173
8.71684
-1.52181
-26.0281
-21.2997
-3.41267
8.06274
-0.584661
-9.69665
2.00266
7.15839
0.620782
-1.83103
-1.57748
0.928692
6.76214
-1.2614
0.378612
-5.4386
-16.9221
8.35179
6.44568
-0.32141
-3.99179
-6.48488
4.8625
8.25171
-6.53424
-20.9133
-4.72164
4.69849
-3.37299
1.08757
8.90477
-1.33635
-24.3649
-2.76739
-0.201758
5.32538
-5.67664
-7.79934
10.3876
-19.9167
8.44625
-4.70831
-0.158473
8.54797
2.54042
-10.4825
4.7015
-0.057958
7.98576
-0.887208
7.32927
2.63317
-11.1027
-11.1046
4.35279
-30.3203
11.2597
5.32128
-1.06362
-2.09694
-51.6644
1.73858
-3.83977
-3.3435
-10.6466
7.22273
-0.878403
1.49929
-48.9914
1.98289
-23.287
-2.82208
-12.388
5.83048
1.1143
7.07517
6.32427
-6.6952
1.32516
8.91953
-10.0833
-2.1098
-3.0852
-1.13035
0.129802
-3.71651
4.70316
6.50791
-26.7893
-30.504
-20.1773
-6.52008
-3.79118
1.05087
5.9084
-18.9818
-0.989063
5.86329
6.02549
-4.53601
-5.0634
-3.27599
1.20047
6.59359
-1.12792
2.04391
1.07124
0.126135
1.74396
-0.49147
0.738359
-5.73133
2.80576
-0.252355
-0.510359
-11.1572
-15.4088
0.684515
1.38231
-31.4027
5.85067
-1.02606
6.59307
6.82208
-3.32685
-0.608046
-0.890845
6.3736
8.30043
11.3866
1.76414
3.10945
4.56806
0.785832
2.73696
5.53612
3.16785
1.77182
9.08422
-0.361001
5.5057
11.4517
1.03175
4.39093
-0.849697
-3.03719
8.24103
2.52277
2.40598
-27.1272
-0.00579453
3.65325
11.0033
-6.6742
-0.930486
3.56918
0.973034
1.25859
-20.3164
6.54604
-0.152412
-12.8088
3.70988
-0.331003
-15.2791
2.0906
1.65955
7.25228
6.34731
-6.66491
0.00806953
-4.89611
-17.7303
8.55288
3.79367
0.0246965
3.7499
1.0029
-32.0074
0.15955
5.8646
6.40963
-0.849546
-30.3338
-9.47812
5.67921
3.03903
9.91587
7.3975
-18.775
-2.25193
1.00388
4.28995
-18.6606
-6.41949
8.19824
-6.99724
3.29726
8.68398
9.56152
-0.320124
-16.9884
-30.8227
-19.9251
-7.14608
-19.2965
2.9794
5.20166
-5.08179
0.197083
0.414477
8.09117
-8.19204
3.98965
7.53879
4.1534
-2.02095
-7.07305
6.61865
6.36791
8.47214
-24.0342
2.1037
-14.2741
2.61732
6.42768
1.42913
11.054
4.57388
-2.08177
-5.2543
2.01969
6.51692
-20.1753
1.35808
9.52893
5.24621
3.24524
0.964736
1.19993
-11.0434
9.91876
-0.90557
2.99266
9.38116
-21.7268
-6.62334
-11.5115
-7.35315
-0.37311
7.1286
8.11519
9.611
-9.87415
-0.451677
-27.7891
4.47411
6.71061
-4.27992
-3.3556
6.29821
-26.7808
-49.8866
-29.0683
-15.9446
1.08282
7.70851
-0.0193273
1.43845
-13.1688
6.32947
-0.00260124
12.1917
8.86496
6.02664
4.01952
-0.0246691
-0.00518454
11.3666
-2.27553
-0.366513
-2.02405
5.56532
-20.1093
1.1425
4.87379
-0.244966
-1.51151
7.73272
-6.66111
-20.3138
4.52551
-6.72902
12.8263
4.60777
5.81828
6.93108
-46.7413
0.519905
10.6
1.54586
8.30659
-0.77785
2.37616
-13.6419
-1.47916
0.0329108
-21.0976
6.82715
5.4528
-31.862
0.0100605
-0.62891
9.62362
7.13104
-2.22399
5.59233
3.9938
-1.30641
2.0057
5.88226
-13.8925
9.77691
-0.301947
-0.561909
10.0973
3.10165
-0.0264032
3.65545
-15.5905
-26.3267
2.33691
2.60229
6.41508
8.80774
-20.7482
1.1568
-20.9866
-0.00810471
8.46178
2.39158
-23.8508
-24.341
1.7818
-3.7564
4.13558
-26.7824
-3.13666
5.61375
8.96856
-0.866057
7.14932
-14.5313
-32.7731
-4.1919
3.09404
-27.1666
6.71088
0.426731
-35.8989
4.60427
6.94442
-11.4991
-21.2187
5.83266
8.54034
2.83578
9.38689
0.450024
4.72956
2.11333
6.93112
-0.00583232
8.26349
-20.2752
2.84787
5.22005
-3.42087
-9.66011
6.32648
-21.3333
1.25441
7.9518
9.56629
-15.9399
-1.58629
2.58664
1.31261
5.30935
5.33662
0.114071
-21.0839
0.685682
9.1235
1.64625
1.56886
-38.9357
9.64526
-6.60639
-0.0974509
6.22233
3.86388
-1.50848
0.550773
4.3793
0.628687
0.0591666
3.00619
-4.56226
9.33565
5.44556
3.83615
4.00023
0.869207
-6.27307
10.6974
2.54092
10.7003
-22.1593
6.00847
-0.0177325
-12.7972
2.40093
4.33415
11.2578
-43.8298
2.80767
2.9104
-7.3456
4.19338
1.51622
-0.863028
5.63987
-21.4097
-9.07097
-11.993
0.631577
-4.05103
6.8607
-0.0135639
10.2932
5.81324
-1.77256
-32.1163
-5.26218
2.67275
-28.7859
0.188674
-20.9123
8.36962
-9.30387e-05
-0.584443
-43.4052
9.92549
-0.00179864
2.07456
10.0562
5.82881
-26.5963
-0.866957
3.88331
1.15376
5.17375
-0.0362895
-21.6934
2.9692
5.3891
2.48138
4.69836
10.2276
-0.0824978
-38.7781
6.32106
1.49251
-0.763378
3.34037
5.08487
3.48138
-24.6457
0.429502
-0.850264
0.910402
8.44644
2.55744
0.718818
0.275072
-2.15993
-1.71447
6.86819
-4.7875
5.0275
5.53132
9.03536
1.68152
-2.38541
10.6279
0.00619905
-26.778
6.3729
-10.3152
7.35169
-0.0111934
6.21686
-5.21429
-12.0922
-19.3018
-0.00657092
-20.452
4.04182
10.9658
-4.6121
-16.7763
-1.64171
7.02976
0.910875
3.39781
-41.4831
10.985
-25.075
3.0379
-4.67334
4.32397
6.61083
3.57118
-8.74583
-9.63352
9.95063
6.39369
0.978163
5.3248
-2.61943
4.20704
4.05422
4.22654
-11.3459
-2.06874
7.98382
0.212876
-1.19375
4.23429
-26.6874
-4.482
-0.923801
6.671
7.05115
-29.9422
0.473503
-25.8488
-10.5255
0.653757
-3.9717
1.69655
6.20083
0.758907
-3.60835
6.80184
-3.18764
-14.6341
-0.422286
-2.28081
-28.9897
-17.5014
-0.851983
-54.0728
5.13633
9.72662
-0.348837
-13.7516
10.0851
9.38858
-14.5129
-18.8267
5.77107
-19.7244
-0.0873949
0.817109
1.12468
2.18907
-20.1669
3.36332
4.76437
-1.95299
-6.04259
-13.3932
-0.173562
4.66823
3.91222
3.63747
-33.2106
6.17809
9.18073
-20.0303
-52.274
6.38544
0.309221
3.69007
-0.986151
-6.08022
-33.8596
0.00202373
6.52334
10.7252
6.71795
0.880552
0.119824
6.39434
8.9555
0.560722
6.0383
6.22926
9.71562
0.276869
-0.857828
1.54548
-2.96442
9.62392
0.535858
1.44916
3.73754
-2.08939
1.48406
0.0510133
-5.81886
6.30516
5.6427
4.83367
3.68659
-11.4074
-1.1289
-3.66896
2.24599
-4.97046
-0.96501
-0.032748
-61.2995
-37.496
3.91923
-5.92365
-10.9734
-9.53501
-7.05453
3.51755
-23.7444
-48.9118
6.99966
-17.193
9.61844
-24.289
-11.3408
6.85191
8.52458
-0.848132
1.25217
-0.723524
6.7716
2.1203
-9.23373
-1.43079
-0.521621
-5.0603
6.23555
-0.474461
4.24653
-0.874788
5.60286
-20.2471
-0.0337935
-0.150403
7.27837
-6.18033
-29.0416
-39.738
9.5199
1.05339
-40.0025
-26.1021
6.21544
-37.1815
-0.905113
1.43791
2.01831
0.424409
3.32611
-25.2596
5.93718
6.26941
6.77785
3.47276
-0.701074
-5.18323
5.24979
-0.620272
6.99749
5.17194
-1.5391
-1.06468
-2.41829
0.224465
-0.460148
7.26213
3.06902
1.80179
6.40405
1.39306
4.31229
11.1223
0.0540401
-6.74914
4.78989
0.218431
-0.915641
-2.58956
-12.9634
6.20117
-0.0933542
0.009831
-0.00441568
1.6521
7.5664
-26.5561
0.00582794
6.43001
0.261513
9.25468
7.39328
8.07816
1.5496
4.84216
1.9187
-0.167109
3.61596
5.76026
-6.60415
-3.46376
-9.39632
-7.97309
-42.075
6.09563
-15.4306
-14.0561
-59.3713
-5.70067
-0.230803
6.53974
-0.0894764
1.76957
-11.5423
6.39794
10.9048
0.355224
-32.5906
4.20686
-2.40393
6.06344
-1.55377
-0.91545
7.13701
-1.28998
10.254
3.80195
6.35813
-5.68865
8.01191
-0.103297
7.45069
-0.335061
-11.3702
-0.100783
-45.1531
3.67542
0.146315
-5.71214
9.5894
6.38119
7.14389
8.66363
7.23545
7.28141
-3.61057
5.88647
6.41371
6.52082
-3.0727
-1.36908
-5.37022
-3.00429
1.76828
6.38381
-12.1795
10.0089
-3.71114
-0.0778467
10.6876
8.91251
-3.40915
-32.0018
5.93374
3.94253
-2.72811
5.19323
-11.8547
-1.60453
6.34452
8.39491
-0.934508
6.25841
7.93714
0.0102445
-2.76899
8.09717
2.521
-0.481636
-21.7527
0.155762
-5.6988
6.23588
5.48444
-0.933349
-4.43091
-8.13428
1.73816
-0.855923
1.46793
9.31753
-1.06607
11.9292
6.14806
1.9455
6.92558
-27.3641
-12.6801
-35.1618
6.20721
-0.967226
-11.0412
-9.08779
3.66363
4.46156
-0.844827
3.251
-16.3775
2.11653
1.038
-0.862792
4.46111
1.9452
7.80516
6.53847
6.95821
5.60417
-3.44961
-8.85283
-5.99736
0.363075
-19.2175
1.06392
4.34285
-14.0876
-0.639028
-1.07644
2.12937
-43.8405
3.89547
3.88164
-0.611748
-8.72038
2.59318
-4.3122
-11.0108
1.08227
0.131388
6.25263
5.08498
7.5787
-11.5708
5.92954
-0.020685
8.66723
0.916345
3.9201
1.5282
-0.117169
10.1143
10.8796
4.79432
1.96215
4.81304
5.01734
10.2101
3.18224
-9.02632
-41.3092
1.32
-2.99121
-11.2987
6.38121
5.96915
0.388302
-0.438178
4.23697
5.35096
11.1957
-16.8662
5.44189
-20.4983
0.859738
9.1453
-2.34892
4.4404
-10.6053
3.45235
2.28759
11.7307
-0.286774
-5.51941
3.73519
1.13809
-26.9235
-11.9055
1.71355
7.24735
-0.522329
1.99935
9.39194
8.70497
-1.66062
-8.24305
-0.434253
2.0135
6.75737
5.76345
8.39301
3.50645
-26.4281
8.86333
4.81318
-8.31817
3.81324
6.74712
7.42529
-31.9525
-7.69709
0.00601822
5.71267
9.88897
3.03935
2.0617
-5.80441
11.2591
-21.2133
-7.15031
10.383
5.81536
0.696778
4.34889
-17.5226
2.3756
-7.48912
-21.777
-0.859931
-38.3642
0.845546
-5.05811
-20.4493
-20.2353
-9.52789
-1.78408
-19.4497
-30.014
6.11867
6.19047
1.78545
-17.4139
1.72445
1.90203
-3.55182
11.8668
2.9599
-5.27879
5.82367
-6.17621
-40.4349
4.10573
4.0645
5.96005
12.0413
0.00134275
-2.29355
-20.7239
0.429314
3.18799
5.3028
-1.60263
8.9977
5.20834
6.76302
-13.9419
-1.40599
-0.125528
5.80959
6.40804
5.99661
6.49246
11.1084
10.687
-6.229
5.85232
8.01861
-5.12828
8.32405
-0.933373
10.5521
8.23771
0.842541
7.35105
3.79084
3.7869
-0.26436
6.76165
-8.35197
4.94318
0.983869
2.97167
-0.434768
6.11142
-0.818685
1.78192
10.1463
10.1279
3.2609
-11.5903
1.50822
-2.33091
-2.14153
5.72596
8.95351
-11.5881
6.54102
5.3289
2.71959
5.78555
-40.6874
-10.5119
-0.994383
11.3958
1.05551
-0.422777
7.60577
-0.484558
-0.4952
3.6527
1.32818
5.27136
0.720181
-5.62412
3.39865
4.03313
2.89136
3.62087
10.8378
8.82633
7.28314
8.23278
9.89103
2.08445
-0.983903
0.912744
-4.27989
10.0618
-14.2348
5.86641
4.91022
-29.3848
2.21445
6.80161
-30.9891
2.78289
4.85138
12.1834
-20.3809
2.49384
0.606887
6.53883
0.0133133
-20.2468
9.83944
8.14528
5.41621
6.19721
-7.23648
1.29754
-21.729
10.6647
-0.275081
11.6411
-3.88472
1.9177
-15.3048
1.85154
-12.6296
1.73552
-1.19774
2.86751
-0.0724676
2.76287
-22.9266
-0.00521523
-8.57791
-11.5648
-5.30772
-9.4312
-0.0018032
-1.65245
-11.6729
-32.1892
5.63284
5.78653
8.6006
6.29621
2.24217
2.23629
12.8902
5.71684
-20.1759
-0.0173096
0.0730952
5.33195
5.01513
9.02282
-5.7842
-5.99253
4.0565
-0.000439216
1.57003
8.17849
-11.7092
-28.7705
-22.5911
10.7979
-22.2456
3.82585
7.81822
-4.41609
4.15354
-0.753803
-20.8801
-20.6557
-2.81165
4.76222
6.93154
7.67322
-9.91829
-11.6675
2.81397
-20.4554
-7.24565
-3.51406
1.72389
-8.39835
-0.382617
-24.8284
-20.4529
-16.2883
9.4335
-13.655
10.5235
-28.5112
-2.69873
2.00941
0.897695
8.57706
5.28645
7.86606
0.107518
-7.32517
-21.8454
8.16238
-11.4999
5.03215
-0.860534
8.16394
8.65132
-0.862182
6.22249
10.0088
6.28202
6.62958
-8.66918
-4.56627
2.28772
-9.72681
-1.13854
2.63024
3.25232
0.0434803
-23.7619
1.44874
-5.78962
4.4922
3.47818
-5.58452
10.5183
0.338845
-0.0072608
1.03172
6.25875
-16.5396
0.00502537
6.29153
-2.11874
-0.136786
-0.936738
5.85779
6.27656
6.07252
-0.452177
6.23747
7.37999
6.60063
-5.82294
-0.07749
2.29279
4.79582
-5.65746
-15.1708
-37.5245
-6.65699
-17.4199
0.0577832
-1.13149
-0.165987
-11.9811
-4.59691
-46.0996
-5.29356
-9.31945
3.03233
-22.5049
6.7936
12.9649
2.99464
-7.80603
3.56056
1.60687
1.501
0.00242293
-6.90328
-59.3481
0.573517
7.92024
0.0148137
9.78748
0.0106455
6.05417
4.20781
2.42955
-17.4526
2.16543
11.2004
-12.0686
6.32118
6.22287
8.97325
0.613798
8.10599
5.99979
-14.4472
6.52603
-20.2765
-20.0877
8.29665
5.82144
-8.81905
1.5263
8.12134
-1.87529
-35.5525
-0.140694
-0.0194775
5.54952
3.89135
6.66945
5.00952
4.89988
-9.55581
-5.6071
-5.733
6.56931
11.6226
-7.78712
-19.646
-16.6283
5.45344
0.392491
0.425623
1.02177
1.46627
4.03303
-5.13004
1.54088
10.2185
3.2776
1.34585
-10.5473
-25.1053
-12.092
-21.1139
-15.4488
-30.4923
7.78207
3.89175
-6.74863
10.4333
-0.0173053
-22.6687
-8.0613
-20.3495
6.23039
-11.2976
2.78034
5.61135
-0.305117
-5.81706
-2.37476
-20.1061
-19.8774
7.14137
-43.6219
-0.840861
-22.0738
6.24054
6.62686
-23.2015
7.7752
6.96983
9.33854
9.78192
6.36318
1.16371
11.4227
-22.8361
5.34236
-0.884241
-49.3667
7.97646
-33.1316
9.75994
3.60862
-6.14084
-15.3818
-16.1796
6.95033
-38.4493
-13.7029
0.208314
-2.5238
1.35097
4.44609
1.83199
3.6226
10.7878
-11.797
-16.2282
-0.963046
5.73645
5.42224
-13.3028
12.7996
-0.94986
-5.81697
4.94501
-5.01697
6.16359
5.87484
6.7933
6.64995
1.50516
2.33696
5.57456
1.38844
-5.16218
-0.0790478
6.10605
6.90038
8.28748
-8.68972
0.0306812
1.63096
4.33994
1.63871
-39.9761
5.69554
-12.3321
5.76671
6.65227
-20.3657
9.70976
-29.5038
11.0393
6.57391
-49.3159
0.00489947
-0.677947
3.70339
6.86663
-54.1305
8.17686
6.30382
1.69707
0.0043563
1.29161
-0.181481
1.69866
-21.8069
2.66405
-17.868
6.28878
-14.9157
-4.02888
-5.61396
7.84995
8.64422
4.26091
-14.912
3.72108
-1.71319
0.223046
4.00838
-5.16661
-7.74071
10.4823
-1.96604
-0.279659
-8.11979
-20.5344
-5.48048
6.41836
-21.3379
-3.94477
6.8604
3.13035
6.72637
-27.1498
2.55201
10.7688
-9.48957
6.50476
1.87581
-5.09103
2.81223
1.42848
-1.61697
10.9458
6.70526
0.309716
10.8118
7.80914
7.90304
-20.8503
-15.2153
2.65351
-6.39496
-4.64165
-13.6322
-5.16036
-12.5387
4.25172
2.21794
2.62836
3.22602
-4.91839
3.57445
6.73064
-22.461
5.76892
4.47614
6.31477
-1.72129
-0.240491
-23.3715
-21.6809
-26.4221
-4.4955
6.67752
-49.5599
9.3626
-28.2349
6.17977
2.49413
-1.10854
-1.03947
6.13574
3.70505
2.1295
4.98507
1.92851
1.33643
8.78052
7.99975
-14.4843
-21.3623
-3.44023
5.94924
0.882986
1.0421
-9.88302
0.683981
-2.05438
-0.455572
4.93346
4.23759
1.83598
3.68223
0.697524
-0.784603
-58.114
8.07331
-23.985
6.10474
0.000620298
5.75875
6.39026
4.16177
5.20368
-2.84502
-23.4465
-1.108
-13.6384
-35.0451
-26.074
0.844501
-6.34778
5.54171
0.305528
6.23763
-4.8024
1.21458
-8.14889
-0.907334
6.25994
-20.609
5.68341
1.55459
-56.4469
-3.73829
-25.5438
3.90329
6.51349
-0.795267
1.26867
-12.6517
6.73227
-1.3867
1.83536
-27.3646
7.71342
2.76544
-0.112651
6.63523
5.9367
7.26651
2.83028
8.20579
-9.91364
-3.56399
-3.49428
5.17482
4.50611
1.64459
-2.00773
-31.6285
-39.3638
2.45118
-0.171309
-47.6493
10.2672
-9.39221
7.01271
3.94968
-14.9564
-1.03984
-0.755948
-1.32654
1.43614
1.08943
6.2102
-1.19474
6.40687
-8.34948
0.754813
-7.74359
1.21706
-33.9989
7.27747
10.7545
6.81875
2.08598
-0.948023
4.96494
-20.196
-1.80501
-0.482899
-2.05753
-18.2069
-49.2089
-37.5525
-6.47791
4.92822
5.31933
-11.786
1.58394
7.18961
-4.96571
-8.12385
6.94961
-1.02727
-28.3937
0.00907055
-1.03606
0.0128818
10.4013
-0.486421
5.24995
-4.90542
-3.44276
-4.84119
5.53422
1.3206
4.35419
-3.32701
-6.46303
-0.599761
-0.0563683
7.44409
5.00269
1.82962
-2.71635
-4.39039
11.1314
-8.57699
6.69299
7.26881
1.06462
-1.22486
2.60229
-16.7772
-0.616767
5.86183
4.41439
5.64413
-40.4412
7.01899
1.50019
9.09309
0.185342
5.96033
7.89319
5.67671
1.47278
-25.7534
2.6974
-19.6618
4.39724
3.57352
7.25133
1.19707
9.3087
1.21168
9.97498
0.683383
7.40439
-0.105554
4.12309
-22.0412
6.18625
2.61792
3.46742
9.89159
6.43282
1.6929
-5.27604
3.19958
6.09177
-0.889295
-19.9295
4.00749
-0.598537
8.00867
-23.2111
9.48475
2.28929
13.0261
9.85607
3.42385
2.73122
-24.137
1.00234
10.3542
0.162229
0.280408
-1.81108
10.7468
3.9493
4.71725
9.48841
-3.72977
6.67545
-3.7877
6.94987
-0.617046
6.38781
6.06234
8.27765
-1.01669
-18.5821
1.78207
-25.7131
2.48256
-1.32657
-0.390496
8.54198
8.94044
0.0285732
0.265326
-3.33625
7.71026
4.68486
5.14676
4.40675
-2.41254
-13.6995
-14.7885
6.60748
-8.37707
-2.36032
2.20514
3.48696
2.67403
-5.32953
11.0811
-5.8983
9.36199
-0.134714
10.2353
-7.03026
1.58762
-1.23564
-0.113013
4.83727
6.29706
0.894657
-1.52996
0.716067
-3.37318
8.75773
-0.927083
0.657129
-6.01021
-0.386372
0.228966
7.12268
1.51911
-2.31723
-0.315609
6.38862
11.6576
-26.4376
-0.780158
5.40257
-0.981435
3.7013
-0.842753
3.28243
-0.859835
-14.7259
0.44003
-12.6133
-2.41207
0.0864678
-14.4831
-38.3595
0.992941
5.26149
6.45483
5.75919
11.2711
-32.4532
10.6736
-12.7341
10.0775
-57.0044
-4.49184
10.8565
3.31705
-22.5817
5.48693
-1.05445
6.14089
-5.65784
-21.7117
1.17196
-6.68363
-8.99027
-0.0187923
-2.24457
3.16743
7.25162
-60.7052
3.36829
-8.24181
1.745
-6.11924
-0.869307
2.21879
-6.97794
-6.78498
8.82106
-0.652569
9.50258
2.21848
-20.4936
3.00241
-3.80441
-1.3036
5.68251
7.59506
11.5148
5.22513
5.90125
1.55571
-11.5874
11.1607
11.7204
7.031
-3.05682
-38.1624
-19.7362
5.2168
3.01121
1.98934
6.07328
-10.4036
-0.75451
-22.9884
9.82727
1.75963
1.39823
-22.0644
5.25027
3.06234
12.6343
11.8631
5.1097
1.99859
0.895829
-11.2038
3.531
12.1515
-1.5462
-1.17267
3.58487
0.00346541
1.42325
-0.540984
-1.42505
1.36651
1.33838
2.54786
-0.277725
2.73559
8.49619
-0.0122843
6.42575
-25.0577
-1.91607
10.4593
-21.0488
1.73355
-0.445424
3.46467
2.39924
-23.519
-0.955401
-2.4476
1.59484
12.7681
-17.1773
-12.2583
-33.2425
-2.28738
-1.62265
-0.477271
-20.9907
-12.4962
-0.117741
-10.4246
-3.49027
-9.25472
2.36118
-0.432369
1.20334
12.4585
1.48414
1.75509
-2.40959
1.9633
-11.4635
-4.70315
8.88099
6.21679
1.80556
-0.134643
5.71618
6.54495
-1.10859
-46.52
-0.554266
8.87421
-5.49202
6.03448
0.839712
9.45385
0.968054
-28.0634
1.49381
6.83682
-5.21906
5.93341
-3.73041
11.9388
-20.297
-1.08676
-24.6966
3.84593
-25.4657
-5.2509
-21.7867
0.79734
1.13538
-45.3618
-6.98796
-1.54359
1.65143
-14.4834
-3.61359
4.50072
-20.1378
4.77793
-23.6971
6.88106
11.0492
5.05232
-11.5539
5.60511
0.621516
1.72923
-1.72394
-2.17674
-20.3587
-0.150396
-6.54139
1.06037
0.757407
-1.9813
-4.83024
-22.3129
2.93379
6.37104
-3.52805
-25.1267
-1.32188
-0.308424
-0.552695
2.984
-8.00786
-26.7538
6.83352
-5.53673
2.13864
-8.43263
-23.2143
-22.545
-33.606
12.6202
1.79831
-7.03746
3.08885
10.5521
10.4827
-31.8888
-3.87406
6.33134
-0.738536
-0.105067
10.7825
3.10732
4.56531
12.7611
-0.669118
-0.117591
1.63739
9.45302
6.59436
5.74334
8.37389
4.9012
-0.100319
-0.14941
3.56822
1.5803
-20.3938
10.8239
-0.756244
-1.74667
-0.245072
-12.6785
2.52689
-22.7537
-4.40111
1.69708
5.95061
6.93431
6.53205
-20.1636
9.46747
10.5154
-13.1969
3.44395
-1.44837
-0.421697
1.65587
4.35257
-6.03951
-4.94135
-1.28088
11.6806
-20.3464
6.73472
6.23323
7.85867
3.65681
4.44716
-0.942737
-0.055962
2.27796
-1.16706
-20.5629
-8.10803
-0.0658326
-18.2688
7.46273
-43.5363
-0.824155
2.18728
-11.5088
-25.5096
-22.2269
5.13198
-3.73792
-0.285745
3.38275
-35.8518
2.00834
-11.515
-1.43759
6.70091
-21.0625
10.9529
-0.229439
11.6654
-0.00313617
-0.432811
0.929683
5.81292
4.67505
-10.3299
-1.94642
-0.103893
0.768125
3.52896
12.7975
7.89809
1.23863
-5.19792
2.38539
1.15035
6.53377
-0.884436
4.3978
-15.9183
-21.3891
-11.2894
0.501442
-0.08648
-11.5269
4.60421
3.45451
10.3144
11.3175
-20.9725
-20.3793
0.91444
-4.53357
10.7432
-2.03057
-0.927844
3.3601
4.98443
-16.3826
-1.70106
0.937358
-1.02054
4.8279
-12.2466
-0.046766
0.397314
-3.71435
-9.1713
-0.690204
-9.32755
-8.53568
6.34929
-35.8709
-25.7686
-4.86705
1.75416
11.8729
3.49153
6.09847
-6.91877
2.66663
0.28761
1.77005
2.62468
-21.2166
-15.6181
10.7015
6.59587
0.629628
-13.3479
12.3405
-25.9807
-14.5882
-14.6188
1.91052
-26.7543
-15.874
9.32851
0.311219
5.08223
3.18213
-16.626
1.62646
-0.0744343
2.81491
-9.99599
0.790455
2.80744
5.72729
-26.5305
-14.013
-2.1932
-6.63289
-5.3261
-5.04528
11.6535
4.69581
-48.6524
1.6465
2.26205
10.0415
2.63789
-16.658
2.62075
8.01732
6.11643
-7.03446
5.93373
-1.58362
10.6043
-0.0839831
6.70566
-23.5461
-6.25283
-0.311556
-18.8303
2.36883
2.87759
-17.6894
-28.7427
6.97218
-2.35446
0.035831
8.66633
5.3346
8.44561
6.04304
-6.70073
0.0328955
0.936543
5.58982
-0.0053866
7.31246
3.77772
10.5633
-19.1635
8.21811
1.61888
10.9095
-15.9758
-3.41949
10.9886
-20.5254
3.66318
-20.3208
9.19083
10.6701
6.79503
-7.2755
6.30576
7.78051
-13.2459
3.68275
-26.913
8.38613
-22.218
-7.78612
-20.2931
-20.6489
7.64452
1.5502
-21.0355
2.74329
10.6198
-1.484
0.170138
-21.3582
-4.87658
4.2328
-2.63528
6.15348
5.35734
-20.4784
11.9605
-1.23772
9.17923
8.53698
-0.75427
-0.172551
4.77873
-7.94956
-3.65199
4.63154
3.84525
-1.2744
5.34645
-13.7605
9.90742
7.03968
2.08155
-2.7301
6.28991
-8.62099
4.62473
7.89007
1.3784
-0.167064
7.6587
6.17227
-4.83981
-11.6564
3.68358
6.49171
10.6014
-13.7636
11.2457
11.4847
11.476
-2.11663
7.51304
-25.9774
6.37024
8.02063
8.23819
6.44752
8.95061
12.6089
5.8719
-14.9116
-1.86331
-14.9061
12.4929
2.9021
-2.38093
-24.209
6.46667
9.53729
5.71629
1.92246
-1.80017
9.28041
-11.7488
6.05331
-25.7018
3.45929
-0.795463
0.1209
3.53322
-26.4718
-29.6542
-6.06534
-6.17759
-0.23914
7.36943
-0.229182
0.851339
5.35866
-20.373
2.55266
-0.322711
-19.7619
-21.732
-15.9762
8.53927
9.48323
-24.212
4.02563
8.00104
8.02033
0.0407759
-59.4061
6.36919
-19.1851
8.58603
-19.3613
8.37
4.72282
1.64806
7.92634
3.71118
7.91448
2.03162
3.58573
-5.12644
-11.6336
-22.1993
-0.973989
7.75708
-50.9168
-21.4788
-43.9843
9.43979
7.76381
3.16979
3.7973
9.07096
-8.50283
5.40428
-0.0904171
-5.46912
5.41722
-28.7836
-20.3282
-4.73393
-22.1714
-4.26394
-52.2954
-0.195534
-20.722
-11.5438
4.50211
10.8337
11.8395
10.2097
-56.7019
6.12829
-24.7729
5.34146
9.30678
1.83633
7.63373
-38.0331
2.05001
-5.73413
0.210243
8.36582
-2.72739
6.57474
-20.0678
-0.766813
-22.8379
7.20247
6.54792
6.32194
-20.7158
5.42363
-5.8272
-21.4771
-21.9478
1.90755
10.7835
-9.81536
-6.43555
-27.4175
5.95659
6.18741
-1.18283
4.42925
-20.4726
9.22122
8.92436
-18.4541
-0.530395
8.78638
-29.7697
-36.3462
0.74527
8.13882
9.08458
-23.3757
3.29887
0.351987
10.6644
-19.9211
-27.8673
0.0635326
9.84622
0.667085
-5.05453
-3.36444
8.20431
5.35701
8.2131
-0.141772
-8.98822
6.47844
12.3469
-11.8569
4.71867
0.469506
-18.8156
0.614136
2.13066
-25.7839
3.17031
-14.2798
4.61611
-10.3633
-10.0352
7.50337
9.05865
5.41259
-7.46412
-23.7323
6.64032
-20.2417
0.938335
-5.1842
2.66161
-20.3985
7.22557
6.6735
0.440342
6.13388
10.3775
-6.60728
4.08194
7.08011
-22.5136
4.54946
-2.13924
2.57833
0.586138
5.39972
0.0030504
2.02136
-3.10416
-8.03894
8.40273
0.881107
1.9545
-33.3835
-3.46339
6.53603
-21.0543
11.4176
-20.3656
-22.5141
-4.51116
8.0331
6.49618
7.95825
-16.1179
9.92472
-37.7266
3.88586
0.638997
-15.5217
6.11466
2.54428
-3.49388
3.42043
-14.7007
5.4263
-21.1363
-32.6154
0.0214356
-18.0006
-17.8242
4.75205
10.28
-0.0852312
-26.0606
7.67427
-11.0949
9.19029
1.27232
0.900689
4.65118
6.50727
2.77594
-5.82967
-1.57488
0.485379
2.46456
3.19295
-17.9964
-28.9704
-0.591343
2.32701
0.865213
12.5876
6.12222
6.31757
9.2564
1.98008
7.11872
-32.0055
-15.0533
-42.126
6.34466
12.2712
5.38427
-3.67121
8.43759
5.02483
5.13264
-0.361251
0.498131
2.99222
11.4658
-2.75177
-9.5812
9.23224
8.63259
5.86426
5.81576
7.34771
3.82337
-7.5574
-53.5279
6.3975
-12.7184
-11.4783
6.18537
-48.5652
-2.80067
0.254209
6.10337
6.39758
6.57584
0.57515
7.9591
8.17262
1.61647
6.96229
6.00329
6.22071
5.62453
3.00999
2.69683
-1.23843
7.91783
6.87243
1.4618
4.8393
0.487648
-0.88379
10.1972
7.24695
0.0289571
-30.9445
1.5629
7.47898
3.38763
2.7044
-0.821343
0.801787
-19.0589
1.25621
-28.0614
-0.696238
3.46628
-4.71804
-24.92
-20.7745
9.47341
-25.2378
-13.3179
-33.4901
10.3662
-8.50139
1.78367
2.22697
-20.3159
5.77178
6.10451
2.80916
8.85189
4.54388
0.758802
-16.3622
-31.6626
0.0106956
7.60613
1.77492
-23.5041
-19.3546
-11.5409
-14.0226
-32.0569
-11.08
-2.81372
3.04827
6.29583
7.67865
-8.83891
-0.247452
8.90342
6.7821
-23.3801
0.651067
-15.2679
2.9724
0.717269
3.09352
5.64613
-1.5376
-10.1812
-14.2774
2.56922
-43.9381
-17.6005
0.279065
-54.9662
-21.5968
-20.654
-34.8145
0.303864
-14.3552
2.72467
-21.7597
6.3996
5.85533
1.28482
8.14264
-51.8208
10.2878
-8.76162
1.05117
-4.24052
5.84271
3.35009
-11.5351
-14.5815
6.59434
7.86063
10.7128
-29.8703
-20.5641
-58.3278
-2.52295
0.0121072
-20.2687
0.597261
-20.2943
3.27646
-24.763
3.68755
-1.72832
-1.49086
9.39601
4.94223
-2.1374
-0.534395
-6.85334
-15.6132
8.56694
11.8519
-13.1151
7.12117
5.59109
-0.00780285
-5.40312
7.92419
7.80776
-11.3155
-6.72163
-44.7889
-57.8577
-3.75073
-20.0934
-2.9762
4.96083
0.15754
7.13714
-22.682
-20.7833
6.15631
-3.24425
-20.2691
1.23146
5.60749
-20.7104
-1.92509
-20.7041
-20.356
-20.2549
10.8903
-15.2784
-0.33527
-27.5097
6.64439
-23.0944
-1.34634
-11.7631
-32.0937
-5.32493
6.6209
-0.0438209
-20.2891
4.97606
0.0383995
-18.5878
-17.0977
-21.2844
3.38932
4.36212
6.36868
-15.965
9.10661
-14.2242
-0.00210282
-0.643222
-7.86343
-54.2328
-20.4807
-29.1226
1.76718
3.21657
-0.339964
-0.318461
-8.20247
5.16417
-40.882
6.47879
-24.8985
4.46544
-4.34887
-5.63733
1.14923
12.535
-4.34022
-21.3852
-10.4692
-9.85599
6.33266
-0.613604
1.28366
-1.44128
-17.3571
-29.648
-11.6663
-20.152
6.15535
-21.2196
1.54987
-19.5991
0.283476
4.99813
-0.848142
1.39827
-2.43913
7.78578
-22.014
-25.3805
8.43159
2.1029
-22.634
-0.481661
-21.0103
-8.17682
-1.08104
7.68043
-34.2044
3.56116
-19.6764
-20.5603
-24.8508
-21.6839
-14.4135
2.33708
-5.83195
6.28753
3.31707
-35.98
-0.0451431
-56.4621
7.89775
9.025
-20.7755
1.64654
6.49923
6.252
3.84077
-29.0117
-22.6335
-19.0706
6.35652
2.54995
-11.1311
-19.9121
2.41683
7.74407
-0.0858091
1.42377
1.15627
8.34776
-5.71765
-6.10493
-0.802791
5.70225
1.87185
0.949513
9.17373
7.80702
-0.453564
-47.6031
7.55026
3.84605
0.465006
4.88493
-8.17085
-26.3688
-19.554
-41.0943
7.8247
5.962
-1.98994
-5.3513
0.682311
-3.15348
6.25819
-54.1504
3.59477
7.86245
8.52559
-17.1896
6.21642
4.66666
6.27424
6.75559
0.334583
6.82985
-0.0123409
6.46499
4.46593
6.77082
-27.3687
7.77802
7.21699
5.88764
4.88487
-24.8631
3.46458
-3.84062
-7.39752
8.07391
8.91547
-59.6009
8.08226
-35.3168
-12.341
6.29461
6.61218
-11.7254
0.0581193
-20.8945
-53.9113
-2.81629
-26.5134
-13.3613
-0.549512
5.15082
11.5725
7.38214
-10.7468
-16.9601
6.0214
3.82659
-8.65143
-29.2458
-24.5476
-5.77961
-12.2804
-11.608
6.15173
0.498716
3.54048
-0.0466776
-0.0254894
0.486045
-0.013152
1.75782
1.98713
5.32151
-8.17528
1.40824
-8.04749
-45.3829
3.79901
4.06782
-1.55753
-1.60851
4.95894
-0.993498
3.34322
-6.47126
6.31218
4.74742
9.80036
6.36244
-31.7978
-0.73022
-5.44891
-21.8441
-0.781356
-0.84051
-2.95268
-56.5143
11.7928
0.076427
-0.857071
8.98709
-27.1847
-2.26263
-6.36217
-28.5397
-18.4508
-0.0027981
-5.20562
5.32744
-4.45772
-30.655
1.32573
-23.8001
-5.63342
-8.11791
0.114904
5.36875
-21.2853
-26.7607
-5.64384
2.23597
-9.24466
6.66197
9.27248
-22.2721
6.79398
2.70338
5.01006
10.4557
-27.3076
4.50729
2.97692
3.42508
8.67167
-0.138638
-2.51748
-7.14679
6.46828
9.26782
-36.4863
-0.270704
-13.837
-9.48419
3.94639
-26.9122
-9.42858
-28.4554
3.37948
-18.1069
1.43686
1.9282
5.86624
1.20208
-14.1682
0.241595
-0.921293
-3.10797
9.9883
11.3544
8.0327
12.1696
6.15672
4.07424
6.42055
5.29522
6.49816
-17.1129
6.00514
-0.775443
-12.0327
9.14971
-3.20982
-7.89374
10.955
0.905911
-46.3064
3.98735
3.47792
7.6992
-9.80507
6.13971
10.3432
-26.889
-12.4172
-7.60979
3.92167
-22.5347
7.6024
-0.152388
7.80235
6.34673
-27.124
6.9815
-4.01345
-15.9461
-15.1589
-50.8331
7.02195
-10.5811
6.41443
-1.12147
-20.1921
0.269525
-0.313901
-3.39829
-31.2375
-19.9583
7.25265
1.99097
-20.5372
-1.35958
4.85529
1.64912
-61.4222
3.89548
-0.65079
3.80629
-21.925
4.60997
2.42114
2.44376
-1.86445
5.60799
3.40858
2.71242
-22.5721
12.0428
-5.30167
-21.3923
5.66681
4.73218
-20.1498
-7.79261
-25.3111
2.82197
2.45665
-8.96581
-0.0188326
-1.05916
12.0992
0.570366
-29.6544
0.283343
-5.37215
3.15254
-3.87807
5.30595
4.85673
-21.1543
3.55185
-19.6466
3.8518
2.33482
5.68921
4.99925
-0.000524031
-0.000837423
2.26829
6.74009
1.59555
0.101023
-22.5078
-1.46096
-2.6715
6.0388
-21.8794
2.57115
-17.4114
6.99526
-20.254
-0.529326
7.93609
7.11725
3.97497
-28.0948
-14.5797
6.86908
-0.341424
7.74257
4.06406
1.42012
6.28848
1.85211
2.60557
1.4652
-5.9855
-14.422
4.96626
-4.71001
8.18233
1.92056
12.261
0.487834
2.49499
7.29972
1.5348
1.6915
6.61159
4.40535
3.35327
-12.0044
-0.964367
5.53778
3.53037
1.40273
-56.0004
-2.59949
-33.8945
-20.0235
-7.19568
5.94189
-1.18676
5.47559
0.708076
10.5826
8.35717
3.1911
4.3596
3.03734
-23.0587
6.31983
4.14229
1.29499
2.36577
7.57049
6.46439
-1.0393
-43.5769
-7.9366
4.84737
2.05972
1.42571
6.68805
-55.1911
4.96436
-10.5742
5.76591
3.70287
-0.947087
3.48253
6.85686
-1.84468
5.82972
7.71767
1.23577
-6.39956
4.42981
1.15512
9.47571
-18.4411
8.46141
6.77219
-20.7601
-20.7354
-0.243415
-6.10744
-26.0708
-27.0567
6.22926
8.77475