/*--------------------------------*- C++ -*----------------------------------*\
| =========                 |                                                 |
| \\      /  F ield         | OpenFOAM: The Open Source CFD Toolbox           |
|  \\    /   O peration     | Version:  2306                                  |
|   \\  /    A nd           | Website:  www.openfoam.com                      |
|    \\/     M anipulation  |                                                 |
\*---------------------------------------------------------------------------*/
FoamFile
{
    version     2.0;
    format      ascii;
    arch        "LSB;label=32;scalar=64";
    class       surfaceScalarField;
    location    "4";
    object      phi;
}
// * * * * * * * * * * * * * * * * * * * * * * * * * * * * * * * * * * * * * //

dimensions      [0 3 -1 0 0 0 0];

oriented        oriented;

internalField   nonuniform List<scalar> 
20045
(
0.500441
-0.545226
0.0447844
-1.06917
0.385369
0.683801
0.386231
2.06106
-2.44729
-0.417593
0.586372
-0.168779
-0.860893
0.809126
0.0517668
-0.642977
2.26817
-1.6252
-0.981843
0.363818
0.618025
0.0586809
0.435589
-0.49427
0.479416
0.413487
-0.892902
-0.8143
-0.0940412
0.908341
-0.504407
-0.408401
0.912808
2.22119
-1.05527
-1.16592
0.353266
-0.359313
0.00604688
-1.23843
1.09826
0.140169
-0.27432
1.01625
-0.741926
-1.06463
0.250327
0.108724
-0.312393
0.203669
0.429792
-0.515207
0.0854151
-1.68653
2.46526
-0.778729
-0.749706
0.0489739
0.700732
-0.608524
0.451879
0.156645
0.116974
0.236293
-0.139725
-0.929445
1.143
1.1888
-2.33181
0.802957
0.219943
-1.0229
-1.22787
2.37087
0.142903
-0.151965
0.00906206
-1.41138
2.68571
-1.27434
1.64034
0.316374
-1.95671
-2.7325
1.45673
1.27578
-0.51702
0.635327
-0.118307
1.36387
-0.992331
-0.371543
-0.650944
1.74086
-1.08992
2.66707
-1.46623
-1.20085
-0.557927
0.616608
2.07681
-1.02049
-1.05631
1.21982
0.117281
-1.3371
-0.0626272
0.383557
-0.320929
-1.9942
0.98037
1.01383
0.596284
0.52429
-1.12057
0.0404909
0.433608
-0.474099
0.154479
-0.214721
0.060242
2.26329
-2.26393
0.000646133
1.46442
-0.55131
-0.913113
0.691741
0.772682
0.992513
1.22868
-0.276443
0.183966
0.0924761
1.30044
0.460058
-1.7605
1.49206
-0.272248
0.23251
1.96327
-2.19578
1.30359
-2.19561
0.892015
1.79651
-1.26034
-0.53617
-1.17684
-0.81268
1.98952
-0.0943776
-0.299932
0.394309
0.693613
-0.449475
-0.244138
-0.687739
-0.173154
-0.56446
2.11252
-1.54806
1.5147
0.229079
-1.74378
1.35206
-2.003
1.38454
-0.963427
-0.421117
-0.581242
-0.357324
0.938567
0.627749
0.756795
0.258924
-1.7084
1.44948
-0.314513
-0.294011
1.79313
-0.50354
-1.28959
1.36215
0.0895792
-1.45173
0.213948
-0.565435
0.351487
-0.669908
0.152809
0.517099
0.849996
-0.37058
1.63717
-1.67071
0.0335462
0.492938
-0.27899
0.213656
0.479957
-0.250122
-1.04712
1.29724
-0.0304199
-0.141407
0.171827
1.48245
-0.411593
-1.07085
1.37588
-1.94034
0.119179
1.36327
0.472397
-0.746717
0.208814
-0.340512
0.131697
0.263456
-1.22011
0.956657
1.02079
1.13873
-2.15952
0.894338
-0.699486
-0.194852
1.16229
-0.903365
-2.63756
0.440084
2.19747
0.0185015
0.48194
-0.512471
0.589222
-0.0767513
0.567599
-1.28309
0.715492
-1.59992
0.0655125
1.53441
1.02716
0.161918
-1.18908
-0.817809
0.752254
0.0655548
-1.37019
-0.19951
1.5697
0.729931
-0.141335
-0.588596
0.409269
-0.584419
0.17515
-0.169314
-0.809394
0.978708
0.582278
-0.623218
0.0409399
1.5162
0.30376
-1.81996
0.1269
0.0160032
-0.148363
0.62882
-0.480457
1.22217
-0.625882
0.176542
-0.348267
0.171725
1.41819
0.658618
-0.422383
-0.816043
0.578131
-0.726495
-0.388157
1.90286
0.01623
-0.528701
0.349586
-0.173045
0.43825
1.21276
-1.65101
1.03046
-1.84045
0.809985
-0.0676282
-0.46084
0.398483
0.0623576
-0.244572
0.309396
-0.0648246
1.16271
-0.901685
-0.261021
-0.496835
0.402457
1.22899
-2.43563
1.20664
-0.171422
0.3163
-0.144877
0.0512576
-0.299297
0.24804
1.14027
-0.337316
1.87116
0.795916
-1.16904
0.918914
1.24073
-1.68253
0.441802
0.458971
-0.0291791
-0.926069
0.344826
-0.768618
0.622468
0.14615
-0.963742
0.104432
-0.585153
0.480721
1.21801
0.578501
1.09726
-1.42807
0.330807
1.59575
0.199256
-1.79501
-2.22924
1.6409
0.588344
0.296301
-1.72326
1.42696
1.86857
-0.650568
0.35915
-0.175183
-0.038615
-0.0082441
0.0468591
-0.0750309
0.0629294
0.0121015
1.14276
0.79909
-1.94185
1.1833
-1.13935
-0.0439458
-0.329566
0.185936
0.143629
-0.327674
-0.133166
1.91928
-0.678553
-0.65268
0.685874
-0.0331947
1.25052
-2.39626
1.14574
0.317328
-1.49416
1.0838
0.445476
-1.52927
1.38603
-1.12258
2.08383
-0.268451
-1.81537
1.17713
-1.64007
0.462944
1.97168
-1.2977
-0.673984
-0.256776
0.439646
-0.18287
-0.127897
2.27148
-2.14358
2.11738
-0.477043
-1.65203
0.0551527
1.59688
-0.961692
0.798251
0.163441
1.9479
-0.927116
0.328096
0.566242
-1.23921
1.54388
-0.304668
-1.7397
2.12593
0.0230321
-0.371267
0.348235
-0.158439
0.269055
-0.110616
-0.0379843
-0.367254
0.405238
1.08139
0.647781
-1.72917
2.86058
-1.41588
-1.4447
-0.442112
0.404128
0.702813
-1.32323
0.620415
0.185496
-0.0310166
-1.64849
-0.883983
1.35022
-0.466239
-1.31821
0.936433
0.381773
-0.0290093
-0.0531527
0.082162
0.880024
1.09166
-0.0354412
-0.0395897
-0.0856793
0.0470643
-1.40953
0.170323
-1.46436
1.85789
-0.393528
-1.32346
1.48663
-0.163171
-1.10874
-0.865142
1.97388
-0.334119
0.921088
-0.586969
0.894017
-0.89913
0.00511269
2.11858
-0.0217579
-2.09682
0.0129492
-1.49813
1.48518
-0.710622
1.79442
0.384127
-1.09201
0.707883
-1.13352
2.36251
-1.61291
1.08099
0.531924
0.378455
-0.3538
-0.0246548
1.04546
-2.50626
1.4608
-2.13866
0.727281
-1.16108
-0.90945
2.48707
-1.45465
-1.03242
-0.557324
0.597815
0.298234
-0.31655
0.0183162
-1.33631
-0.234126
1.57043
-1.93367
2.68154
-0.747876
1.86635
-1.42488
-0.441469
0.151457
-0.480237
0.32878
-0.646254
-0.916291
1.56254
0.44064
-0.945047
-1.41267
1.70897
-1.52284
-0.484667
2.00751
0.21003
0.0541961
-0.264227
0.321757
-1.20574
-0.578079
0.0610594
1.73079
-0.135035
-0.308374
0.245747
-0.322543
0.392425
-0.0698826
-1.03646
2.11785
-1.68426
1.038
-0.0510489
0.233563
-0.182515
-1.40441
0.273466
1.13094
0.540371
1.32598
2.6396
-1.59414
1.61834
-2.80976
1.19142
0.668408
-2.45565
1.78725
0.0638623
-0.813568
-0.981391
1.41964
1.29023
-1.93321
1.01146
-1.76135
0.749889
-2.9481
1.71384
1.23426
-0.0318356
-0.785974
0.36166
0.281518
-0.643179
1.47068
-0.548925
-0.921754
-0.239543
-1.58742
1.45952
-0.499695
-0.152985
1.33775
2.1213
-1.7057
-0.415603
-0.0203565
-0.261286
0.281642
1.31092
0.29321
-1.60413
0.322226
-0.861876
0.539649
-0.543616
1.5895
-1.04589
-0.85812
1.42572
1.13405
-0.749927
-0.186846
0.499604
-0.312758
2.03992
-0.789403
0.205863
-0.0185543
-0.187308
-0.27197
-0.453372
0.725343
-0.243105
0.25284
-0.00973477
2.4518
-1.4877
-0.964101
0.516605
-2.45027
-0.267794
0.0246895
-1.71707
0.542504
1.17457
2.77287
-1.03201
0.495542
-1.9599
2.83509
-1.18269
-1.65241
-0.0304566
0.240487
1.73858
-0.98731
-0.751265
-1.21602
0.271782
0.944239
-1.91649
1.91925
-0.00275141
0.815967
-2.23972
1.42375
0.0364767
-0.111151
0.0746742
-0.916471
1.24432
-0.327846
-0.10177
0.785796
-0.684027
-0.287956
0.116533
-0.290372
0.0457997
-1.09121
-0.749236
0.793817
-1.71415
0.92033
-0.513148
0.857325
-0.344176
0.8006
0.563274
1.63445
-0.622988
-0.0278491
-0.13059
1.44989
1.32298
-0.98644
0.0365378
0.949902
0.804673
0.933903
0.764121
0.252126
-0.829722
0.316574
-0.559438
-0.053783
0.613221
0.0619005
0.316555
-1.68616
1.14254
0.0356355
-0.484837
0.449201
-1.81946
1.76353
0.0559285
-0.652901
0.897026
-0.244124
-0.41882
-0.207755
0.626575
1.51866
-1.66076
0.142108
-1.80303
-1.14507
2.52212
-1.59135
-0.930766
-0.203479
0.183122
2.41851
-1.60254
-0.964503
1.75832
-0.974109
0.139607
0.834502
1.77246
-0.480587
-1.29188
2.19093
-0.601087
-1.58984
-0.933504
-0.0406051
1.64918
-0.975362
-0.673818
-0.330989
1.56793
-1.23694
0.70272
-1.97635
1.27363
0.46265
0.459703
-0.922353
-0.179027
-0.00526208
0.184289
2.62534
-2.24463
-0.380718
-1.22197
-1.00727
1.39831
0.722994
-1.67421
-0.145243
0.34097
-0.612941
0.679469
-1.43156
0.752094
0.00744863
0.290785
-1.07344
2.2162
1.01608
1.43572
2.70872
-1.58773
-1.12099
-1.96023
1.47556
1.39006
-2.3596
0.969538
-1.24361
-0.089119
1.33273
-0.505046
-0.32299
0.828036
1.13466
-0.431845
-0.330591
0.279543
0.893228
-0.0862467
-0.906084
-1.21424
1.65652
-0.442279
-0.377157
0.0546145
-0.226868
0.0400216
0.237373
-2.15387
0.70324
-1.56136
0.155756
-0.380958
0.504094
-0.123136
0.0478323
-0.465425
-0.963146
0.743277
0.219869
0.692516
0.470191
1.20821
-0.408942
-0.799266
0.97539
0.207909
-0.704429
1.3839
1.14308
-0.115919
-0.415368
-0.98904
2.20753
-1.79997
-0.407564
1.47944
-1.62169
0.807934
0.813752
1.57951
-1.72649
0.146985
-0.871483
0.702169
-0.219016
-0.11055
-0.232693
-1.1375
0.583475
-1.0737
0.490226
0.827522
0.821657
1.33543
-2.22837
0.892941
0.474191
-1.06378
0.589592
-1.94437
0.344446
0.0317963
0.698134
-1.0733
1.638
-0.564702
-0.497694
0.610392
-0.112698
-0.841924
-0.139919
-0.244541
-0.452928
0.697469
0.183472
0.00198001
-0.185452
-0.627307
-0.334385
0.750025
0.885415
-1.63544
1.62042
-0.815745
0.521375
-0.893576
0.0220931
0.928834
-0.454644
-1.31405
-0.298869
0.732039
-0.777378
0.0453388
1.91384
-0.613401
-0.922655
1.48785
-0.565197
-0.229681
0.264834
-0.0351524
1.39716
0.0735179
-0.792739
-0.638824
-1.01941
1.84363
-0.824222
1.21103
-2.22261
1.01158
1.17329
1.34883
-0.135061
0.120644
0.0144171
0.187168
-1.43078
1.2647
-1.90317
0.638475
0.126578
-0.156997
-0.161479
1.25874
-0.702381
1.40562
-1.60696
2.27537
0.40493
-2.09146
-1.68602
0.906838
0.779185
1.27827
-0.21122
-1.06705
1.87106
-0.352407
-1.01867
-1.03995
-0.910474
1.22102
-0.145902
0.409314
-0.263411
0.633671
-0.584697
-1.42619
1.26471
1.78002
0.483265
-1.5651
0.642446
2.0789
-0.68059
-0.660951
0.826993
-0.166042
0.0733526
-1.2626
1.18925
-1.80329
0.335144
1.46814
1.59864
-1.59864
-0.803099
1.57012
-0.767017
0.836381
0.371827
1.26723
-0.658873
-0.608356
-1.87637
1.96404
-0.0876672
0.662466
-0.0791029
-0.583364
0.520318
-0.214231
-0.306088
0.21378
-0.632599
0.213248
0.885321
-1.84982
-1.68578
1.97376
-0.287975
-0.561767
1.31179
0.329102
0.0300422
-0.359144
-0.11832
-0.237365
0.355685
-0.748973
0.812836
2.60599
-2.11026
-0.495732
-0.157494
-1.05033
1.20782
-0.452715
0.497345
-0.0446301
0.248471
-0.546842
0.298371
-1.78397
0.635363
1.14861
0.369479
0.216894
-0.846962
0.186011
0.0193809
-0.368294
0.348913
1.31417
1.31118
0.35342
-0.0243186
-0.0840205
-0.559372
0.643392
-1.00491
1.59867
-0.593757
-0.0119805
0.225339
-0.213359
0.829135
-0.465317
1.27968
-0.414689
-0.864993
0.0238395
-0.833234
0.406052
1.71253
0.86467
0.587941
-1.45261
0.924889
-0.812105
-0.112784
-2.02922
0.377185
-0.793518
0.318854
0.474665
0.99872
1.34135
-2.34007
-1.25576
1.16664
0.120498
-1.81522
1.69473
-0.245417
0.396873
0.416222
-0.420638
0.00441589
0.0528529
-0.612291
0.272005
-0.216551
-0.0554541
-1.33571
-0.381365
1.22571
0.0967308
-0.0805784
-0.0161524
-0.239366
0.00968502
0.337893
-1.40915
1.07126
0.544218
1.05291
-1.59713
0.899344
-1.3953
1.72145
-0.326145
-1.43207
1.10108
-0.0808239
-0.0711415
-0.752888
-0.565317
-0.503903
0.132878
0.371025
-1.73767
0.732764
1.33264
-1.49014
0.85918
1.21972
-0.601346
0.597024
0.00432213
0.819509
-2.29781
1.4783
0.296551
-0.528973
0.232422
0.642089
-1.43483
-1.25847
-0.0649958
-0.621019
-0.0488888
0.0952838
-0.111833
0.016549
0.802955
-0.00218791
-0.0364172
0.0386051
2.22129
-1.22257
-1.03957
1.69278
-0.65321
0.523682
0.3574
-0.881081
-0.709289
0.463872
-0.4204
-0.0835035
0.873411
0.393818
-0.369379
-1.31315
0.719736
0.0123027
1.22331
0.816548
0.326535
-1.89366
2.12617
0.267451
-0.916957
0.649507
-0.17862
-1.64937
1.82799
-0.589655
0.634964
-0.0453086
-0.838864
0.504745
-1.10656
1.80928
1.85769
-0.680558
-0.84186
-0.121286
0.0152445
-0.814237
0.798992
0.815485
-1.92422
-0.271099
-0.907273
1.17837
-0.219148
0.54618
-0.327032
-1.29556
0.0960441
1.19951
1.84512
-1.38506
-0.0349681
0.16703
-0.132062
-0.422133
-0.030582
0.35641
0.716178
-1.07259
0.240999
-0.299507
0.0585084
1.22636
0.686293
-1.91265
-0.702585
2.21878
0.179727
0.00374512
-0.588711
-1.18364
1.77235
0.59763
1.32165
1.92035
-1.37613
-0.686824
0.442283
-0.239615
0.0605887
-0.893512
2.28358
0.267032
-1.52786
1.26083
1.70222
-0.284155
-1.41807
-0.985792
1.38749
-0.401693
0.785164
-0.955287
-0.775781
1.73107
0.338396
-0.390308
0.0519119
-0.566785
-0.972267
1.53905
-0.38851
0.270189
0.0624751
-0.0914844
1.01205
-1.57883
-1.4049
-0.421782
1.82669
-0.120177
-0.959066
1.07924
0.0913662
2.56533
-2.62977
0.0644353
0.414902
-0.286254
-0.128648
0.000294224
-0.60164
0.513298
0.46541
-0.631105
0.126059
-1.61953
2.05364
-0.43411
-0.547513
0.583148
0.532564
0.85347
-1.75661
-0.507326
-0.221098
-0.0937923
0.31489
1.06389
-0.247338
-0.400615
0.440274
-0.0396586
0.737446
-0.839215
-2.34603
1.18494
1.86059
0.407584
-0.24455
0.493022
-0.393339
0.917021
1.8124
-0.927075
-0.411707
0.0110921
-0.209209
-1.21698
0.36443
0.453218
-0.430186
-1.84064
0.0373553
0.186326
0.416583
-0.120032
-1.66349
1.23366
0.429822
1.38961
0.247557
0.365475
-0.116692
-0.248782
0.549307
-0.508509
-0.0407986
-1.59331
0.572818
-2.06082
1.0414
0.640563
-0.0387091
-0.601854
-0.0687394
0.586429
-0.51769
2.08763
-0.00101636
-2.08661
0.341279
0.0201073
-0.361386
-0.266744
-0.501874
0.446658
-0.0373885
0.000263781
-0.00514485
0.00488107
0.759115
-0.10038
-0.658735
0.0593951
-0.0591313
1.60978
-1.30602
-0.0597279
-0.275893
0.335621
-2.06865
0.44912
0.062422
-0.289684
0.867816
0.0315398
0.065191
-0.0464193
0.0185702
0.473567
0.320214
-0.793781
1.20375
0.589378
0.865211
-0.59776
0.415997
-0.364739
0.135052
-0.632747
1.17014
0.0976876
-1.26783
1.06437
-0.0775139
-0.98686
-0.981408
-0.658666
-0.751246
-0.00633926
0.757585
0.783661
-0.821115
0.0374543
2.1929
-0.0581182
-2.13479
-0.834934
0.188333
0.646601
-0.977129
1.30365
-0.326517
1.1779
1.27788
-2.45579
0.641273
-0.998597
-0.540361
0.855514
-0.315153
0.422404
0.18849
-0.610895
-2.42109
1.43896
0.982133
-0.00536211
0.00021726
-1.68705
0.282146
0.597977
-0.371507
-0.22647
0.965647
-1.20945
0.243806
-0.16667
-0.378555
0.358491
2.20684
1.63861
-0.273812
-1.3648
-1.68311
0.287804
0.671067
-1.08644
1.60528
-2.4423
0.83702
-0.194985
0.556645
-0.00816103
-0.7455
0.66148
-0.308141
0.412572
-0.31432
-1.6801
1.99442
1.02286
1.39565
-1.47622
1.5588
-0.0825801
0.125814
-0.0305305
-1.18631
-0.495509
-0.224581
0.250036
-0.0254552
1.10802
-0.335876
-0.772139
0.0341394
0.153698
-0.187837
-0.120186
1.08583
-1.55329
-0.180215
1.73351
-1.53349
-0.486582
2.02008
0.926948
-0.683555
-0.243393
-0.408922
0.0390621
0.36986
-0.510337
0.21777
0.292567
-1.9959
0.107236
1.88867
0.054959
0.359211
-0.41417
1.5753
-1.78782
0.212525
-1.02399
1.64117
0.537479
-2.17864
0.0189527
-0.243534
-0.0892294
-1.43233
1.52156
1.1854
-2.31892
-1.89352
1.64785
0.245662
0.285189
-0.0441905
1.44217
-0.909609
-0.0907933
-0.456406
0.547199
-0.0194927
0.300454
-0.280962
-0.353283
1.75999
-1.40671
1.39483
-0.765519
-0.629308
2.04233
-1.95295
-0.0893801
1.49561
-0.507543
-0.988071
0.0892706
-0.435684
0.346413
-0.560845
-0.0243077
-1.93643
1.7047
0.231732
0.11673
-2.05316
-0.50369
0.905609
-0.401919
-1.16543
-1.0792
0.360329
-0.315794
-0.0445347
-1.61586
-0.452789
-0.34382
0.227644
0.116176
-0.262236
0.584462
-1.8529
1.78229
0.070609
-0.366953
-0.224627
0.0832199
0.368246
-0.0269671
-1.18682
0.270354
0.249497
-0.304196
0.0546991
-1.46622
0.801358
0.664857
0.706685
-0.0442185
-0.480308
1.38447
0.0126939
0.693006
-0.195253
0.36563
-0.170377
-0.14068
1.0347
-1.209
0.783686
0.425318
-0.099772
0.0944099
2.35008
-1.32723
1.98795
-1.16845
-0.476306
-0.290446
0.766751
1.02108
-1.90921
0.888131
1.09607
-1.21624
1.8907
-0.85394
-1.03676
-0.00885883
-1.02118
-0.187823
-0.637733
1.70578
-1.06804
0.0757467
-0.737545
2.35589
-2.1173
0.50144
0.872115
-0.409465
-0.155853
0.128489
0.260393
-0.00755322
-0.972537
-0.973841
2.86251
-1.48663
-0.958117
0.782081
0.176035
0.124613
0.395705
-1.30127
-0.825298
2.12657
0.451872
0.682786
-0.00380911
-0.266388
0.270197
1.63874
-0.615485
0.0927149
0.52277
1.2834
-0.11326
-0.700431
-2.00655
0.320771
-0.41936
0.0222181
0.397142
1.15875
1.67635
1.06977
-0.966311
-0.103457
1.95699
0.0853376
1.19897
-1.69515
0.496182
-1.63481
-0.0384799
1.67329
-1.57975
2.04752
-0.467767
0.255697
-0.00690538
-0.248791
-1.06921
2.2546
-0.547249
-0.499355
1.0466
0.0676897
-1.54391
0.487806
-0.184755
-0.303052
-1.9252
2.51569
-0.590491
-0.458529
1.05815
-0.599617
2.32246
-1.02219
-1.30027
-0.0241594
-1.17227
1.19642
-0.355723
-0.0649151
-1.02068
2.19858
0.733417
-1.53652
2.17664
-0.965606
-0.350739
0.291011
-1.72466
0.089849
2.34251
-1.00708
-0.0167052
-2.62085
0.475115
-0.0415072
0.727769
1.04726
-1.77502
1.08257
-0.246941
-0.835633
0.846942
-2.08654
1.2396
-0.299779
0.0193585
0.280421
-0.391765
-0.949886
1.34165
0.68285
-0.547797
-0.506598
0.0786911
0.427907
0.216518
0.558889
-0.775408
0.150918
0.209411
-1.82013
2.1426
-0.322465
-0.573469
-0.0161865
0.888576
0.400699
-1.28927
1.18204
1.17243
-2.35447
0.31027
0.968002
-0.0377834
2.12161
-0.00789438
1.57075
-1.56285
0.000790598
-0.0127711
0.0824529
0.0209991
-0.103452
2.478
-2.19409
-0.283914
0.88121
1.00949
-0.384741
0.220169
0.164572
-0.56828
1.588
-1.01972
0.0269077
0.288915
-0.315823
1.24836
-1.87826
0.629898
-0.728988
-1.31181
2.04079
1.68749
-0.376568
0.585647
0.496927
-0.809311
-0.0507185
0.86003
0.556679
-1.607
0.367076
-1.01233
0.645251
0.354082
-0.143878
-0.210204
0.0987577
-0.454481
-0.146204
1.41726
-1.27106
-0.353289
2.31656
1.52282
-1.2219
-0.300915
1.2395
-1.07759
-1.00265
0.297072
0.705574
0.282748
-0.941621
0.498562
-0.215278
-0.283284
0.108782
0.256693
0.290256
1.46053
-1.75079
0.417129
0.341986
0.24448
-1.77797
-0.869546
0.311445
0.558101
-0.63822
-0.45947
1.09769
0.931547
-0.45798
-1.66661
1.10484
0.504021
-0.398969
-0.105052
-0.903426
1.75002
-0.846593
-0.849193
0.873032
-0.875844
1.04601
-0.17017
-1.10712
1.83505
-0.727929
-0.0415835
0.403894
-0.362311
-0.657684
0.588944
-0.512986
-1.08791
1.74614
-0.658236
-1.07395
1.34742
0.994131
-1.01007
0.0159369
0.527319
0.286636
-0.813955
-2.48105
1.6192
0.861847
0.0687889
0.399705
-0.468494
0.184049
1.37381
-1.72709
1.80137
-0.780283
-0.692667
-0.993357
-1.39827
1.39037
0.975859
-0.0394258
0.758497
0.211954
-0.970452
-0.626762
0.577773
0.0489888
-0.334582
-0.021425
0.356007
-0.656354
-0.787574
1.44393
-0.0863934
0.914843
-0.82845
-1.45221
-0.564393
2.0166
-0.361494
0.888813
1.99463
0.483371
-1.71522
1.0397
0.675519
-0.785976
-0.0230226
0.808999
0.00961739
0.328672
-0.429418
0.100746
-1.18634
-1.70598
1.04962
0.251888
0.375301
-0.28603
0.479219
0.628796
-0.15125
-1.57201
0.0530034
0.529274
0.240363
0.0722461
-0.312609
-1.31797
-1.00015
2.31812
-0.265267
-0.544044
-0.982197
-0.216975
1.19917
0.232924
0.364265
-0.597189
-0.0463441
2.22607
-1.43406
-0.792011
0.342574
1.29604
0.235283
0.281438
-1.04053
0.759089
-1.15424
2.15393
-0.999694
-1.09386
-0.532486
1.62635
-0.881873
0.341512
-0.796698
-0.205947
1.95653
-0.906552
-1.04997
0.950743
-0.425954
-0.52479
0.749978
0.0963197
-0.846298
-0.307458
0.362417
0.514633
-0.841875
0.327242
0.0713486
-0.0505291
-0.391583
-0.0164966
1.09759
0.858938
-0.704921
1.68529
-0.908509
2.36523
0.762658
0.188085
-1.69619
0.602329
1.42573
-1.23856
-0.192902
-1.22869
0.251565
0.327484
-0.831174
1.44668
-1.37333
1.62709
-0.0475827
-0.377979
-0.20644
-0.528034
-0.131213
0.659247
-0.559014
-0.0642036
1.47568
0.286315
-1.762
0.0447471
-0.482601
0.437854
-0.0467084
0.854594
-1.71257
0.857974
1.72332
-0.148022
-2.01241
2.17924
-0.166833
0.411414
-0.258605
-2.09734
-0.383707
-0.618827
1.76424
-0.0595409
0.908971
2.2049
-0.795664
-1.40924
-1.27686
-0.0540208
1.33088
0.520399
0.966898
-1.4873
-1.3676
0.0720421
-0.315179
-0.273925
0.589104
-0.927436
1.19447
0.248318
1.02132
-1.26964
0.147748
0.266477
-0.414226
-1.93731
0.25505
1.68226
0.789666
1.0117
-0.454815
1.10488
0.390729
-0.565463
-0.228056
1.65094
-1.9194
0.439819
-0.667129
0.227311
1.02098
-0.379706
1.32555
0.0953429
-1.42089
1.47356
-2.38207
0.0361414
0.000335346
-0.325145
0.3755
-0.0503545
-1.53092
1.4417
-0.0356245
0.524394
-0.488769
-0.817471
0.44717
0.370302
-0.373902
-0.464962
-0.489121
1.16019
0.510909
0.129655
-0.278732
0.297684
-0.500168
-0.361708
-0.057584
-0.053567
-0.360413
0.344296
0.0161161
0.37316
-0.425351
0.0521912
-1.02263
0.611038
0.283408
-1.2656
-0.0373481
-0.519976
0.0404196
1.07395
-1.11437
0.599701
-0.653484
0.174943
-1.57499
1.40005
-0.516968
1.47339
-0.95642
0.353075
-1.56732
-0.652066
-0.0475727
-1.84594
1.45756
1.40495
-1.46797
-0.198633
-0.88471
-0.736976
-0.778999
0.32607
-0.123339
-0.0259845
0.149323
2.54329
-1.38455
1.65088
-0.386184
-0.446409
-0.28271
0.729119
-2.40074
1.08109
1.31965
-1.01622
0.607819
-0.448045
2.08921
0.292493
-0.17552
-0.70362
-0.811972
0.264723
0.853148
-0.889318
0.0361699
-0.24187
1.71755
-0.493938
0.857051
-0.363113
1.45002
-2.53771
1.13236
1.40535
0.408558
0.408216
-0.816775
1.09165
-0.437937
-0.653718
-0.995626
0.537097
-1.91621
0.0244422
0.725536
1.76715
-1.94577
0.764024
-0.34162
-0.784658
1.34134
-1.72516
1.23813
0.487028
1.34436
-1.97362
0.629258
-1.36735
1.44501
-0.0776623
0.83106
-0.971739
0.0231439
0.455592
0.471356
0.310016
-1.53013
0.681251
-2.01973
1.13671
0.88302
0.44171
-1.71857
1.28714
-0.0817294
-1.13429
0.239956
0.407228
2.02582
-0.679658
-1.34616
-0.301551
0.492575
-1.1308
0.276404
-1.8889
1.83488
-1.56602
0.610731
0.930453
-1.2875
0.707355
0.580147
-1.65458
1.00353
0.651056
-0.430227
0.195575
-0.414723
-1.94148
1.35896
0.58252
1.19713
-2.26634
-1.801
-0.0191327
2.39898
-0.793701
0.372484
0.184178
-0.556662
-0.0433735
-0.269289
0.312663
-0.546696
0.907956
1.04443
-0.782917
-0.504585
0.322955
0.359895
0.434536
0.669491
-1.10403
0.704196
-0.422678
-0.0570489
-2.10786
2.1649
-0.609035
0.786793
-1.49741
-1.3307
-0.893138
2.22384
0.457217
-0.598552
-1.29849
0.400944
0.897544
-0.103976
-0.0902886
0.194265
1.62849
-1.94281
-0.0797405
-0.245405
0.977699
1.08618
-2.06388
-0.964251
0.00613414
-1.56969
0.437087
1.1326
-2.08559
1.3566
0.999126
-2.15336
0.958176
-0.518358
-0.0854846
-0.0184918
-0.0486544
1.75088
-1.1659
1.45479
-0.288887
1.74017
0.00501079
-1.74518
-1.27281
-0.02518
-0.355778
0.103051
1.49559
0.208358
0.0564757
0.496765
1.11406
-0.277675
0.954537
-0.447446
0.112864
-1.74582
-0.107076
-1.67419
0.534349
-1.52166
0.314249
0.353868
-0.668116
1.58399
0.0936932
-1.67769
-0.190949
0.184044
-0.658658
-1.40216
-1.49781
-0.228688
-0.948963
2.42253
-0.629518
0.857185
-0.227668
-1.89641
0.578446
-0.52466
0.959196
-0.485604
-1.17788
-0.971196
-0.596485
0.601597
-1.13271
-0.333506
2.01882
-0.25458
1.1406
-0.509639
-0.630963
0.190866
0.308739
0.46155
1.95484
-1.83434
0.00769058
-0.418746
0.593896
-0.934145
0.970683
-0.839747
-1.0103
0.399829
0.317037
-0.716866
-1.64498
0.046337
-0.229033
1.46038
-1.23135
-0.0985953
-1.91381
-1.32109
1.6143
2.82326
-1.26478
-1.55849
-0.261616
0.58047
1.50519
-0.797498
-0.707694
0.474152
-0.524681
0.0485084
0.0339445
-0.379494
0.0857065
0.293787
-0.196309
0.954806
-1.0744
2.27153
-0.0600592
-0.255735
-0.512483
-0.142933
0.655417
-0.050779
1.67927
0.396129
0.811026
-1.20716
-0.716275
1.07268
0.810861
0.777143
-0.68703
-0.182516
0.96591
-0.356213
-0.609697
-0.0959872
0.0823974
0.0135898
0.320894
-1.55213
1.23124
-1.75792
0.26011
0.402992
-0.982183
1.51653
-0.0157649
0.489917
0.219494
-0.849012
-1.85618
0.945706
-2.0486
0.632719
-0.830027
0.081054
-0.772788
-1.08487
1.85766
-1.54727
0.385939
0.212993
-0.598932
1.97172
-1.53163
1.57972
-1.05932
0.287327
0.993774
-1.2811
0.388054
-0.703234
-0.888647
-0.470311
1.35896
0.563995
-0.279764
-0.284231
-1.01598
2.28024
-1.26427
1.47661
-0.952251
-0.524362
1.37903
0.0428115
-1.42184
-1.05805
-1.47966
-0.59719
-0.0238289
0.731492
1.13708
-0.0286499
0.157053
-0.128403
-1.26819
-0.301499
1.33614
1.12912
-1.00249
1.19808
-0.195588
-0.608036
0.700751
-0.0352995
0.432554
-0.397254
0.332014
-0.825952
-0.212252
-1.72923
-1.6871
0.465397
0.038624
-0.332272
-0.245807
0.129991
1.39018
-1.52017
-0.937176
-0.249649
0.872394
0.748023
0.127822
-0.455496
-0.0798516
0.424929
-0.345078
0.149392
-0.662695
0.513303
0.394305
0.50272
0.685406
1.54663
-0.719106
1.64474
-0.85795
-0.19577
-0.458755
0.654525
1.4117
0.15623
0.0538181
-1.25504
0.863274
0.785663
-0.836442
-0.988407
-1.31579
2.3042
-1.23203
-1.16871
-2.15931
2.22814
-0.0688301
0.733891
-0.6688
0.537587
1.03921
0.507417
-0.680732
0.517297
0.163435
-0.557928
-1.11278
-0.384296
-0.863359
1.24766
0.907603
-0.455731
1.01293
-0.645852
1.1023
-1.76095
0.875427
-0.655485
-1.02387
1.86844
-0.844567
1.33411
0.907295
0.568172
-1.47547
2.1825
-1.22271
-0.959787
-1.11577
-1.26639
2.1419
-0.875507
0.569515
0.571087
-0.513163
0.497398
0.804331
1.51813
-0.377651
0.334278
0.0349927
-0.0371806
1.80167
-1.00258
0.864141
1.67915
-0.738864
0.380514
0.35835
0.386393
-0.862698
1.42004
-0.0944965
0.741322
-0.368837
-1.26464
-0.262434
1.52708
0.329082
-0.0630155
-0.266067
0.242549
0.172352
0.254396
-1.83415
-0.50184
0.554693
1.29983
-1.13752
-0.162311
0.294237
0.671674
-0.254095
0.137403
0.457618
0.417518
-0.875136
-0.873877
2.22594
-0.230246
-1.07062
2.17367
-1.10305
-0.526236
0.742754
-0.0945797
0.242328
2.05789
-1.03415
-0.640065
0.51882
0.572835
0.536106
-0.573454
-0.308918
0.267335
-0.538707
-0.2369
-0.00246678
0.545883
-0.275351
1.52375
-1.2484
0.330206
-0.310825
-0.601955
0.145548
-0.581807
-0.0153834
-1.79089
1.20218
0.435866
0.419648
-0.876931
0.223103
0.653828
0.499597
0.0896256
1.54342
0.83854
-2.38196
-0.159806
-0.0393911
0.199197
0.303393
-1.34296
1.88157
0.941691
1.46025
-1.33026
-2.15991
-0.115198
-0.0474788
-0.0476272
0.853154
0.753644
0.811246
-1.56489
0.668567
-0.0688659
-0.0646587
-0.58338
-0.155484
-0.95649
-0.760125
1.04287
0.899481
0.793295
1.03624
-1.08448
0.0482457
0.333055
0.0112413
-0.112839
0.439849
-0.0666893
1.38646
0.369546
-1.75601
1.00342
-0.150274
-0.394375
0.236231
0.158143
-0.60317
-0.00483957
0.608009
0.453971
1.22343
-1.6774
0.401814
0.529733
1.27992
-0.0338839
-0.462951
0.913787
0.200269
0.202746
-0.321803
0.119056
-1.9004
0.990954
1.56094
-1.24235
-0.31859
0.0277592
-0.243357
0.215598
1.55758
-1.70378
1.0568
-0.149192
0.794171
0.785552
-0.210576
-0.0263237
-0.93202
0.395084
0.536937
-1.08209
-0.209504
1.99561
-1.02125
-0.974367
0.923105
-0.129
-0.794105
0.747788
-1.27384
0.526048
-0.195957
0.921089
0.00774531
-0.860593
1.73579
-0.875201
-0.548495
-0.383525
-0.842823
0.667863
0.189188
1.6416
-0.00379163
-1.63781
-0.533901
-0.0530584
0.293421
0.309352
-0.0891833
0.453979
-0.0784793
-0.519744
0.553884
-0.0148731
-0.0611654
-0.238282
0.254513
-0.712356
0.999684
0.0231298
0.430088
0.329462
-0.52282
1.32342
-0.110958
1.14719
-0.301913
-0.188456
-0.410231
0.867849
-0.307269
1.73068
-1.42342
-1.47983
-0.207215
-1.3606
1.99726
-0.636667
-0.248523
0.916386
0.542201
-0.106612
-0.0351134
-0.416538
0.451652
-1.52567
0.491521
0.178414
-0.213382
0.985711
-2.28698
0.735757
-1.91939
-1.07728
2.26608
-0.887059
0.896977
-0.479459
0.0209134
-1.12929
1.45018
-0.00167088
-0.259615
0.271696
-0.955251
-0.175743
-1.09197
1.26771
-0.586222
0.925205
2.61754
-1.73619
-0.881346
-0.37917
0.128961
0.387415
0.0373854
-0.4248
-1.44119
0.275291
0.305152
0.0489307
-0.0143002
-0.206772
0.221072
0.773201
-2.1338
0.158901
0.794167
0.0541597
-0.848327
-1.91819
1.61092
0.250995
0.0628918
-0.313887
0.655668
-1.74357
-0.228288
-0.00809618
0.236384
0.323708
-0.0727136
-0.0221447
1.28721
-0.976944
1.05918
0.872206
-0.470392
-1.85157
0.52087
-1.2086
0.967914
0.240682
1.23327
-2.22167
-0.882068
-0.530372
1.41244
0.10741
0.69084
-0.514523
0.43542
2.08125
-0.319178
-1.76207
-0.0178523
-1.72797
1.25886
0.120164
0.720486
0.784707
-0.255737
-0.0106507
0.244286
-0.4803
-0.593401
0.0893455
-0.0579154
-0.03143
0.0222942
-1.58635
1.56405
-0.104849
0.519784
-0.414935
0.784815
-1.85102
1.0662
-0.191183
-0.94817
-0.0629217
0.0529283
1.1967
-0.597154
-0.332179
0.929333
-0.632011
-0.703698
0.767273
-0.450237
0.762501
0.134203
-0.896704
-0.982333
0.105402
-1.27294
-0.231867
-0.0446584
0.276525
0.251684
0.479901
-0.731584
0.746059
-1.53578
0.78972
0.0378543
-0.967299
0.32919
-2.25439
-0.681435
-1.68372
2.36516
-1.69691
0.0803158
1.61659
-2.25693
-1.40521
0.0378568
-0.484277
0.493988
-0.00971116
-2.40361
-0.625085
2.01154
0.649466
-0.329252
0.152633
-0.562863
-0.27977
0.809503
0.244381
0.145841
-0.658324
0.0286909
-0.237855
0.209164
-0.382222
0.125446
-0.156807
0.184566
-0.475951
0.884509
-1.75988
1.05573
0.70415
-0.530308
0.199716
0.995615
0.328573
0.000509508
-0.285584
-0.395148
-0.846873
-0.451615
-0.941789
0.328971
0.612817
-0.0444305
0.746071
-0.701641
-0.703308
0.8527
-0.133509
1.26445
2.1563
-1.76017
0.949821
-1.58183
0.739206
-1.01407
0.274868
0.164882
0.00214795
0.127615
-0.0069709
-1.84456
1.07178
0.179078
0.744027
0.0237018
-0.335256
0.311554
-2.90045
1.16075
0.287596
-0.740968
-0.320636
-0.03655
-0.36375
0.4003
-0.965981
0.368827
-1.86884
1.65658
2.19985
-1.22215
-0.362586
0.327583
0.0350031
-0.307531
0.213739
-0.242588
-1.63756
0.391436
1.24613
-0.227934
0.188543
-0.137948
0.553877
-0.415929
0.652666
0.40413
0.206214
-0.323515
0.117302
-0.452806
0.475936
0.0482527
0.0783249
0.945337
-1.58771
1.83993
0.117063
-1.04342
-0.239673
1.67718
-0.0477353
-1.62944
-0.411817
-0.373505
0.785323
0.938741
-1.91128
-0.434349
1.34374
-0.909395
-0.0257754
-0.0121635
0.0379389
-1.48214
1.44234
0.0398004
-0.889883
1.06483
0.929377
0.465451
1.74954
-0.6202
-1.12934
0.0731105
0.316801
-0.389912
-0.466366
-0.532323
-0.0285218
-0.514253
-0.0180705
0.0350217
-0.544347
0.509325
-0.151265
1.66692
-1.51566
-1.51692
0.561523
0.955396
0.472628
1.615
0.0716672
0.0414398
-0.113107
0.987427
0.424296
-1.41172
-4.67788e-05
-0.123292
-0.736865
1.73343
-0.996565
-1.52725
0.26261
1.16966
0.483515
-1.36558
-0.00228887
-0.178883
0.181172
1.99811
-0.602861
-1.39525
0.832683
0.368781
-2.01994
1.0461
1.91866
-1.97571
-0.890908
0.210906
0.680002
-0.105394
0.251928
0.526035
-0.777963
0.124126
0.148286
-0.272412
-0.0149018
0.18945
-0.174548
0.589305
-0.648284
0.0589795
-0.992593
2.09489
-0.498373
0.513617
0.228512
-0.36646
0.614302
-0.937483
0.323181
-0.985021
-0.740135
-0.435818
-0.0745186
-0.0913739
-0.00672494
0.0980988
1.85906
-1.33318
-0.525875
0.194436
1.10539
-0.398415
-0.228347
-0.963792
0.149555
1.08846
0.632246
-1.72071
-0.0207835
-0.0159748
0.0367583
-0.0344536
0.583761
0.218202
0.166674
-0.384876
2.26761
-0.95134
-1.31627
-2.0606