/*--------------------------------*- C++ -*----------------------------------*\
| =========                 |                                                 |
| \\      /  F ield         | OpenFOAM: The Open Source CFD Toolbox           |
|  \\    /   O peration     | Version:  2306                                  |
|   \\  /    A nd           | Website:  www.openfoam.com                      |
|    \\/     M anipulation  |                                                 |
\*---------------------------------------------------------------------------*/
FoamFile
{
    version     2.0;
    format      ascii;
    arch        "LSB;label=32;scalar=64";
    class       volVectorField;
    location    "4";
    object      U;
}
// * * * * * * * * * * * * * * * * * * * * * * * * * * * * * * * * * * * * * //

dimensions      [0 1 -1 0 0 0 0];

internalField   nonuniform List<vector> 
13486
(
(2.83518 -0.420093 2.2527e-18)
(3.2881 0.574023 1.14102e-18)
(5.37468 0.0682151 0)
(-4.16622 1.7696 -5.42632e-18)
(4.61398 -0.918555 3.87867e-19)
(4.94204 0.389277 3.33183e-20)
(4.95064 -0.536185 -1.51812e-20)
(3.86255 -1.36898 -9.8684e-19)
(3.79849 -0.726847 0)
(3.94071 1.53996 0)
(-1.99455 5.79353 -4.5913e-18)
(4.97735 -0.172706 0)
(2.49688 -0.784033 -2.23249e-18)
(4.80303 1.61856 -1.00983e-20)
(4.72379 -0.518782 2.40403e-19)
(3.84502 1.51559 -7.75141e-19)
(3.16415 -0.651186 3.30411e-18)
(1.19013 -1.23778 7.67365e-19)
(4.43034 -0.039234 1.02156e-20)
(3.1711 -0.0796404 -2.31722e-18)
(-4.10967 0.451515 -2.18273e-18)
(2.54083 -0.817007 2.90469e-18)
(3.3375 0.552649 -9.08104e-19)
(8.03257 -1.72838 0)
(4.03639 1.24525 2.63725e-19)
(7.78616 -1.61905 -1.57833e-18)
(1.11782 -0.617829 3.65255e-18)
(5.92019 -0.349031 2.56583e-18)
(4.00226 0.236447 0)
(5.58686 -0.962422 -1.96082e-18)
(-3.14612 -1.10741 -1.27071e-18)
(4.74683 -0.396437 -4.62055e-19)
(6.78342 -0.0307498 2.05333e-18)
(4.67183 -0.374009 0)
(3.88189 -1.30849 0)
(3.52459 0.0299522 3.86744e-21)
(3.13145 0.241758 -2.48581e-19)
(3.00152 -1.39348 1.07602e-18)
(3.51185 -0.380002 -7.89504e-20)
(3.87316 -0.450375 1.0804e-18)
(4.94243 -1.56936 0)
(1.94212 -0.94364 -2.5963e-18)
(4.21518 0.0153543 0)
(4.07766 1.06347 -1.24137e-18)
(4.12464 1.04155 5.1687e-19)
(4.97462 -0.178588 3.36785e-19)
(-1.80177 0.700912 6.42598e-18)
(3.95967 0.230503 5.25133e-22)
(3.17563 0.256861 1.87914e-19)
(5.68178 0.0973974 9.19987e-19)
(3.99436 0.0571671 1.37607e-18)
(3.61935 -0.121802 0)
(5.00265 -0.361958 -5.52724e-19)
(3.19021 -1.16985 -1.58107e-18)
(1.20658 -1.72098 0)
(4.53787 -0.934289 -3.06963e-19)
(4.85009 1.35964 1.74116e-19)
(3.62189 -0.222393 -3.45667e-19)
(6.75817 0.0151281 2.44975e-18)
(2.58247 0.162885 0)
(-2.16539 5.90208 -6.19818e-18)
(2.54909 0.24821 0)
(7.68109 1.7588 -1.53841e-18)
(-3.92787 0.512356 -2.21892e-20)
(4.08761 -5.46439 0)
(3.05572 0.28045 -1.32067e-19)
(-4.69984 1.97232 -5.63521e-18)
(2.81145 0.111127 7.8571e-19)
(3.80279 -0.785318 -6.08517e-19)
(3.37959 0.0306002 9.07827e-20)
(-4.41167 1.93134 6.44114e-18)
(1.25688 -1.57664 3.03588e-20)
(3.91149 -0.225598 8.20802e-19)
(-1.33779 -0.929323 -1.78742e-18)
(2.94074 0.478745 -3.50004e-20)
(4.9442 1.23169 -3.30985e-20)
(2.97835 0.503574 9.34368e-20)
(4.73644 -0.542972 -9.33398e-20)
(-1.66307 1.4091 -3.372e-18)
(3.637 -1.19419 0)
(3.86562 0.0585194 7.81233e-22)
(3.17567 0.795586 -7.15805e-20)
(6.11575 1.57154 8.94127e-21)
(5.47901 0.0322986 -1.31895e-20)
(2.82121 -0.429881 -4.43024e-18)
(2.50845 3.34204 0)
(3.02903 -0.597995 -3.67125e-20)
(4.00472 0.0947018 -2.08044e-18)
(3.7184 0.445523 -9.13574e-19)
(3.60292 2.04663 -9.09765e-19)
(4.80098 -0.471709 -3.38595e-19)
(4.14272 -1.16557 -4.83618e-19)
(2.9539 -0.606177 5.78647e-19)
(3.26341 0.161044 6.16262e-20)
(3.57838 -1.10245 2.43803e-19)
(3.92968 0.191597 -4.78859e-22)
(1.18267 -0.614327 0)
(-5.35156 2.10001 3.75364e-18)
(3.89465 -0.449486 -2.06583e-18)
(3.39414 -0.393623 5.47627e-20)
(3.8668 0.0341073 0)
(4.76084 1.60804 -1.56827e-20)
(-5.5279 1.79447 2.36033e-19)
(3.60966 -0.187806 4.05707e-19)
(2.57267 3.20626 0)
(3.03377 -0.0760074 6.59672e-20)
(3.92136 0.105652 1.88964e-21)
(3.52489 -0.424367 -1.74957e-19)
(-1.73472 1.36177 4.49624e-18)
(3.82517 -1.72055 0)
(2.92546 -1.38721 0)
(4.72004 -0.386881 -3.83759e-19)
(3.21558 -1.1248 1.28632e-20)
(4.67536 0.684476 -2.29219e-21)
(2.0778 -0.0623494 0)
(2.78109 -1.37 -8.88029e-19)
(4.01914 1.28 0)
(4.95851 -0.330796 0)
(3.89463 -0.204574 0)
(3.32798 0.270186 -9.99986e-20)
(1.39317 -1.14442 -3.29451e-19)
(-2.79239 5.86116 0)
(3.51585 -0.984355 0)
(3.51817 -0.377107 2.5257e-19)
(3.67968 -1.27701 0)
(3.60968 -0.115413 0)
(4.34709 -0.491646 2.16979e-20)
(4.36589 0.182929 4.7719e-19)
(4.25309 -0.17904 -2.78896e-19)
(4.69488 -5.17702 -2.25383e-18)
(3.56393 -0.0928071 -4.26876e-20)
(-2.18796 0.343682 -1.61083e-18)
(0.132871 0.135056 3.01233e-18)
(-0.478736 0.420445 2.31253e-18)
(3.99775 0.0259126 -2.22628e-19)
(3.7598 0.864906 -1.08428e-18)
(1.16852 1.43324 -6.65696e-19)
(3.8336 -1.68078 0)
(3.34993 0.261959 2.81736e-20)
(3.93587 -1.07979 -3.62489e-19)
(6.35832 0.239662 -2.08755e-18)
(4.99704 -0.379006 4.71092e-19)
(4.80994 -0.356686 0)
(3.68662 -1.11829 0)
(4.50278 0.017442 -2.47216e-21)
(7.42068 1.30052 -3.86467e-18)
(4.31547 -0.174364 -1.37341e-20)
(0.622212 3.53305 0)
(5.74189 0.124242 0)
(4.01641 0.219296 0)
(4.0333 0.0290052 2.15667e-20)
(4.78762 -0.690346 0)
(3.88346 0.0346076 -8.22364e-22)
(3.14082 0.768009 -6.1503e-19)
(4.36792 0.69551 0)
(5.62681 0.0889889 0)
(3.58719 -1.645 0)
(-1.55398 0.423731 7.25683e-19)
(3.37021 -1.33656 2.18103e-18)
(3.74255 -1.22022 -5.02849e-19)
(5.55774 0.0822817 4.91105e-19)
(3.39846 -1.28712 -3.32432e-18)
(4.85662 -0.549414 3.16941e-19)
(1.79443 -0.844823 1.14336e-18)
(3.65493 -0.155249 0)
(5.01169 1.63217 -1.5922e-19)
(4.66158 1.4707 2.50982e-19)
(0.874697 -0.21044 -2.80336e-18)
(4.27029 -0.090317 3.77663e-20)
(-0.499078 0.431897 6.17892e-19)
(-0.766237 -0.10214 7.67902e-20)
(4.35097 0.630746 4.09314e-19)
(3.98524 0.183077 -1.73329e-18)
(4.58789 -0.342905 3.14296e-20)
(3.86826 0.116549 -2.45624e-21)
(-5.14275 1.70748 0)
(4.71511 2.20818 3.75778e-20)
(6.58032 0.375184 2.73591e-18)
(3.92875 0.0888995 -2.1976e-18)
(4.82613 -0.33712 0)
(3.97568 -0.541763 2.1157e-18)
(4.66031 0.62046 -2.67658e-21)
(4.6847 -0.315387 -1.11508e-20)
(-2.707 2.08456 0)
(5.26515 -0.123294 6.31978e-20)
(5.51635 -0.313174 -1.15515e-18)
(4.14237 0.2077 -1.32369e-21)
(5.37851 -0.707475 -5.47947e-19)
(4.90743 -1.50637 0)
(2.58334 -1.24006 -1.13847e-18)
(3.2413 0.298953 0)
(5.13695 0.124343 0)
(3.70434 -0.3061 0)
(2.55763 1.6579 -1.28762e-18)
(3.795 -0.373428 0)
(-2.64688 5.75163 -1.24216e-18)
(4.64314 -6.05909 4.93388e-18)
(5.70867 0.0586944 3.10022e-19)
(2.46981 -1.21306 -4.73169e-19)
(4.98037 1.54927 -3.59055e-20)
(-3.04389 -1.33893 1.28799e-18)
(4.3907 0.227227 -1.43437e-20)
(2.89586 -1.38914 -1.2505e-18)
(3.89923 -1.64619 4.11263e-20)
(3.93565 -1.47687 6.17994e-19)
(3.8451 -0.346118 -3.05853e-19)
(0.252961 -1.6048 2.0874e-19)
(3.75479 -0.0921431 1.72508e-18)
(3.67468 -0.319045 0)
(5.29857 -0.0876224 0)
(5.81841 -0.417369 1.79179e-18)
(7.25835 -2.79623 3.1646e-18)
(3.21117 -0.0503195 2.11288e-18)
(3.89371 0.102026 2.30778e-21)
(4.93478 0.48689 -3.83525e-20)
(4.35134 -1.71653 2.39533e-19)
(5.66851 -0.821093 0)
(3.59973 1.98203 2.21163e-18)
(3.11455 -0.650365 0)
(6.14774 1.87463 0)
(3.13147 -0.426699 -6.37254e-18)
(5.80511 0.212272 0)
(3.89346 -1.07986 8.32839e-19)
(5.51842 0.102474 0)
(5.07956 -0.385702 -8.86846e-20)
(2.5352 -1.17314 7.90577e-19)
(5.18304 0.833683 -1.66011e-20)
(-3.38876 -2.39155 1.46169e-18)
(4.19529 -1.09947 3.52396e-20)
(3.23155 -0.621263 -1.20238e-20)
(3.99093 -0.536928 -6.8183e-19)
(3.62366 -0.607632 1.46012e-18)
(6.44752 0.165734 2.60721e-18)
(1.94485 -0.935632 8.90528e-19)
(-4.95 0.692618 0)
(2.3575 -1.13963 9.26602e-20)
(5.13106 -0.606885 9.43181e-19)
(5.18877 0.0972428 1.13342e-20)
(2.19297 -1.05005 2.4766e-18)
(4.69763 -0.210217 0)
(6.94376 -0.0693722 0)
(4.01247 0.131394 2.62542e-18)
(4.77938 0.399564 0)
(2.1462 -1.06582 8.35092e-19)
(3.41755 -0.470838 -1.53287e-19)
(3.58291 0.148276 0)
(4.774 -0.0316327 -1.46005e-19)
(6.58335 -1.44451 4.25222e-18)
(-0.250302 -0.688555 3.75011e-18)
(4.00479 1.00763 0)
(-5.92445 3.18978 -1.91438e-18)
(2.00431 0.000326088 3.30541e-19)
(2.50282 -1.22755 1.09637e-18)
(3.53812 -0.429009 0)
(3.95044 -1.02549 2.1591e-19)
(-4.65945 2.29022 1.74179e-18)
(4.74476 -0.408522 4.07923e-19)
(4.26957 -1.78096 -3.04222e-19)
(-1.20715 0.625334 -7.52192e-19)
(6.92278 -0.0780774 1.85143e-18)
(3.53112 0.468015 0)
(3.40024 -0.460013 -4.4332e-21)
(4.71141 -0.533074 -5.83318e-19)
(-5.2203 2.24328 -2.14318e-18)
(4.36552 -1.37038 -4.52766e-19)
(-2.6113 2.40764 0)
(4.24817 -1.05493 -5.38954e-19)
(-3.96426 -0.718073 -2.16999e-18)
(4.19645 0.00155543 -9.71337e-19)
(2.18904 -0.875565 0)
(2.95954 1.8917 9.41742e-19)
(3.93263 0.114099 -5.99303e-19)
(5.69967 -0.889088 0)
(5.03199 -0.250786 2.86717e-19)
(2.50846 -1.19283 1.05385e-18)
(6.2933 -1.52217 -2.38935e-18)
(3.97087 -0.936982 0)
(1.85698 -3.22325 0)
(3.57782 -0.491053 -1.90036e-19)
(4.52301 -0.241838 3.01524e-20)
(1.85561 -3.45333 8.6699e-19)
(4.19664 -0.368535 -7.6926e-19)
(3.86915 0.16149 1.29881e-18)
(8.43058 -0.108023 -3.65543e-18)
(-3.29077 5.64897 7.23086e-18)
(1.74781 -0.485463 6.18596e-18)
(6.2565 0.406442 1.97889e-18)
(4.16703 -0.244936 3.64829e-19)
(5.43763 -0.398829 1.32751e-19)
(4.1022 0.0133513 0)
(-5.14667 1.01576 0)
(3.09956 -0.521171 1.8265e-19)
(2.83862 -1.36325 8.84773e-19)
(3.9903 0.0451538 -2.18862e-19)
(5.14227 -0.570993 8.78916e-19)
(5.25543 -0.670903 0)
(5.05675 -0.0465085 -7.03935e-19)
(5.05777 -0.225214 -2.19941e-19)
(3.8444 0.125683 -1.19217e-18)
(5.09385 -0.845765 -1.95515e-19)
(3.95373 -0.443922 -3.8141e-19)
(0.50049 -1.65321 4.97393e-20)
(4.61677 -0.173049 -2.61596e-20)
(4.73257 -0.401833 4.45254e-19)
(3.27878 0.187389 4.3012e-20)
(3.34391 -1.54058 0)
(1.50585 -0.356443 0)
(4.40049 -0.0720165 3.06101e-19)
(3.19246 -0.692961 4.25906e-20)
(3.20287 0.290881 0)
(3.72892 2.71777 -4.19196e-18)
(-4.18109 1.95467 0)
(4.53884 2.14474 1.14397e-19)
(4.75938 -0.403305 -4.44267e-19)
(2.73458 4.01013 0)
(3.73835 0.819949 -6.79375e-19)
(2.98798 -0.56568 -2.72928e-19)
(3.71228 0.406766 -7.87185e-20)
(3.75392 -0.0769931 -1.90287e-18)
(4.41292 -1.07678 0)
(3.09209 0.310816 2.41669e-19)
(3.1737 -0.388039 -1.49787e-21)
(3.95144 0.0920501 2.77242e-19)
(3.22152 0.28057 -1.15299e-18)
(1.45521 1.37085 1.22203e-18)
(4.81668 -0.452458 6.66199e-19)
(4.39969 -0.665747 -1.84025e-18)
(4.22503 -0.360945 0)
(5.17956 -0.191186 6.6775e-21)
(4.47695 -0.665299 -2.91967e-19)
(4.00527 0.049769 3.01892e-18)
(4.20796 -1.14971 0)
(4.7134 -0.509049 -1.77749e-19)
(2.84455 0.777127 0)
(4.96263 -0.508001 1.36817e-19)
(3.72113 -1.01772 -6.54647e-19)
(1.51358 -0.701177 1.05983e-18)
(4.75073 -0.734781 -2.98197e-19)
(4.03921 0.397032 0)
(3.37275 -0.47149 -2.39513e-19)
(4.31515 -1.09256 5.83853e-19)
(3.24949 0.272739 1.08714e-18)
(4.51869 -0.676018 1.22934e-18)
(4.67005 -0.319175 6.69907e-19)
(-4.71191 4.23458 -4.52628e-18)
(3.96737 0.210527 9.14181e-22)
(4.43114 -0.350377 0)
(1.98378 -0.652675 2.59321e-18)
(6.16753 1.83123 0)
(3.11505 -0.514575 1.14574e-21)
(4.49681 -0.173694 1.23513e-18)
(5.1346 -0.222322 -2.10753e-19)
(5.0431 -0.254629 2.20283e-19)
(1.14347 -0.610176 -4.29766e-18)
(3.86411 0.125201 1.48738e-18)
(3.72141 0.0423967 0)
(-1.05397 -0.428584 -1.64076e-18)
(4.36586 -0.493741 -4.25949e-19)
(3.27865 -0.635169 -3.85606e-20)
(6.61557 -2.87866 2.53056e-18)
(5.12486 -0.0440137 0)
(4.97624 -0.502151 4.58623e-19)
(3.56562 0.312561 2.33004e-18)
(3.92339 0.132124 1.82665e-18)
(5.6259 -1.02679 0)
(3.89942 0.0203338 -1.19915e-21)
(5.26925 -0.632474 -8.85931e-19)
(-2.58803 -0.491914 9.91087e-19)
(3.12665 -0.0844026 2.93571e-19)
(4.36262 -0.438215 4.03646e-19)
(4.32814 0.0149715 -1.71729e-21)
(4.41906 -0.342613 0)
(5.04813 -0.383561 -3.08632e-19)
(-5.89033 3.62244 1.93934e-18)
(4.87867 0.889926 -1.09586e-20)
(3.99887 0.0567856 1.15546e-18)
(3.03263 0.0295548 0)
(3.23757 -0.46422 -2.87246e-19)
(2.7201 4.15959 0)
(6.24059 2.65137 -9.4518e-19)
(4.22103 -0.0202526 0)
(4.15295 -1.32643 -2.90707e-20)
(2.63213 -0.20272 -6.28022e-19)
(2.99179 1.70528 2.2144e-18)
(-2.51578 -0.0834161 -3.50492e-18)
(4.03579 -0.94879 0)
(4.64921 0.153809 -2.9535e-19)
(4.05322 0.420121 -6.95884e-19)
(2.96476 -1.77005 -1.75903e-18)
(-2.84507 -0.316522 1.60063e-19)
(3.26756 -0.0869422 -3.1887e-18)
(5.81668 -0.757147 9.374e-19)
(4.16313 0.41196 4.9721e-19)
(2.87116 -0.849918 0)
(2.71684 0.610728 1.24815e-18)
(3.408 0.32451 -7.39279e-20)
(-4.48458 2.01428 3.26199e-18)
(-5.93105 3.34022 -6.39713e-18)
(3.57855 -1.53415 -3.91453e-18)
(6.34914 0.366881 0)
(3.31696 -1.70346 0)
(3.93335 2.34207 0)
(4.179 -0.151109 0)
(1.96478 -0.484505 -6.20695e-19)
(4.87122 -0.44972 0)
(2.92325 -0.495589 0)
(3.30931 0.216822 4.43485e-19)
(6.57552 0.450663 -2.86836e-18)
(4.38188 -0.326065 -1.01149e-18)
(3.38257 0.649295 3.8502e-18)
(4.0163 0.054285 -3.54021e-19)
(4.5136 3.32594 0)
(5.93662 -0.564445 0)
(3.82752 0.133668 1.27417e-18)
(3.97209 0.0479966 2.21616e-19)
(2.52751 1.82763 0)
(-3.00138 2.13981 4.66434e-18)
(4.33529 -1.39933 5.12409e-19)
(-1.4418 -0.848375 0)
(4.69547 -0.206321 6.79036e-19)
(3.93598 0.0984736 -1.47825e-18)
(0.620167 0.34056 -3.06678e-19)
(1.96852 -0.63274 0)
(4.01974 0.415313 1.30076e-18)
(5.31831 0.507056 0)
(5.35294 -0.679856 0)
(4.41907 0.450669 -6.78263e-20)
(3.85306 0.165996 6.85751e-19)
(1.08474 -0.680655 -4.71655e-18)
(4.58025 1.4416 1.35897e-19)
(2.63474 -0.628041 -1.10321e-18)
(4.17549 -0.125098 1.38591e-19)
(4.17211 0.427859 3.90469e-19)
(5.43933 -0.399473 7.71272e-19)
(4.53504 -1.36017 0)
(6.65204 -1.14334 2.05477e-18)
(2.6429 -0.0957087 0)
(3.16693 -0.485169 1.58883e-19)
(4.55014 -0.363847 0)
(2.85799 0.135134 1.6506e-18)
(-0.660371 -0.610244 -5.93781e-18)
(5.75203 -0.71158 0)
(-0.301144 0.291407 1.06625e-19)
(5.98844 -0.636832 -2.05618e-18)
(3.41458 -0.518233 -9.79461e-20)
(3.52269 -0.495853 2.9158e-18)
(2.74855 1.67974 -1.42507e-18)
(2.61175 -0.623263 -3.13935e-18)
(6.57202 2.69389 0)
(3.29201 0.255577 9.90645e-20)
(-4.63683 4.52339 -1.17124e-17)
(4.02774 0.450556 0)
(3.67488 0.465329 8.52334e-20)
(5.68477 -0.00761225 -1.95646e-19)
(5.26193 2.4228 0)
(4.00627 0.0264942 0)
(-4.94997 2.70265 0)
(-4.48452 0.606137 8.0811e-18)
(7.77524 -0.180577 4.49596e-18)
(6.75965 1.40291 1.34654e-19)
(4.47717 2.07309 0)
(3.38736 -0.322327 2.03543e-18)
(3.8512 0.117526 5.1694e-21)
(4.57439 1.33717 -2.80301e-19)
(-4.00368 1.24567 3.94435e-18)
(3.81702 0.314599 0)
(3.97565 0.234747 0)
(1.45832 -0.192411 -1.77227e-18)
(2.81351 -0.823401 -7.59927e-19)
(3.87574 -0.338842 0)
(3.05838 -1.46857 -7.74479e-19)
(3.95186 0.0360555 -3.51459e-21)
(3.93658 0.175669 8.57002e-22)
(1.66692 -0.765057 0)
(3.97262 -0.134967 3.69301e-19)
(3.38835 0.265252 7.49326e-20)
(5.306 0.457248 4.31629e-19)
(3.6833 -1.06018 0)
(1.94896 -0.34744 -9.27994e-18)
(5.08007 -0.227638 2.39555e-19)
(4.0062 0.183731 2.7162e-19)
(3.59698 0.0752744 3.29593e-20)
(5.15253 1.61817 0)
(3.3246 0.657414 -1.02722e-18)
(6.28639 1.40115 -8.53831e-19)
(3.70532 -1.31524 7.59813e-19)
(4.02652 0.109149 0)
(-2.97274 -0.417054 -1.63786e-19)
(0.942149 -0.124506 0)
(4.02185 0.0998518 -1.04886e-18)
(3.98267 0.132726 4.57531e-19)
(3.73489 0.0946398 -2.48908e-19)
(-4.85018 1.40365 0)
(5.05957 0.018688 -6.46103e-20)
(2.16186 0.935819 3.43977e-18)
(4.46435 -1.34665 0)
(3.23606 0.184218 1.40458e-18)
(5.01503 -0.896727 2.21751e-19)
(4.51217 0.0212198 0)
(-3.73453 -1.18675 1.15244e-18)
(3.67983 -1.07952 -3.61908e-19)
(4.35146 0.010826 0)
(2.63951 0.342186 6.21101e-18)
(3.6478 0.443104 0)
(3.4435 -1.54815 8.56933e-19)
(-6.04267 3.00981 3.93818e-18)
(4.12998 0.234301 1.4505e-21)
(4.99125 0.414818 -1.58462e-19)
(2.69156 0.602004 6.6056e-19)
(3.50041 -0.547596 -1.08118e-18)
(4.03731 -0.856484 -2.34192e-19)
(3.46688 -1.53117 1.15425e-20)
(4.32133 -0.442801 4.01091e-19)
(5.12449 1.62066 3.5882e-19)
(3.96526 -1.75775 0)
(3.99261 0.0409734 -1.02457e-18)
(-1.33267 -0.679839 -1.58832e-18)
(2.70395 -0.101065 0)
(3.39523 0.517798 -2.14273e-20)
(3.28807 0.0368052 0)
(2.39953 -0.665365 2.71995e-18)
(4.09694 -1.48284 0)
(3.73359 0.0152228 -1.15725e-20)
(4.53153 -0.176955 -6.99134e-19)
(-3.36704 -1.72071 2.12952e-18)
(-5.57003 2.96517 5.68379e-18)
(4.96356 -0.0567019 -6.12258e-21)
(3.16837 -1.50924 5.70776e-19)
(3.488 -0.980012 9.86434e-19)
(2.93716 -0.610284 0)
(0.0714346 0.0733565 -2.51928e-18)
(4.57769 -1.20903 -1.13156e-19)
(0.459627 0.01252 -2.96659e-18)
(3.9437 0.203291 -6.02444e-22)
(2.83861 -1.08261 0)
(4.45887 0.0101152 -5.7533e-21)
(-3.0224 2.52037 0)
(-5.555 1.933 2.46261e-19)
(0.163117 0.171107 3.63086e-19)
(-0.48939 0.671711 0)
(4.06894 -1.00951 2.61799e-19)
(4.32942 -5.69041 0)
(5.34125 2.18614 0)
(3.18143 -1.49072 -1.13329e-18)
(2.91009 0.695718 1.01348e-18)
(3.24128 -1.35799 0)
(3.58068 0.362511 -6.41967e-19)
(6.24114 1.4465 3.90463e-18)
(-5.81057 3.92963 8.82326e-18)
(5.19923 2.89007 0)
(4.29313 -0.0389535 0)
(-4.41864 4.67676 -5.17666e-18)
(3.7387 -0.203033 0)
(5.3383 0.00521055 0)
(-2.67898 5.87094 -1.03517e-19)
(4.08425 -0.711064 -1.31764e-18)
(3.44116 -0.815435 8.76141e-19)
(7.05588 -0.232013 2.69426e-19)
(-0.0822624 0.299181 5.44157e-18)
(3.97703 0.117256 5.20631e-19)
(3.00989 -0.677284 0)
(4.31213 1.00675 -2.01869e-19)
(2.80997 -0.369528 0)
(5.01412 0.0377673 0)
(3.9907 0.224902 0)
(4.40128 0.408824 -5.5242e-20)
(3.71634 -0.0750177 8.87649e-19)
(4.70549 0.287218 3.74512e-23)
(3.08549 -0.687375 0)
(1.15884 -0.545759 -3.49515e-18)
(3.98229 2.25273 3.53901e-19)
(3.66915 -1.29882 8.92858e-20)
(4.33702 -0.268313 -5.96522e-19)
(6.21763 -1.49314 3.79521e-18)
(4.13406 0.0809119 -8.42498e-19)
(-0.519395 -0.849209 0)
(5.04576 -0.229409 0)
(2.85196 1.69532 0)
(2.41309 -1.05518 -1.96407e-18)
(-0.711782 -4.1786 -2.42079e-18)
(0.68894 0.434901 0)
(4.37062 1.03693 0)
(5.16594 -0.422675 3.86141e-19)
(3.96185 -0.0275064 -2.20055e-19)
(3.75718 1.26756 1.13652e-18)
(3.9022 -1.64311 0)
(-2.18642 3.80589 -1.37385e-18)
(4.71576 0.175165 9.73508e-20)
(2.74431 -0.750722 -1.8364e-18)
(4.44833 0.166583 -3.02126e-19)
(4.55073 1.35174 4.74261e-19)
(7.81105 -2.63405 4.49412e-18)
(2.37662 -1.06288 3.41221e-18)
(4.36387 -2.81273 1.4892e-18)
(4.73379 0.603622 -4.46962e-21)
(3.99768 0.0237239 -2.5467e-19)
(2.8225 -1.30502 -2.34565e-19)
(3.69965 -1.01236 1.5491e-19)
(3.03592 4.07533 -1.30272e-19)
(3.04162 -1.45167 4.02222e-19)
(5.1288 -0.171506 0)
(3.15438 -0.512521 -1.56832e-21)
(4.33819 -0.038171 -9.5558e-19)
(5.74729 1.80524 4.11074e-19)
(2.68746 -0.684361 -1.67697e-18)
(3.64088 -1.25372 -9.89735e-19)
(4.03431 -0.0208168 2.0058e-18)
(5.17768 -0.115643 -1.13444e-18)
(2.79529 -0.366027 -2.1192e-19)
(6.22048 0.43998 -1.05427e-18)
(2.24874 -0.272551 -3.7398e-18)
(4.44004 0.00527953 -7.66205e-19)
(2.2163 -0.384461 0)
(-3.72294 -1.63919 -6.0979e-18)
(4.09725 0.0583391 2.07842e-18)
(3.28654 0.00305953 5.14457e-22)
(-1.54835 -1.21683 0)
(3.52531 -1.62071 0)
(4.02984 0.913591 9.9766e-19)
(1.97881 -0.252793 2.32149e-18)
(3.67 -4.60222 -8.52661e-18)
(4.20023 -1.32882 -3.93648e-19)
(4.43813 -0.690992 9.94881e-19)
(6.32765 1.80684 0)
(4.05315 0.995454 5.42466e-19)
(0.808944 -1.32021 -2.46515e-20)
(4.80847 2.27564 1.6991e-19)
(3.93128 -0.490245 -1.23302e-18)
(-0.421263 0.742122 -8.8662e-18)
(6.04321 -1.48337 -3.58433e-18)
(6.83275 -1.23193 1.13979e-18)
(4.37485 2.50289 0)
(4.71593 -1.03609 -4.37418e-19)
(3.76032 0.0881729 2.27571e-19)
(3.86028 0.0788158 -2.49659e-21)
(1.80969 -0.867889 3.12595e-18)
(3.89014 -0.492828 1.83948e-18)
(3.62024 -1.52979 2.852e-19)
(-5.87342 3.69148 -5.15723e-18)
(5.12497 -0.453135 -9.06449e-19)
(4.39987 -0.0100242 6.8394e-19)
(-2.9639 5.57576 -8.7574e-19)
(4.65171 2.12319 1.12038e-19)
(3.10353 -0.0515557 -6.72047e-18)
(2.25529 -1.09191 -1.02575e-18)
(3.89255 0.0577989 0)
(4.84967 1.09803 8.81421e-20)
(-4.24366 5.26074 -4.11798e-18)
(2.61186 -0.255721 3.3987e-18)
(4.26051 0.186935 0)
(4.32987 -0.541238 3.87924e-19)
(2.28926 -0.918078 7.71977e-19)
(3.98318 0.087145 -2.23883e-18)
(-5.1986 3.82158 -4.77937e-18)
(3.26275 -1.31028 -6.88167e-20)
(4.38727 -0.342339 6.832e-19)
(4.59274 0.16162 4.22997e-19)
(3.49916 -1.5712 -1.17065e-18)
(4.7602 0.406276 -5.35887e-21)
(-0.35047 -4.63538 -7.98113e-18)
(4.29863 -0.0285224 8.96661e-19)
(4.15342 -0.105012 -6.0207e-19)
(4.28595 0.231057 -2.50294e-20)
(4.59665 -0.0646777 -1.29139e-18)
(2.19916 -0.944132 -1.49375e-18)
(4.71825 0.551242 0)
(-5.11966 0.229635 5.48855e-18)
(4.20712 0.0881754 1.62634e-19)
(2.03056 0.0184487 -3.87839e-19)
(5.04687 0.112581 -9.99626e-20)
(4.34328 -0.742692 -6.27959e-19)
(3.99882 0.0432424 -1.77038e-18)
(4.17578 0.703504 3.005e-19)
(-3.16846 2.57975 -4.83435e-18)
(5.40214 0.010293 0)
(3.269 -0.429857 1.48486e-19)
(5.15252 -0.23072 2.15431e-19)
(2.86237 -1.05104 0)
(4.26733 0.185221 5.45719e-19)
(5.17315 -0.189841 2.26565e-19)
(5.33888 0.0306687 1.04144e-23)
(5.11851 -1.56679 3.08617e-19)
(3.92123 -0.33771 0)
(3.53021 0.732228 1.87437e-18)
(4.31568 -1.10462 -9.57858e-19)
(2.97954 -1.43081 9.3519e-19)
(4.03354 -0.336774 0)
(2.90158 0.618689 -2.92951e-18)
(1.57975 -0.92266 -3.52372e-19)
(4.76571 3.02752 -7.05327e-19)
(2.27074 -0.313103 3.60553e-18)
(4.43059 0.0295523 2.80268e-21)
(-5.70013 3.10698 4.53496e-18)
(3.85063 -0.181795 -1.35369e-18)
(6.62383 -0.847043 -2.78391e-18)
(3.53483 0.317227 -1.3526e-18)
(4.28316 0.0218105 0)
(4.00013 0.0494844 -9.61815e-19)
(0.197218 -0.283642 2.93591e-18)
(-0.749759 0.216054 0)
(7.63132 -2.52827 0)
(3.85706 0.081233 0)
(3.60194 -1.05899 0)
(4.08537 0.683421 0)
(2.12372 -0.247153 0)
(4.57176 -1.72665 -3.85788e-20)
(7.41585 1.08491 -2.47123e-18)
(5.2408 0.913313 0)
(3.49546 0.694814 2.84209e-18)
(2.25489 -1.01281 4.25525e-19)
(4.15911 0.441556 2.34544e-20)
(-3.76153 5.50067 -1.78747e-18)
(2.14842 0.18968 -6.25273e-21)
(-3.85228 2.75979 4.13171e-18)
(3.98083 -0.0014626 -4.75774e-19)
(5.73596 0.0385387 1.35843e-19)
(4.03575 0.643637 -6.82085e-19)
(3.73239 0.382948 -1.81384e-18)
(3.8698 2.10714 -8.19507e-19)
(6.39796 2.62918 0)
(-3.51733 0.298586 5.45458e-19)
(2.45012 -0.705263 -2.98917e-18)
(4.01642 0.026728 -2.9239e-18)
(4.59945 -1.24783 -3.99697e-19)
(4.3439 -0.00631309 2.07294e-19)
(5.45539 -1.13289 -5.61362e-19)
(4.22469 -0.57128 -1.47943e-19)
(4.10008 -0.992421 -8.99619e-19)
(4.05002 0.376312 7.27787e-19)
(3.48254 2.43741 0)
(3.99924 -0.756644 -2.12667e-19)
(3.3434 0.162502 -4.10562e-19)
(4.87158 -0.404341 0)
(3.60603 -0.434426 0)
(3.66611 -1.65167 -1.56745e-20)
(-5.61342 2.83512 4.89185e-18)
(4.47227 -1.80931 -1.27342e-18)
(3.45154 -0.0849795 0)
(3.78161 -0.0962101 -1.80549e-18)
(3.58218 0.46414 -3.52987e-19)
(-5.06598 -0.551012 2.94578e-18)
(5.24229 -0.118854 8.0773e-20)
(-4.39501 3.00669 0)
(-3.72494 0.373971 7.22444e-19)
(5.24058 -0.152628 0)
(4.64931 -1.09033 4.63808e-19)
(4.8293 -0.49652 -3.48326e-19)
(4.00939 0.0380249 -1.09904e-21)
(4.70562 1.49207 -4.46472e-19)
(5.18285 2.69154 -1.17488e-19)
(3.39416 -0.924674 2.07389e-18)
(-1.90529 -1.35892 0)
(3.23371 -5.2809 -3.85273e-18)
(2.54686 -1.8459 0)
(5.37651 0.910837 -1.8854e-19)
(-5.37617 0.356203 5.3094e-18)
(7.60735 -2.37035 3.39924e-18)
(3.32153 -0.418477 -1.47219e-19)
(-4.37332 3.19913 -1.13928e-17)
(2.65399 -1.29634 -1.08383e-18)
(2.53537 -0.716595 -1.70518e-18)
(3.37931 0.319163 2.67353e-20)
(3.85099 -4.86446 3.18776e-18)
(2.25512 -0.969851 1.23211e-18)
(2.6449 -0.769492 1.88625e-18)
(-0.452996 -3.80072 2.95341e-18)
(5.10962 -5.12947 -2.1814e-18)
(3.61926 -1.1086 9.98047e-19)
(-2.17473 -0.697441 3.99066e-18)
(4.81543 0.0669181 -5.89596e-21)
(2.27777 -1.11641 -3.51906e-19)
(4.67121 0.951381 -1.89616e-19)
(4.47745 -0.976709 0)
(3.19298 -1.11213 -7.65446e-18)
(4.19031 -0.0331215 -1.11253e-18)
(3.98023 0.248824 0)
(5.31945 0.823777 0)
(2.22158 -4.17125 -1.45287e-18)
(7.31561 -0.748866 -2.88986e-18)
(4.91484 0.539397 5.03671e-20)
(4.07548 -0.699313 1.72113e-18)
(3.83542 2.02118 7.41748e-19)
(3.08133 -0.023069 1.29237e-18)
(-5.90079 1.05697 -4.22744e-19)
(3.51269 1.33222 0)
(2.70274 -0.827248 1.81436e-18)
(-1.7166 4.78372 9.22954e-19)
(-4.59976 2.81585 8.70339e-18)
(3.38544 -1.26741 3.34172e-19)
(3.52072 -1.59561 -4.82839e-20)
(3.87326 -0.0253913 6.71032e-19)
(3.4615 -0.381172 8.53975e-20)
(5.46485 -1.00439 2.04111e-18)
(-5.56896 0.588937 -4.0917e-18)
(4.85962 0.525108 -2.6197e-20)
(3.87683 0.113627 7.3953e-19)
(2.20847 -0.381319 -1.48797e-18)
(3.7446 -0.162371 1.1164e-18)
(2.32298 -0.368012 0)
(4.86874 0.93166 4.09278e-20)
(3.93992 0.0911885 1.65777e-19)
(2.91484 -0.55796 -5.76707e-19)
(3.52026 3.65117 3.27349e-20)
(3.55755 -1.08377 7.53169e-19)
(4.18278 0.0502473 3.13588e-19)
(2.71031 0.286158 -2.25832e-18)
(4.88879 -0.465603 0)
(3.29414 -0.370699 -2.77261e-19)
(4.48891 0.215009 4.12272e-19)
(4.46134 -0.316654 0)
(2.76697 0.0670495 1.28032e-18)
(5.25996 -0.107994 0)
(3.41918 3.58889 6.92618e-19)
(4.97338 -0.0660732 0)
(3.99761 -0.844685 0)
(5.0275 -0.121461 1.68819e-19)
(4.85855 0.419992 4.05653e-20)
(6.13017 0.737213 -1.50588e-18)
(3.82323 0.294352 -8.30569e-19)
(3.05014 2.45659 -5.81108e-19)
(3.9895 0.20393 -3.3364e-19)
(4.14037 0.702829 0)
(-0.9371 2.09544 -3.00151e-19)
(5.09889 0.401856 2.43836e-19)
(4.56127 -1.04401 -9.43157e-19)
(4.4715 -0.973744 0)
(5.82403 1.77106 6.37553e-19)
(4.19303 3.34659 2.39621e-20)
(4.74891 0.061501 -9.71168e-21)
(2.90849 0.180867 0)
(-1.8222 5.81132 5.53848e-18)
(4.08468 0.357705 0)
(5.49592 -0.84145 -9.96591e-19)
(-0.0977015 -0.476289 0)
(2.4564 0.665662 0)
(4.29761 -3.13924 0)
(4.00469 -1.47397 0)
(-2.58503 5.44786 -6.85607e-19)
(-4.36889 0.0894052 -1.73801e-18)
(3.69695 -0.0572783 -1.33834e-18)
(-3.96057 -1.25717 -2.83582e-18)
(2.41837 -1.01794 0)
(-3.33232 -2.35121 -2.53922e-18)
(-0.329788 -0.784416 -3.68002e-18)
(3.06067 -1.42153 0)
(2.87664 -0.975546 -1.89844e-18)
(2.87872 0.542894 -4.33233e-20)
(4.64434 0.92731 4.53988e-19)
(4.89753 -1.55871 -9.11527e-20)
(3.7 0.360841 0)
(4.3504 -1.31724 0)
(6.84571 1.37604 6.90716e-19)
(3.70045 -0.910275 4.02885e-20)
(3.26887 0.184749 -8.32652e-20)
(2.03105 -3.80343 1.26046e-19)
(3.9937 0.0108295 7.11294e-20)
(4.81612 1.08239 -1.88652e-20)
(4.04005 0.37649 1.04975e-18)
(3.18144 -0.416001 1.47129e-19)
(3.719 -0.977351 0)
(1.14622 -0.72199 0)
(4.76801 0.355836 0)
(3.53448 0.0289352 0)
(3.42142 -0.587567 7.9565e-19)
(6.05167 0.130616 0)
(-2.40655 5.86463 9.92977e-18)
(6.76939 -4.07337 -3.00446e-19)
(2.58346 -0.795587 -2.85581e-18)
(2.20693 -0.97396 -2.22428e-19)
(-4.76686 -0.669478 -3.05012e-18)
(-1.47617 5.73108 -4.4198e-18)
(4.05304 0.072825 2.48685e-19)
(-5.65869 1.80609 -4.04005e-18)
(3.12189 -0.428756 2.38167e-19)
(5.0686 -0.0927963 0)
(4.62078 -0.58753 0)
(2.77294 -0.813823 0)
(4.34823 -0.766509 3.27553e-19)
(5.15344 -5.45182 0)
(3.60951 1.30027 0)
(4.00716 0.0124965 0)
(3.48693 -0.831472 8.11783e-19)
(4.17416 0.430252 -9.99441e-19)
(3.33573 0.0465474 0)
(4.77513 -1.72386 -1.21699e-18)
(3.94405 0.382923 -9.99796e-19)
(4.85514 2.05775 -3.61978e-19)
(3.09141 -1.42741 1.08417e-18)
(3.73508 1.42406 7.87333e-22)
(3.64606 -1.23996 -2.8945e-20)
(3.55491 -0.473449 1.88121e-19)
(4.06421 -1.07323 -4.45551e-19)
(4.81626 0.420992 -3.70338e-20)
(3.31632 0.208562 -1.67169e-19)
(3.6039 0.163953 -1.2945e-18)
(4.26183 -0.0223399 0)
(2.2392 0.172067 2.9616e-19)
(3.90691 0.115408 1.34277e-18)
(1.13628 -1.39872 -3.56837e-19)
(4.21918 -0.541133 -4.37016e-19)
(2.04225 -0.3015 -2.53898e-18)
(4.84704 0.374638 2.85518e-21)
(6.30833 1.37894 1.21993e-18)
(3.99652 0.175248 0)
(2.94695 -0.457295 -3.09438e-20)
(3.44693 -0.14206 -8.09174e-20)
(4.11826 -1.07842 8.89961e-19)
(-4.0331 1.02016 -4.37139e-18)
(4.02932 0.0369246 6.82399e-19)
(4.77166 0.522253 4.33294e-21)
(4.38498 0.0314478 -1.26025e-21)
(4.671 0.298047 0)
(1.92716 -0.640579 0)
(2.85021 -1.35694 1.34131e-18)
(-4.9056 3.3422 5.22815e-18)
(3.9037 0.0339176 5.62966e-22)
(3.91205 0.118046 2.69157e-18)
(3.01313 -0.495691 1.09886e-19)
(2.84118 0.565173 0)
(3.55035 0.202652 0)
(3.15874 -0.670284 -1.66501e-20)
(4.85138 -0.054474 2.67903e-19)
(3.84498 1.37453 1.52714e-18)
(4.8089 -0.314828 0)
(4.72513 0.0812832 0)
(4.13588 -1.11725 1.15649e-18)
(3.97668 -0.30417 1.00945e-18)
(-0.00317749 1.43407 -3.12905e-19)
(3.90638 -0.156926 0)
(0.552278 0.368717 5.70169e-19)
(5.41705 -2.03181 -5.6242e-19)
(-4.36897 4.74171 -4.62304e-18)
(3.99052 -0.0386305 -1.4282e-18)
(8.42209 0.814689 0)
(7.43314 -0.519218 2.32815e-18)
(4.32055 -0.610386 -1.01481e-17)
(-0.140931 1.04646 0)
(3.54187 0.0683507 -1.04562e-19)
(3.81637 0.226367 -8.82009e-19)
(3.80656 0.0240949 -4.94704e-23)
(4.89226 -0.490018 2.02748e-19)
(2.44842 2.31585 1.29422e-18)
(4.12972 0.0438617 0)
(2.01208 -0.695866 -1.85027e-20)
(2.87414 -0.464692 -1.13889e-19)
(3.46068 3.13112 -7.69145e-18)
(4.06667 0.631279 8.11696e-19)
(-1.53334 -1.53987 5.35606e-19)
(4.10935 0.0352775 -3.16613e-18)
(3.29433 -1.42617 -1.49593e-19)
(3.44206 -0.461832 1.68438e-19)
(3.41435 -0.750859 0)
(3.55528 0.0128437 -3.91256e-19)
(2.18351 -0.991867 9.80646e-19)
(4.4783 -0.187204 -1.35903e-18)
(3.95389 0.0916198 -1.20689e-18)
(5.41613 -0.839983 8.95009e-19)
(3.28528 -0.311772 3.01742e-18)
(4.72462 0.0522888 9.61965e-21)
(3.52347 0.216161 7.65993e-19)
(3.35821 0.522036 -8.59372e-20)
(7.06239 -0.234484 -3.01694e-18)
(4.67703 2.26534 -1.47309e-19)
(3.90956 -4.65896 6.56098e-18)
(3.89421 -0.0456209 0)
(2.97593 -0.751099 0)
(3.36699 -0.433126 0)
(2.5835 -0.731315 2.19487e-18)
(4.16108 0.0771395 -1.93707e-18)
(3.55648 0.490217 0)
(3.00266 -0.601972 -1.70436e-18)
(3.54777 0.414167 0)
(3.44733 -0.519451 -1.30257e-18)
(4.50088 -1.10255 -1.00412e-18)
(3.67901 -0.929572 -1.10026e-18)
(4.22673 0.0433473 0)
(3.88507 0.0938193 0)
(4.47964 -0.327119 5.28974e-19)
(5.18606 0.751982 1.66121e-20)
(5.76748 -0.113115 1.044e-18)
(4.53287 3.53203 -1.38094e-20)
(4.7951 -0.393372 0)
(3.4129 -1.23162 -5.65404e-19)
(-0.490254 0.541057 0)
(1.74956 1.91646 -1.22467e-18)
(5.22024 2.68294 0)
(4.73751 0.474491 -7.28097e-21)
(2.26161 -0.239899 9.8036e-19)
(3.00568 -0.208917 9.6792e-19)
(3.74047 -0.175077 -5.3708e-19)
(5.77476 -3.95065 -1.52973e-17)
(3.90422 -0.360494 2.55666e-18)
(4.10155 0.667373 -2.11202e-20)
(5.22697 -1.06513 6.55167e-19)
(3.92487 -0.810797 -5.34033e-19)
(-0.173278 0.726475 1.73127e-18)
(5.25136 1.16478 0)
(3.96375 0.0893016 2.51309e-21)