/*--------------------------------*- C++ -*----------------------------------*\
| =========                 |                                                 |
| \\      /  F ield         | OpenFOAM: The Open Source CFD Toolbox           |
|  \\    /   O peration     | Version:  2306                                  |
|   \\  /    A nd           | Website:  www.openfoam.com                      |
|    \\/     M anipulation  |                                                 |
\*---------------------------------------------------------------------------*/
FoamFile
{
    version     2.0;
    format      ascii;
    arch        "LSB;label=32;scalar=64";
    class       surfaceScalarField;
    location    "5.6";
    object      phi;
}
// * * * * * * * * * * * * * * * * * * * * * * * * * * * * * * * * * * * * * //

dimensions      [0 3 -1 0 0 0 0];

oriented        oriented;

internalField   nonuniform List<scalar> 
20045
(
0.78631
-0.889087
0.102778
-1.65369
0.646849
1.00684
0.35346
2.65155
-3.00501
-0.271961
0.424001
-0.15204
-1.31773
1.28574
0.0319818
-0.798538
3.17134
-2.3728
-1.59031
0.632617
0.957697
0.108795
0.679919
-0.788714
0.72811
0.675468
-1.40358
-1.12791
-0.253915
1.38183
-0.215679
0.0253738
0.190305
3.56419
-1.79302
-1.77117
0.602348
-0.598046
-0.00430248
-1.8695
1.5099
0.359595
-0.484959
1.6306
-1.14564
-1.59424
0.466325
0.00260169
-0.0245221
0.0219204
2.07659
-2.17755
0.100967
-2.67702
3.85852
-1.1815
-1.13731
0.00929816
1.12802
-0.165157
0.00318786
0.161969
0.212488
0.389861
-0.274037
-1.37965
0.844826
1.47657
-2.32139
1.28628
0.214253
-1.50053
-1.54497
2.3898
-0.193121
0.205448
-0.0123274
-1.62166
3.10746
-1.4858
2.56241
0.0528118
-2.61522
-2.90226
1.55489
1.34737
-0.847489
0.151389
0.6961
2.14579
-1.49907
-0.646721
-1.18957
2.17923
-0.989657
3.10409
-1.76809
-1.336
-0.877464
0.986259
2.72732
-1.30222
-1.4251
0.967877
2.34044
-3.30832
-0.105894
0.629518
-0.523624
-3.40758
-2.08515
5.49273
0.972899
0.773647
-1.74655
0.0869608
0.645898
-0.732859
0.27733
-0.386735
0.109406
4.02669
-4.001
-0.0256806
2.19429
-0.751368
-1.44292
0.960257
1.23403
1.72801
1.83618
-0.154724
0.216842
-0.0621183
1.48438
1.03059
-2.51497
3.5401
-2.57222
0.187707
2.60404
-2.79174
1.95376
-3.29437
1.34061
5.00052
-4.36756
-0.632968
-2.00824
-1.45337
3.46161
-0.136163
-0.491299
0.627462
2.56055
-1.36479
-1.19576
-1.08893
-0.228794
0.751301
1.47872
-2.23002
5.77562
-1.48348
-4.29214
1.22222
-2.41179
1.62474
-2.46931
0.84457
-0.318004
0.19219
0.125813
-0.840074
2.46482
1.12479
-2.5967
1.47192
0.127491
-0.292648
1.98054
-0.110471
-1.87006
0.737811
2.45002
-3.18783
0.209727
-0.422542
0.212815
-1.02463
0.173424
0.851204
1.33146
-0.603351
1.49126
-1.63392
0.142659
0.416642
-0.206915
0.60649
1.95406
-0.432673
-1.55453
1.9872
0.112775
-0.170336
0.0575611
1.26873
1.22774
-2.49646
1.95057
-1.19927
-1.81693
3.08566
0.693327
-1.17829
0.0402037
-0.24756
0.207356
0.437647
-0.683049
0.245402
1.39183
1.61642
-3.00824
1.34564
-1.12216
-0.223475
2.21727
-1.09248
-3.44256
0.595537
2.84702
-0.00149304
0.787803
-0.713625
0.917094
-0.203469
4.05101
-2.08236
-1.96865
-2.4047
0.0962236
2.30848
1.51194
0.292691
-1.80463
-1.29235
1.09566
0.196684
-2.07534
-0.500246
2.57559
1.1414
-0.195502
-0.9459
0.632502
-0.94206
0.309559
-0.314643
-1.19544
1.51008
0.94235
-0.994894
0.0525436
1.85597
0.779771
-2.63574
-0.226541
0.0334209
-0.214524
0.480656
-0.266132
1.89534
-0.922445
0.00509918
0.0407586
-0.0458578
1.86079
0.866523
-0.746916
-1.12258
0.270859
-0.485382
0.418007
5.35762
0.0459985
-0.759624
-0.149731
0.154831
0.652263
1.81602
-2.46828
4.72692
-2.31845
-2.40847
-0.11452
-0.730724
0.63165
0.0990735
-0.41302
0.516078
-0.103058
1.80214
-1.38022
-0.421921
-0.787902
0.651739
2.2897
-2.778
0.488302
-0.335564
0.548304
-0.212741
0.0831015
-0.500918
0.417817
1.68383
-0.397552
2.35887
0.745221
-1.81164
1.37897
1.68641
-4.12112
2.43471
2.54332
-0.466736
-0.269866
-0.0481374
-1.23412
1.01014
0.223972
1.31934
0.148741
-0.924266
0.775525
4.13822
0.862305
1.74905
-2.21677
0.467711
2.37808
0.273331
-2.65141
-2.96665
2.42717
0.539478
-0.1522
-1.81284
1.96504
5.73322
-1.595
0.156585
0.0602568
0.405166
-0.300214
-0.104952
-0.0965657
0.0493761
0.0471896
1.71313
1.20119
-2.91433
1.83487
-1.69809
-0.136774
-0.482469
0.141104
0.341365
-0.516868
-0.213856
4.48078
-2.79437
-1.02041
1.09643
-0.076022
1.80986
-3.02931
1.21944
0.582083
-2.59033
1.82495
0.646003
-2.47095
0.857737
-0.42009
3.49712
-0.514299
-2.98282
0.798084
-2.25344
1.45535
3.11382
-2.99674
-0.117078
-0.32847
0.574258
-0.245787
0.0291146
2.88631
-2.91543
2.78085
-0.218436
-2.47638
0.0796874
2.39669
-1.49388
1.2899
0.203974
2.64796
-1.25613
0.421102
0.924536
-1.90574
2.27699
-0.371251
-2.2426
2.59606
0.0383809
-0.599643
0.561262
0.0850309
0.140696
-0.225727
-0.0498963
-0.597056
0.646953
1.34432
-0.15827
-1.18605
3.90868
-1.84465
-2.06404
-0.70273
0.652834
0.741703
-1.67815
0.936451
0.33871
-0.0613804
-3.94955
-1.43529
1.93743
-0.502135
-1.92568
1.48254
0.443144
-0.042363
-0.124736
0.167099
0.282314
2.8315
-0.0766574
-0.0199083
0.0240382
0.381128
-2.0729
0.167161
-2.20618
2.79238
-0.586201
-2.02699
2.34942
-0.32243
-1.74151
-1.09843
2.83995
-0.363576
0.0935132
0.270063
1.21026
-1.37698
0.166725
2.34032
0.31687
-2.65719
0.0137462
-2.23563
2.22189
-1.08963
2.91457
0.635364
-1.70689
1.07152
-0.574879
2.86458
-2.57706
1.66796
0.9091
0.538745
-0.574676
0.0359314
1.0378
-3.27128
2.23348
-2.53476
0.9131
-1.89025
-0.798373
2.77791
-1.691
-1.08691
-0.836691
0.923652
0.499205
-0.531932
0.0327262
-1.3752
-2.28164
3.65684
-2.38451
3.53139
-1.14688
4.62963
-1.69287
-2.93675
0.130027
-0.704491
0.574464
0.804961
-2.78594
1.98098
0.125875
-0.341554
-1.77365
1.62145
-1.99946
-0.669404
2.66887
0.357702
0.0937007
-0.451403
0.268799
-1.70409
-0.131046
-0.716443
2.5399
-0.161822
-0.515364
0.40947
-0.52423
0.627921
-0.103691
-0.115752
1.46008
-2.11148
2.91644
1.10402
0.0909362
-1.19496
-2.13672
0.45297
1.68375
3.00603
1.6236
3.45375
-2.41595
1.9076
-3.20247
1.29487
0.557198
-2.38584
1.82864
0.151814
-1.28913
-1.47076
2.12302
1.93118
-2.72972
1.26651
-1.81331
0.5468
-3.26669
1.90507
1.36161
-0.170054
-1.12229
0.556371
0.475273
-1.03164
1.95975
-0.531934
-1.42782
0.0433603
-1.97616
2.00528
-0.803588
-0.216821
1.90922
3.72167
-3.12663
-0.595042
-0.0365894
-0.439334
0.475923
1.96968
0.254203
-2.22388
1.06699
-0.64149
-0.425501
-0.29463
0.788387
-0.493756
2.45774
1.59328
1.77111
-1.13575
-0.285016
0.652457
-0.367441
2.53238
-0.722517
0.368404
-0.0312028
-0.337202
0.17071
-0.520481
0.34977
-0.42053
0.436449
-0.0159191
2.68511
-1.74177
-0.943342
0.832009
-3.21652
-0.465139
0.0446091
-2.71485
0.889412
1.82544
3.06665
-0.887425
0.729757
-2.93594
4.18861
-2.33319
-1.85542
-0.0544658
0.412168
0.450417
3.39773
-3.84815
-1.81743
0.359388
1.45804
-3.02296
3.01821
0.00474911
0.602763
-2.25505
1.65229
0.02639
-0.0211782
-0.00521186
-1.43719
1.84211
-0.404929
-0.153276
0.664296
-0.51102
-0.50416
0.168597
-0.494425
0.0814048
-4.07599
1.75754
0.678579
-0.730936
0.0523567
0.155366
-0.170569
0.0152029
1.17666
0.969133
1.75137
-0.48486
0.241127
-0.156096
1.85145
1.21521
-1.53466
0.110665
1.42399
-3.5838
4.03422
1.18241
0.448187
0.100725
0.0546414
-0.891506
-0.0620295
0.953536
-0.009658
0.548403
-1.26391
0.969278
-0.659085
0.322032
0.337053
-2.71277
2.61137
0.1014
-4.5365
4.52087
0.0156257
-0.510926
-0.406596
0.917523
2.26921
-2.48422
0.215007
-2.03721
-1.22948
4.13129
-2.76633
-1.36495
-0.347421
0.310831
2.54695
-1.94418
0.000221418
0.678358
-1.1398
-0.34989
1.48969
1.03611
2.54828
-3.5844
3.17444
0.135739
-3.31018
-1.72481
0.585006
2.56371
-1.4844
-1.07931
-0.514382
2.3643
-1.84992
1.53619
-2.37845
0.842255
0.142146
0.254644
-0.39679
0.304772
-0.0699892
-0.234783
3.4227
-2.70704
-0.715659
-1.57214
-1.39451
2.75047
0.9712
-2.46497
-0.2478
0.32311
-0.1524
0.0781418
0.800204
-0.878345
0.013857
0.485348
-1.61761
3.33074
0.993587
1.69152
2.96833
-1.80811
-1.16021
-2.64401
1.97461
2.5517
-3.83403
1.28233
-1.85817
-0.154671
2.01284
-0.740773
-0.557125
1.2979
1.41081
-0.669107
-0.0529681
1.15699
0.177701
-0.0656504
-1.43342
-1.59654
4.36182
-2.76528
-0.615747
0.0915163
-0.254001
-0.0310152
0.345413
-3.36837
3.56318
-1.10544
2.1649
-0.80731
1.05134
-0.244026
0.0560684
-0.328029
-1.47788
1.00242
0.475458
1.04433
0.757803
-0.0376175
1.212
-1.17438
1.43407
0.400802
0.524845
-0.446704
1.72627
-0.214334
-0.663048
-1.47367
2.06375
-1.43592
-0.627826
3.07825
0.185713
0.126695
-0.312408
2.35716
-2.58199
0.224832
-1.36928
1.05464
-0.40663
-0.0758394
-0.239905
-1.83544
0.875424
-1.68787
0.812445
1.31136
1.25235
2.59891
-3.44756
0.848646
0.693637
-1.6674
0.973766
-2.91493
0.51023
0.0275455
1.11386
-1.47901
2.54043
-1.06142
-0.70125
0.960146
-0.258896
-1.30275
-0.287562
-0.418714
-0.691893
1.11061
0.341227
0.00256848
-0.343795
-1.02447
-0.46941
1.10003
1.34993
-2.44996
-0.0668296
-3.51697
0.799839
-1.34901
-0.0202728
1.43747
-0.74383
-2.05375
-0.523313
0.548856
-0.637221
0.0883654
2.60121
-1.11684
-1.39491
2.31502
-0.920113
-0.400185
0.468922
-0.0687376
2.11014
-0.150393
0.68995
0.110254
-1.52149
2.82501
-1.30352
2.32691
-3.5636
1.23669
1.67402
2.45727
0.213268
-0.251087
0.0378197
0.297268
-2.15543
1.79777
-2.66405
0.866275
0.128415
-0.01564
-0.209677
1.95873
2.62126
0.941917
-1.6927
2.24989
0.55191
-3.22893
-2.75284
1.26064
1.4922
1.95847
-0.36414
-1.59433
2.7959
-0.526683
-0.997189
-1.40285
-1.2037
1.22656
-0.271257
0.134359
0.136898
0.969009
-0.95971
-2.19125
1.98157
3.15106
0.875622
-2.42364
1.02873
3.69375
-0.94328
-0.501925
0.675402
-0.173476
-0.0470528
-1.74526
1.79231
-2.70556
0.504343
2.20121
2.47644
-2.47644
2.51339
-0.914626
-1.59876
1.47885
-1.51647
1.84869
-1.1356
-0.713088
-2.80258
2.91323
-0.11065
1.05752
-0.14563
-0.91189
0.843276
-0.305975
-0.537301
0.397057
-0.907983
-0.114672
0.782775
-0.782554
-2.44084
2.89812
-0.457277
-0.866715
1.96674
0.00967711
0.00282885
-0.012506
-0.455975
0.328873
0.127103
-1.13459
1.2864
2.92434
-2.42709
-0.497247
-0.275052
-1.54411
1.81916
-0.75558
0.803691
-0.048111
0.462092
-0.870112
0.40802
-4.01261
2.48512
1.52749
0.235236
0.188765
-0.682737
0.180812
-0.0045421
-0.0116751
0.0162172
1.46147
1.96124
0.0120477
-0.00237062
-0.255102
-0.74716
1.00226
-1.50257
2.418
-0.915433
-0.0957374
0.354121
-0.258384
1.33137
-0.698751
2.73524
1.66332
-4.39856
0.100314
-1.29575
0.121529
2.21879
1.29515
0.942136
-2.23729
1.45386
-1.21385
-0.240006
-3.0345
0.558127
-1.17253
0.556843
0.615686
1.2503
1.48731
-2.73761
-1.89557
1.7409
0.193684
-2.71807
2.52438
-0.440326
0.570354
0.571501
-0.629684
0.0581825
0.0634554
-0.954962
-0.0627631
0.227054
-0.164291
-2.07644
-0.638415
1.82976
0.566324
-0.332485
-0.233839
-0.42995
0.0297657
0.479753
-2.11078
1.63103
0.559417
1.5897
-2.14912
0.969792
-2.12403
2.54407
-0.420044
-2.15953
1.64514
0.131736
0.0737115
-1.20095
-0.72473
-0.830349
0.198448
0.631901
-2.61552
1.11295
1.96764
-2.2427
1.06762
2.62613
-0.930503
0.945325
-0.0148218
1.10573
-2.58722
1.48149
0.526692
-0.861661
0.334969
-0.327895
1.01784
-1.98067
-0.046322
-1.00909
-0.0155423
0.200023
0.0678049
-0.267828
0.88713
0.080021
-0.0995291
0.0195081
2.56945
-1.31915
-2.74602
1.01497
1.73105
0.785331
0.599447
-1.38478
-1.07502
0.634697
-0.717064
-0.113285
1.04382
0.804869
-2.51517
-1.60595
0.58068
-0.0318239
1.82969
1.27525
0.451018
-2.56389
2.75159
0.195486
-1.22551
1.03002
-0.266812
-2.47768
2.74449
-0.633924
0.673418
-0.0394943
0.321721
-0.685297
-0.896049
2.43224
2.39637
-1.59829
-1.16454
-0.313337
-0.0179253
-1.25145
1.26938
1.0741
-2.81561
-0.247421
-1.42345
1.67088
-0.18852
0.252238
-0.0637181
-1.93563
0.12179
1.81384
2.63397
-1.60338
-0.0333514
0.304463
-0.271111
-0.683595
-0.0719852
0.588712
1.06772
-1.65643
0.402968
-0.496609
0.0936401
1.59423
0.889146
-2.48337
-1.25991
3.11588
0.330545
0.0106815
-0.420979
-2.44487
2.86585
2.48808
1.99271
2.59911
-2.03969
-1.10834
0.689626
0.192389
0.112383
-1.15441
3.70611
0.399409
-2.30119
1.90178
2.6239
-0.498896
-2.125
-1.23047
2.01442
-0.783949
1.17982
-1.00638
-1.38703
2.39341
0.02024
-0.0164033
-0.00383671
-0.849839
-1.45576
2.3056
-0.211269
-0.244706
0.145931
-0.188294
1.5214
-2.37124
-2.11134
-0.634277
2.74561
-0.142972
-1.472
1.61497
0.194238
3.24288
-3.36467
0.121794
0.663324
-0.37647
-0.286854
0.026769
-0.957272
0.760428
0.74965
-0.991084
0.25031
-2.40041
3.03291
-0.632494
-0.604319
-0.0547656
1.05377
-0.196038
-3.08865
-0.912354
-0.0189292
0.272681
-0.253751
1.60228
-0.327023
-0.642262
0.70886
-0.0665984
0.50518
-0.658456
-3.07909
1.18884
2.68347
0.487866
-0.323842
0.785934
-0.656609
1.44194
0.82218
-0.039405
-0.665156
0.0228944
-0.285921
-1.90533
0.70696
0.712652
-0.674271
-2.75656
0.0510063
-0.0387248
0.670808
-0.144117
-3.21907
1.18857
2.0305
1.14439
0.346868
0.62422
-0.217986
-0.406233
0.862143
-0.807938
-0.0542053
-2.04589
0.743673
-3.14908
1.62759
-0.0966156
0.740424
-0.643809
-0.0954429
0.613513
-0.51807
3.27051
-0.0255984
-3.24492
0.554909
0.0367902
-0.591699
-0.413968
-0.820148
0.722744
-0.0902428
0.370141
-0.34652
-0.0236211
1.20562
-0.189968
-1.01565
0.0463235
0.323818
2.4163
-1.63653
-0.0864911
-0.459217
0.545708
-3.08965
0.689233
-0.00317497
-0.345368
0.616226
0.130846
0.435478
0.0480858
0.193041
0.773198
0.475494
-1.24869
1.76292
0.217619
1.17742
-0.981931
0.67489
-0.591788
0.277387
-0.978638
-0.986693
0.733364
0.253328
1.64545
-0.166769
-1.47868
-1.62828
-0.625152
-0.563135
-0.0646784
0.627813
1.04536
-1.23091
0.185548
3.27229
-0.0803983
-3.19189
-0.602936
0.0851349
0.517801
-1.4836
2.02095
-0.537354
1.51031
1.82584
-3.33616
0.377333
-0.185143
-0.801981
1.33376
-0.531784
0.689376
0.274165
-0.963541
-2.71833
1.34294
1.3754
-0.29171
-0.0548104
-2.53392
0.422582
0.961772
-0.570912
-0.39086
1.35655
-1.8011
0.444549
-0.296758
-0.592329
0.440063
2.80282
2.46022
-0.414374
-2.04585
-2.47887
0.354839
0.985983
-1.64903
2.24973
-3.99009
1.74037
-0.329932
0.886303
-0.0132737
-1.14048
0.885375
-0.504824
0.653565
-0.178929
-2.15254
2.33147
0.983381
1.56357
-2.19382
2.32941
-0.135597
-0.00854231
0.208566
-2.16001
-0.677966
-0.381496
0.427415
-0.0459187
1.7332
-1.4414
-0.291804
0.220783
0.035057
-0.25584
-0.293363
1.64991
-2.84053
-0.397351
3.23788
-2.35198
-0.727221
3.0792
1.37415
-1.10487
-0.269285
-0.662698
0.0756949
0.587003
-0.470409
0.0178345
0.452575
-2.88542
0.118494
2.76693
0.0690667
0.60297
-0.672036
2.3424
-2.62895
0.286546
-1.44837
2.04099
0.466037
-2.50703
0.0352097
-0.416706
0.225417
-1.67074
1.44533
2.29652
-2.8714
-2.84128
2.47362
0.367659
0.482215
-0.0792464
0.813506
0.240268
-0.212157
-0.641757
0.853913
-0.031424
0.496058
-0.464634
-1.16483
2.96963
-1.8048
2.41862
-4.35188
1.93326
3.04917
-2.91732
-0.131852
2.27873
-0.98904
-1.28969
0.12378
-0.712263
0.588483
-0.901311
-0.0229542
-3.06235
2.70707
0.355286
0.167273
-3.22963
-1.54599
4.03714
-2.49115
-1.67239
-1.03466
0.627713
-0.522086
-0.105627
-2.41322
-0.676423
-0.591718
0.403879
0.187839
0.661302
0.405688
-2.80729
2.67723
0.130061
-0.451662
-0.112858
-0.0574785
0.594194
-0.0392849
-1.75736
0.320177
0.468914
-0.536762
0.0678475
-2.30322
1.67204
0.631178
1.10481
-0.0472927
-0.791979
1.78329
0.32685
1.09075
0.0136733
1.41911
-1.43279
-0.377283
1.58754
-1.90803
1.19501
0.713018
-0.384944
0.0932343
2.59357
-1.61018
2.1532
-1.04747
-0.574383
-0.54683
1.12121
0.792848
-1.85571
1.06286
1.67495
-1.81793
2.68149
-1.16239
-1.5191
-0.018331
-1.57894
-0.329094
-0.871987
1.1687
-0.296713
0.112267
-0.779836
2.68743
-3.15643
0.743203
0.333309
-0.191163
-0.374562
-0.168661
0.450259
-0.0138102
-1.30336
-1.39528
2.68654
-0.735967
-0.386666
0.119634
0.267031
0.168154
0.675122
-2.20879
-1.15796
3.36675
0.219114
1.1917
-0.0125852
-0.452464
0.465049
2.4581
-0.590295
0.019108
0.571187
-0.233657
-0.753035
-1.12848
-2.94149
0.500644
-0.669453
0.032512
0.636941
2.29117
1.89744
1.93433
-0.680817
-1.25351
2.92829
0.120884
1.7892
-2.54516
0.755966
-2.44298
-0.0250456
2.46803
-2.43197
3.14501
-0.71304
0.442626
-0.0163439
-0.426282
-0.600074
2.89659
-0.593197
0.447536
0.145661
0.122409
-2.31623
1.11594
-0.444752
-0.671186
-2.79958
3.60589
-0.806307
-0.759115
1.66383
-0.904719
3.48497
-1.53538
-1.94959
0.0391963
-1.78926
1.75006
-0.539404
-0.0902798
-1.40751
2.91782
1.74855
0.764836
3.424
-1.09709
-0.567632
0.481141
-2.5575
0.114517
3.67424
-1.07532
-0.00351228
-3.43905
0.721901
-0.0760021
-0.457018
2.53114
-2.07412
1.64859
-0.424511
-1.22408
0.71054
-1.58623
0.875688
-0.499308
0.0324323
0.466876
-0.633396
-1.42224
2.05563
1.08601
-0.808622
-2.47073
-0.485254
2.95598
0.420465
0.730178
-1.15064
0.240298
0.387414
-3.29787
3.89866
-0.600799
-0.58328
-0.0506438
1.32461
0.636725
-1.96133
1.57393
1.12963
-2.70356
0.5105
1.44797
-0.0661911
3.56331
-0.00727334
2.35356
-2.34629
-0.1019
0.00616271
0.0822473
0.0681852
-0.150433
2.31391
-2.18684
-0.127069
1.19694
1.48455
-0.0187649
0.0252595
-0.0064946
-0.810841
2.38636
-1.57552
0.0139526
0.525154
-0.539106
1.60112
-1.78387
0.182751
-1.48781
-0.931284
2.41909
2.33615
-0.366467
0.832263
0.816328
-4.62041
1.45091
3.1695
0.862974
-2.40708
0.363723
-0.340453
-0.0232695
0.586313
-0.181913
-0.4044
0.0470545
-0.586459
-0.207931
2.3541
-2.14617
-0.341935
2.94597
2.27934
-1.87368
-0.405652
1.90502
-1.61233
-1.53572
0.560032
0.975686
0.11755
-1.25315
0.0416557
0.181178
-0.222833
0.199419
0.4248
0.442171
2.18133
-2.6235
0.636449
0.569168
0.396786
-2.74876
-1.3532
0.556863
0.796341
-0.95732
-0.751474
1.70879
1.46348
-0.690279
-2.51863
1.65192
1.03947
-0.796797
-0.242671
-1.19642
0.896866
0.299558
-1.28348
1.3838
-1.36368
1.67549
-0.311813
-4.36681
2.77303
1.59378
-0.068676
0.641159
-0.572483
-0.605062
0.509619
-0.212182
-3.75811
6.53809
-2.77999
-1.60747
2.06044
1.48708
-1.56181
0.0747301
0.620642
-0.49358
-0.127063
-3.27697
2.47906
0.797908
0.0228881
0.542475
-0.565363
0.169146
1.6635
-2.82834
1.54995
-0.757102
-1.30419
-1.44865
-2.0957
2.08843
1.41896
0.0635767
1.00089
0.440025
-1.44091
-1.00287
0.94211
0.0607562
0.663296
-0.862748
0.199452
-0.326553
-1.35443
1.68098
1.52265
1.71754
-3.24019
-2.20933
-0.58727
2.7966
0.284261
0.336381
2.00933
0.304581
-0.00453525
3.11083
-3.1063
0.129414
0.1795
-0.308914
0.0167695
0.5709
-0.725277
0.154377
-1.52453
-1.94983
1.62328
0.430041
0.618061
-0.494281
1.47002
0.263177
0.121212
-1.93406
0.105718
0.836632
-0.0981687
0.226276
-0.128108
-1.92456
-1.63736
3.56192
-2.97708
-1.64333
-1.51502
-0.201134
1.71616
0.403944
0.537904
-0.941848
0.00147514
3.32994
-2.1364
-1.19354
0.516215
1.94401
0.126812
1.25683
-1.87634
0.619515
-0.939848
2.36744
-1.42759
-1.68647
-0.646822
2.33329
-1.37004
0.568062
-1.10763
-0.428084
3.23199
-1.47315
-1.75883
0.5113
-0.622557
0.111256
1.0616
0.231784
-1.29339
-0.524588
0.593655
0.13309
-0.162143
0.0290526
-0.041155
-0.0658223
-0.636908
-0.0347772
1.87573
1.35626
-4.86772
2.78257
-1.02684
2.58173
0.142931
0.368369
-2.46721
0.780746
2.14648
-1.84921
-0.351419
-1.89182
0.408225
2.44878
-3.99477
2.01751
-2.06457
2.43324
-0.0760763
-0.577856
-0.364204
-0.652421
-0.301358
0.953779
-0.906264
-0.0886297
2.21567
0.399066
-2.61474
0.000969413
-0.745063
0.744094
-0.0323097
-1.57201
-0.813278
2.38529
2.5175
-0.175099
-2.96291
2.7515
0.211409
0.627391
-0.453967
-3.1165
-0.160465
-0.864578
2.80272
-0.0956504
-0.374244
3.49796
-1.37567
-2.12229
-1.77536
-0.173612
1.94897
0.364451
1.48877
-1.85323
-2.06429
0.128664
-0.560932
-0.286142
0.847074
-1.39428
1.79369
0.442539
1.48469
-1.92723
-1.38309
0.512388
0.870702
-2.67703
0.253451
2.42358
0.507689
1.04226
-0.684987
1.51302
0.765713
-0.736518
-0.436011
2.60071
-3.11501
0.383262
-1.75446
1.3712
0.0136247
0.363708
1.99366
0.116849
-2.11051
1.62341
-2.65025
0.0064008
0.0199892
-1.45264
2.32634
-0.873704
-1.59804
1.82346
-0.0430888
0.821317
-0.778228
-0.331326
0.143499
0.187827
0.687779
-0.366058
-0.773017
1.759
0.558743
-0.655358
-0.46924
0.504449
0.672764
-1.31425
0.0400546
-0.0612327
-0.587378
0.565558
0.0218203
0.619258
-0.688523
0.0692656
-1.41427
2.64201
0.301874
-1.8169
-0.0278234
-0.808868
0.0120654
1.65344
-1.66551
0.95805
-1.02008
0.735096
-2.22508
1.48998
-1.68798
0.708311
0.979665
2.70462
-4.30116
-0.467982
-0.0720445
-2.76923
0.694333
1.99221
-2.19516
-0.323477
-0.490002
0.675714
-1.23611
0.544221
0.34517
0.0271119
-0.372281
3.96336
-1.67219
2.22827
-0.430498
-0.675195
-0.476693
1.15189
-3.00648
1.20053
1.80595
-0.240147
0.265521
-0.481384
2.52237
0.487555
-0.275067
-3.08559
0.147472
-0.740669
0.212474
-0.0223637
-0.19011
-0.374755
2.59043
-0.000400791
0.403797
-0.403396
-0.2012
-3.99066
1.9118
2.07886
0.69419
0.593885
-1.28807
2.3396
-2.91468
0.575087
-1.56156
0.802447
-1.88412
-0.0650461
1.12665
2.65095
-2.91776
1.21085
-0.52147
-1.14655
2.00952
-3.15689
1.50533
1.65156
1.42803
-1.94849
0.520452
-2.04489
2.17246
-0.127562
1.11308
-1.49036
0.0421395
0.588081
0.786071
0.117835
-0.800884
-3.03987
-0.684744
0.436254
0.24849
0.710679
-2.48604
1.84665
-0.0851741
-1.73225
0.354962
0.783453
3.02928
-1.01468
-2.0146
-1.57106
0.797904
-1.75522
0.482867
-2.762
2.58838
-2.06346
1.05708
1.39811
-2.54109
3.52213
-0.981039
-6.47368
3.86793
2.60575
0.103643
-0.0794599
-0.10906
-2.87235
2.02635
0.846002
2.34157
-2.94164
-3.25043
-0.0474407
3.96749
-1.71776
0.79091
2.32653
-3.11744
-0.0685288
-0.452415
0.520943
-0.567407
1.24511
1.55853
-4.02422
1.48313
0.450103
0.635907
0.612113
1.05638
-1.6685
1.13041
-0.655139
-0.23005
-3.22562
3.45567
-1.00616
1.31552
-2.40515
-1.6367
-1.24085
2.87755
0.739937
-0.935439
-1.99852
0.651023
1.3475
-0.106012
-0.032096
0.138108
2.5746
-2.75353
0.713753
-2.16639
0.931119
1.41424
-2.34536
-0.284066
-0.1026
-2.36478
0.683496
1.68128
-2.4468
0.958995
1.43606
-2.37591
2.00898
-1.62572
-0.0651635
-0.0408481
0.00765807
2.61624
-1.74247
2.19077
-0.448304
2.194
0.0214513
-2.21545
-1.97925
-0.0471292
-0.760181
0.14621
2.33023
0.374665
0.0942569
-1.28897
0.252716
1.22613
1.4685
-0.117133
0.780429
-2.63332
-0.173975
-0.987739
4.53789
-1.14016
0.529234
0.536342
-1.06558
4.1574
0.245244
-4.40265
-0.332152
0.315808
-0.976224
-2.17285
-2.23706
-0.344931
-1.02304
2.64645
-0.953843
1.35046
-0.396621
-2.90675
0.982193
-0.83755
1.44966
-2.23187
-0.987204
-0.866888
-0.800542
0.967267
-2.16041
-0.142814
3.22658
-0.423864
0.862475
-3.48302
2.62055
0.364039
0.288419
0.769348
2.90783
-2.71415
-0.0475707
-0.643254
0.952812
-1.39916
1.50983
-1.3318
-0.928232
0.611865
0.522891
-1.13476
-2.5337
0.0572672
-0.359782
2.19548
-1.8357
-0.578616
-2.3843
-1.97551
2.22971
3.49043
-1.50282
-1.98762
-0.275356
0.832199
2.38489
-1.34107
-1.04382
0.765356
-0.831178
0.129772
-0.0475243
-0.445923
-0.0168488
0.462772
-0.405397
1.40629
-0.774826
3.1164
-0.0583467
-0.463739
-0.78369
-0.266801
1.05049
0.055196
2.5194
0.516833
0.950626
-1.46746
-1.06726
1.65597
1.17541
1.21095
-1.02007
-0.333137
1.50216
-0.529797
-0.972359
-0.0766402
-0.0410417
0.117682
0.267805
-2.1573
1.88949
-2.62914
0.392079
0.63184
2.89366
1.64423
-0.0111996
0.776556
0.394657
-1.3485
-2.46698
1.26327
-2.76056
0.915909
-1.31313
0.178547
-1.24091
-1.69523
2.93614
-3.88759
0.174652
0.341697
-0.51635
2.56822
-1.97268
2.02861
-1.66416
0.413108
1.5158
-1.92891
0.487683
-1.04861
1.2291
-3.41826
2.18916
0.154265
0.683037
-0.837303
-1.01143
2.43077
-1.41934
2.32192
-1.41917
-0.902753
2.88252
-0.154158
-2.72836
-1.55894
-2.43172
-0.912526
-0.0965591
2.04865
3.68457
-0.0404609
0.288055
-0.247594
-1.88537
-0.479412
2.0302
1.82832
-1.50552
1.84223
-0.336706
-0.579148
0.598256
0.194389
1.13873
-1.33312
0.381542
-0.381943
-0.303201
-2.56915
-1.97406
1.04333
-0.00386639
-0.869084
0.738038
0.205707
2.07919
-2.2849
-1.46065
-0.296712
3.43677
-3.5036
0.206407
-0.723275
-0.184659
-0.0578946
0.242554
0.283731
-1.05586
0.772126
1.07118
3.44969
-1.40463
2.38294
-1.07158
2.65988
-1.34436
-0.34237
-0.710315
1.05269
2.11335
0.250952
0.0404623
-1.93107
1.29767
2.06015
-2.00496
-1.42456
-1.27491
2.69948
-1.70173
-1.30476
-2.77956
2.82685
-0.0472935
0.492936
-1.00601
0.704655
1.62172
0.76122
-0.631545
-0.304901
0.936447
-0.55214
-1.08178
-2.71393
1.18821
1.52572
1.34874
-1.12963
0.0954765
0.268246
1.68625
-2.66247
1.24827
-1.03401
-0.595254
2.08014
-1.48488
1.58214
1.48413
0.831658
-2.31578
2.90637
-1.77437
-1.13201
-1.01329
-2.3899
3.49289
-1.10299
3.32304
-2.46057
-0.8111
0.799901
1.19632
2.28865
-0.620923
0.552394
0.12067
-0.0406493
2.70599
-1.5048
1.8413
2.12205
-1.17526
0.633514
0.541745
0.654672
-1.22905
2.109
-0.115337
4.20323
-3.41232
-1.90207
-0.237926
2.13999
0.542214
-0.0787869
-0.463427
0.451246
0.212078
0.394486
-2.82646
-0.793775
0.85723
1.9498
-1.7279
-0.221905
0.435239
1.06692
-0.439823
0.221837
0.675339
0.691976
-1.36731
-1.36587
2.58809
-0.220819
-1.5268
3.46269
-1.93588
-0.693906
1.11437
-0.550955
-0.832134
3.05404
-1.50224
-0.962731
3.4061
-1.0665
0.841871
-0.869694
-0.496041
0.427365
-0.826323
-0.415595
-0.0143557
1.46509
-0.428155
2.28647
-1.85832
-0.054035
0.0494929
-0.968205
0.326449
-0.947428
0.0349016
-2.86189
2.44091
0.641306
0.692458
-0.613743
-0.756152
1.3699
0.613034
0.304061
2.38066
1.39799
-3.77866
-0.304599
-0.0529823
0.357581
-2.07944
-0.666574
2.26091
1.22952
2.19249
-1.98679
-3.54431
-0.0222563
0.0531314
0.072595
1.28131
1.66694
-0.175861
-1.49108
1.03905
-0.080996
-0.0803622
-0.893925
-0.281335
-2.5685
-1.26231
1.37986
-1.42993
2.4449
1.5934
-1.55903
-0.0343673
0.542415
0.0231426
-0.191211
0.710667
-0.0914091
2.18716
0.582308
-2.76946
-0.112808
0.325282
-0.648611
0.399095
0.249516
-0.972205
0.0160082
0.956197
1.05032
1.28404
-2.33435
0.663684
0.799794
1.91709
-0.0399407
-0.747962
1.73241
-1.47969
0.0513848
-0.130411
0.0790257
-2.25028
1.45191
2.33623
-1.86187
-0.474352
0.0442825
-0.421146
0.376863
2.45382
-2.66175
2.41291
-1.06417
0.729009
1.29961
-0.383296
-0.0322983
-0.162417
0.0299265
0.13249
-1.56784
-0.363355
2.99504
-1.53182
-1.46322
4.79741
-2.30817
-2.48924
1.13
-1.97882
0.848823
-0.187306
1.46378
-0.0263108
-1.10658
2.0971
-0.990525
-0.139121
-0.023296
3.43223
0.166008
0.237789
2.46202
0.0175418
-2.47956
-0.35584
-0.250003
0.151834
0.0311571
-0.00589755
0.970992
1.35535
-0.70056
0.921343
0.000372595
-0.0184408
-0.3104
0.356398
-1.07999
1.4931
0.0453305
0.667322
-0.0503006
-0.892128
2.06878
-0.0538403
1.64724
-0.326357
-0.34506
-0.68496
1.3603
-0.571684
2.28743
-1.71574
-2.22367
-0.310253
-1.49913
1.9802
-0.481072
-0.263746
0.429754
0.86054
-0.180621
-0.0588934
-0.656173
0.715066
-2.24348
0.741235
0.350225
-0.383577
1.26382
-3.47261
0.550865
-2.99574
-0.767784
2.24435
-0.792218
1.40324
-0.711268
0.0394064
-1.72738
1.99519
0.000437945
-0.439772
0.306516
-1.41138
-0.290656
-1.62705
1.91771
0.136105
-0.87447
3.84909
-2.40068
-1.44841
-0.624249
0.197603
0.630833
0.0635844
-0.694418
-2.16861
0.426143
0.545672
0.0406412
-0.0208132
-0.365805
0.386618
0.671037
-2.17016
0.234435
1.20357
0.135106
-1.33867
-2.54438
1.9727
0.418054
0.109736
-0.52779
2.74792
-6.50603
-0.402013
-0.0051677
0.407181
0.543408
-0.125354
0.0126976
1.96868
-1.45818
1.61795
1.36519
-0.701502
-2.44165
0.804949
-1.80108
1.49091
0.310174
1.21518
-2.63974
-1.33217
-0.855094
2.18727
0.215146
1.07476
-0.811017
0.665386
2.92763
-0.38551
-2.54212
-0.00847027
-2.62485
1.81713
1.06539
1.05261
1.33228
-0.443948
-0.00851634
0.425214
-0.795222
-0.892648
0.0929096
-0.152762
0.0598526
0.102952
-2.23656
2.13361
-0.115765
0.768576
-0.652811
-0.156032
-2.05449
2.21052
-0.221721
-1.47637
-0.0806254
-0.0066195
1.7867
-0.897319
-0.551792
1.44911
-0.949882
-1.12655
1.20991
-0.687018
0.30526
0.115602
-0.420862
-1.65591
1.04217
-1.48483
-0.325995
-0.156487
0.482482
0.357789
0.785933
-1.14372
2.36428
-1.36837
-0.995915
0.128192
-1.50785
0.430541
-3.23012
-1.57292
-1.13199
2.70491
-2.54458
0.118891
2.42569
-3.68681
-2.11451
0.0696152
-0.741691
0.770625
-0.0289343
-2.71404
-0.968729
3.15588
1.01173
-0.536237
0.214009
-0.898969
-0.47265
1.27244
0.419526
0.272536
-1.05623
0.0504048
-0.407445
0.35704
-0.417178
0.0887073
-0.28461
0.328892
-0.701464
1.39565
-5.95134
3.55888
2.39246
-1.37857
1.3256
1.48539
0.564416
-0.022202
-1.16035
0.528809
-1.26695
-0.731567
-1.4642
0.545401
0.918802
0.0233825
0.59582
-0.619203
-1.06672
1.35045
-0.248479
1.93222
2.26692
-1.75008
1.52185
-2.47173
1.19034
-1.49648
0.306136
0.316119
-0.0116558
-0.240381
-0.0107062
-2.9125
1.67159
2.86658
1.93082
0.0425626
-0.548309
0.505747
-3.6577
1.4151
-0.228809
-0.291671
-0.525858
-0.0437498
-0.5983
0.64205
-1.50569
0.608373
-2.74486
2.44166
2.37412
-1.443
-0.590116
0.531533
0.0585831
0.233316
0.0393648
-0.422826
-2.94424
1.91528
1.02896
-0.404822
0.351839
-0.253813
0.873927
-0.620114
1.0115
1.40142
0.134445
0.0199487
-0.154393
-0.698766
0.744096
0.0626739
0.0657413
1.23624
-1.81853
2.74767
0.180618
0.698573
-2.78094
2.51123
-0.0891097
-2.42212
-0.449196
0.0261424
0.423053
1.386
-2.68936
-0.0185912
1.72375
-1.70516
-0.0417967
-0.0973452
0.139142
-1.79549
1.78807
0.00742602
-0.927988
1.66308
-0.947414
3.36603
3.76033
-0.696041
-3.06429
0.0550037
0.148628
-0.203632
-0.015222
-0.841572
-0.0597393
-0.825377
-0.0161952
0.150673
-0.900959
0.750286
-0.226735
2.49619
-2.26946
-2.41533
0.947226
1.46811
0.774606
2.49591
0.0922135
0.1395
-0.231713
1.47796
0.683832
-2.1618
0.0646628
0.280507
-0.903488
2.49336
-1.58987
-2.14661
0.244544
1.7443
0.767619
-2.09979
-0.00378872
-0.313909
0.317698
2.47479
-0.548567
-1.92622
0.8024
0.582265
-2.81335
1.41807
2.77014
-3.00019
-1.34233
0.256571
1.08576
-0.0996308
0.146747
0.477064
-0.623811
-0.246423
0.0235519
0.222871
-0.0250475
0.34348
-0.318432
0.421963
-0.5015
0.0795364
-1.50802
3.19427
-0.806915
0.78899
0.318875
-0.572689
0.998464
-1.46246
0.463993
-1.84531
-1.31158
-0.513782
0.0433724
0.303793
-0.0183279
-0.285465
1.41465
-0.599815
-0.814833
0.264425
1.68538
-0.654859
-0.348007
-1.52594
0.274483
0.912458
1.29298
-2.20544
-0.0129477
-0.0606899
0.0736376
-0.0679147
0.930058
0.112581
0.144302
-0.256883
2.33919
-0.895
-1.44419
-2.3745
0.22196
1.12694
-1.76098
0.132434
1.62855
3.3272
-0.705943
-0.497977
0.152609
-0.270364
0.0299831
-1.5862
2.17932
-0.593122
0.415079
0.072476
-0.174282
0.17747
-0.648708
0.590361
-0.460418
0.545553
-2.271
1.64883
0.62217
1.88538
-1.07366
-0.811715
4.76575
-3.69457
0.662879
0.140812
-0.608291
0.505234
-0.143741
-0.978422
-1.97705
-2.37483
-1.81102
0.704438
-0.438739
0.456573
0.378257
0.165151
-0.00247804
-0.0393187
2.28926
-2.31786
0.0286021
0.17654
-1.28183
0.578837
0.702991
0.292139
-0.935393
2.29756
-2.34579
-0.661181