/*--------------------------------*- C++ -*----------------------------------*\
| =========                 |                                                 |
| \\      /  F ield         | OpenFOAM: The Open Source CFD Toolbox           |
|  \\    /   O peration     | Version:  2306                                  |
|   \\  /    A nd           | Website:  www.openfoam.com                      |
|    \\/     M anipulation  |                                                 |
\*---------------------------------------------------------------------------*/
FoamFile
{
    version     2.0;
    format      ascii;
    arch        "LSB;label=32;scalar=64";
    class       volScalarField;
    location    "5";
    object      p;
}
// * * * * * * * * * * * * * * * * * * * * * * * * * * * * * * * * * * * * * //

dimensions      [0 2 -2 0 0 0 0];

internalField   nonuniform List<scalar> 
13486
(
19.7454
20.7667
2.15251
-128.158
-24.1202
4.18479
-36.2012
-11.0684
1.6423
17.5737
-42.5038
1.85185
20.3972
8.142
-19.8989
18.003
-22.4856
-12.3663
0.451519
18.015
-187.936
19.8656
20.4575
-42.9019
15.1324
-38.9375
-21.9064
-8.77928
0.0354118
-10.6022
-178.159
-8.71725
-18.4633
-3.92246
-10.6436
-4.53149
-14.2907
6.40348
4.24399
4.63902
-65.559
22.0043
3.51547
14.6998
14.7037
2.11518
-22.4204
-1.01462
-12.1123
-5.47646
14.5151
6.21271
4.36875
7.75158
-15.6203
-22.1941
1.57354
6.1276
-18.0198
-11.9529
-55.3859
-22.1144
-20.3137
-186.385
-52.6417
-16.9843
-106.713
23.1569
1.14527
15.903
-100.863
-12.9107
7.94714
-20.2731
-12.9813
1.57961
-21.8463
-21.6052
-22.8512
-0.115688
-2.18668
22.195
-20.8059
2.85449
19.6746
24.9013
-2.00765
14.457
16.9489
21.2264
-2.63099
-14.9165
16.7542
19.1241
0.35196
-1.21828
-22.6062
-85.8315
4.70013
-22.4178
-4.12731
8.64858
-95.4833
7.79319
28.0345
-22.3936
13.9125
3.70475
-22.8592
-21.4176
-4.19407
-19.0325
7.74736
5.16027
28.7068
-3.42029
15.758
-1.82092
8.14411
-30.0194
-11.3003
-51.3894
2.91581
4.72786
-4.17038
7.18416
-4.48614
9.2707
-0.023752
-42.5913
7.8777
-22.5708
-18.7291
-18.9417
14.4404
17.5782
36.9205
-20.3382
-28.978
-7.87411
-12.2006
3.2366
-1.22327
-0.353365
4.27896
-19.5624
-3.30601
37.9258
-6.09111
-0.215996
12.8355
-27.9369
-2.3885
22.8818
10.7168
1.94355
-30.7889
-93.5043
1.75686
-126.72
-2.17799
1.75901
-6.0878
21.3613
7.03315
5.42567
9.52684
36.5811
-4.42647
-18.76
-21.4843
10.6628
13.8205
-6.05355
-3.05621
-73.4833
8.92345
-13.3819
13.6486
-1.50908
1.71586
5.33447
-5.22249
-19.4949
1.35496
-8.68546
0.245659
-7.36461
-72.8312
-0.0688408
-17.9228
2.57098
6.45781
29.3653
4.5439
-39.5779
-32.8332
-2.32995
11.6203
6.12307
-163.626
9.13003
6.31416
-38.5007
-116.073
5.71789
-25.5783
11.7168
6.57275
1.8644
-7.94319
-44.2214
17.785
13.9897
4.15396
-3.00826
-11.001
21.1382
14.0923
-7.96372
-22.4106
-6.09186
-6.84934
-2.49201
5.67311
15.6072
2.58486
-133.582
-1.61834
-0.679879
1.61518
-125.584
-13.1862
23.3546
-160.707
13.5059
-5.05824
3.23037
14.0657
-2.26603
-20.1257
13.7627
5.49955
11.1037
-0.944581
16.1711
-0.768337
-24.0066
-19.9929
15.3424
-31.6705
29.3876
-5.58775
5.24967
0.590497
-69.649
-7.45673
-3.43882
-83.972
-20.5084
18.5221
0.518452
-19.1403
-67.4211
-28.0026
-20.7086
-0.801558
-195.858
8.49058
-6.60492
25.3877
14.3101
-11.3537
3.35993
15.7549
-21.5635
1.1483
2.47112
3.18523
-1.7978
3.0189
0.33593
14.5393
-50.8396
-47.4294
-22.2474
-10.9299
-0.929904
5.83071
8.81026
-156.747
-15.765
-0.801638
14.3305
-4.25579
-6.54182
-2.55288
2.95627
14.2494
-48.3529
-5.54095
-26.5176
-0.669436
-9.12366
-6.72271
-41.0544
-124.835
-0.830512
-6.90396
-20.9993
-7.43056
-128.747
11.3173
-17.4858
-59.247
17.8411
-23.3251
17.1845
12.2104
-1.15984
-13.4074
-7.04924
13.7167
19.7318
36.4789
-2.27063
-11.1966
-0.0622622
3.20192
-13.0196
14.5018
-16.8091
-2.07662
25.3974
-37.8787
-1.52339
28.6831
-27.0852
13.8068
-3.30569
-0.723283
19.7352
-14.5128
-5.61592
-27.9751
-0.772067
-3.62092
26.5989
-8.44104
-17.9422
-1.39718
3.79803
3.19625
-22.9946
14.1451
-15.7309
-20.6157
-4.48061
-10.1979
-40.7804
0.550716
0.586802
17.5078
14.3664
-11.3426
-0.725997
-5.97381
-22.6223
18.4257
-4.04372
3.11059
-3.1227
5.40088
-28.1586
6.46035
14.3529
13.7247
-8.48846
-56.9611
-10.3497
7.70034
-19.8099
23.0908
25.7243
-22.5054
1.12849
7.01562
13.6885
-22.7107
-173.159
17.0313
-11.304
11.7769
15.3362
26.3147
-69.4773
-127.567
-27.8263
-22.6164
-11.7885
-22.6997
17.2475
4.35786
-82.3816
-33.9136
-2.36798
18.9052
-13.3742
-2.09979
20.529
12.874
10.7926
-11.9923
14.4676
13.7074
28.3539
-19.4897
-27.9914
-20.8893
-2.52767
13.7521
-36.6035
26.8905
14.1405
0.583814
-7.11864
9.32764
14.7347
-22.1163
10.0567
20.0195
4.60651
11.6062
5.99036
-32.9093
-21.2231
23.6315
-10.958
-5.86765
22.746
-22.5425
-11.0716
-18.4888
-12.5281
-14.4297
9.58023
28.187
20.3601
-10.6175
-15.9874
-29.3786
14.0179
17.4073
-5.76311
3.07711
14.1328
-20.2672
-79.1821
-53.9085
-25.3036
11.7242
13.4827
-2.26082
10.0016
-160.011
16.0729
-1.04331
32.9507
16.1535
5.95988
-14.0479
-7.2478
-0.104472
28.3941
3.31678
-43.8169
0.117736
-1.3882
-22.5842
3.58832
14.0524
1.9137
3.92834
20.6712
-8.41925
-22.554
13.5543
-167.973
36.167
13.6329
14.5826
14.38
-68.559
3.92744
31.0489
-31.2336
19.1421
-45.2435
9.78632
-192.568
0.0447066
3.50104
-22.3838
17.5054
-3.89894
-30.5869
0.0225976
3.55184
26.1501
9.55596
1.36811
-3.01493
-3.57853
4.44257
-29.8206
14.377
-20.5113
22.9845
-78.757
12.8246
22.4361
-20.007
-6.0533
-1.00213
-168.562
-23.6388
-0.494805
-23.9166
3.46025
16.756
-22.7349
-33.7438
-22.9539
-0.624317
13.6682
9.39378
-19.7908
-89.0439
-35.2362
-85.7118
-9.53171
-48.3758
3.00898
-2.92983
24.8423
-4.95434
17.6841
-23.36
-31.9425
1.41082
11.0926
-30.9401
10.3669
3.14892
-58.4187
-4.26285
6.88968
-23.1472
-22.0139
14.5708
15.3087
12.2024
20.299
3.69743
13.8069
9.31425
12.3201
5.07981
14.0047
-22.2213
17.2257
-4.35504
-0.525659
-20.1442
13.1477
-22.8296
3.26869
27.4491
19.1601
-60.7828
-73.9042
11.8537
5.52445
5.48161
18.5319
-48.2358
-25.9781
6.21359
17.5631
8.38391
10.2373
-75.5755
19.4112
-4.58013
5.53439
14.1979
-16.1051
-0.0109049
22.2092
-10.9763
1.49644
-10.4867
10.806
-2.27997
18.8685
-2.97131
-0.0463594
0.63902
7.95014
-10.5303
26.2252
10.0594
25.7175
-136.954
10.0987
-6.33572
-20.9258
-25.0726
15.1055
28.639
-84.4576
-20.8668
-12.4306
-9.16422
15.3016
-19.1374
7.83258
3.09007
-21.4936
-18.016
-24.3533
12.8513
-2.83659
14.1636
-3.41811
22.8491
3.6443
-92.913
-28.0533
-7.10635
10.2151
-44.5208
9.83809
-22.4611
13.1919
-1.04881
3.33067
-59.4083
23.0183
0.518971
-1.9246
21.7714
14.4566
-20.9769
-5.03134
-2.65836
7.26995
-5.46517
5.4755
-57.0738
10.7212
5.34006
10.0482
2.70658
22.4591
5.35338
-91.1104
13.1478
-34.1396
3.23153
-10.5494
13.989
12.6626
-17.9346
3.29457
-5.4968
3.30451
13.6116
10.1209
2.37411
2.95727
-80.6396
5.3866
19.6904
-39.153
-7.10376
4.07757
24.6253
-6.9242
7.63753
25.7405
2.8253
-20.879
8.90336
-20.568
17.6078
4.61061
14.1587
-128.001
-19.4805
-44.822
-1.86643
-22.5024
13.6786
27.3548
-4.5257
-27.8785
2.03277
19.9641
-13.2495
11.9627
-61.0313
29.1257
-18.9895
-0.686298
-6.22138
14.0845
16.8188
18.3919
-9.61083
-182.264
21.8132
14.097
-33.7655
5.65927
-63.5873
-4.24429
-9.77088
13.51
-15.9866
2.56346
18.2003
-31.6764
5.70779
-12.1615
-26.0868
-4.91603
7.13517
11.0758
17.9913
-122.87
1.54366
-19.1916
-179.854
2.62838
-2.95244
-0.163039
14.1765
9.57347
2.91571
5.81469
-109.066
-7.52225
-27.0562
0.678662
-122.962
-42.5535
-2.39241
-68.7091
-5.64894
20.7793
-48.2032
-9.81703
21.7829
19.0134
-62.5876
-41.1093
-0.300847
-22.6771
4.42805
-15.4189
8.28412
-22.8608
-22.5218
11.6149
13.9234
1.30411
12.6503
-28.5163
4.76696
-3.64732
18.4652
-0.432841
-101.454
20.6204
17.5568
-24.9359
-66.8021
2.63319
-47.2557
0.425183
2.98427
-9.5105
-92.4612
4.95841
13.977
26.1078
10.4601
7.74443
6.17449
13.732
17.5457
18.7356
1.13559
11.5058
25.3227
-31.8802
-2.02689
8.1727
1.01522
23.43
1.57694
23.2016
0.221242
2.24828
1.83371
5.13634
-7.74158
15.9001
26.3128
14.0358
13.1307
-18.5366
2.48545
-1.86224
-23.1303
-3.02369
13.0707
4.70816
-87.2867
-61.8589
12.892
-9.13362
-19.7286
-24.5382
0.969907
-16.9721
-32.8217
-81.0717
12.5298
-177.259
19.4863
-116.126
-20.3733
4.77773
14.2536
-25.6354
8.51977
-56.9182
16.8261
-25.3486
-15.9142
0.792516
-10.2014
10.544
14.1921
3.5408
13.4062
-8.44459
-0.865914
-21.5753
5.33431
-16.7484
9.92437
-9.71315
-47.5593
-78.6204
19.5514
-8.79128
-94.2199
-44.8532
11.2883
-69.7611
-12.4514
2.14573
-17.0821
-5.17624
-11.236
-55.2017
20.4501
14.153
6.50665
12.1531
11.9332
-5.6918
14.8744
7.90024
5.53658
18.9399
-1.90655
2.85802
0.542963
5.52607
-17.2916
16.0477
11.1072
-33.4221
14.1907
-12.292
-3.625
27.9961
5.03321
-8.41167
13.7533
-3.9929
7.15774
0.42105
-168.799
11.1801
5.62311
2.9624
5.09725
-1.97538
9.01796
-20.6316
-0.776778
14.1572
-0.878253
24.9593
16.6825
13.3355
1.9237
18.4556
-1.70715
3.14471
-13.6694
5.3477
-109.616
-1.01154
-20.7053
-13.7347
-58.2766
9.40991
-25.4671
-29.8301
-89.6995
-109.411
-5.48649
15.3846
-13.2423
-2.90277
-18.6716
13.6462
26.0614
1.80392
-66.6526
14.0137
-97.1635
10.483
-119.7
1.88808
8.16718
7.41306
22.5187
-0.749514
13.8092
-8.37505
15.0497
4.41665
16.9508
-62.9581
-22.8965
9.21354
-88.1564
-0.631582
-8.53039
-79.0793
20.2045
13.6934
18.4113
16.276
18.3442
10.2726
-2.40475
0.926383
13.7895
13.6111
1.25094
2.28453
-8.21682
10.508
-2.82113
2.68447
-19.8941
36.58
2.31352
5.50407
26.3483
19.1348
-0.844482
-80.6749
5.78176
13.6331
-62.0046
-1.77591
-19.8153
2.70385
13.7933
14.605
1.07429
1.87601
14.909
-0.936845
-1.62456
16.85
-1.41299
-17.3388
-27.3335
2.97677
-7.58718
16.0419
24.1235
-10.2318
-107.741
-15.3267
-5.23186
11.103
1.97012
22.8951
8.03077
31.2075
9.73718
0.883518
11.9027
-22.8487
-22.6816
-68.2906
11.3527
3.30408
-17.9032
-153.887
12.1446
15.1448
-2.90768
-20.3982
-23.3667
-17.0276
-5.34041
-7.61746
-0.195682
-1.15559
11.9754
14.4636
17.9613
4.25363
-0.0174041
-17.2181
-9.19101
3.27993
-63.4745
18.4189
-0.613486
-144.457
9.6504
-17.7803
-3.27609
-62.5659
-0.171186
15.0353
-78.9564
-17.5975
-5.05767
-5.11198
-21.5276
3.6114
-5.32586
1.91902
14.0303
9.02859
-19.4758
14.349
5.30506
17.4538
13.6548
12.9162
-0.127943
5.35657
22.6951
31.8707
2.78748
-29.4534
14.5363
-2.57364
22.8394
-14.7843
-16.5044
-58.3207
2.51408
6.30599
-19.6974
13.5975
9.20579
-5.16424
-52.013
-12.7143
5.10082
27.6326
-26.1326
15.1539
-22.6426
22.8507
22.4194
3.1162
-5.5267
-59.9638
24.9558
-0.00821549
30.2303
-33.3569
-8.47837
12.2825
3.97065
-29.1899
-19.308
-8.8213
17.7633
-109.636
-26.3172
19.2306
17.8792
5.29588
-9.49339
-33.2322
10.1071
4.18859
7.99112
13.5647
-0.582022
-43.1967
16.0171
-6.16888
-13.2781
-11.2704
17.0434
8.43186
-63.3743
-123.46
0.17061
14.654
20.8788
-0.849923
-0.593468
-8.34751
27.9467
-28.2361
-11.3938
23.0845
14.4371
2.67973
-2.80703
-123.426
-15.1429
-12.4838
-29.0045
-1.23305
-61.1307
6.5664
-5.8759
-22.5782
-22.4699
-19.6113
-68.0417
-22.6491
-24.2968
30.8819
16.0689
-30.5715
-23.0157
-7.2544
10.0148
-0.775828
30.969
-16.7665
-7.30151
14.5354
-9.52464
-61.8634
-12.2616
-13.422
9.33257
32.5118
0.74139
3.30857
-45.7468
2.13379
-14.3559
-4.65346
2.65117
16.182
18.2114
14.549
-179.871
0.0321128
4.07839
0.362775
13.6261
-0.460725
15.2204
29.3217
24.8916
-9.63395
14.505
17.1132
-7.23033
12.9415
7.3963
24.1216
12.5844
6.57561
17.2433
13.3627
-10.5781
-1.62446
17.8597
-15.7429
1.00382
-26.1318
-20.5443
3.88852
10.4877
11.4296
-2.01715
22.1798
21.6551
-10.6174
-18.961
2.05591
-71.6081
3.37948
17.157
16.7253
-19.7288
13.823
0.109731
-2.64922
0.595606
-51.58
-40.6853
-10.249
32.6813
-21.4573
-41.0876
20.0131
3.64398
4.39049
12.106
2.8018
14.7669
-42.7256
-8.05549
-0.494312
-10.1345
-16.2944
-12.6303
26.7952
18.9773
7.15176
39.5113
21.2449
-16.2341
7.45126
-23.2086
1.68398
22.3465
-131.513
5.92074
-2.11562
-25.6673
-16.2118
11.6836
-82.0413
-2.33438
17.1603
32.7943
-22.7483
-1.67728
3.21727
2.81714
1.33157
-157.715
21.3024
12.2255
0.723724
11.2822
-12.0177
-41.252
-22.4838
24.7185
-58.182
29.9518
-97.9861
0.491546
-23.381
-30.4817
-19.5463
0.0239228
4.96471
10.3916
-5.67092
10.4606
-136.985
-0.426415
15.034
-20.136
-8.13642
-15.3083
-4.75552
5.95542
-144.703
-51.0123
-1.80971
-0.829817
27.4914
13.9937
-4.83446
-0.248789
38.2537
5.56898
-22.2067
-4.05564
5.73549
14.9615
1.5337
16.0541
-8.88439
-9.27214
-13.5405
-0.458768
1.97506
20.8873
-19.4142
-27.5975
-22.4146
25.3694
-77.0872
-0.167548
13.8944
-71.2171
-6.75947
13.8577
-25.8775
-23.228
-79.1334
14.4931
6.44088
13.5538
-17.1523
-20.1758
-21.9611
-23.1725
-12.8459
0.0768454
-1.3522
-2.99703
-8.0156
-100.115
-23.3088
-35.0184
18.8009
-182.993
25.6843
-33.8575
-0.986881
-8.8379
-9.0401
14.8082
-4.63217
22.1445
-1.94982
-13.7925
-27.8357
12.14
-19.8173
14.1782
-3.26336
23.9138
16.3711
-1.40913
11.307
22.3883
3.58263
11.1506
-10.0821
-108.822
-5.32671
-19.1366
4.92889
-17.9736
-18.4319
1.79368
-33.2945
2.00869
-31.2498
-9.22571
-16.3861
-8.25097
24.0354
1.4374
-0.0478089
3.59043
14.0786
-39.631
-1.48392
4.4773
2.42005
1.55986
3.03415
-1.26789
14.0318
14.2956
1.63338
15.7791
16.4507
6.61277
-8.50051
5.55693
10.7318
-0.766373
-8.24684
-21.1268
-102.81
-8.77013
-124.623
-2.58223
5.30046
5.02517
-20.0232
-5.77601
-66.5182
-36.6591
-13.7745
11.1206
-23.8051
14.9091
37.0141
12.2386
14.9351
12.8392
9.00111
2.05292
2.37035
-11.5796
-89.649
3.87751
12.5424
0.525462
21.2416
2.15994
14.2761
-8.3777
-4.62333
-23.5265
-27.0937
31.6947
-136.744
14.134
14.3868
16.0488
3.44934
12.1698
-0.358013
-23.0609
2.75062
-22.5554
-22.3616
12.727
14.471
-14.3465
13.489
17.3247
-72.6299
-83.6082
5.09175
5.15352
17.2802
12.7348
17.6019
-5.39203
2.55371
-12.3888
-8.1519
-7.6554
17.8485
29.4858
-14.4421
-24.8184
-23.2965
-3.71543
3.39062
3.50689
-34.7822
-29.3303
-6.57906
-59.6498
-14.1361
35.5699
11.5496
-10.378
-188.647
-36.4835
-23.9978
-22.5202
-33.4427
-32.8193
19.9231
12.6183
-11.1291
30.0994
-4.28029
-29.3614
15.6319
-23.8464
3.96764
-15.8927
10.59
1.10213
-9.91615
-8.3918
-2.97344
-21.5084
-156.81
17.8791
-64.8573
7.21549
-22.4
14.4448
11.6938
-70.6388
14.2707
9.13185
18.3541
22.8201
3.86517
3.09426
33.2577
-22.4847
-2.54827
-44.0631
-87.2271
20.4373
-117.248
25.4475
12.5177
-7.47691
-22.1449
-23.1831
16.7803
-100.258
-18.2206
-5.96417
6.72192
-10.1914
13.4074
8.56422
-9.10304
25.3833
-19.2194
-36.2242
17.3688
-1.90872
16.9178
-31.7772
36.8508
5.97487
-26.563
17.5371
-3.53491
14.2251
2.74458
8.19047
3.48276
-8.40348
-14.9014
4.53098
2.34543
-187.24
-13.9197
2.25469
12.0432
12.9174
-134.323
1.79796
-34.8862
13.1118
1.36679
-83.8073
15.5547
-19.0971
14.486
15.2389
-22.4403
19.9728
-70.0307
31.422
5.60668
-66.7
0.735987
-17.2828
19.0835
16.729
-68.3763
13.395
16.1161
-29.0773
4.88444
2.55899
7.22244
-30.2233
-22.4235
-19.6466
-145.793
14.3336
-19.2662
-74.3261
-7.40068
17.9079
14.2877
20.1837
-19.0523
12.5817
3.72982
1.14065
12.8228
-107.352
-142.804
25.0555
2.92953
-25.2434
-15.0805
-24.2919
-97.8543
14.0863
-22.4236
-2.62148
16.9537
-10.7034
13.0781
-19.761
-1.97739
28.3257
-11.7271
17.7133
-5.5936
-104.454
10.3739
2.11189
17.642
28.2917
7.05356
-0.275169
30.5021
12.1504
19.1763
-22.9496
-19.6222
-23.1211
-7.79057
-86.6458
-20.2409
-5.36035
-20.345
-3.53775
-0.0746
-17.3232
-11.2387
-106.032
-16.2295
19.1157
-34.4623
-1.69626
13.4915
13.8842
3.3331
-7.60787
-76.1261
-22.5884
-21.4387
-4.22869
19.245
-84.7721
18.3603
-22.0028
14.2099
-22.7046
-21.9421
-44.4896
8.11996
13.7575
9.49093
-0.648204
13.7572
-15.8198
15.0365
23.3315
-35.9188
-38.0952
-71.1749
15.7416
7.47453
-39.3269
-16.9116
6.14602
4.11471
-36.2436
1.41031
-12.0966
0.340941
13.7778
7.24179
8.49289
-85.6471
20.3788
-36.23
10.5755
-1.04767
14.7118
9.03642
13.2141
0.867104
-67.4475
-141.162
-23.797
-17.6776
-102.571
-65.1659
-7.61548
-104.826
15.2528
5.47317
14.11
-141.178
-27.2248
-11.4889
7.42083
9.00845
-23.5583
5.13644
1.85504
-92.0286
-82.487
-40.9436
-0.0192424
14.2772
6.63689
2.59196
-13.3325
3.9232
-82.8394
-6.34047
-27.3703
14.2634
-1.49031
-83.2911
12.399
3.33234
10.4405
24.6655
23.3094
-12.3307
-66.3154
6.91932
-5.69518
13.4314
1.64317
-60.3949
-67.0746
-49.9512
-14.0873
0.882956
-61.2449
33.5265
-11.6744
7.92214
-1.97083
-8.78178
8.60103
-128.151
1.09092
7.95697
3.57836
15.6223
-16.5072
13.8796
-12.3725
-38.6655
-151.115
-19.3652
-67.2578
7.02881
27.7106
13.3933
-27.9544
-53.3506
17.1921
-22.0233
-103.227
-9.41099
3.51834
-48.5457
-68.539
-75.1554
-10.5395
-0.698676
-3.74067
-19.7707
1.96774
15.5211
-6.82052
-12.9431
16.562
6.33403
-44.7619
4.76389
2.73422
0.323767
31.0007
-11.9479
-2.57956
-4.71234
-2.08484
-6.88717
2.34519
-17.0675
-6.37277
0.955765
-10.6903
-99.6684
-36.886
17.333
1.90949
9.12981
-7.19207
-4.44917
28.4362
-144.566
7.83891
7.10742
11.4408
6.88718
-1.40681
-22.6972
22.5916
15.497
14.8729
5.35409
-87.815
16.3581
8.16063
22.5169
-34.2895
15.9655
16.5169
15.4954
3.06222
-20.2259
10.3601
-22.6348
-11.5744
12.605
10.6006
7.35928
18.1949
2.82891
21.2666
-9.31299
8.46786
5.56198
-1.71365
-37.4693
14.3448
-4.77788
13.5328
31.0528
15.1928
1.2813
-8.09879
-1.90548
14.2733
8.28485
-22.5932
0.28894
-130.222
15.4687
-56.7005
19.4585
9.65988
38.2844
24.4918
-17.2146
-22.1658
-44.1198
6.97532
24.7162
-6.30042
5.47582
3.70317
34.9961
14.3962
-1.45196
31.5218
-3.16623
11.6505
-2.0458
7.06323
3.67244
2.80113
7.82867
12.6786
9.245
-22.4069
1.45305
-30.0488
-5.7481
-58.7429
-22.042
25.0108
17.6076
2.11254
-40.1847
0.365248
9.59184
1.3664
0.729908
13.2483
3.11367
-16.4945
-192.176
15.2325
-11.5617
-76.774
20.4416
-9.17878
-1.56982
-7.88096
28.9322
-105.259
18.37
-45.5265
32.33
-11.91
-12.4374
-16.1813
4.42443
2.54716
14.0307
8.20623
-49.0802
-8.83854
-98.6179
15.0325
5.00914
6.10379
-110.31
-20.2204
-48.324
6.92515
-24.521
-78.8361
-56.3739
14.3332
29.7826
-28.9819
-121.467
0.0616045
-93.5532
12.1785
-4.88988
-19.1365
-29.3205
-23.5537
17.4359
-40.0803
-2.22606
-7.32156
-25.4679
-84.2836
8.85537
14.5011
9.56704
14.409
27.6738
-54.3638
33.6849
-15.3725
30.5958
-71.5322
-4.98732
25.7389
12.1653
-39.8461
-4.35433
8.90138
0.936484
-113.153
-22.3982
2.93329
-10.1786
-17.367
-2.60486
-0.155881
11.3731
6.99017
-86.5138
11.6105
-12.382
-4.08231
-107.679
6.79013
-9.36514
-145.18
-9.02696
28.2525
14.2897
29.2099
-0.173049
-23.1528
12.4179
-0.843032
-18.378
14.4071
12.7472
32.1305
14.694
17.8197
-23.2719
-18.9981
31.0023
30.0702
16.5556
-0.761095
-83.941
-22.2532
1.37161
-15.2357
-8.15185
22.8542
-132.155
8.63368
-38.1539
29.8718
1.69208
7.73033
-152.141
-3.10872
22.9131
35.5855
33.1519
3.91103
14.3548
-22.6302
-15.3379
15.5005
33.7249
-75.694
-22.6935
-11.7551
0.787012
2.61917
3.602
0.858054
2.39912
3.90028
-0.309753
-94.8514
10.9523
15.6784
-49.7716
9.72856
-146.886
-0.0833971
23.6014
-38.4073
-11.5271
-46.7958
12.5062
15.1659
-53.3324
-54.0824
-89.4862
2.60987
36.8254
-23.6672
-21.2664
-76.0468
4.53697
-81.1739
-47.0305
-75.6672
-22.4032
-99.603
-19.708
-0.14237
-17.6117
14.7921
-37.8193
7.39882
35.5124
8.7128
1.3644
-2.73886
8.69673
-18.9636
-4.9163
23.696
11.6816
1.53343
-16.7734
8.12737
11.2877
-89.7691
-64.9819
-9.94531
23.9686
-8.23073
14.2914
6.55581
20.119
5.0471
-137.93
3.4252
13.8551
-6.635
15.4453
-2.98061
31.5957
-108.488
2.43588
-35.9172
15.5424
-73.4772
-7.65394
-108.628
2.87245
-38.199
-85.1226
-119.496
6.3563
0.250291
-35.2977
-0.55102
2.25136
-22.8317
-1.44033
-115.578
13.6107
29.7581
-4.34215
-20.0457
-0.409822
3.78538
-8.72688
6.21885
-0.760235
-22.4561
-35.9249
-10.0027
-36.507
7.09736
7.3203
-83.4835
-37.8008
-0.642925
13.7887
9.93209
-46.0579
3.14992
-74.0278
-16.5049
-8.47195
-8.26556
-51.8593
19.167
-149.076
-28.1246
-15.5491
-43.2039
-24.8645
-58.5628
38.5866
-8.307
-12.4168
17.1006
29.9643
23.7509
-120.103
-2.20484
13.8722
8.47247
-20.8305
29.714
-2.70084
-10.0339
38.3095
5.60883
-43.9353
8.54175
22.3077
14.5925
-0.440394
24.5098
14.1124
0.981592
3.6083
12.2575
1.94966
-22.6582
27.2097
14.9602
4.95406
-110.693
-30.3657
-8.54236
-155.325
-4.01545
1.69873
2.5855
16.0749
3.59662
-22.0246
24.7651
25.8838
-24.1119
-1.28858
-2.00107
-8.88397
-13.6774
13.8509
-97.8064
-6.98536
17.3402
30.3181
-22.5279
6.56237
10.9323
10.3711
-12.5555
0.399476
-21.9422
-2.55188
-27.9487
6.96355
-25.6578
-12.673
1.57006
-123.247
12.2873
-90.7521
-2.64063
10.3477
-18.8559
-132.926
-22.3708
4.71546
-1.8126
-7.23976
11.5989
-71.5818
-6.29646
-18.9785
-1.78452
12.6843
-26.0728
30.1437
-134.975
34.1884
-2.28334
-9.78723
3.11119
14.7079
-2.12314
-16.4228
2.95216
6.77459
3.42431
-8.74687
39.5289
10.3771
-21.5848
-8.04208
-13.9109
-14.7197
3.48635
-9.77656
14.0205
-193.228
-144.044
-22.4761
-45.0835
0.157434
-21.5446
13.5418
-1.62758
23.9393
31.3389
-22.5368
-22.3812
8.11541
-3.56683
25.2167
-65.7388
6.64295
11.5675
14.1634
-121.739
-93.0768
5.7866
9.01942
-7.08019
-122.902
-43.4009
0.863503
-2.4659
-14.9472
4.96239
-14.1922
-13.2882
4.09946
-105.224
-147.375
-5.51462
-17.0761
31.5043
-17.075
14.5206
-3.32044
-7.37686
5.23878
-17.2329
10.3113
-85.5085
-21.798
24.8759
12.362
6.63432
-22.201
33.974
-113.993
-19.8721
-196.205
-20.7831
-70.0867
-151.965
21.5976
6.25563
-1.25515
11.4064
-134.879
-38.4691
-13.2839
-0.681188
-14.3903
6.77183
11.9868
4.87879
-38.6418
-19.5865
-58.8059
-10.697
-4.2512
-5.0391
32.3354
14.0442
-63.6678
-23.1071
9.62507
22.7374
-12.9007
-22.056
-19.9148
18.0343
0.473435
-11.8462
15.5841
-38.1943
24.44
-3.05858
16.5526
-27.7662
-10.1939
-73.2368
-180.846
-23.34
10.9159
-22.785
-55.3287
8.91311
-94.5927
4.68944
18.2135
14.2331
17.3913
14.2771
-10.9962
2.29654
6.93416
1.59713
-0.715443
8.56155
-13.9795
25.0067
-112.214
16.6635
-33.7551
29.5458
-136.349
-1.84832
27.6767
-115.219
-16.6439
-22.8539
17.3299
27.561
13.5651
-6.23391
13.9352
12.5532
-32.1755
14.1276
-130.938
14.7691
-117.971
-171.925
-22.5533
-22.5582
12.1269
-30.0449
-23.2189
-5.82022
26.7658
5.67906
7.20785
-22.6413
-5.81437
-11.9635
-2.27467
14.3549
2.53555
-23.23
33.189
7.848
23.5289
13.9407
-55.2848
-16.2004
-3.62609
-12.1159
-3.13714
-6.92742
-8.49967
3.22909
2.1568
-168.634
33.3397
17.1134
-8.48168
-65.9206
1.38305
-102.888
15.5493
10.8244
2.37152
-150.16
10.8247
3.98761
-6.60394
-18.8775
-14.5232
5.29994
24.4514
-22.544
27.7355
36.0675
29.1443
-10.5197
11.8013
-29.9685
13.5998
11.1211
18.3468
5.36923
16.5157
35.0664
15.6619
-22.4667
-60.5643
-20.569
35.2312
-4.80327
-62.0843
-52.7979
18.852
25.1403
8.06797
-8.43717
3.60042
21.5975
-20.212
2.22333
-58.0273
11.7607
8.75775
-49.9757
-3.06813
-23.1452
-28.4521
-97.0849
-9.42414
-28.1089
11.3995
6.18909
3.09112
2.94981
-32.7011
-23.2451
-72.5351
-30.6396
-25.496
-22.5808
15.4498
22.242
-119.287
23.6144
15.9099
25.7794
3.02399
-88.4785
5.4012
-22.8576
18.0666
-30.996
17.2719
15.6206
8.42579
17.5883
-0.0882558
13.1049
-7.14157
12.2356
-7.04557
-19.0906
-38.5397
0.977414
12.6868
-86.3727
-123.083
-85.4827
28.4907
11.4293
13.2158
-7.43327
20.6401
-13.1593
2.30191
-6.53695
-8.62097
2.71649
-128.372
-22.2199
-4.30911
-22.4119
-3.44761
-68.0886
-2.01158
-23.1034
-20.0692
-2.11542
27.1059
31.2882
23.8204
-87.8213
2.33035
-31.9563
3.26098
24.1392
9.46702
12.3923
-77.8462
-5.60668
-8.65443
5.43866
14.8941
3.70545
5.65799
-22.3324
4.21561
-22.383
14.0378
5.86809
13.8173
-24.6382
3.08996
-110.101
-22.993
-22.7232
-7.48042
25.5877
-16.0384
-7.5307
-58.6207
9.62413
14.3978
6.217
13.285
-23.6413
21.3081
28.0803
-127.704
4.58077
17.0375
-118.663
-61.3039
6.52571
16.54
18.4807
-23.9331
-17.4405
8.09605
26.7346
-23.1701
-71.2682
4.97938
21.5978
6.17007
-6.30396
-89.6933
12.7656
14.2364
14.3422
4.65419
-14.6451
5.79141
34.0259
-20.6206
-8.87492
5.97525
-22.6423
6.44919
-4.26349
-31.5468
-19.2303
-155.996
13.5353
-127.661
-21.2614
11.924
16.5321
3.44689
-10.9924
-63.9634
3.54563
-22.0251
-28.4739
-7.59967
-5.41224
-29.3745
19.4432
4.44083
6.36606
0.431494
23.368
16.1932
-11.9958
13.5158
-22.5333
14.4417
0.607135
-7.75472
-36.8942
14.9784
-1.04135
-4.84296
0.560374
-3.67042
13.3012
-34.2717
-6.14315
-96.1568
-2.21781
13.4336
-26.0233
28.7814
-23.3577
-22.4784
-71.0074
17.4332
5.15578
10.981
-22.2115
21.1054
-73.7002
-14.5341
4.10925
-21.7909
15.3701
-4.3295
0.36919
-9.41527
-19.0677
14.4134
-22.4804
-113.488
-1.99532
-31.6239
-29.3133
-5.96055
23.6251
-10.9285
-31.8131
11.0684
-19.6158
17.9812
-37.4787
6.6509
19.4088
15.0566
-5.21168
-111.787
-56.8456
5.85888
11.1744
12.6345
-25.6013
-73.5509
3.42123
-24.9162
13.0254
36.3065
2.70632
13.0497
17.692
9.97524
15.4342
-69.28
-22.9514
-91.8373
13.6368
34.8615
3.71465
-2.19029
14.0382
-6.73248
-4.67542
-16.6908
6.58764
-2.11362
28.8012
-75.7596
-19.2898
31.5531
14.4821
-1.13223
6.09594
11.5772
0.0383637
-119.475
-77.6056
5.84537
-20.2205
-19.0756
11.5866
-87.8228
-78.2616
-40.6259
1.00299
1.968
5.20588
8.3237
11.4661
12.0446
-11.8511
6.04952
3.0553
26.2588
19.4701
-21.5847
-6.39416
7.08931
15.7984
4.94312
-6.98601
-5.75777
7.91158
-7.72861
23.5377
7.65686
1.35999
-33.9965
3.78818
8.41393
-14.1616
15.1046
7.23278
2.76159
-24.9364
2.73582
-21.5011
3.46077
-18.0853
13.1575
-46.81
-24.7738
18.8816
-30.6759
-16.3016
-37.8
24.9098
-18.89
-1.44665
10.6451
-22.344
19.5707
14.5836
-17.7272
15.523
1.08635
6.46851
-22.0618
-33.2814
3.06624
19.7069
-5.10807
-26.5937
-23.3165
2.95275
-20.5931
-38.8375
-20.2492
1.43853
11.152
14.0051
9.48955
11.92
-8.00932
16.2353
10.9594
-22.418
10.4284
-20.9391
-11.2553
4.07508
-1.88012
14.3166
-86.8482
-21.1126
-24.6047
11.5221
-84.4154
-22.4238
2.03317
-91.3288
-22.5581
-22.7278
-37.322
3.12726
-23.7672
-4.98298
-24.4879
15.058
14.7132
-17.4955
17.9602
-66.6041
22.8719
-17.2735
6.93329
-2.99194
6.48634
-1.62957
-18.9301
-22.6342
15.4113
19.4851
25.0684
-35.592
-22.8519
-72.8728
2.798
0.963544
-23.079
-35.6698
-22.4699
-1.68977
-30.1943
-15.6862
-50.9717
7.19372
21.2784
-0.0134012
6.52678
10.8764
-9.14398
-23.0566
24.1569
30.7252
-19.4707
6.29271
7.27362
-0.713322
-108.335
17.1664
19.1432
-18.5966
-18.1121
-91.7969
-73.0236
-1.56924
-22.4335
1.40025
17.0036
-28.0245
17.223
-29.3711
-22.2517
15.3166
0.0268329
-22.4409
8.08447
19.0181
-22.4056
1.61663
-22.8961
-23.5108
-22.3717
25.784
-22.3385
4.72244
-36.0845
10.6303
-22.4765
-6.04226
-19.7045
-57.7509
-7.17141
7.03896
-12.2574
-21.8181
3.12186
-2.39689
-54.7438
-23.7792
-26.3177
-13.2673
-5.6002
13.3449
-23.0286
16.875
-18.9608
0.53771
-79.3337
-8.37642
-74.1723
-23.5261
-60.5374
-1.30458
11.3678
-2.62768
5.66814
-14.7991
-0.915616
-66.6534
14.2692
-46.8877
13.288
-3.87978
-154.1
-11.3919
40.7932
-156.92
-22.5329
-25.9011
-19.979
13.7687
-12.0109
-7.76835
-4.82301
-21.7593
-33.5645
-19.6119
-21.715
0.52314
-29.357
8.05863
-22.5473
5.22852
3.46954
-56.2398
-25.7087
-1.18489
10.233
-22.4918
-61.2564
13.4922
-9.29014
-22.4687
5.24155
-34.8918
-15.029
2.83712
11.5828
-112.744
13.3142
-22.8194
-35.0751
-42.0788
-34.2773
-18.9806
-24.7433
16.8486
12.4595
13.2841
-72.7625
37.7112
-71.6758
18.6042
15.9406
-22.7817
11.0263
10.3247
14.1475
-13.4692
-63.7898
-42.2385
-34.9936
13.4981
10.2792
-22.8773
-31.0437
-18.3012
19.4501
6.0607
-22.4122
7.96694
13.481
-6.55381
-7.65138
-1.41846
14.3847
13.2156
-13.2371
17.1792
16.642
-5.03031
-88.6168
10.5841
13.2196
6.91618
-7.79755
-14.2562
-52.5125
-34.2155
-85.1621
18.608
0.105512
6.07964
-8.027
-18.9128
-114.702
3.84287
-90.18
-15.6746
10.8029
13.9951
-25.8205
10.9795
-6.11852
1.13363
4.26167
7.12981
5.23383
-2.6267
14.9289
17.2653
13.2731
-24.224
15.2344
11.0702
14.3624
15.8691
-63.1763
-10.5213
-59.1712
-13.0641
11.4973
27.2378
-88.2952
33.5695
-72.5529
-20.5615
5.45913
10.6511
-20.4543
4.77823
-22.7885
-89.0724
4.68964
-132.064
-23.671
5.74279
1.27187
32.9337
7.8192
2.33213
-184.15
2.26605
12.3504
-174.285
-58.3735
-65.4423
-6.10174
-19.9595
-17.2369
14.3127
-9.49109
11.9313
-7.96448
-7.46964
-13.4013
3.84776
-1.40743
-19.4816
20.8728
-15.6879
-31.1074
19.6111
-68.2433
-2.28211
12.9574
5.30552
-70.427
16.6193
9.09978
13.3293
-10.4236
12.4966
1.67546
20.9118
13.3694
-68.988
4.74278
-8.62944
-60.7918
6.84831
-4.9153
-2.2121
-90.881
33.6897
1.90412
-87.4914
16.5583
-42.8212
3.14361
-98.5343
-27.2966
-22.6481
-40.6814
-5.36666
-2.80369
-1.33021
-68.8121
-4.99701
-49.6292
-8.24651
-168.791
-3.60843
15.038
-94.3886
-117.39
-6.33216
-3.69579
-17.7267
12.1173
17.7174
-61.0522
12.388
-11.597
14.0922
24.6584
-24.9732
14.2571
-1.54798
11.5645
14.3913
8.72554
2.23289
-126.406
10.4441
17.7867
-102.273
-9.51194
-29.0501
-18.7735
13.2264
-65.8457
-15.8601
-73.4249
13.1701
-22.9685
2.2567
-5.68073
15.3174
2.85726
-22.0562
-0.859295
2.00997
5.65544
21.3428
28.2839
11.5914
34.5885
17.8101
34.8658
2.14034
-4.77295
21.8934
-40.0095
5.70719
4.1151
-19.3916
19.1886
0.324355
-13.7425
28.0009
7.39008
-62.2633
12.8582
11.7899
16.7336
-23.189
15.5087
28.9501
-34.5699
-19.8537
-11.9948
-0.605455
-27.0203
9.40163
4.49264
18.1236
13.6883
-99.2609
9.45701
-4.60085
-21.3184
-21.9074
-85.8477
6.11028
-21.3906
14.0412
8.02227
-22.0761
-8.02235
-9.67147
3.68725
-76.2628
-22.4619
8.5367
9.24608
-22.3952
4.18227
16.5835
1.74892
-90.2352
13.9672
-8.46562
12.533
-22.4507
16.9236
10.4852
-26.3268
4.98929
7.41925
-1.32827
10.9602
-22.5294
32.7545
-7.27566
-22.5414
7.80315
2.02602
-21.9953
-13.8873
-19.2547
-16.8097
-12.9323
-17.2431
4.6577
2.6285
35.446
-8.32886
-60.4057
-7.92665
-7.75193
-15.0404
-2.6693
3.54828
17.0072
-25.2343
-1.05347
-23.0373
-15.0025
-0.370095
1.81432
14.6519
-0.484165
1.02825
-14.2109
12.3484
-13.3185
0.128956
-22.5246
5.05091
-1.92369
17.8752
-22.4394
-8.6806
-22.4891
5.61207
-22.8197
4.28399
12.951
10.2063
17.9835
-20.5653
-18.2291
12.7785
-82.2066
15.5743
12.8112
2.46179
11.6431
-4.85515
10.7594
3.74454
-9.45463
-36.026
16.2616
-141.164
14.4686
0.837706
35.7123
5.73201
9.9285
11.8572
7.98615
1.54171
12.0896
-7.15257
-3.35612
-25.3633
3.78088
4.75343
-2.72736
-20.6011
-88.5588
-1.35634
-35.2355
-21.8569
-12.645
14.6535
-135.526
14.4576
8.2814
28.9462
26.5469
11.795
-4.5954
11.5888
-22.5172
18.4244
-0.0362339
8.11766
-4.05481
13.6596
6.65184
1.2777
-86.4884
-11.4203
-2.04205
-15.1077
1.84515
13.2522
-71.2951
-3.90984
-18.116
6.25398
12.3901
1.46325
11.9587
8.91822
4.96512
2.99375
10.0433
2.87385
-9.80632
16.9078
5.46656
20.3937
-27.3253
15.7641
7.04098
-24.6318
-59.2789
-127.319
-9.75887
-34.5409
-111.128
14.1674
19.3014
16.6044
17.0687
14.4655
14.5743
12.3763
2.15181
12.7773
-49.3444
8.8741
2.99442
-21.6712
24.6145
-0.0137438
-21.1843
14.9788
18.4785
23.4924
-65.6026
-9.28722
-62.9442
-19.5223
12.6643
-37.9174
-92.7011
17.0989
29.4384
-22.6583
-28.3908
-36.2235
11.8601
2.9246
8.76799
0.36581
-0.645729