/*--------------------------------*- C++ -*----------------------------------*\
| =========                 |                                                 |
| \\      /  F ield         | OpenFOAM: The Open Source CFD Toolbox           |
|  \\    /   O peration     | Version:  2306                                  |
|   \\  /    A nd           | Website:  www.openfoam.com                      |
|    \\/     M anipulation  |                                                 |
\*---------------------------------------------------------------------------*/
FoamFile
{
    version     2.0;
    format      ascii;
    arch        "LSB;label=32;scalar=64";
    class       surfaceScalarField;
    location    "5";
    object      phi;
}
// * * * * * * * * * * * * * * * * * * * * * * * * * * * * * * * * * * * * * //

dimensions      [0 3 -1 0 0 0 0];

oriented        oriented;

internalField   nonuniform List<scalar> 
20045
(
1.16155
-1.36235
0.200797
-2.31774
1.04096
1.27678
0.953223
4.05666
-5.00988
1.40697
-1.66925
0.262274
-2.21993
1.82985
0.390082
-1.09077
4.10655
-3.01578
-2.14834
0.249444
1.8989
0.0889033
1.13112
-1.22002
1.16931
0.918637
-2.08794
-1.25226
-0.452292
1.70455
-0.532555
-0.56753
1.10008
3.78693
-1.87786
-1.90907
0.943059
-0.923646
-0.0194124
-2.24904
1.82036
0.428682
-0.15707
1.97494
-1.81787
-1.9598
0.707536
-0.00474866
-0.0520977
0.0568464
0.785779
1.19803
-1.98381
-3.07923
4.4535
-1.37427
-1.58874
-0.0963007
1.68505
1.15085
-0.975564
-0.17529
0.342672
0.600387
-0.552965
-1.76477
2.74952
1.2101
-3.95962
1.69872
0.1246
-1.82332
-1.43553
4.18505
-0.0506396
0.0529429
-0.00230329
-2.45443
4.9458
-2.49137
4.56392
-0.797445
-3.76647
-5.29297
3.09593
2.19704
1.16922
-0.173023
-0.9962
2.42559
-2.33023
-0.0953586
-0.857971
2.85029
-1.99232
5.47556
-3.02828
-2.44728
-1.42141
1.51031
2.84605
-1.19907
-1.64698
4.99563
-2.9277
-2.06793
-0.152906
0.963012
-0.810107
-3.18517
1.92556
1.25961
1.31269
1.20383
-2.51651
-0.128739
1.39414
-1.2654
0.454942
-0.628354
0.173412
4.75055
-4.80873
0.0581783
2.73992
-0.821301
-1.91862
1.10849
1.63143
1.72824
2.05868
-0.187952
0.103576
0.0843761
1.33668
2.72965
-4.06633
2.49303
2.5026
0.482626
3.48096
-3.96359
2.6612
-4.38864
1.72744
3.1859
-2.29222
-0.893685
-1.55961
-1.48744
3.04706
-0.233155
-0.739897
0.973053
-1.28145
1.79914
-0.517696
-1.58523
-0.634702
-1.75076
3.51902
-1.76825
2.73455
0.401996
-3.13655
2.55694
-3.41491
2.59108
0.0377495
-2.62883
-0.364699
-0.567745
0.932444
3.07018
-0.479102
0.62654
-2.93141
2.30487
0.81123
0.339624
0.91074
-1.13083
0.220092
5.44239
-3.31172
-2.13067
-0.212131
1.29503
-1.0829
-1.4181
0.106374
1.31173
2.00386
-0.834551
4.19022
-4.37932
0.1891
-1.08412
0.871987
-1.90349
0.622037
-0.586064
-2.23488
2.82095
-0.0336797
-0.17981
0.213489
4.18718
-3.5617
-0.625483
1.7067
-3.45746
3.59993
0.587251
1.4723
-1.62937
0.22961
-0.184284
-0.0453261
0.33249
-3.03309
2.7006
1.95815
2.19672
-4.15487
1.73768
-1.6287
-0.108978
2.30573
-1.67919
-5.24335
0.800388
4.44297
-0.0490849
1.21064
-0.611527
0.990623
-0.379096
-0.639126
-3.08157
3.7207
-3.16416
0.0644788
3.09968
1.88172
0.633847
-2.51556
-1.6311
1.25071
0.380386
-2.71432
0.443166
2.27115
1.87179
-0.479367
-1.39242
0.944946
-1.43679
0.49184
-0.579751
-1.57634
2.15609
1.41495
-1.54623
0.131286
2.17172
2.47618
-4.64791
-0.0801331
0.0294935
-0.694004
-0.307113
1.00112
2.71762
-1.40493
0.00722295
-0.0649472
0.0577242
2.00726
0.838786
-0.905571
-1.34347
-1.11618
0.422181
-0.584928
3.31948
0.266396
-0.877923
0.0577559
-0.050533
0.725079
2.56292
-3.288
1.30535
-3.03643
1.73108
0.041658
-1.22775
1.03754
0.190203
-0.723299
0.907277
-0.183979
2.21799
-2.34339
0.125407
-1.22025
0.987095
2.08913
-3.83986
1.75073
-0.600399
0.853131
-0.252732
0.125877
-0.867251
0.741374
2.05785
-0.359129
3.91118
1.56438
-2.57282
1.98676
6.75822
-4.0111
-2.74713
-1.11876
1.90454
-0.937988
0.573289
-1.89832
1.51408
0.384233
-1.87982
0.286153
-1.45869
1.17254
2.27235
0.913555
2.20789
-3.14819
0.940309
3.09567
0.325932
-3.42161
-4.90782
3.64876
1.25906
1.13718
-1.98947
0.85229
3.29386
-1.02152
0.294305
-0.190729
-0.251917
0.15582
0.0960968
-0.0876235
0.0516157
0.0360078
2.31369
1.57081
-3.8845
2.48304
-2.11378
-0.369265
-0.518059
0.00478817
0.513271
-0.881135
-0.346612
5.72907
1.02916
-1.63227
1.65104
-0.0187697
2.05379
-4.19203
2.13824
0.782074
-2.34169
1.35084
1.30424
-2.65509
3.26609
-2.9336
4.06578
-0.658005
-3.40777
2.04575
-2.91009
0.864342
5.22948
-2.00387
-3.22561
-0.612534
0.607309
0.00522499
-0.299775
4.11291
-3.81314
4.04195
0.521969
-3.27718
0.0750603
3.20212
-2.37414
1.61002
0.764117
3.37062
-1.41247
0.370008
1.36767
-2.48274
2.88349
-0.400749
-3.57335
4.52657
0.0191833
-1.11108
1.0919
-0.0961277
-1.02442
1.12055
-0.109167
-0.904997
1.01416
6.28239
-3.76966
-2.51274
5.20513
-2.55265
-2.65247
-1.10011
0.990941
2.42229
-2.33353
-0.0887605
0.561655
-0.106713
-2.87714
-1.68711
2.3316
-0.64449
-2.33653
1.81765
0.518884
-0.0284204
-0.306007
0.334427
3.84966
1.37982
-0.0768778
-0.0107457
-0.239
-0.0129172
-2.61713
0.134391
-3.00245
3.70153
-0.699085
-2.95211
2.98739
-0.0352833
-3.71295
-1.2468
4.95975
-1.61201
1.92978
-0.317768
1.39722
-1.60338
0.206156
3.72759
-0.191917
-3.53567
-0.123703
-2.96363
3.08733
-1.69101
3.04185
0.810704
-2.45498
1.64427
-1.79707
3.8862
-3.01684
2.37851
0.638331
0.349222
-0.438433
0.0892109
2.39548
-4.59404
2.19856
-3.96135
1.50692
-2.94194
-0.654651
4.80085
-2.99161
-1.80923
-1.68222
1.55348
0.850208
-0.911122
0.0609137
-5.88441
3.00834
2.87607
-3.6568
5.079
-1.4222
3.27623
-2.75625
-0.519983
-0.102774
-0.723233
0.826006
-1.50667
-1.56422
3.0709
0.591187
-1.12374
-0.232926
1.37011
-2.78614
-0.844493
3.63063
0.591819
0.14117
-0.732989
0.379177
-2.06629
0.0433534
1.12587
3.27092
-0.175245
-0.806246
0.65334
-0.995055
1.23229
-0.237238
3.54618
2.73622
-3.20361
1.69694
1.6706
-1.92043
0.249837
-3.04786
0.688808
2.35906
0.787155
2.48908
5.05852
-2.66304
3.23313
-5.31069
2.07755
2.18704
-4.48554
2.2985
0.312783
-1.90153
-2.10901
2.83409
2.42914
-3.51991
1.82487
-3.83721
2.01233
-5.66979
3.04135
2.62844
-0.362883
-1.26822
0.836971
0.726851
-1.56382
2.45001
-0.861367
-1.58864
-0.0696959
-2.86727
2.56749
-1.20122
-0.431046
2.41899
2.79733
-2.25976
-0.537567
-0.0512855
-0.673978
0.725263
2.4112
0.430402
-2.84161
-0.185037
-1.75522
1.94026
-1.23732
3.60772
-2.3704
-4.07176
3.43264
2.53541
-1.72471
-0.550917
2.18028
-1.62937
3.56021
-1.50642
0.597845
-0.049225
-0.54862
1.1022
-0.81886
-0.283335
-0.680472
0.710784
-0.0303116
4.73632
-3.00413
-1.73218
0.985904
-4.6427
-0.757575
0.0771029
-3.14412
0.750677
2.39344
4.8193
-1.96901
0.889333
-3.89178
5.03753
-2.15102
-2.88651
-0.0890931
0.680912
2.41172
-1.94701
-0.464707
-2.45069
0.338929
2.11176
-3.69566
3.61933
0.0763286
2.09971
-4.3427
2.24299
-0.0517924
-0.0820257
0.133818
-1.9164
2.28651
-0.370106
-0.751614
0.590669
0.160945
-0.788054
0.187654
-0.883275
0.159976
-1.48078
-1.55565
1.58268
-3.92396
2.34128
0.362539
1.05409
-1.41663
2.03131
0.394278
3.50683
-1.68195
-1.703
1.60687
2.25067
2.56863
-2.20576
0.359977
1.84578
1.21971
1.19201
1.87214
0.102804
-0.933992
1.29653
-1.36826
-0.262919
1.63118
-0.117465
0.466687
-3.63029
2.39296
0.602875
-0.324219
-0.278656
-3.76939
3.62922
0.14017
0.286211
0.717538
-1.00375
-0.457789
-0.68763
1.14542
2.97479
-3.39699
0.422196
-3.23021
-2.43958
4.0625
-2.63851
-1.42399
-0.540647
0.489362
4.60195
-2.50224
-2.33073
3.91342
1.56012
-0.813355
-0.746766
3.26701
-1.45001
-1.817
5.83378
-2.91789
-2.91589
0.679326
0.880795
3.59784
-2.21354
-1.3843
-0.887012
3.31872
-2.43171
0.450687
-2.76258
2.31189
0.761821
0.190222
-0.952042
0.0193341
-0.0315515
0.0122174
4.58412
-3.99033
-0.593786
-2.76163
-2.14619
1.85293
0.944396
-3.4188
-0.350591
0.313084
0.789111
-1.05555
-0.563386
1.61893
0.0105562
0.839652
-2.13205
4.44574
1.8714
2.86492
5.22462
-3.21936
-2.00526
-3.85627
3.01178
2.22771
-3.87153
1.64381
-2.47474
-0.369127
2.84386
-1.60676
-0.527254
2.13402
1.97193
0.45036
2.32138
-0.650782
3.82991
-0.756859
-1.57337
-5.6365
4.32623
1.31028
-1.21948
0.224429
-1.47662
0.925706
0.373034
-4.06869
-0.127804
-3.94396
-3.39138
-0.922689
1.13523
-0.212542
-0.095757
1.50273
-1.73792
1.14317
0.594756
1.91965
0.298332
1.68335
-0.397404
-1.28594
1.78318
0.699863
-1.36713
0.311585
2.34661
-0.464893
-1.00272
-2.04515
4.74892
-3.80518
-0.943741
2.51468
-1.49418
-0.363612
1.85779
3.1269
-3.54331
0.41641
-1.98783
1.40808
-0.634577
0.116518
-1.0371
-1.67721
1.53305
-2.424
0.890954
1.71917
1.87866
1.91666
-3.66417
1.74751
1.34197
-2.42856
1.08659
-3.89468
0.73052
0.177237
1.69455
-2.36502
2.40516
-0.0401345
-0.794256
1.32711
-0.532853
-2.37673
0.22839
-0.556983
-1.12771
1.6847
0.57856
0.00262345
-0.581183
-1.22704
-1.1471
1.30091
1.86325
-3.16415
2.26814
-1.04843
1.11863
-1.81427
-0.173559
2.2134
-0.871433
-2.74732
-0.269515
0.477949
-0.73371
0.255761
3.9535
-2.61683
-2.20546
3.20833
-1.00288
-0.626389
0.750645
-0.124255
2.38257
0.0674377
0.5988
-1.16219
-2.20256
3.74677
-1.54421
1.79191
-3.59756
1.80565
1.89689
2.16561
0.0815599
-0.114561
0.033001
0.557272
-3.03201
2.6877
-5.89522
3.20751
0.202258
-0.235938
-0.533458
2.74134
-3.42466
3.29686
-2.34109
4.52813
0.693316
-3.77254
-2.43159
1.86793
0.563659
2.77968
-0.688103
-2.09157
3.81651
-0.841716
-2.25162
-1.87027
-1.27741
2.22049
-0.235344
0.363261
-0.127918
1.36815
-1.46445
-3.22388
2.69042
3.87031
0.880239
-3.31842
1.11296
2.87124
-1.0183
0.233397
0.603966
-0.837363
-0.0275476
-2.19491
2.22245
-3.58427
0.623
2.96127
3.39477
-3.39477
-0.483147
1.47604
-0.992892
1.26353
0.419814
2.04393
-1.12194
-0.921994
-3.89149
4.05242
-0.160934
1.61491
-0.0995781
-1.51533
1.26382
-0.384151
-0.879665
0.625304
-1.08309
0.0589619
1.74556
-4.07629
-3.12347
3.70228
-0.578807
-1.24164
2.54255
0.167118
-0.0104435
-0.156674
1.00906
0.296629
-1.30569
-1.58636
1.89914
5.04045
-3.86491
-1.17554
-0.471069
-1.93301
2.40408
-1.16598
1.23411
-0.06813
0.788728
-1.21042
0.421689
-4.44998
-2.43222
6.8822
-1.21259
-0.456653
-0.194646
0.428043
0.03926
-0.13416
0.0948998
2.41031
2.17381
0.115708
0.0514097
-0.411982
-0.780502
1.19248
-2.17266
3.40587
-1.23321
0.0776107
0.918366
-0.995977
1.79947
-1.55003
3.99721
-2.62886
-1.36835
0.29852
-1.87486
0.814604
2.91298
1.97452
1.06207
-3.0366
2.06187
-1.54404
-0.517826
-4.0473
0.770122
-1.24951
0.619329
0.630177
1.61459
2.70785
-4.32244
-2.67234
2.30322
0.291834
-3.67254
3.38071
-0.6016
0.498827
0.275132
-0.373548
0.098416
0.241312
-1.60958
0.40859
-0.261573
-0.147017
-2.6564
-0.487726
2.43922
2.61149
-1.40156
-1.20994
-0.703397
0.0770075
0.470282
-2.69556
2.22527
0.917483
1.92309
-2.84057
1.58149
-2.75962
3.24843
-0.488817
-2.99962
2.11261
0.0481054
0.00483753
-1.48635
-0.850178
-1.27257
0.281978
0.990596
-3.66336
1.49071
2.50609
-2.97716
1.35492
1.51631
-1.62172
1.47151
0.150215
0.885547
-4.03949
3.15395
0.87166
-1.29343
0.421772
1.48513
-0.886328
-2.54898
-0.403132
-1.5183
0.100193
0.105112
0.040785
-0.145897
1.81023
0.040223
-0.0795504
0.0393274
4.12043
-2.50584
-0.543206
3.73877
-3.19557
1.17937
0.869715
-2.04908
-1.28674
0.685139
-1.13062
-0.141952
1.34999
0.693936
2.37069
-6.38179
0.793055
-0.315106
2.33353
1.90164
0.444973
-3.40073
3.88336
0.295798
-1.43944
1.14364
-0.377603
-3.29154
3.66914
0.00161176
-0.0969706
0.0953589
-1.98035
0.368342
-1.88308
2.33376
3.03735
-0.991603
-1.32355
-0.414375
-0.0587836
-1.81794
1.87672
1.43504
-5.148
-0.25992
-1.77662
2.03654
0.25419
-1.34936
1.09517
-2.49403
-0.0436762
2.53771
4.3447
-1.61505
0.0205888
0.491908
-0.512496
-1.04774
-0.118237
0.780631
1.59398
-2.37462
0.748395
-0.892901
0.144506
1.60412
0.791299
-2.39542
-3.15307
5.32479
0.551631
0.0269287
-1.29354
-2.31041
3.60396
-1.9559
7.68497
3.44528
-2.5278
-1.66405
1.10707
-0.0330873
0.0524214
-1.46556
3.69328
0.415481
-2.99496
2.57948
5.78688
0.041152
-5.82803
-1.5563
2.42422
-0.867919
1.5089
-1.58461
-1.36163
2.94624
0.082422
-0.108336
0.0259144
-1.07299
-1.97742
3.05041
1.20037
-0.191314
0.322738
-0.351158
2.06241
-3.1354
-2.73333
-0.938486
3.67182
-0.0535742
-2.14015
2.19373
0.995787
4.9488
-5.06287
0.114068
0.91366
-0.353408
-0.560252
-0.148125
-1.4736
1.00466
1.15143
-1.57339
-0.0333706
-3.14621
3.95981
-0.813601
0.109816
0.493059
0.823951
2.44214
-3.60525
-1.20348
-0.013173
0.00127903
0.011894
2.12323
-0.221592
-1.01836
1.10689
-0.0885336
-0.120829
-0.630785
-4.05437
1.11242
3.41428
0.692272
-0.311606
1.10033
-0.958431
2.1378
3.93151
-2.18595
-1.03121
0.0128501
-0.62587
-2.59801
0.775307
1.18941
-1.17022
-3.69259
0.108318
0.16959
1.00223
-0.130574
-0.823142
4.64427
-3.82113
3.79598
0.394235
0.983513
-0.364908
-0.618605
1.45488
-1.26524
-0.189643
-1.95643
0.757361
-4.19781
1.99525
1.20587
-0.931882
-0.273991
-0.229996
-0.114285
0.344281
3.86401
-0.0399285
-3.82408
1.00462
0.0861807
-1.0908
-0.668621
-1.2297
1.10239
-0.157441
0.378432
-0.330102
-0.0483296
1.8898
-0.0975602
-1.79223
0.116447
0.261985
4.42421
-1.94803
-0.138146
-0.703645
0.841791
-4.04344
0.897231
-0.163301
-0.86328
-0.252904
1.28529
1.32621
-0.0589997
-1.644
1.04267
0.871892
-1.91456
-0.317929
1.22867
1.39232
-1.09652
1.07506
-0.94918
0.526321
-1.32058
3.52701
0.510232
-4.03724
2.34347
-0.428325
-1.91515
-1.71761
-1.19248
-0.0892077
-0.732097
0.821304
1.19416
-1.35589
0.161729
4.35479
-0.109518
-4.24527
-0.68898
-0.102639
0.79162
-2.11475
2.89629
-0.781539
2.4276
2.29619
-4.7238
0.253363
-0.821108
-1.3387
1.96782
-0.629117
1.00688
0.448905
-1.45579
-4.16199
2.80376
1.35823
-0.236602
-0.0935008
-3.39713
0.663796
1.46367
-0.855047
-0.608621
1.62686
-2.259
0.632147
-0.500566
-0.861783
0.670605
4.2782
3.31983
-0.664635
-2.65519
-3.16353
0.403909
1.34716
-2.34988
2.70196
-4.46195
1.75999
-0.507748
1.34472
0.00142676
-1.37225
0.960272
-0.74416
1.03031
-0.735237
-3.473
4.20824
2.44252
2.15944
-2.93309
3.14694
-0.213853
-0.0429934
0.148105
-1.97464
-0.661435
-0.586417
0.656008
-0.0695908
-0.767038
1.94806
-1.18102
-0.429229
2.223
-1.79377
-0.460671
2.08753
-1.86818
-0.413125
2.28131
-3.3167
-0.980354
4.29705
1.67394
-1.50002
-0.17392
-1.27612
0.0779466
1.19818
-0.708044
0.159523
0.548521
-3.68795
0.16381
3.52414
0.0940565
0.934807
-1.02886
3.01798
-3.37001
0.352029
-1.74627
0.968879
1.67228
-2.64116
0.0546726
-0.64109
-0.849241
-2.48346
3.3327
2.04486
-3.84193
-3.7835
3.31388
0.469619
0.903323
-0.154928
3.31524
-2.49129
-0.336178
-0.496914
0.833092
-0.0691073
0.897401
-0.828294
-0.1302
2.72837
-2.59817
3.80806
-0.0801066
-3.72796
4.04834
-3.87206
-0.176287
2.62782
-0.999382
-1.62844
0.171495
-1.09006
0.918569
-1.36523
-0.0934625
-4.11132
3.56891
0.54241
0.170545
-4.28186
-2.00961
2.32186
-0.312256
-2.00369
-1.98664
0.998636
-0.784068
-0.214568
-3.15855
-0.884889
-0.929538
0.663211
0.266327
-1.31114
1.1261
-3.9047
3.71378
0.190914
-0.352317
-0.252884
0.0730745
1.10357
-0.0989506
-2.18226
0.265857
0.797228
-0.845327
0.0480995
0.150837
-0.925995
0.775157
1.83024
-0.215327
-0.895509
2.30378
0.0787926
1.46521
2.04577
-1.06331
-0.982453
-0.433844
1.83106
-2.72036
1.7973
0.92306
-0.386976
0.150374
4.57064
-2.12813
3.37606
-2.49051
-0.590677
-0.685479
1.27616
1.9885
-3.9389
1.9504
2.41823
-2.4718
4.0905
-1.68741
-2.40309
-0.0305084
-2.31689
-0.403474
-4.4907
1.06179
3.42891
0.514758
-1.27403
4.50716
-4.16166
1.00311
1.00155
-0.239729
-0.460211
0.0445829
0.732752
-0.0219685
-1.93159
-1.92158
4.44512
-2.73842
-0.272776
0.844347
-0.571571
0.19085
1.07297
-2.79402
-0.672081
3.4661
2.00644
-0.0345035
-0.0241877
-0.7001
0.724287
3.2842
-0.279537
-0.301678
0.581215
4.12967
-0.602662
-1.34389
-3.77436
0.650888
-1.06817
0.0717843
0.996381
2.19483
2.8427
-0.830951
-1.15438
1.98533
3.87276
0.175578
2.55218
-3.5638
1.01163
-3.21089
0.0208483
3.19004
-3.35925
4.27981
-0.920556
0.688385
-0.0272512
-0.661134
-1.75251
3.79737
-1.88224
-0.236531
2.11877
0.189564
-3.12266
2.90675
-1.74173
-1.16502
-3.58418
4.66154
-1.07736
-0.878043
2.4054
-1.52735
4.65034
-2.05931
-2.59103
0.18262
-2.37658
2.19396
-0.399913
0.0263656
-1.8775
4.3051
1.28872
-1.77187
3.56311
-1.7712
-0.875245
0.737099
-3.31794
0.107054
3.83269
-1.91603
-0.0213
-5.22205
1.3585
0.0356433
1.60303
1.76189
-3.36493
2.21264
-0.713318
-1.49932
5.71561
-3.30346
-2.41216
-0.87165
0.0404016
0.831248
-0.814782
-2.09173
2.90651
1.53404
-1.00772
-0.75901
1.69613
-0.937122
0.464388
0.795463
-1.25985
0.339942
0.658694
-4.06273
4.66041
-0.597679
0.199906
-0.198294
1.89685
0.902408
-2.79926
1.6702
2.52765
-4.19785
0.864931
1.91475
-0.0128433
4.07862
-0.071443
3.17727
-3.10583
0.430781
-0.35317
0.0455989
0.134792
-0.180391
4.71328
-3.55333
-1.15995
1.75685
2.33364
-0.0879141
0.0553128
0.0326012
-0.923547
3.0506
-2.12705
-0.0385561
0.867318
-0.828762
2.32084
-4.00912
1.68828
-0.908581
-2.27543
3.18401
2.98789
-0.57669
0.95639
1.25625
-0.625379
-0.692757
1.31814
1.24276
-3.17577
-0.243392
-0.539712
0.783105
0.852089
-0.144341
-0.707748
-0.198175
-0.201739
-0.214018
2.96604
-2.75202
-0.702813
4.18378
2.89781
-2.51406
-0.383754
2.70564
-2.07179
-1.85206
0.7847
1.06736
0.364591
-1.48653
-1.22405
0.643552
0.5805
0.329876
0.653637
0.610893
2.89578
-3.50667
1.18334
0.706454
0.522745
-3.83945
-2.09812
0.343028
1.75509
-1.56217
-0.893933
2.45611
2.23847
-1.19579
-3.34737
2.10572
1.12781
-0.844154
-0.283661
-1.66488
3.69455
-2.02967
-1.73305
2.03157
-2.46704
2.25407
0.212964
-1.43635
3.12659
-1.69024
-0.0850472
1.01816
-0.933118
0.1344
-0.364396
-1.51637
-2.44173
3.2261
-0.784364
-2.25512
2.94392
1.9424
-2.23574
0.293337
1.59033
-0.0572915
-1.53303
-4.63117
2.61206
2.01911
-0.166855
0.267393
-0.100538
-0.412823
2.54948
-2.67968
3.76266
-1.77415
-0.385015
-2.04658
-2.82987
2.75843
1.71649
0.101159
1.16143
0.450309
-1.61174
-1.53683
1.41458
0.122245
0.617453
0.992681
-1.61013
-0.956253
0.19957
0.756683
-1.45345
2.17926
-0.725806
-2.6613
-0.901577
3.56288
0.281816
1.30851
2.92324
1.79004
-2.24384
1.76216
0.481684
-0.104127
-1.01182
1.11594
0.0356277
0.909631
-1.13098
0.221351
-6.40587
-1.49148
0.535226
0.664198
0.950861
-0.779366
-1.78441
1.01737
-0.437376
-1.55209
0.103182
1.31176
-0.0312852
0.286396
-0.255111
-2.32775
-1.97326
4.30101
0.0454517
-0.670831
-1.9047
-0.235166
2.13987
0.344275
1.05718
-1.40145
-0.00549212
4.42938
-2.84378
-1.58561
0.809652
2.51017
0.326594
0.195231
0.575221
-0.770453
-2.39998
3.71227
-1.31229
-2.10771
-0.866642
2.97435
-2.02414
0.685433
-1.21601
-0.636056
4.2737
-1.89109
-2.38261
1.73974
-1.776
0.036257
1.19431
0.457221
-1.65154
-0.818074
0.91213
0.836484
-1.01639
0.17991
0.949965
-0.13677
-0.963339
-0.0438315
2.48697
1.78673
-0.553489
2.47905
-1.52619
4.62211
0.575776
1.16397
-3.14146
1.03375
3.0127
-2.45543
-0.589596
-2.71201
0.597261
-0.0754787
-1.93413
2.54674
-2.57429
3.33948
-0.212582
-0.85303
-0.583756
-0.592382
-0.405383
0.997765
-1.36211
-0.184122
3.06965
0.522236
-3.59188
-0.154917
-1.01357
1.16849
-0.667567
0.341183
-2.16367
1.82249
3.22602
-0.208043
-3.99721
4.40901
-0.411803
0.861251
-0.754877
-3.60586
-1.02531
-0.92856
3.63144
-0.0625307
2.26662
3.85552
-1.42337
-2.43215
-2.29839
-0.187778
2.48616
0.901685
1.66521
-2.56689
-2.85523
0.361202
-0.785942
-0.172484
0.958426
-1.91312
2.3286
0.715972
1.82779
-2.54376
0.185091
0.0250768
-0.210168
-3.48961
0.411744
3.07787
1.55633
2.20632
-1.24096
1.87676
0.751064
-0.727684
-0.521821
3.01974
-3.67774
-0.0311557
0.382828
-0.351673
0.82982
-0.576457
2.68295
0.0449838
-2.72793
3.07857
-4.60476
0.0308512
-0.0826436
-1.11741
1.47327
-0.355861
-3.18723
2.33799
-0.154415
1.36086
-1.20644
-0.998951
0.503849
0.495103
-0.324736
-1.65562
-1.14982
2.49698
0.507273
0.6986
-0.722699
0.777372
-2.20059
0.445369
-0.115949
0.0339235
-0.911592
0.865124
0.0464684
0.949893
-1.05911
0.109218
-2.22758
-1.33412
0.361552
-2.26625
-0.308187
-1.37403
-0.206663
2.35254
-2.14588
1.43734
-1.70026
0.308421
-2.62844
2.32002
-0.68894
3.3085
-2.61956
-2.07022
-3.56628
0.874557
-0.083337
-3.70016
2.56919
1.87592
-2.80244
-0.544933
-1.55312
0.058946
-1.87627
0.748556
0.125864
-0.024174
-0.10169
4.56938
-2.37455
3.91302
-1.22532
-1.01445
-0.702043
1.71649
-4.29063
2.04489
2.24574
-1.16756
0.600032
-0.96969
1.93857
0.754916
-0.412244
-0.406547
-2.07676
0.194518
1.10371
-1.11791
0.0141914
-0.504743
3.57439
0.489941
1.04049
-1.53043
1.12152
-4.4891
1.98381
2.50529
0.533834
1.27212
-1.80595
3.15588
-0.0618933
-3.09399
-2.2747
1.39666
-1.36376
-0.247708
1.44202
3.52018
-3.89778
1.81865
-0.811767
-1.39765
2.64041
-3.89851
3.03631
0.8622
2.47071
-4.1655
1.69479
-2.62199
2.95751
-0.33552
1.30627
-1.74011
0.0514199
0.588507
1.08543
1.01312
-4.04621
1.78624
-4.53861
2.68456
1.85405
0.885541
-3.18393
6.69692
0.0156636
-2.46636
0.48273
1.50519
4.14053
-1.48497
-2.65556
-0.705454
0.963299
-2.52547
0.758672
-3.52278
3.335
-2.64107
1.05646
1.78841
-4.13357
0.763074
3.3705
-2.78944
2.15356
0.635875
-0.930887
-0.807323
1.06151
-3.96691
2.83266
1.13426
2.09564
-3.84815
-3.82522
-0.237513
4.34203
-1.64007
1.70208
-0.859666
-0.842418
-0.11656
-0.699236
0.815796
-0.446392
1.50035
2.03152
-1.10408
-3.02949
0.482456
1.05158
0.680499
1.57547
-2.25596
1.70838
-0.981533
-0.0886963
-3.72312
3.81181
-1.37129
0.980191
-2.6712
-2.4229
-1.74005
4.16295
1.03207
-1.51144
-2.8341
0.853975
1.98012
-0.124412
0.589019
-0.464607
3.70019
-4.43542
0.0285942
-1.146
2.49608
1.69107
-4.18715
-0.782074
0.509297
-3.33215
0.973851
2.3583
-3.14729
2.23871
1.25848
-3.65846
-0.201405
0.170249
-0.0941731
-0.0302391
-1.75994
7.54681
-2.26685
3.04513
-0.778274
1.82127
0.0868912
-1.90816
-1.92185
-0.0710731
-0.851616
0.173319
3.22145
0.611219
0.139425
2.89314
1.64007
-0.37654
1.97426
1.5588
-0.941351
-3.6439
-0.260794
-0.944525
0.194667
-2.14168
0.765139
0.833513
-1.59865
3.29913
0.197224
-3.49635
-0.52053
0.493278
-1.42508
-2.77273
-2.96534
-0.577974
-1.63639
4.71496
-1.35976
1.98489
-0.625127
-3.49419
1.16644
-1.29361
1.97411
3.70852
-4.53166
-1.91132
-0.908339
1.1145
0.648139
-0.497302
4.2244
-0.592966
3.53022
-0.176938
-3.35329
0.294238
1.88604
1.19161
3.88519
-3.59335
-0.263359
-0.956554
1.44839
-1.81579
2.17577
-1.97288
-2.24885
0.989027
0.723765
-1.71279
-3.45056
0.0557845
-0.626881
3.08457
-2.45768
-0.133708
-3.8635
-2.44012
2.87053
5.13914
-2.40128
-2.73786
-0.26332
0.882648
2.65252
-0.952357
-1.70016
1.16123
-1.298
0.164655
-0.119057
-0.478762
-0.174215
0.652978
-0.421254
1.58269
-1.81558
3.91122
-0.00843683
-0.775631
-1.11697
-0.462335
1.5793
-0.160452
3.86064
1.39852
0.250789
-1.6493
-1.57595
2.35658
1.40528
1.64531
-1.96709
-0.131036
2.29121
-0.896754
-1.39446
-0.0981229
0.00463371
0.0934892
0.444247
-2.70433
2.26008
-3.59424
0.628901
0.95592
-1.90286
2.09753
-0.0566294
1.21786
0.632058
-1.99182
-2.78641
1.509
-3.67065
1.11799
-1.93321
0.346858
-1.23512
-2.19461
3.42972
-3.37345
0.369277
0.402037
-0.771315
3.9332
-3.13281
2.74037
-1.83869
0.35179
2.14816
-2.49995
0.420838
-1.20678
-3.29218
1.2931
1.99908
-1.36545
0.071316
1.29413
-2.39234
4.48389
-2.09154
2.68627
-2.32902
-0.357247
3.12462
0.230809
-3.35542
-1.85002
-2.63908
-1.24475
-0.27355
1.08567
2.20819
-0.0336684
0.478196
-0.444527
-2.63497
-0.697172
2.3889
2.06459
-2.13105
2.6522
-0.521156
-0.737224
0.435546
0.00688771
1.14503
-1.15192
1.31342
-0.823476
-0.381762
-3.58515
-2.45635
1.07723
0.0505863
1.42605
-1.3827
0.353148
2.69916
-3.05231
-1.95516
-0.2271
1.38777
0.880368
0.310071
-1.19121
-0.325683
0.370668
-0.0449853
0.026152
-1.39868
1.37253
0.658924
0.0586142
-0.077086
3.36799
-1.64882
2.83359
-1.8534
-0.516707
-1.06876
1.58546
2.81237
0.506349
-0.112508
-2.73908
1.9243
2.12876
-2.28921
-1.50458
-2.55577
4.06035
-2.12328
-2.16736
-4.23824
4.40247
-0.16423
1.11711
-1.08149
0.676105
2.16203
1.20596
-0.158286
1.40161
-1.24333
-1.63571
-2.7436
2.05999
-3.68561
1.62562
1.98617
0.02027
0.541933
-0.785326
2.12889
-3.55398
1.48694
-1.36234
-3.93166
8.03421
-4.10255
2.1783
1.44681
1.47408
-2.92089
3.89154
-2.17653
-1.71501
-2.36929
-1.96856
3.43449
-1.46593
0.362326
3.1679
-1.26783
1.2112
1.62898
3.02136
-0.955099
0.838539
0.0715093
-0.0312863
3.59636
-2.02554
1.74945
2.81993
-1.7472
0.972246
0.774953
0.789098
-1.37978
2.71619
-0.0332433
0.83201
0.870073
-2.37444
-0.342442
2.71689
0.828357
-0.0808544
-0.747502
0.742573
0.171087
0.505254
-3.86451
-1.24372
1.48503
2.47018
-2.34072
-0.129457
0.761783
1.52943
-0.695445
0.330537
1.23629
0.833066
-2.06936
-1.29237
3.84931
0.304635
-1.80266
3.67516
-1.8725
-0.741997
1.20638
0.152636
0.0324549
4.0585
-2.07391
-1.34489
0.104423
3.05146
1.31175
-1.61993
-0.809407
0.72436
-1.11119
-0.655353
-0.0480436
0.76192
-0.72846
3.05838
-2.32992
0.139971
-0.100711
-0.922613
0.425699
-1.42519
0.180448
-3.76508
2.47154
1.11536
0.852458
-0.0374708
1.69773
-1.66026
0.523082
0.46754
2.72654
1.70367
-4.43022
-0.536128
-0.0414442
0.577572
3.78173
-4.32493
3.55919
1.57995
2.9266
-2.57345
-3.43412
0.104075
0.0665326
-1.87777
1.65537
-0.533701
4.93352
-4.39982
1.76245
-0.325104
-0.0994678
-1.27827
-0.468924
-1.60058
-1.31533
1.67992
4.32439
-0.585615
2.01784
-1.92729
-0.0905551
0.84413
0.0209943
-0.262266
1.09366
-0.143763
2.84063
0.694388
-3.53502
1.22498
-0.121263
-1.00062
0.615899
0.384717
-1.45597
-0.0697704
1.52574
0.798307
2.01544
-2.81375
0.836251
1.40222
2.49898
-0.0813547
-1.1389
1.27912
0.360952
-0.7037
1.59309
-0.889388
-2.87454
2.21989
3.16399
-2.42024
-0.743751
0.0719689
-0.660053
0.588084
3.03581
-3.24983
1.33316
0.65301
1.39898
1.34139
-0.640083
-0.0152704
-1.16633
0.319657
0.846673
-1.78172
-0.569754
3.99443
-2.05308
-1.94135
1.27148
0.921953
-2.19343
1.79579
-2.80431
1.00852
0.0824416
1.98238
0.231021
-1.2765
3.31432
-2.03782
-0.800586
-0.365744
-0.856068
-0.129602
1.17009
3.30016
0.0107515
-3.31091
-1.53841
-0.225295
0.19401
0.0617723
-0.00645945
0.994729
0.478541
-2.45756
2.02833
-0.0184516
0.396023
-0.203298
0.469694
-1.59492
1.94671
0.0326796
1.15673
0.0375786
-0.317071
2.34838
-0.0191086
2.03695
-0.786663
-0.569797
-0.828242
2.06453
-0.439044
3.03707
-2.59803
-2.90095
-0.496177
-2.44017
4.18978
-1.74961
-1.22095
1.09135
1.36458
-0.233462
-0.0600315
-1.07155
1.13158
-3.11059
1.03668
0.635252
-0.614663
0.966614
-3.76064
1.54895
-3.85936
-2.48667
3.69677
-1.98198
2.10771
-1.27464
0.038729
-2.07625
2.5205
-0.00322403
-0.670754
0.221099
-1.72112
-0.548429
-2.15298
2.70141
-0.822066
2.6263
4.82328
-3.07001
-1.75327
-0.887243
0.375854
1.00488
0.0829727
-1.08785
-3.00545
0.738592
0.881928
-0.0298387
-0.0264502
-0.582006
0.608457
1.96036
-4.40052
0.383248
1.67254
0.29306
-1.9656
-3.4101
2.97106
0.650339
0.159149
-0.809488
0.710384
-3.15212
-0.638644
0.00274272
0.635901
0.84595
-0.195611
0.014326
2.76019
-1.89526
2.12126
2.05292
-1.21667
-3.49599
1.07309
-2.35169
2.11826
0.233431
2.4018
-3.90637
-1.99909
-1.08132
3.08041
-0.140339
1.75036
-1.24996
1.15039
3.78407
-0.544658
-3.23942
-0.00112947
-3.64277
3.11967
0.00494262
1.69324
0.959283
-0.696996
-0.00310411
0.66669
-0.892643
-1.53136
0.124136
-0.155685
0.0315495
0.0182638
-3.03739
3.01913
-0.644179
1.58311
-0.938929
1.76305
-3.70679
1.94374
-0.0841178
-2.02966
-0.112932
0.0445856
2.38582
-1.41584
-0.71675
2.13259
-1.48461
-1.17179
1.82256
-1.0988
1.08392
-0.695236
-0.388682
1.53885
-1.57632
-1.23219
-0.354966
-0.383799
0.738765
1.10258
0.541345
-1.64392
-1.23556
-3.12587
4.36143
0.393128
-2.1579
0.588882
-4.17306
-0.566503
-3.03331
3.59981
-3.37069
0.127025
3.24367
-3.7773
-2.87868
0.256682
-1.33672
1.30353
0.0331848
-4.628
-1.14288
3.98351
1.60646
-0.734564
0.484289
-1.31253
-0.553244
1.95546
0.65275
0.469282
-1.58625
0.0739736
-0.684511
0.610537
-0.513027
-0.099507
-0.466086
0.538054
-1.34299
1.87682
-3.25379
2.25461
0.999184
1.75736
0.564021
1.64447
0.896921
-0.0685645
1.11272
-1.271
-1.84766
-0.986437
-2.14937
0.665663
1.48371
0.442053
0.40425
-0.846302
-1.82506
1.85121
-0.404692
2.76375
2.95947
-1.56095
1.57551
-3.06012
1.59195
-1.82626
0.234308
0.553142
-0.0612345
-0.112179
-0.00238181
-3.41345
2.17833
-0.933361
2.20484
0.0513892
-0.842103
0.790714
-6.01564
2.44229
-0.576215
-0.242645
-0.801107
-0.0743818
-0.915052
0.989434
-2.20854
0.792699
-3.76262
3.38086
4.5743
-2.07821
-1.14706
1.06747
0.0795896
-0.0353777
0.0366567
-0.665094
0.497925
-3.14739
2.64946
-0.6444
0.602956
0.00935687
1.39034
-1.3997
1.72178
-0.388619
0.108194
-0.0932588
-0.0149349
-1.20199
1.23467
-0.00109932
0.203358
2.02014
-2.88636
3.63461
0.238154
-3.82664
0.745072
3.31206
-0.165073
-3.14699
-1.04958
0.850069
0.199506
2.16908
-4.10067
0.678541
-0.567221
-0.11132
-0.133814
-0.0247889
0.158602
-3.30966
3.34006
-0.0304064
-1.45856
1.76698
4.62444
-0.816373
3.28854
-1.25304
-2.03551
-0.303894
-1.17979
1.48368
-0.747766
-1.32553
-0.0396986
-1.25266
-0.07287
0.382545
-1.20327
0.820723
-0.366103
3.37061
-3.0045
-2.85854
0.710858
2.14769
0.930858
2.93315
0.0573478
0.356605
-0.413953
2.15416
0.903563
-3.05772
0.0972533
0.0286107
-0.587791
4.46677
-3.87898
-2.72009
0.34565
2.22905
0.957567
-2.95666
-0.0108872
-0.514572
0.525459
3.52613
-1.10804
-2.41809
1.52244
0.958133
-3.95358
2.032
3.43489
-3.52359
-1.77613
0.180658
1.59547
-0.0891529
-0.20864
0.743647
-0.535007
0.00985367
0.0402173
-0.050071
-0.0382987
0.562627
-0.524328
-1.08601
0.868461
0.217552
-2.08849
4.21738
-1.20832
1.14953
1.257
-1.24764
1.26513
-2.16265
0.897523
-2.12301
-1.7755
-0.682507
-0.0255378
0.219004
-0.023997
-0.195007
2.55511
3.19998
-5.75509
0.183224
2.28695
-0.982098
-0.55473
-2.25162
0.433678
1.78305
1.04469
-2.82773
-0.00885751
-0.0651032
0.0739608
-0.0286039
1.48349
0.145688
0.0842949
-0.229983
4.48296
-2.24091
-2.24205
-4.30033
0.827329
0.224572
-3.26377
0.584227
2.67954
0.0542269
-3.47889
0.0251398
-0.88842
-0.153123
0.0409443
-1.56312
3.51382
-1.9507
0.650815
0.104101
-0.555004
-0.420561
-0.980042
0.971606
-0.855373
0.752733
-2.66352
3.93607
-1.27255
2.28854
-1.7905
-0.498043
1.75341
-1.09449
1.01916
0.214949
-0.986524
0.802545
-0.377254
-1.25145
3.68684
-3.76694
-3.26561
1.98911
-0.718085
0.877609
0.580132
0.265819
-0.118137
-0.0156763
2.9916
-3.11887
0.127273
1.62991
-1.71936
0.944176
0.775181
0.465325
-1.42188
-0.401517
-3.24038
-1.00697
0.926114
-0.660603
-1.11606
1.77666
-2.98497
0.72985
0.634968
1.00101
-1.63598
-1.24475
-0.1207
-0.480035
-1.79795
4.3256
0.451249
-2.26825
0.82418
-2.08192
1.25774
-1.12687
1.43694
-2.31708
-3.69856
-0.394644
-0.604307
2.0055
-2.81345
5.09106
-2.27761
-0.135211
-1.2862
0.18164
-1.50145
1.31981
-3.44572
-1.86496
-0.689255
0.691998
2.8942
2.16433
-0.136501
4.09
-2.00413
-1.59343
3.21053
-0.229356
-2.98117