/*--------------------------------*- C++ -*----------------------------------*\
| =========                 |                                                 |
| \\      /  F ield         | OpenFOAM: The Open Source CFD Toolbox           |
|  \\    /   O peration     | Version:  2306                                  |
|   \\  /    A nd           | Website:  www.openfoam.com                      |
|    \\/     M anipulation  |                                                 |
\*---------------------------------------------------------------------------*/
FoamFile
{
    version     2.0;
    format      ascii;
    arch        "LSB;label=32;scalar=64";
    class       volVectorField;
    location    "5";
    object      U;
}
// * * * * * * * * * * * * * * * * * * * * * * * * * * * * * * * * * * * * * //

dimensions      [0 1 -1 0 0 0 0];

internalField   nonuniform List<vector> 
13486
(
(6.82981 -1.53568 9.75098e-21)
(7.10273 0.171853 5.91751e-21)
(10.6605 0.438887 0)
(12.9322 -6.77386 -9.01472e-20)
(11.3502 -0.83034 -1.22359e-20)
(9.03129 0.518645 -8.19988e-22)
(12.189 1.74834 5.23874e-23)
(9.79439 -3.12722 4.79515e-21)
(8.91179 -1.56142 0)
(7.47081 1.59806 0)
(-2.69565 6.55844 -1.45806e-20)
(8.46404 -0.108581 0)
(6.44328 -2.31173 -9.4963e-21)
(8.5972 2.08735 -2.07404e-21)
(10.7093 0.936749 -6.95055e-21)
(7.3852 1.654 -6.07634e-21)
(0.591844 -0.316014 7.43721e-21)
(3.34045 7.12531 -1.18646e-20)
(7.96255 0.00819354 7.0992e-24)
(7.27011 -0.83226 -9.90713e-21)
(8.28073 -3.44982 -5.84477e-20)
(6.50387 -2.35909 1.22343e-20)
(7.15332 0.137121 -4.74032e-21)
(14.1467 -0.0663522 0)
(7.7866 1.29688 2.02955e-21)
(14.045 -0.295834 -7.36301e-21)
(-0.226307 0.229596 8.44498e-21)
(10.6936 -0.268221 7.90397e-21)
(7.72582 -2.55234 0)
(10.9796 -1.09245 -6.37532e-21)
(-1.18045 6.19345 -4.72257e-20)
(8.94307 1.71727 4.90606e-21)
(11.7286 0.7412 7.62173e-21)
(9.96625 -0.633533 0)
(9.82788 -2.9355 0)
(4.98104 0.388484 2.98955e-21)
(6.09289 6.97966 -1.16564e-20)
(7.60506 -3.48305 1.99629e-21)
(5.7558 -1.44708 6.86433e-22)
(8.70619 -0.925779 1.73231e-21)
(14.3646 -2.12789 0)
(5.79164 -2.76638 -1.18419e-20)
(8.84095 -0.198126 0)
(7.85386 1.08334 -9.31299e-21)
(7.84083 1.09747 3.78443e-21)
(8.48349 -0.103893 9.57705e-22)
(-1.47995 0.431396 1.46084e-20)
(8.23119 -3.08572 2.83892e-22)
(6.65598 7.48939 8.81002e-21)
(10.2153 0.304202 2.27943e-21)
(7.97957 0.00915098 6.82898e-21)
(6.06799 0.156401 0)
(7.95003 0.108957 -2.88704e-21)
(7.87688 -2.83614 -3.46771e-21)
(2.5681 6.84949 0)
(11.0936 -1.08449 6.47891e-21)
(6.88355 3.31877 -3.61184e-22)
(6.80229 -0.383212 4.10751e-21)
(11.6722 0.815204 9.30151e-21)
(3.77133 6.24449 0)
(-3.45507 4.91739 -2.12128e-20)
(3.94678 5.25995 0)
(12.7653 2.5002 -6.10744e-21)
(6.24893 -2.80992 -6.92801e-22)
(-1.36614 -4.66257 0)
(4.49832 7.27363 -6.16873e-21)
(9.03058 -6.97547 -6.65241e-20)
(6.57957 -0.669096 3.83045e-21)
(8.91455 -1.66915 -2.95924e-22)
(8.52503 0.925076 -3.64795e-21)
(10.7077 -6.39051 7.68196e-20)
(2.17443 7.08695 -7.31479e-22)
(8.45569 -0.547602 2.06439e-21)
(-1.7494 -0.83006 -5.96799e-21)
(2.33173 7.10035 -1.83846e-21)
(7.39518 3.37427 1.34685e-22)
(5.67078 7.2578 7.63142e-21)
(10.867 0.946438 2.91622e-21)
(-1.32834 0.272524 -7.70957e-21)
(9.38936 -3.79306 0)
(7.41138 0.208381 -1.16115e-21)
(6.86497 0.377271 -3.99127e-22)
(12.0817 2.12937 -4.93454e-24)
(10.9712 -0.0380853 -4.49262e-22)
(6.83537 -1.55324 -1.89191e-20)
(5.73504 3.54883 0)
(7.60272 -6.3289 -6.31164e-22)
(7.95916 0.0581342 -1.0915e-20)
(7.65788 0.117655 -4.7444e-21)
(6.80678 2.24189 -8.38666e-21)
(7.7808 1.64898 1.10706e-21)
(10.3843 -2.29106 3.93047e-21)
(7.12941 -1.8686 2.20335e-21)
(7.23416 -0.402033 2.83321e-22)
(8.82312 -2.52134 6.17648e-23)
(9.0864 -2.9198 -1.29387e-22)
(-0.63215 0.403607 0)
(3.3091 -7.09156 2.90121e-20)
(8.70128 -0.875436 -3.37479e-21)
(0.594797 -0.302931 3.33924e-24)
(5.23785 0.357092 0)
(8.55758 2.06538 -8.36419e-22)
(2.20316 -8.0922 1.1738e-21)
(5.83747 0.144742 -4.92667e-21)
(5.29266 3.22339 0)
(0.591623 -0.252176 -3.66657e-24)
(8.01209 -0.105499 -2.46338e-23)
(5.91373 -1.73429 1.30367e-21)
(-1.3529 0.116535 9.77418e-21)
(10.274 -4.5924 0)
(8.36102 -3.8322 0)
(9.97288 2.74603 1.16534e-20)
(7.91251 -2.76518 1.64806e-22)
(7.59726 0.994173 1.73993e-22)
(5.53398 -1.2379 0)
(8.17747 -3.80104 1.32243e-21)
(7.69447 1.38737 0)
(10.0115 -0.685195 0)
(8.41998 -0.519137 0)
(10.0599 9.349 -1.29273e-20)
(3.35432 5.58991 4.89045e-21)
(-4.37617 5.31926 0)
(8.60511 -2.30648 0)
(5.18754 -1.43361 -2.22221e-21)
(9.16275 -2.98126 0)
(6.83378 -0.0785916 0)
(9.51082 -0.405515 -4.60633e-23)
(8.30628 0.215194 4.13152e-21)
(8.84014 -0.436748 -8.11765e-23)
(3.3467 -6.89403 -7.04748e-21)
(5.83358 0.374144 6.248e-22)
(-1.75806 0.120118 -3.74945e-21)
(-1.09284 0.399885 9.24883e-21)
(-0.685999 0.173348 8.06297e-21)
(7.98768 -0.00103754 -1.07604e-21)
(7.52785 0.7622 -6.58123e-21)
(3.99912 0.867144 -4.39576e-21)
(10.1588 -4.1457 0)
(9.97688 9.13701 5.38185e-21)
(9.68342 -2.29324 1.0452e-21)
(11.0286 0.776022 -7.01959e-21)
(7.62539 0.1967 2.47655e-21)
(8.39726 0.917995 0)
(8.79387 -3.57181 0)
(8.54629 -0.17047 5.78769e-22)
(12.7259 2.17336 -1.16709e-20)
(10.2042 -4.92595 9.72693e-22)
(1.42284 2.03116 0)
(10.2764 0.434489 0)
(7.79721 -2.39558 0)
(8.00215 0.00641335 1.37003e-22)
(11.5465 0.505813 0)
(6.76148 0.294787 1.21523e-21)
(6.75118 0.358446 -3.46499e-21)
(8.26264 0.784856 0)
(11.9609 0.435173 0)
(11.1251 -4.53845 0)
(9.77757 3.83496 3.84952e-20)
(8.44028 -3.18735 1.36894e-21)
(8.84841 8.01931 -7.75966e-20)
(9.70073 0.185291 6.45266e-22)
(8.45584 -3.12686 -1.7486e-21)
(7.13886 3.3828 -1.81272e-21)
(5.18377 -2.60389 5.02291e-21)
(6.75724 -0.307555 0)
(8.90699 2.19785 1.5065e-21)
(8.44331 1.84457 5.75623e-21)
(3.67641 -1.61255 -1.68869e-20)
(11.1011 -4.65181 -4.02538e-21)
(-0.713376 0.0970043 2.17353e-21)
(-2.02215 -0.304189 3.79186e-22)
(8.25304 0.690505 3.3813e-21)
(7.97105 0.0914462 -1.00066e-20)
(9.50509 0.294433 -1.51248e-22)
(9.67499 -1.32429 -6.52118e-22)
(-10.307 -2.90268 0)
(8.3463 2.94215 -4.38627e-21)
(11.1887 1.16504 9.05606e-21)
(8.04669 -0.119492 -9.35748e-21)
(8.37361 0.848507 0)
(8.97333 -1.01795 1.15734e-21)
(7.62328 0.78473 3.81723e-22)
(9.30759 0.591191 5.66777e-23)
(-4.13423 1.30411 0)
(9.47736 -1.49994 6.17711e-22)
(10.4609 -0.201588 -3.56033e-21)
(7.18598 -1.46914 -7.87116e-23)
(10.443 -0.908388 -1.4825e-21)
(14.6271 -3.29315 0)
(7.516 -3.57968 1.69394e-22)
(7.03234 8.41212 0)
(9.76724 0.256767 0)
(6.51566 -1.21535 0)
(6.2649 1.65232 -8.54514e-21)
(7.27197 -1.26999 0)
(-3.83813 6.75974 -4.1017e-21)
(-0.687352 -4.82844 1.82162e-20)
(9.78111 0.106804 4.46357e-22)
(6.83648 -3.30931 -1.45427e-21)
(8.87386 2.04273 1.48735e-21)
(-1.492 5.0331 4.45628e-20)
(8.37296 0.266736 -1.29771e-22)
(7.55497 -3.55496 -2.31332e-21)
(11.395 -3.86784 -8.274e-21)
(7.6225 7.91025 9.41451e-20)
(7.03727 -1.36834 2.22528e-21)
(3.36347 9.0277 -1.10316e-20)
(8.12072 -0.433519 5.98102e-21)
(6.71392 -0.881832 0)
(9.65968 -1.08989 0)
(10.5892 -0.403854 5.07339e-21)
(13.5919 -2.08693 1.73834e-20)
(7.3247 -0.730025 9.09131e-21)
(7.96997 -0.0742644 -2.07607e-23)
(9.03717 0.622446 9.45627e-22)
(9.91856 -2.93203 4.00414e-22)
(11.0985 -0.84398 0)
(6.85238 2.12588 1.92351e-20)
(7.47678 -1.87122 0)
(10.4658 2.75828 0)
(0.704765 -0.324565 -1.41916e-20)
(10.3603 0.526527 0)
(9.59527 -2.32125 -2.73341e-21)
(10.3551 0.240019 0)
(7.28925 -0.737719 -7.77642e-22)
(6.57442 -3.0534 2.95031e-21)
(9.30442 1.19026 5.98605e-23)
(-11.8222 -1.18499 1.70829e-20)
(9.68728 -2.57527 3.69686e-22)
(7.88176 -7.52346 -9.09768e-22)
(8.97539 -0.950023 -4.26848e-22)
(18.1258 1.82298 6.57911e-20)
(11.1736 0.815551 8.75341e-21)
(5.70934 -2.73485 4.17172e-21)
(0.0634675 -7.02656 0)
(6.27546 -3.02814 3.06251e-22)
(10.0562 -0.85218 2.16354e-21)
(9.73708 0.124645 -4.20337e-22)
(6.40221 -3.03625 8.76359e-21)
(9.03188 0.302872 0)
(11.9178 0.871628 0)
(8.00147 0.0904045 1.5438e-20)
(8.37679 0.52658 0)
(6.16677 -3.02642 2.44725e-21)
(4.2107 -1.89161 1.84146e-22)
(7.6721 -0.326757 0)
(9.01591 0.0948679 7.86844e-23)
(12.4962 -0.980458 1.84088e-20)
(0.600211 -0.982022 1.40366e-20)
(7.77887 0.982002 0)
(-4.53617 -3.06364 -4.72395e-21)
(5.42791 -1.15353 1.80116e-21)
(7.77897 -3.76076 -2.55196e-21)
(5.36499 -1.73026 0)
(9.09823 -2.84936 -1.29407e-22)
(-8.54013 -1.87619 4.8206e-21)
(8.97897 1.68211 -3.50835e-21)
(9.6457 -2.92449 -5.05984e-22)
(11.9809 4.55302 -4.03018e-20)
(11.8892 0.684704 7.36047e-21)
(7.40822 0.083946 0)
(4.92196 -0.949064 5.3994e-22)
(10.7002 0.957311 1.55816e-20)
(-10.0794 -3.08813 -6.01909e-21)
(11.448 -2.7205 1.27696e-20)
(-4.30808 1.93678 0)
(9.27682 -2.35181 -5.29744e-23)
(-0.114971 3.68522 -7.0422e-20)
(8.53157 -0.0506051 -2.77568e-21)
(1.97965 1.91539 0)
(6.46263 1.82411 6.92958e-21)
(7.97833 -0.0623467 -2.7148e-21)
(10.9757 -0.93623 0)
(7.91665 -0.276039 1.2399e-21)
(6.78534 -3.18142 3.87728e-21)
(12.1321 -1.29467 -1.03148e-20)
(8.70778 -2.63494 0)
(0.157697 4.63179 0)
(5.78831 -2.31569 1.05619e-21)
(10.226 -4.73044 -6.1582e-22)
(-0.716297 4.92397 -2.40314e-21)
(9.07696 -0.455372 -1.30997e-22)
(7.94385 -0.111289 5.81005e-21)
(11.433 1.74434 -1.39125e-20)
(-5.30228 5.1058 2.33939e-20)
(0.227674 0.288964 1.42719e-20)
(10.9316 0.997379 6.74247e-21)
(9.57191 -0.582293 1.06744e-22)
(6.4918 -0.148959 1.46201e-21)
(8.44885 -0.062875 0)
(0.533101 -5.61386 0)
(2.27321 2.50729 7.08689e-21)
(8.03195 -3.69806 -8.73603e-23)
(7.99676 0.00552523 -1.04333e-21)
(10.0068 -0.84846 1.50692e-21)
(10.2722 -0.942964 0)
(9.46724 -0.0298736 -9.5222e-22)
(8.53742 -0.53757 -1.2342e-21)
(7.95991 -0.161535 -5.19119e-21)
(13.2572 0.375388 -1.99248e-20)
(7.51046 3.42256 2.34193e-21)
(3.17313 8.56449 6.60541e-22)
(11.0781 -4.70118 5.24795e-22)
(9.22997 1.61775 -4.38495e-21)
(8.69929 6.84627 8.26151e-22)
(11.0405 -5.64032 0)
(14.869 2.86721 0)
(8.25439 0.0569374 -1.80148e-22)
(6.04686 -5.70487 1.41349e-21)
(6.41023 8.70522 0)
(7.12297 5.11451 -1.00062e-20)
(11.5256 -7.03993 0)
(8.07109 2.79478 3.02413e-21)
(9.84612 2.66182 1.02594e-20)
(4.02101 5.48466 0)
(7.5165 0.622711 -4.19178e-21)
(2.00402 3.02851 -1.08451e-20)
(7.6031 0.0937522 -4.07309e-22)
(8.06668 -0.43436 -6.87271e-21)
(9.36923 -2.26546 0)
(6.2259 7.43886 1.14923e-20)
(3.76508 2.22639 -1.11635e-21)
(8.04249 -0.0443394 1.18984e-21)
(7.18447 -0.278531 -5.51569e-21)
(4.30738 0.543418 7.97644e-21)
(8.03047 1.84414 -1.83174e-21)
(10.1405 -0.532417 1.38866e-20)
(9.12698 -0.428344 0)
(8.4367 -0.976753 1.13022e-22)
(10.2978 -0.375488 3.96947e-21)
(7.99259 -0.0188626 1.57607e-20)
(10.5344 -2.20699 0)
(7.39867 1.91834 4.49585e-22)
(6.36744 0.296893 0)
(12.1978 1.98167 3.88955e-20)
(9.06203 -2.25206 5.43115e-22)
(4.66703 -2.24671 5.72644e-21)
(11.5167 0.254341 1.3265e-20)
(7.95522 0.316119 0)
(4.53076 -0.781795 -1.11518e-21)
(9.46283 -2.15499 4.03099e-22)
(7.17495 -0.276263 5.21585e-21)
(10.4052 -0.36897 -1.30878e-20)
(9.23212 0.637624 -3.07518e-21)
(-6.05405 1.9156 -1.00769e-20)
(8.43624 -2.93964 -4.19659e-23)
(9.38212 -0.0815323 0)
(5.48059 -2.15493 1.29059e-20)
(10.5193 2.75904 0)
(2.16407 2.28145 1.33184e-21)
(8.90129 0.011531 -8.8872e-22)
(8.10699 -0.78889 -1.59283e-21)
(8.28611 -0.463549 1.24079e-21)
(-0.841236 0.60631 -1.00902e-20)
(7.98346 -0.140113 6.43751e-21)
(10.6257 -1.84329 0)
(-1.7621 -1.01083 -4.97933e-21)
(9.49386 -0.348749 9.62069e-22)
(8.13304 -7.11905 -1.96674e-21)
(13.2253 -2.37534 1.30904e-20)
(9.25504 0.0108609 0)
(7.6617 1.56564 4.03626e-22)
(7.53478 -0.118146 1.12779e-20)
(7.9749 -0.0644483 8.27236e-21)
(11.0027 -1.18705 0)
(6.30334 0.302571 2.26749e-22)
(10.2853 -0.861777 -2.03198e-21)
(-1.93333 0.530939 1.89891e-21)
(7.22367 -0.815467 1.27351e-21)
(9.45481 -0.287875 -9.17633e-22)
(9.27863 -0.198514 -4.44794e-22)
(9.30041 -0.124973 0)
(7.18249 -0.694518 -3.48251e-21)
(-4.94446 -2.59143 3.51143e-21)
(8.82656 1.18357 -2.43901e-21)
(8.01547 -0.000129589 5.65349e-21)
(6.49732 0.0062206 0)
(3.49502 0.355278 -5.23708e-21)
(5.30252 5.37052 0)
(10.3212 3.79899 -2.55723e-21)
(8.58634 -0.0813069 0)
(10.7331 -2.73897 -3.45316e-22)
(6.4619 -1.25534 -2.97804e-21)
(6.60038 1.51644 1.57144e-20)
(-2.05289 0.632675 -8.78431e-21)
(8.9388 -2.54549 0)
(8.49903 0.179254 -3.77906e-21)
(7.96025 0.33616 -4.43793e-21)
(1.39077 -0.395326 -4.9161e-21)
(7.61387 5.50988 8.44761e-21)
(7.41493 -0.781717 -1.32905e-20)
(10.9857 -0.76088 3.23805e-21)
(8.09369 0.390818 3.49648e-21)
(7.14047 -2.3587 0)
(6.20942 -0.00125202 7.0169e-21)
(10.5975 10.0634 -3.05899e-20)
(10.9558 -7.32712 5.11892e-20)
(-4.18455 -1.4312 -1.19627e-20)
(1.23565 -0.314342 -9.1881e-21)
(10.9637 0.978729 0)
(1.51256 -0.358469 0)
(7.33627 2.83067 0)
(8.90302 -0.226975 0)
(12.388 0.696843 -2.7429e-20)
(11.6562 2.01984 0)
(7.22377 -5.6764 0)
(7.297 -0.318409 2.06871e-21)
(11.1772 1.14526 -9.30506e-21)
(9.22751 -0.180054 1.13763e-21)
(7.10085 0.269699 2.09721e-20)
(8.00411 0.0655123 -2.17496e-21)
(7.47379 4.38021 0)
(11.0474 -0.403816 0)
(7.92747 -0.157194 5.58234e-21)
(8.1012 0.0332873 9.56516e-22)
(4.14919 1.11825 0)
(-3.64225 0.849658 7.56584e-21)
(11.4136 -2.84406 -1.43242e-20)
(-1.93026 -0.834011 0)
(8.977 0.346771 -1.38156e-21)
(8.05281 -0.0745414 -6.33131e-21)
(9.37939 7.24785 1.2347e-20)
(5.4481 -2.12114 0)
(7.95586 0.343612 8.00689e-21)
(9.50662 0.78774 0)
(10.469 -0.842153 0)
(8.3897 0.487636 -6.18407e-22)
(7.92258 -0.101642 3.1198e-21)
(-0.214658 0.507536 -1.10593e-20)
(8.38897 1.76573 1.928e-21)
(6.63485 -2.01315 -4.59963e-21)
(8.74975 -0.20016 2.55714e-22)
(8.13349 0.443936 2.79618e-21)
(7.15388 -0.771747 1.01654e-20)
(11.9091 -2.38595 0)
(12.0669 -0.603293 8.37776e-21)
(6.4215 -1.04731 0)
(2.52171 1.54489 5.02394e-21)
(9.47251 0.199908 0)
(6.64853 -0.635161 8.17906e-21)
(-0.90686 0.864891 -1.25597e-20)
(11.2173 -0.686391 0)
(-0.414892 -0.0869586 3.66641e-22)
(11.3059 -0.460798 -7.14851e-21)
(7.53862 -7.69485 -1.2406e-20)
(8.13691 -1.31557 8.01507e-21)
(6.04899 1.3667 -9.90595e-21)
(6.59726 -1.99362 -1.37079e-20)
(10.7072 3.6786 0)
(8.69899 8.31309 8.32766e-21)
(-6.01688 2.67829 -2.71056e-20)
(7.94789 0.341304 0)
(7.58811 0.125637 4.46244e-22)
(10.0068 0.170506 -5.12621e-22)
(9.02568 3.28307 0)
(8.0035 -0.0120751 0)
(0.00166205 -1.10133 0)
(-10.4838 -2.74404 2.53105e-20)
(10.3346 1.91537 1.64774e-20)
(11.0412 2.64869 -4.8019e-22)
(8.04186 2.63044 0)
(7.75711 -1.09522 7.15713e-21)
(10.0058 -1.32337 1.48217e-21)
(8.39782 1.62448 -4.41521e-21)
(10.2679 -5.00883 1.02956e-19)
(7.77883 0.0630825 0)
(8.07169 -2.89854 0)
(4.58098 -1.51791 -9.82352e-21)
(7.03252 -2.3512 -2.89611e-21)
(8.59624 -0.720098 0)
(9.40145 -4.2827 5.76776e-21)
(4.75672 0.400042 -2.00438e-21)
(9.07573 -2.48383 1.12823e-22)
(4.99424 -2.36479 0)
(8.15165 -0.546461 -1.02754e-21)
(12.3182 9.32346 1.95306e-20)
(9.56347 0.771562 -2.14635e-22)
(9.04722 -2.38472 0)
(0.181809 0.273689 -2.1572e-20)
(8.11409 -0.541506 1.34788e-21)
(7.96417 0.145551 1.5443e-21)
(14.1221 -1.98152 1.52751e-21)
(9.09235 2.20241 0)
(7.10509 0.280588 -5.56217e-21)
(10.6139 2.1578 -2.16355e-21)
(0.977423 -0.296661 1.95278e-21)
(7.98049 0.0590332 0)
(6.90322 4.14884 -8.6693e-21)
(3.78839 -1.41316 0)
(8.01737 0.0706209 -6.18843e-21)
(7.97275 0.013948 2.29499e-21)
(7.91159 -0.2709 -1.08854e-21)
(-9.54102 -2.78095 0)
(9.75845 0.00252205 -9.21989e-22)
(5.34026 0.274831 2.01946e-20)
(11.7887 -2.44542 0)
(7.24428 -0.374392 6.31945e-21)
(13.0385 0.0809231 2.29434e-20)
(8.47221 0.0514859 0)
(-2.96011 1.83165 3.14054e-20)
(8.81092 -3.54814 8.85745e-24)
(9.12828 -0.21468 0)
(0.18713 0.0540923 1.37733e-20)
(7.55313 0.0893489 0)
(8.73529 -3.86662 -1.24399e-21)
(-4.38296 -2.97972 8.58579e-21)
(7.06213 -1.62122 8.01168e-23)
(9.08711 0.514134 1.31311e-21)
(6.23325 -0.0505663 3.6273e-21)
(8.1295 -1.4119 -2.81501e-21)
(8.73436 -2.4416 2.96632e-22)
(8.76589 -3.71175 1.62292e-22)
(9.42493 -0.352876 -6.01391e-22)
(9.07804 2.17794 -2.62269e-21)
(11.1269 -4.58102 0)
(7.99358 -0.0133681 -5.01497e-21)
(-2.5938 -0.0400432 -5.09716e-21)
(6.52066 -1.06654 0)
(1.2559 9.95711 -1.68671e-20)
(8.80261 -0.308311 0)
(6.22923 -2.1018 1.2393e-20)
(10.5849 -3.272 0)
(4.61728 0.239532 -5.35222e-21)
(9.20585 -0.0194374 4.72867e-22)
(-4.94534 2.2525 5.08874e-20)
(0.817605 -2.62058 1.11561e-20)
(9.14822 0.0563089 2.26736e-24)
(9.61177 -4.42011 -1.15647e-20)
(8.55416 -2.32905 1.25164e-21)
(7.12721 -1.86255 0)
(-2.74733 2.25795 -5.79021e-21)
(12.0249 -2.08877 2.82289e-21)
(-2.46746 2.48158 -7.00325e-21)
(8.88513 -2.86809 -7.78811e-23)
(7.16527 -2.79258 0)
(8.84586 0.00744689 -4.53963e-23)
(-4.21654 1.10904 0)
(0.458247 -7.07567 1.19744e-21)
(9.3551 6.82724 -1.67429e-20)
(15.0429 5.51075 0)
(9.92834 -1.89938 -1.09754e-21)
(-2.4136 -3.2914 0)
(9.05737 3.16211 0)
(8.30763 -3.85 1.57312e-21)
(6.44402 0.145616 5.67232e-21)
(9.54022 -4.58075 0)
(7.52022 -0.0512032 -3.20561e-21)
(11.0826 2.44384 1.2594e-20)
(-6.91452 -1.35513 1.86728e-20)
(8.87193 4.07624 0)
(8.58935 -0.0412303 0)
(-5.77785 3.53042 -1.25314e-20)
(8.18604 -0.633175 0)
(10.2584 -0.333168 0)
(-3.83267 4.14903 -7.57518e-22)
(9.47757 -1.24005 2.22473e-21)
(8.27265 -1.95609 1.74098e-21)
(12.1232 0.579142 1.10509e-21)
(-3.03108 2.71316 1.1884e-20)
(7.97164 0.00415787 2.58929e-21)
(7.29701 -1.92361 0)
(8.13713 1.1569 -1.72718e-21)
(6.78025 -1.45592 0)
(9.68457 0.0383092 0)
(7.99714 0.177388 0)
(8.37045 0.463157 -5.00744e-22)
(8.07102 -0.46332 3.186e-21)
(8.70811 0.0153356 -1.1803e-21)
(7.46996 -1.93636 0)
(-0.569476 0.46401 -8.0912e-21)
(7.29207 2.66366 4.60932e-21)
(9.1646 -2.99309 -1.78377e-22)
(9.38035 -0.670452 -7.31712e-23)
(12.053 -1.15124 1.54422e-20)
(8.14129 0.0399257 -3.51889e-21)
(-0.801752 0.87555 0)
(7.95309 -0.333804 0)
(5.38015 1.39134 0)
(6.30018 -2.83532 -8.16496e-21)
(-8.59447 1.59585 -1.47657e-20)
(13.6289 5.07602 0)
(8.19598 1.16571 0)
(6.39644 -0.00906925 2.68006e-21)
(8.17863 -0.0378677 -4.36461e-22)
(7.37546 1.31098 8.0728e-21)
(12.0939 -3.89163 0)
(-4.01201 4.82385 -3.5272e-21)
(8.59368 0.199916 2.0051e-21)
(6.88576 -2.24073 -7.19223e-21)
(8.35737 0.209768 -3.14988e-21)
(8.37864 1.64142 5.81285e-21)
(10.7945 -1.11321 1.78774e-20)
(6.21638 -2.8049 1.42512e-20)
(9.9472 -3.70531 1.62979e-21)
(7.84429 0.916537 4.07617e-22)
(8.00663 -0.00890659 -1.17072e-21)
(8.65751 -4.12418 2.50828e-21)
(8.44263 -3.55297 4.1398e-23)
(5.55239 4.59444 -5.79765e-21)
(9.09562 -4.16617 -2.25936e-21)
(8.66323 -1.2017 0)
(7.91544 -7.58838 8.33834e-22)
(8.67675 -0.0308619 -6.90013e-21)
(9.80372 2.59811 4.67294e-22)
(6.75456 -2.1145 -6.91752e-21)
(9.04215 -2.88389 8.7036e-22)
(8.43086 0.0362386 2.05775e-22)
(10.7138 -0.0962072 -1.18255e-22)
(5.73423 -3.50814 -4.04638e-21)
(10.8305 1.09722 -3.58519e-21)
(5.87545 -1.49732 -1.86837e-20)
(8.49756 -0.0175097 -5.97898e-21)
(5.86405 -1.72668 0)
(-9.22579 0.382831 -7.72942e-20)
(9.01717 0.028449 7.057e-21)
(4.04224 0.208771 1.0635e-21)
(-1.76693 -1.11927 0)
(10.5408 -4.45756 0)
(7.80117 0.912573 6.90389e-21)
(5.4244 -1.52372 1.20576e-20)
(-5.43839 -2.95239 -3.25175e-20)
(10.7725 -2.73069 5.293e-21)
(10.2302 -0.480468 -7.82289e-21)
(10.6286 2.66365 0)
(7.7791 0.99428 3.99658e-21)
(3.69542 7.84878 -3.75061e-23)
(8.48411 2.86741 -3.61381e-21)
(8.84563 -0.9687 -1.46968e-21)
(-3.32221 2.87091 -1.88907e-20)
(11.9211 -1.46672 -1.45455e-20)
(12.5329 -0.587882 4.83808e-21)
(7.7701 3.11421 0)
(9.81888 -1.85286 -7.08299e-22)
(7.93181 -0.267464 9.4388e-22)
(8.44612 -0.265682 -1.21371e-21)
(5.20604 -2.57795 1.45194e-20)
(8.79014 -1.01441 2.29992e-21)
(2.56242 7.69248 3.14471e-20)
(-7.66373 -2.02415 -8.14407e-21)
(10.251 -0.415568 -2.64309e-21)
(8.70803 0.0624731 5.36331e-21)
(-4.87874 5.12953 -2.83597e-21)
(8.26829 2.72399 8.14295e-21)
(0.39861 -0.18688 -1.49654e-20)
(6.5304 -3.11761 -3.29978e-21)
(7.72185 0.0805439 0)
(7.23756 2.8263 -1.14903e-21)
(-5.66279 0.637371 -1.13931e-20)
(6.43117 -1.33809 1.57557e-20)
(6.97373 -1.0964 0)
(6.37064 2.96892 -9.20484e-22)
(6.04669 -2.5542 3.48931e-21)
(7.98944 0.0193361 -1.11369e-20)
(-4.99354 0.442857 -8.0072e-21)
(10.8293 -5.40668 -8.27601e-22)
(9.30162 -0.159057 -8.41548e-22)
(8.67 0.199729 5.66615e-21)
(8.87553 -3.92483 2.90374e-21)
(8.50551 0.426116 1.56255e-21)
(-8.38068 -0.320136 -3.88148e-20)
(8.43036 -0.0206764 6.47242e-21)
(8.70989 -0.187754 -1.18829e-21)
(8.26589 0.265942 -7.58257e-23)
(9.82544 0.0428088 -1.47264e-21)
(5.91499 -2.62837 -6.75148e-21)
(7.94184 0.742635 0)
(-12.012 -5.02297 2.63024e-20)
(8.63087 0.0449838 6.80676e-22)
(9.82055 6.31403 1.65081e-20)
(9.49368 0.160685 1.33549e-21)
(10.0912 -0.804296 3.66233e-21)
(8.0035 0.0459989 -9.71472e-21)
(8.06404 0.718102 2.18077e-21)
(-3.27895 0.541456 -7.77677e-21)
(10.4521 -0.243199 0)
(4.2385 0.539203 2.4476e-21)
(8.69436 -1.07791 1.63256e-21)
(7.19739 -2.73985 0)
(8.27368 0.201537 4.38005e-21)
(8.69911 -1.1293 1.76803e-21)
(10.6025 -0.056881 2.19464e-25)
(15.1828 -4.43984 2.04665e-20)
(7.3226 -1.1438 0)
(7.28614 0.517835 1.07415e-20)
(7.05486 9.14285 -1.51563e-20)
(8.72915 -3.97452 -2.43928e-21)
(8.78239 -0.611809 0)
(6.48193 0.114987 -1.62368e-20)
(3.47378 4.72866 3.40578e-21)
(8.09873 4.0613 3.14621e-21)
(5.93285 -1.54766 1.81914e-20)
(9.74233 -0.285839 2.01802e-21)
(0.33943 -1.99903 7.56177e-21)
(8.38429 -0.517867 -3.86311e-21)
(12.0187 -0.241252 -1.11141e-20)
(7.52733 -0.0888263 -6.56866e-21)
(8.32293 -0.155709 0)
(8.01131 -0.020195 -4.37484e-21)
(5.04068 -3.56422 1.32578e-19)
(-1.4848 -0.526595 0)
(13.4817 -1.24278 0)
(8.32246 -0.165397 0)
(0.783891 -0.292483 0)
(7.96485 0.640206 0)
(5.68039 -1.48788 0)
(10.1418 -2.85629 -1.26448e-22)
(11.4983 2.63031 -8.04294e-21)
(9.36543 1.28078 0)
(7.3013 0.381099 1.60773e-20)
(3.04602 0.489069 -1.27061e-20)
(8.09681 0.440193 1.00434e-22)
(-4.89291 1.98915 -5.46577e-21)
(5.57836 -0.789592 7.44998e-23)
(-3.34781 0.586094 6.66667e-21)
(7.69386 0.0616356 2.12555e-22)
(10.3439 0.294039 3.61272e-22)
(7.92327 0.589182 -4.50559e-21)
(7.67324 0.0559193 -9.28302e-21)
(7.20789 2.34516 -8.38535e-21)
(10.5241 3.89286 0)
(8.41257 -1.39425 2.40558e-20)
(6.3059 -2.16359 -1.35449e-20)
(8.01592 0.0165664 -1.29686e-20)
(12.0324 -1.84986 2.54684e-20)
(9.67711 -0.0215933 4.30084e-22)
(14.5772 0.322523 -2.68723e-20)
(9.49394 -0.68825 3.34273e-22)
(9.95234 -1.86881 4.0312e-21)
(7.97587 0.304268 4.59993e-21)
(8.02977 5.84311 0)
(8.30652 -2.34771 5.0306e-22)
(7.36715 -0.392788 -1.96751e-21)
(11.3635 2.4056 0)
(5.81257 -1.87232 0)
(9.49865 -4.09516 -1.38953e-22)
(0.874703 -3.33841 9.73824e-21)
(10.0071 -2.84589 -2.59491e-21)
(6.22056 1.15937 0)
(8.19553 -0.448718 -6.04942e-21)
(7.48508 0.0918173 -1.80575e-21)
(-8.72535 -4.59305 1.95251e-20)
(9.64438 -1.28585 6.64268e-22)
(-2.54011 -0.040148 0)
(8.77413 -1.82725 2.68173e-20)
(8.57453 -1.06818 0)
(9.78016 -1.95502 5.97372e-22)
(7.29258 1.53702 2.51933e-22)
(8.01796 -0.00727327 3.37148e-24)
(8.44778 1.87353 -1.02146e-20)
(8.88852 3.61537 -4.90997e-22)
(8.29818 -2.29288 3.46621e-21)
(3.86443 6.34359 0)
(1.16203 -3.57715 -4.6821e-21)
(7.14227 0.205026 0)
(9.52986 1.32181 4.39076e-23)
(-9.68082 -5.49236 4.91488e-20)
(14.7033 -1.47961 1.74136e-20)
(4.97757 0.401394 -1.28918e-21)
(-7.60581 -1.37022 -2.94036e-20)
(7.96162 -3.67647 2.8173e-21)
(6.46523 -2.15901 -7.5313e-21)
(9.72049 9.9407 9.39998e-21)
(0.635852 -5.13534 3.97518e-21)
(5.95067 -2.66143 5.56635e-21)
(6.68165 -2.23489 7.75985e-21)
(-9.59674 4.33521 2.75558e-20)
(3.71522 -5.76759 -9.85535e-21)
(8.88767 -2.52522 -2.10723e-22)
(-1.87936 0.835011 9.23188e-21)
(8.99145 -0.143671 7.24003e-22)
(3.28373 -0.155173 1.20994e-20)
(8.57204 1.21182 -2.36691e-21)
(11.1981 -1.15855 0)
(0.768615 -0.288236 -1.79577e-20)
(8.39095 -0.0280541 -7.6447e-21)
(7.96335 0.154072 0)
(9.46828 1.22354 0)
(-0.977219 3.62419 6.12945e-21)
(12.925 0.560501 -1.24538e-20)
(8.97972 0.722504 -4.04577e-21)
(9.46936 -1.20416 -2.97952e-21)
(7.24289 2.31024 7.14022e-21)
(7.05469 -0.0252387 -3.44581e-22)
(-10.6678 -6.43676 2.05664e-21)
(7.07375 1.23341 0)
(6.84277 -2.33498 7.02651e-21)
(-0.956655 6.49415 2.30375e-21)
(-7.09816 -1.71874 2.25321e-20)
(8.38227 -3.03619 2.40455e-22)
(11.7387 -5.58791 9.74702e-21)
(7.90095 -0.0125157 -8.32842e-23)
(4.68795 -1.72766 -5.93026e-22)
(10.7463 -1.21955 6.4813e-21)
(-8.35052 -5.28773 -2.28033e-20)
(8.94896 0.686398 3.06532e-21)
(7.99548 -0.155077 3.15381e-21)
(5.81359 -1.70019 -7.45641e-21)
(8.21929 -0.552686 3.56071e-21)
(5.61092 -3.4366 0)
(8.84504 1.16328 4.18091e-21)
(8.04141 -0.0960093 7.02227e-22)
(7.06179 -1.74961 -2.33937e-21)
(6.33781 4.15376 -4.79229e-21)
(8.74504 -2.50803 4.46214e-22)
(8.11348 -0.0190625 1.15927e-21)
(6.32279 -0.439385 -1.16327e-20)
(11.6704 1.89216 0)
(4.87049 1.31484 -1.40667e-21)
(8.45566 0.242587 4.2599e-21)
(9.00309 -0.798368 0)
(6.51449 -0.728158 6.36566e-21)
(9.23223 -1.08868 0)
(5.71922 3.99924 1.93306e-20)
(10.2072 -0.0263251 0)
(8.59997 -2.36338 0)
(8.6966 -0.157263 4.08326e-22)
(8.91145 0.52942 2.5254e-21)
(10.5536 1.43217 -4.17961e-21)
(7.80211 0.0497947 -4.20702e-21)
(6.01101 2.24593 -5.19957e-21)
(7.92915 0.0872129 -1.93522e-21)
(8.03502 0.679559 0)
(-0.931291 0.422902 -1.49391e-21)
(9.23037 0.544889 -1.29366e-21)
(9.60871 -2.04739 -1.13541e-21)
(11.2408 -1.21663 0)
(9.91439 2.55332 9.24372e-22)
(7.12242 4.26432 -7.85794e-22)
(8.99526 -0.172878 3.40992e-21)
(-2.20314 1.13164 0)
(-3.34772 3.818 1.86431e-20)
(8.05658 0.321384 0)
(10.8616 -0.958875 -3.12193e-21)
(0.578524 -0.739114 0)
(7.95149 1.0445 0)
(8.82443 -4.24845 0)
(10.3073 -3.27038 0)
(-3.52904 6.44919 -1.94118e-21)
(-10.5701 -3.2149 -5.78896e-21)
(8.0522 -0.44055 -4.78779e-21)
(-7.1097 1.5288 -6.15298e-20)
(6.29799 -2.73462 0)
(-9.2792 0.353052 -2.67281e-20)
(0.298461 -1.03781 -1.39222e-20)
(7.75189 -3.5557 0)
(7.18084 -2.58492 -6.48004e-21)
(5.8819 6.98274 -2.1162e-21)
(8.54882 1.13381 6.19947e-21)
(13.8439 -2.64173 -1.78942e-20)
(7.65118 -0.00167599 0)
(11.2631 -2.49172 0)
(11.4298 2.12473 2.32989e-21)
(8.109 -3.46101 -5.54187e-23)
(9.72686 6.91587 -2.79592e-21)
(0.0347759 2.89698 8.01804e-22)
(7.9963 0.00256738 3.254e-22)
(7.09544 2.63548 -4.92962e-23)
(7.97833 0.297687 6.51943e-21)
(3.35764 1.6314 1.97897e-21)
(9.02831 -2.18562 0)
(-0.62049 1.07655 0)
(8.4131 0.307629 0)
(9.15807 -1.39229 0)
(8.03115 -1.57977 2.21334e-21)
(10.7704 0.480553 0)
(-3.71349 6.45182 3.33108e-20)
(5.43743 -0.851137 4.89905e-22)
(6.5821 -2.28867 -1.18832e-20)
(1.9005 1.58999 4.75259e-21)
(-11.6206 -4.06921 -1.35217e-20)
(-1.93054 7.3244 -1.56027e-20)
(8.96353 0.0729952 9.12944e-22)
(-9.55306 -5.20034 -1.41722e-20)
(3.48793 2.19999 5.33427e-21)
(9.0316 -0.169253 0)
(10.5579 0.318148 0)
(6.98736 -6.29352 0)
(10.1205 -0.923005 -2.18254e-21)
(0.950021 -4.7299 0)
(7.10341 1.20198 0)
(8.00454 0.00644645 0)
(8.31567 -1.93897 1.6527e-21)
(8.07858 0.383762 -6.99896e-21)
(8.59656 0.849007 0)
(10.293 -2.82397 -2.73018e-21)
(7.86631 0.288218 -5.65429e-21)
(8.53253 2.74754 7.35726e-21)
(7.84423 -3.50884 1.7916e-21)
(7.29406 1.46688 1.265e-22)
(9.32423 -3.74982 -7.18721e-23)
(6.39289 -1.88035 -1.03802e-21)
(9.31987 -2.62863 5.71982e-23)
(8.86671 0.561926 -3.36502e-21)
(11.2771 7.46159 -1.28272e-20)
(7.70167 -0.219096 -5.80238e-21)
(8.36069 -0.0160967 0)
(9.79348 5.87857 -1.23698e-20)
(7.97282 -0.0729775 6.019e-21)
(3.03426 6.12795 5.87496e-21)
(9.46024 -0.702392 7.67381e-22)
(5.5206 -1.59016 -1.31172e-20)
(8.91746 0.473375 5.56244e-22)
(10.6326 2.17038 3.12987e-21)
(7.99839 0.10883 0)
(8.90369 -6.3505 6.31401e-22)
(6.22136 0.652513 1.14174e-21)
(9.14659 -2.56118 3.2314e-22)
(9.13289 -5.45688 -1.17485e-19)
(8.30204 -0.0503457 2.424e-21)
(8.10111 0.802647 -4.4293e-22)
(9.30898 -0.310351 -1.52215e-21)
(8.26769 0.0165116 0)
(4.63396 2.72674 0)
(7.32591 -3.42217 3.44528e-21)
(-3.94903 0.0747866 8.64895e-21)
(6.69874 0.306737 -2.18222e-22)
(8.00389 -0.0809421 1.18182e-20)
(7.66698 -5.83065 -4.27071e-22)
(6.45854 -0.00510777 0)
(7.61472 -0.253088 0)
(7.57463 -1.81717 -2.19798e-22)
(8.41067 -0.106559 6.20102e-22)
(7.38795 1.37724 1.14981e-20)
(8.62211 0.64952 0)
(8.87695 -0.150352 0)
(10.2467 -2.07127 -9.66978e-21)
(8.6658 -0.585011 1.96985e-21)
(4.8691 -2.13919 -1.66396e-20)
(8.29025 -0.476474 0)
(4.94654 0.962904 2.71575e-21)
(11.3682 -2.77329 -1.9904e-21)
(-6.79644 0.480632 -1.34659e-20)
(8.39975 -0.194771 -4.48846e-21)
(12.6757 1.90871 0)
(12.9643 0.547507 1.00079e-20)
(-0.567358 0.506699 -3.15973e-20)
(-0.63128 2.011 0)
(13.1776 -2.95708 -2.95907e-21)
(7.84917 -0.0797141 -4.14775e-21)
(4.19891 0.167555 -1.6152e-23)
(8.0184 2.04012 -8.45515e-22)
(6.64365 6.73347 3.26313e-21)
(8.75839 0.0515024 0)
(5.53226 -2.2247 -1.83599e-22)
(8.03399 -4.91713 -5.79014e-22)
(5.22674 4.84539 -3.16018e-20)
(7.92968 0.604781 5.33536e-21)
(3.50975 7.7192 4.37098e-20)
(8.11095 0.000370305 -1.08604e-20)
(4.52801 9.67027 -2.11231e-20)
(4.90396 -2.04271 -2.02696e-22)
(8.16595 -1.81706 0)
(7.90748 -0.0490736 4.48299e-21)
(5.86541 -2.72714 4.4611e-21)
(9.03624 -0.0174246 4.25982e-22)
(8.03782 -0.0841627 -5.2675e-21)
(10.5711 -1.06472 2.60125e-21)
(7.58249 -1.05884 1.12739e-20)
(8.71057 -0.129755 -8.13531e-22)
(7.57429 -0.187853 3.54654e-21)
(4.99016 10.1542 -3.15017e-20)
(12.2641 0.762998 -1.20898e-20)
(8.31013 2.96616 6.13597e-21)
(-2.67524 -0.585199 2.54824e-20)
(8.19457 0.0323258 0)
(7.52575 -6.6802 0)
(14.2775 1.89163 0)
(6.54176 -2.16937 9.40163e-21)
(7.90625 0.025739 -8.3207e-21)
(7.44221 0.0891585 0)
(7.22004 -1.77637 -6.42279e-21)
(7.45097 0.0173034 0)
(8.0349 -1.40702 -3.62145e-21)
(9.76647 -2.05537 -1.41639e-21)
(8.87757 -2.0373 -2.75579e-23)
(8.85688 0.0497523 0)
(8.02522 -0.179881 0)
(8.98188 -0.825214 -2.62242e-22)
(9.3356 1.10293 -5.95531e-23)
(10.6752 0.0981472 3.2447e-21)
(7.33029 4.55233 -5.51511e-22)
(8.30283 1.40127 0)
(8.41685 -2.95879 -2.686e-22)
(-1.3982 -0.11535 0)
(4.39825 1.46308 -8.59964e-21)
(8.96338 3.63717 0)
(8.1174 0.682499 8.87681e-22)
(5.88718 -1.41618 4.88247e-21)
(7.04144 -1.1262 4.16022e-21)
(9.35358 -0.580849 3.02227e-23)
(8.04074 -1.85314 -8.00262e-20)
(8.62598 -0.744017 4.95891e-21)
(7.96217 0.653417 -1.14419e-22)
(14.2841 0.113957 3.31223e-20)
(9.20825 -1.57846 4.69232e-22)
(-1.01098 0.432823 5.91113e-21)
(9.3032 1.65096 0)
(8.03614 -0.0312655 -1.1939e-23)
(7.36421 -2.00135 0)
(4.28052 -1.80167 8.06163e-22)
(8.53697 -2.91755 8.00274e-24)
(7.62134 -0.965038 -3.62861e-21)
(5.80046 0.306661 -2.51743e-22)
(9.83837 0.281789 -8.60754e-22)
(7.45797 -0.673456 8.54346e-21)
(8.93298 0.250747 5.46532e-22)
(8.88494 7.98814 0)