/*--------------------------------*- C++ -*----------------------------------*\
| =========                 |                                                 |
| \\      /  F ield         | OpenFOAM: The Open Source CFD Toolbox           |
|  \\    /   O peration     | Version:  2306                                  |
|   \\  /    A nd           | Website:  www.openfoam.com                      |
|    \\/     M anipulation  |                                                 |
\*---------------------------------------------------------------------------*/
FoamFile
{
    version     2.0;
    format      ascii;
    arch        "LSB;label=32;scalar=64";
    class       volScalarField;
    location    "4.8";
    object      p;
}
// * * * * * * * * * * * * * * * * * * * * * * * * * * * * * * * * * * * * * //

dimensions      [0 2 -2 0 0 0 0];

internalField   nonuniform List<scalar> 
13486
(
2.50233
1.99155
0.128591
-0.0772813
0.864243
-0.221267
0.408146
1.44094
1.71599
0.873887
-11.7043
0.426912
2.63679
-0.294817
0.683554
0.973257
-5.88926
0.0851644
0.597411
2.25251
-0.0704964
2.60635
1.95226
-1.71512
0.834283
-1.57543
-7.38819
-0.879549
0.00274969
-0.732139
-0.0669796
0.513114
-1.7691
-0.524422
1.44381
0.0160968
0.0255498
2.05835
-0.068411
1.70906
0.315534
2.73599
0.0379073
0.835191
0.796881
0.400581
-5.88203
0.00519807
0.0248783
-0.895807
1.45562
-0.093192
0.303309
2.0915
0.0254299
0.927551
0.070244
-0.0953733
-1.68252
0.0421798
-10.208
0.0425749
-3.80013
-0.0639625
-0.732393
0.0300523
-0.0944799
2.4959
1.70626
-0.00605747
-0.0948478
0.0391488
1.71226
-5.05836
0.0382968
0.0718235
0.0352163
0.668989
-7.30294
-0.192063
0.00631855
2.01401
-4.09697
0.144635
2.51292
0.827397
-0.473157
1.37512
1.65108
0.956038
0.368269
1.26047
2.4043
2.13725
1.78366
0.00495909
-7.47197
-0.142461
1.68278
-5.94414
0.0280179
-0.200492
-0.153179
-0.0893863
1.01992
-6.03014
1.67004
-0.0763783
-6.8771
1.15142
1.65836
0.432629
2.09012
0.0584994
2.92934
1.73271
0.835946
-0.490003
1.72738
0.0235176
0.0788548
-10.0537
1.86102
-0.0753692
1.65077
-0.0826095
1.22775
0.394672
-0.429847
-0.617303
-0.078913
-5.38216
-4.82112
-4.68252
1.5279
1.33886
2.89131
1.19482
0.0230383
1.4799
-1.41728
0.296805
0.497926
-0.193494
0.0540677
-4.50369
-0.39897
1.68967
-0.974844
0.00138777
0.960589
0.6458
0.00764475
2.05465
0.46585
0.1246
0.966335
0.105954
1.87377
0.055973
-0.685322
1.87424
0.307772
2.72809
-0.0957089
-0.567908
-0.043153
3.35481
-0.39188
-4.65908
-4.959
0.481207
1.14838
0.927847
0.00444721
-1.18409
-0.526669
-1.69384
1.67506
0.508652
1.60903
0.0585946
0.750838
-3.56171
0.130742
-0.883925
0.00125659
-0.683438
0.381825
1.81642
0.0256371
0.105181
-0.12069
2.11882
-0.149934
-11.4186
-0.633387
-0.711854
2.26027
-0.478002
-0.0816752
0.370901
2.06258
0.730361
0.0577448
-0.156655
0.0761899
1.83117
-0.110602
0.141346
-0.773092
-1.10812
2.22212
1.67139
-0.221671
-0.363683
-0.773251
0.987709
2.28135
-2.16875
-5.82374
-0.997251
1.5162
-0.72479
0.180152
2.4467
-0.528355
-0.2893
-0.295609
-0.415702
1.58977
-0.0501462
-1.4835
2.78864
-0.13655
2.35206
-0.581002
0.10648
2.3757
0.778989
-1.75448
1.12689
0.0655377
2.24204
-0.0516942
1.90801
0.806516
-1.08488
-4.79985
0.943869
-0.79661
2.96147
1.67695
-0.0839441
-0.229527
-1.81527
0.496032
-0.350644
0.119141
-1.66129
1.82421
-0.0436245
0.670426
-1.62096
0.967508
-3.75331
-0.300732
-0.0845294
1.59337
0.0137872
1.64835
1.63441
-0.803305
0.307109
2.45059
-1.02535
-0.229488
-0.163768
-0.0993725
-0.355678
-0.188878
1.41344
1.68667
-3.20844
-8.97593
-7.19157
-1.4011
-0.453238
0.172792
1.60371
-0.116972
0.0222236
1.78994
1.54359
-0.551802
-0.629233
-0.680923
0.280446
1.7219
0.384558
0.289897
0.0714804
-0.341564
0.543119
0.0194073
0.759132
-0.073019
0.843818
-0.318932
0.0264147
-4.58226
-0.074643
-0.241256
0.435243
-9.06745
1.36864
0.025413
1.65439
1.83821
-0.345594
0.0292794
0.00739649
1.6617
2.14947
2.85937
0.395908
1.09946
1.38481
0.158079
1.02239
1.38631
1.20902
0.331424
2.28907
0.400344
1.6859
3.03548
0.686483
1.02734
-0.0386492
-0.321798
2.1267
0.987907
0.77069
-3.85947
0.00447702
1.15009
2.93173
-2.18323
0.0164709
1.10773
0.199932
0.287978
-7.41422
1.70922
0.00959491
-5.0969
1.20139
-0.268859
-1.07075
0.616419
0.323451
1.85686
1.63778
-0.765214
0.00215084
-0.598147
-4.27834
2.27742
1.21287
0.0316284
1.16825
0.146755
-1.17806
-0.171344
1.48868
1.69695
-0.00582932
-8.50602
-3.36522
1.57323
1.17838
2.63431
1.74887
-4.68261
-0.243381
0.11063
0.99894
-5.57757
-0.00181394
2.18585
-0.879598
0.708993
2.39462
2.44234
0.026174
-0.0858078
-1.05326
-5.61505
-1.45664
-5.59138
0.401627
1.5007
-0.138004
0.447559
-0.356945
2.10387
-1.62312
1.22757
1.8789
0.978379
-1.2515
-0.972981
1.72676
1.68183
2.04159
-3.0076
0.992892
-4.77833
0.80568
1.67385
0.279363
2.94138
1.07409
-0.618221
-0.649689
0.357658
1.6846
-7.4605
0.0655276
2.58447
1.50521
0.690938
0.134727
0.815964
-1.22222
2.61963
0.0123033
0.972171
2.4546
-5.47468
-0.821301
-4.72367
-0.984887
-0.394245
1.99875
1.92908
2.59902
-3.418
0.0209867
-4.15842
1.04713
1.68419
-0.875183
-1.40191
1.65766
-0.686089
-1.2052
-3.34242
-4.11385
-0.109668
2.10829
0.0070503
0.0962523
-0.0711173
1.59158
0.00553266
3.19633
2.43314
1.71708
1.39252
0.0207933
0.00270462
3.01851
-0.2484
0.0221626
-0.60615
1.70123
-7.15585
0.256065
1.17542
0.0130656
-0.727449
1.93029
-1.94465
-5.66216
1.0883
-0.0137595
3.34286
1.10943
1.47005
1.81943
-1.34486
0.175513
2.69389
0.878922
2.164
0.438579
0.467693
-0.105993
-0.187291
0.039056
-6.56696
1.71767
1.69608
-0.834025
0.000819603
-0.274794
2.46742
2.00519
-0.241727
1.72656
1.25222
-0.693475
0.976708
1.49606
-4.89822
2.59064
0.032842
-0.00235593
2.71448
1.19285
0.00560359
1.12896
-0.152858
-0.440094
0.702398
1.10408
1.8872
2.41056
-5.79682
0.807121
-6.05522
0.00390851
2.34767
0.464723
-3.21122
-0.185746
0.274014
0.108225
1.38696
-0.668059
-1.32656
1.73183
2.26513
-0.168313
1.82036
-4.65793
-1.6443
-1.83032
0.694639
-4.99707
1.84972
0.165312
-9.548
1.45451
1.98966
-1.66861
-5.41996
1.47489
2.35076
0.52227
2.52223
0.167574
1.11999
0.383646
1.85958
0.0528549
2.28892
-7.37907
0.380148
1.64606
-0.39661
-0.965224
1.65462
-5.45213
0.295271
1.8973
2.60236
-0.273785
0.0948587
0.456927
0.232825
1.50335
1.18462
0.626289
-8.568
0.0317901
2.48905
0.274825
0.127764
-1.68651
2.61876
-0.437128
0.0591378
1.62138
1.37291
-0.187223
-0.529622
1.46813
0.12754
-1.01133
0.655401
-1.59123
2.53937
1.6899
1.18344
1.21824
0.0119696
-1.4142
2.84088
0.508382
2.84916
-0.246487
1.6068
0.0177733
-5.11569
1.06336
0.938696
2.97507
-1.04012
1.13325
1.06253
-2.33074
0.899321
0.0940618
-0.675709
1.65293
-5.26668
-0.920811
-1.25432
-0.27935
-0.42693
1.80593
0.00588595
2.76946
1.68979
0.0541185
-1.44342
-0.76093
0.545751
-9.37517
-0.379875
-6.29967
2.33359
0.00155171
0.0713685
-5.04923
2.64316
0.00191446
0.268205
2.71272
1.47461
-2.29417
-0.167968
1.20206
0.148425
1.63755
0.0610665
-0.370929
0.640417
1.53246
0.495194
1.37846
2.7512
0.0616364
-0.591952
1.65421
0.284063
-0.27499
1.17424
1.24025
0.730429
-2.67728
0.164468
-0.0102082
0.17261
2.34408
0.515961
0.132161
0.150102
0.230505
-0.175494
1.68234
0.0690883
1.60344
1.59871
2.29767
0.0950834
-1.31395
2.82689
0.022915
-0.595075
1.76087
-1.25943
1.88507
0.0509973
1.62097
-0.134502
-4.96167
-1.36382
0.00505143
-5.72937
0.890546
2.90516
-0.411237
-3.72075
-0.603802
1.72276
-0.0254651
0.740514
-6.46399
2.86767
-2.48989
0.908283
-0.940677
0.96814
1.66691
0.617328
-3.13939
-0.0447151
2.68494
1.69889
0.772319
1.50505
0.192827
1.33568
1.36425
0.979285
-4.58714
-0.225325
2.08621
0.408645
-0.106179
1.4327
-0.436735
-0.395374
-0.0455623
1.80886
1.77545
-0.359709
0.142801
-1.97216
-0.0544523
0.143215
-0.41334
0.331073
1.614
-0.0976256
-1.5706
1.97314
0.033995
-0.465314
-0.119389
-0.750853
-0.328252
-1.22063
-0.0224166
-2.53793
1.62682
2.6327
0.0258967
-0.472237
2.71984
2.55418
-0.246862
-0.677608
1.7521
-4.65092
0.0659636
-0.0317952
0.062133
0.971114
-5.67484
0.781191
1.12878
-0.666776
-0.235908
-1.77324
-0.199892
1.46572
0.719123
1.0949
-0.431867
1.42621
2.50298
-11.9885
-2.22636
1.89904
0.660103
1.1246
-0.0610226
-0.706871
-0.464666
-0.156378
1.70763
2.85575
1.84161
-0.00626374
-0.16815
1.66512
2.4345
-0.492307
1.8109
1.64872
2.52457
0.44055
-0.0156182
0.249957
-0.332825
2.51809
0.140664
-0.227919
1.16007
-0.22771
0.412455
-0.127651
-1.52691
1.58763
1.19527
1.1609
0.796189
-7.31661
-0.385626
-0.38224
0.97675
-1.68769
-0.90804
0.0579659
-2.84234
-9.5299
0.88172
-0.717036
-4.73645
-5.31709
-0.437929
1.27934
-11.3601
-1.05085
1.87671
-0.165123
2.61185
-0.303051
-4.87589
1.99974
2.36237
0.041622
0.0978394
0.464241
1.71475
0.99581
-2.73326
-0.175815
0.0200485
-0.225475
1.62879
0.0676435
0.982587
0.00246737
1.70381
-7.89593
0.0601258
0.00798787
2.04648
-1.1639
-11.4125
-1.61119
2.58663
-0.00085452
-0.630404
-12.9863
1.65515
-0.736712
0.0122298
0.384663
0.824133
-0.126797
1.17811
-0.722245
1.36069
1.64573
1.95341
0.758556
-0.010423
-0.460703
1.26509
-0.586526
2.02841
1.13408
-0.198738
-0.0867639
-0.261098
-0.0919599
0.0196309
1.88944
0.681197
0.309472
1.65822
0.0664916
1.35404
2.94437
-0.1254
-2.01097
1.14609
-0.913569
-0.0433782
-0.278032
-0.0696445
1.65009
0.0630934
0.0263929
0.0509903
0.108307
2.15633
-2.0022
0.00366743
1.66543
-0.709405
2.35981
1.91212
2.24192
0.424166
1.0406
0.535271
0.100553
1.28254
1.64905
-0.091828
-0.402128
-5.30016
-0.654548
-4.5402
1.66211
-3.46181
-1.90289
-2.60933
-0.0871979
0.0127892
1.67523
0.0163548
0.356862
-4.80039
1.69155
2.90855
-0.524729
-7.44567
0.937331
0.0437731
1.61286
0.0528058
-0.0572017
2.02614
-0.101103
2.75964
1.16589
1.65664
-0.695952
2.17423
0.063677
1.92305
0.0340151
-1.71447
-0.522351
-1.16896
1.13171
-0.23093
-0.000996628
2.60199
1.68588
1.79756
2.37291
1.83474
2.04037
-0.373518
1.76351
1.7005
1.7125
-0.346413
-0.522689
-0.950948
-1.5746
0.45949
1.89739
-5.07357
2.46191
-1.5684
0.0613625
2.83109
2.3906
-0.395131
-1.28587
1.69373
0.865549
0.175775
1.59127
-5.0149
-0.656093
1.65189
2.32087
-0.0556874
1.86754
2.15113
0.00100557
-0.667352
2.15572
0.763197
0.0224155
-7.73844
0.139661
-1.46622
1.55689
1.14257
0.0278593
-0.0232606
-0.825532
0.469526
-0.0366688
0.399629
2.4321
-0.0714159
3.14237
1.67147
0.57239
1.88041
-2.35454
-4.92279
-0.626336
1.6469
-0.0616775
-4.48629
-0.0815085
0.829232
0.978071
-0.0310892
1.23271
-3.57587
0.894833
0.00462129
0.00156449
1.35694
0.542093
2.17988
1.70056
1.74974
1.61919
-0.401435
-1.43837
-1.16121
0.154631
-0.321736
-0.300809
1.33216
-0.151635
-0.0110995
0.0327255
0.247953
-6.46352
1.19367
0.790748
0.0474386
-0.865737
0.829415
-0.96566
-1.28602
0.220409
-0.271736
1.86394
1.24244
2.15916
-4.73303
1.51237
0.0582027
2.33754
-0.214805
0.882785
0.0823027
-0.221035
2.70936
2.77032
1.3979
0.964028
1.13834
1.55355
2.73961
1.17516
-1.57327
-5.78206
0.329625
-1.53637
-6.72633
1.68166
1.60946
-0.13814
0.517882
1.43592
1.52606
2.97395
-4.06474
1.31445
-5.5996
-0.410879
2.38619
-0.25489
1.41341
-0.191929
0.49836
0.671188
3.09432
-0.606672
-0.956343
0.846352
0.247494
-4.58876
-4.98662
0.0998217
1.8508
-0.0388305
0.967778
2.55103
2.34494
-0.169255
-2.94391
-0.318555
0.291202
1.97847
1.58682
2.33207
1.03816
-12.8852
2.44353
1.54535
-2.44486
1.31335
1.7056
2.11783
-6.84028
-0.0706807
0.00399101
1.42322
2.67591
0.910299
0.224534
-1.46095
2.98657
-12.7307
-1.39829
2.78785
1.47087
-0.0713471
1.35107
-0.084607
0.954281
-0.542516
-12.7725
-0.02949
-0.870487
0.0651213
-0.443877
-5.02248
-5.76299
-5.70433
0.148262
-5.60701
-0.897235
1.27876
1.54265
0.933305
-3.91066
0.475657
0.256236
-0.410029
3.12689
1.13623
-1.04249
1.46823
-0.554552
-1.02486
1.40617
1.39722
1.60661
3.1592
0.00514168
-0.250455
-1.73253
0.129889
1.16818
1.66393
-0.639465
2.46973
1.15126
1.76505
-0.121854
-0.177561
0.0747825
1.74935
1.67109
1.81412
1.66429
2.9053
2.85906
-0.575601
1.47825
2.12358
-1.00619
2.32452
-0.0467472
2.82616
2.30299
0.0694353
1.88895
0.824159
1.30173
0.0680992
1.69001
-1.3914
1.47097
0.650044
1.16749
-0.216536
1.60967
-0.0306575
0.448172
2.73292
2.72689
1.13878
-4.77631
0.413334
0.198377
-0.232897
1.34978
2.45122
-4.80895
1.71515
1.61611
0.838101
1.73869
-3.02673
-0.204666
0.0290936
2.94126
0.524779
-0.250991
1.91661
-0.216375
0.0721209
0.845118
0.325786
1.27553
0.732412
-0.708004
1.01822
1.36931
1.13538
1.27913
2.87776
2.36506
2.09338
1.87944
2.67578
0.829788
-0.0579907
0.0493257
-1.81924
2.70059
-0.164505
1.67206
1.51747
-2.15063
0.904784
1.8448
-1.23771
0.854706
1.05511
3.19809
-7.29168
0.759501
-0.109033
1.92811
0.129362
-0.151816
2.65721
2.27601
1.63038
1.6383
-0.621359
0.850495
-6.51775
2.85301
0.0383105
3.07209
-0.0156294
0.192904
-5.57148
0.946734
-5.0909
0.31654
-0.108834
0.608449
-0.417251
0.574891
-0.182318
0.00119379
-0.313342
-4.68434
-0.888237
-2.88579
-1.25734
-0.160793
-0.0756215
-9.16307
1.72956
1.7615
2.10062
1.64897
0.69871
0.667489
3.34025
1.63075
-8.07178
0.00745423
-0.165095
1.28413
1.48253
2.47471
-1.37934
-1.36896
1.39606
0.00361565
0.432782
2.07952
-4.8548
-3.18079
-6.09609
2.88514
-0.130867
1.17495
2.13495
-0.0692185
1.34405
-0.0223117
-8.13755
-6.74704
0.0612418
1.12316
1.99912
2.09381
-3.01083
-4.75966
1.14197
-8.53568
-0.741244
-0.40841
0.356634
-0.508017
-0.222001
-0.200977
-7.22705
-1.67278
2.56463
-0.0767896
2.78932
-5.17743
-0.260262
0.662188
-0.0275292
2.37344
1.66475
1.95723
-0.998099
-0.552992
-8.92569
2.28657
-4.67588
1.22393
-0.0104915
2.00414
2.36529
-0.0215787
1.64098
2.68317
1.84986
1.79467
-3.2862
-0.0197181
0.720329
-1.18463
-0.105849
1.04478
1.22972
0.133227
-10.8213
0.400513
0.069141
1.48289
1.2725
-0.810384
2.81679
0.137127
0.00221569
0.216184
1.63686
-0.657789
0.00867754
1.82641
-0.867306
0.101693
-0.348239
1.78799
1.64221
1.5665
-0.188486
1.56644
1.91752
1.89235
-0.554973
0.0643641
0.381939
1.45554
-1.41447
-4.46547
-0.556867
-2.09361
-0.0861175
0.0338795
-0.0950166
0.059529
-5.09703
-1.00329
-7.03122
0.0685299
-0.544711
0.628545
-5.07025
1.76714
3.37205
0.575744
-0.317397
0.75444
0.197141
0.410928
0.0268799
-0.695849
-2.24534
0.176635
2.20928
0.00482212
2.63763
0.0292515
1.56262
1.39245
0.757429
-5.57815
1.01758
2.88665
-0.079328
1.66759
1.60501
2.46418
0.169404
2.26666
1.81363
-5.5421
1.92471
-7.65525
-9.93201
2.31509
1.47319
-2.62413
0.0242111
2.15445
0.273545
-1.00267
0.0565458
0.0555264
1.28841
0.907245
1.66852
1.58604
1.43091
-3.22709
-0.899968
-0.517262
1.63014
3.07076
-0.775748
-12.1849
-5.46597
1.69696
0.160996
0.165703
0.784093
0.12223
1.31653
-0.0697551
0.43415
2.52781
0.754274
0.0465679
-0.0702773
-0.265647
-1.19844
-5.62445
-1.65489
-3.3028
1.97441
0.903068
-0.982151
2.65774
0.0074607
-8.11721
-0.359758
-10.4286
1.81804
-4.5728
0.562621
1.67971
-0.393697
-0.571873
-0.172489
-8.4063
-0.216782
1.81082
-7.18524
-0.0296635
-6.16359
1.60517
1.78464
-0.14521
2.112
1.96116
2.54204
2.59866
1.8722
0.274195
2.94055
-6.34236
1.64244
0.373352
-3.94992
2.0179
-0.438336
2.53417
0.794814
-1.79231
-3.2799
-4.30525
1.77844
-0.582087
-0.539132
-0.263965
-1.33946
0.0503442
1.04115
0.306923
1.23915
2.88224
-4.82098
-1.55573
-0.979951
1.75818
1.25914
-1.03171
3.33171
-0.0491668
0.0674808
1.07557
-1.66385
1.59742
1.73061
1.9264
1.95247
0.0684038
0.931634
1.60394
0.367617
-0.116056
0.0120048
1.82269
1.867
2.30809
-0.0689533
0.12088
0.915528
1.02221
0.290535
-2.81979
1.38098
-0.2626
1.45578
1.71475
-5.8145
2.63307
-1.11359
2.83111
1.91329
-5.57819
0.00601353
0.0331591
0.644888
1.75247
-3.53972
2.2716
1.57826
0.908442
0.0486823
0.342381
-0.388181
0.909328
-5.79678
1.06812
-0.203317
1.62238
-4.05709
0.0613324
-0.494396
2.05042
2.39314
0.811655
-3.80677
0.823893
-0.184064
0.128714
0.944567
-0.0801755
-0.0424123
2.79218
-0.844089
-0.10652
-1.31997
-10.8647
0.0194398
1.70834
-5.76232
-0.428036
1.74436
1.09438
1.78674
-0.772202
0.781731
2.81341
-3.09554
1.60732
0.547935
-0.0394653
0.590745
0.387273
-1.24338
2.87422
1.91886
-0.410785
2.77477
2.17683
2.03124
-7.921
-4.09145
1.1154
-1.96394
0.0262513
-3.72555
-1.70993
-3.446
1.33354
0.653207
1.03975
1.14212
-0.0601714
1.29325
1.6358
-13.2064
1.76761
1.04806
1.65765
-0.185922
0.016308
-0.158222
-5.58122
-0.515855
-0.500931
1.61709
-4.32439
2.55607
-2.09567
1.60524
1.07237
0.0330874
0.335998
1.71139
0.7707
0.405434
1.51432
0.150373
0.0702391
2.42116
1.96295
-1.08417
-3.77232
0.0841575
1.47153
0.0279453
0.818584
-2.87228
0.0276892
-0.214267
-0.169305
1.46053
1.43481
0.176043
0.7628
-0.0238997
-0.0227379
-3.31799
2.0494
-0.226658
1.6045
0.00422828
1.43706
1.77076
0.959469
1.56108
0.108553
-0.200624
0.0299933
-4.75722
-0.476121
-1.07439
-0.0380683
0.00903697
1.33362
-0.0670511
1.6294
0.0300634
0.102844
-2.51502
-0.0409026
1.7347
-6.94253
1.62795
0.429826
-2.08257
0.0145614
-0.267182
1.20013
1.74999
-0.0187131
0.312429
-5.02529
1.974
0.16789
0.537557
-3.50586
2.09129
0.842273
0.0202753
1.77323
1.74006
2.02682
0.240706
2.03982
-3.27324
0.0641171
-0.196016
1.63989
1.07828
0.457099
0.263077
-2.40998
-3.38027
0.943793
0.1183
-3.63003
2.56919
-3.57436
1.99893
1.21439
-0.539476
-0.0697478
0.0308102
-0.164932
0.203369
0.239233
1.56242
0.0349206
1.66406
-2.60873
0.752118
-0.03386
0.448647
-2.59906
2.08981
2.82494
1.81341
0.99168
0.429534
1.09624
-7.64532
0.105454
-0.182797
-0.222439
-1.18059
-6.19136
-2.6173
-0.940433
1.49567
1.6659
-4.27078
0.431875
1.87537
-0.880184
-2.34422
1.78408
-0.0653152
-10.1427
0.0477461
-0.321819
0.00589777
2.6296
-0.16665
1.62044
-1.61415
-1.033
-0.850841
1.63769
0.472949
1.39773
-1.33277
-1.15528
0.0374322
0.343614
1.91513
1.47294
0.310929
-0.131657
-0.548033
2.9371
-0.0587071
1.89979
2.08714
-0.0965139
-0.0926674
0.789661
-5.2404
-1.08222
1.45237
0.968413
1.61108
-0.681046
1.8113
0.213718
2.36592
0.351544
1.47119
2.09549
1.38282
0.331507
-2.52754
0.556258
-9.16907
1.4715
0.767205
2.01814
0.156205
2.53351
0.289974
2.6945
-0.0833602
2.11133
-0.221491
1.26438
-7.88588
1.59455
0.826454
0.703551
2.47056
1.64724
0.426369
-0.893331
0.974627
1.57607
-0.0390167
-5.63304
1.2267
-0.0225477
2.16168
-0.157813
2.57879
0.429035
3.37346
2.58446
1.26157
1.12994
-8.44415
0.107026
2.75863
-0.273485
-0.0645111
-0.194147
2.69369
0.831559
1.44161
2.28042
-1.08072
1.79968
-0.416065
1.99533
0.0727048
1.89222
1.69228
2.31051
-0.0658628
-7.21959
0.499142
-0.320175
0.80003
0.361073
-0.336609
2.11647
2.42693
0.0278658
0.623853
-0.382602
2.18487
1.37922
1.54203
1.0409
-0.184172
-4.38211
-0.0899744
1.70258
-2.58436
-0.00398915
0.0644981
1.20366
0.815973
-0.906339
2.9038
-0.00871102
2.55569
0.567392
2.56855
-0.679229
0.428154
0.0385649
0.0721672
1.4145
1.63737
0.0909325
-0.00799238
-0.0710028
-0.0037647
2.41575
-0.518335
0.018641
-0.0437175
-0.0243159
0.646114
2.05023
0.839854
0.056456
0.0385736
1.64985
3.07874
-0.365218
0.0398846
1.63709
0.108891
0.858812
-0.0165263
1.23041
-0.0140528
-3.10405
-0.468792
-0.248401
-0.255665
-0.988787
-3.49273
-1.03013
-0.0093006
1.30287
1.77431
1.45154
2.99519
-11.0147
2.68293
-4.68889
2.54181
-3.44796
-1.21098
2.89752
0.694664
-0.443936
1.71498
-0.0656861
1.84009
-0.140186
-5.97492
0.280424
-0.892383
-1.05596
0.00530621
-0.243427
0.675807
2.08285
-3.2384
0.751317
-2.56779
0.454016
-0.0307978
-0.0349091
0.316839
-0.0150439
-2.0929
2.15454
0.00109104
2.37391
0.655132
-7.06039
0.571359
-1.40356
0.0414502
1.43439
2.08585
2.99204
1.26202
1.404
0.83095
-4.73162
2.88749
3.09418
1.80989
-0.998936
-0.645008
-9.59111
1.55322
1.12592
0.642475
1.34604
-0.104292
-0.0166236
-13.0975
2.46388
0.156841
0.204012
-0.184304
1.62519
0.323115
3.29433
3.09026
1.48233
0.144785
0.490642
-3.76414
0.660972
3.17062
0.209534
0.0409461
1.25728
0.0122822
0.343853
-0.214932
-0.432217
0.363111
0.229654
0.781742
0.0301825
0.538038
2.32869
0.595819
1.76261
-0.246471
-0.527101
2.80437
-3.36885
0.369155
0.507403
0.729556
0.276122
-0.183219
0.428323
0.0622115
0.277006
3.31619
-5.6708
-3.95679
-1.52455
-1.07806
0.162328
0.506517
-0.116991
-3.229
0.0217198
-3.60471
-1.29872
-1.16786
0.273357
0.0426939
0.162372
3.24468
0.171306
0.499287
-0.25448
0.348524
-4.71194
-0.516185
2.26525
1.6299
0.510754
-0.0364987
1.57786
1.76702
0.122629
-5.7062
-0.130722
2.25684
-0.937078
1.55254
0.0639723
2.55316
0.153046
-0.324084
0.101004
1.8047
-0.805841
1.47963
-1.09841
3.14362
-0.113729
-0.371722
-11.7219
0.761153
-0.210016
-1.26364
-0.140662
0.192637
0.815076
-0.878923
-0.0499582
-0.147926
0.340047
-0.986947
-1.3186
1.3441
-9.53097
1.46085
-0.180996
1.8263
2.87651
1.58204
-4.8596
1.69914
0.176161
0.377334
-0.170024
-0.583515
-6.50006
-0.654174
-0.567576
0.795463
0.00888988
-1.14518
0.0168026
-7.03367
0.874417
1.68389
-1.76101
-0.231591
-0.560007
0.0267092
-0.0452612
1.01457
-3.2823
-0.282361
1.67995
0.015205
1.00609
-1.50894
-9.25222
-5.53228
-10.9376
3.2318
0.563753
-1.11499
0.470476
2.7006
2.81089
-0.412067
-0.430788
1.64598
-0.0135887
-0.914351
2.77868
0.95427
1.5041
3.29954
-0.479362
0.567882
0.267672
2.48615
1.71551
1.74195
2.07041
1.1859
0.0471937
0.0887616
0.78696
0.407781
-5.57685
2.85367
-0.845877
-0.89866
0.0311919
-0.956928
0.852371
-0.203122
-0.471073
0.419896
1.75356
1.78965
1.925
-7.33666
2.44018
2.78003
-3.9944
1.06704
-0.193651
-0.155143
0.37284
0.982324
0.0140033
-0.894098
-1.12322
3.07977
-7.9112
1.93768
1.66346
2.21392
1.28949
1.32787
-0.0321647
0.0409785
1.03578
-0.0913787
-12.1895
-2.44406
0.103553
-0.0926044
2.05355
-0.762473
0.00827512
0.354912
-4.67589
-0.244937
-5.75872
1.49371
-0.420006
-0.379506
0.791942
-1.95341
0.626354
-4.60795
-0.191062
1.78756
-7.83209
2.83352
0.0255222
3.00337
0.00506396
-0.229149
0.241682
1.46033
1.44264
-3.16342
-0.211998
-0.323364
0.216153
1.20298
3.30001
2.22095
0.603997
-0.893958
0.91858
0.0309408
1.92772
-0.0791853
0.991908
-0.110434
-0.152067
-4.56747
0.68608
0.0456903
-4.65605
1.10214
1.07991
2.75265
2.93919
-5.6334
-6.51964
0.0985261
-1.51444
2.87141
0.130806
-0.667452
0.742097
1.21128
-0.198922
0.168628
0.14191
-0.0638224
1.55499
-0.145759
0.568234
-0.291472
-1.14636
-2.89795
-0.431659
-2.86903
-2.66496
1.85994
-0.514215
-0.269134
-0.450387
0.116606
3.12213
1.27905
1.56059
-0.468512
0.884791
-0.0621313
0.726893
0.520518
-0.117084
-3.79274
2.8632
1.76034
-0.0130309
-5.38043
3.22993
-0.243268
-4.39048
-0.0925733
0.899019
-0.257511
-0.169895
2.47781
-0.106071
1.55617
0.68441
-0.0797704
0.232532
-1.08155
0.847025
-3.0202
0.0305167
0.530056
1.64558
-0.316303
-4.85419
0.147329
-0.635298
-1.75607
-1.60793
3.03605
1.10566
-4.20749
0.856396
0.439851
2.68716
0.979582
-4.44715
1.05213
2.10305
1.83787
-0.910537
1.47611
-0.0229323
2.84014
0.0427406
1.70011
-6.21389
-0.840711
0.0316867
-0.14176
1.04699
0.584644
-5.16575
-0.361648
1.97673
0.0287589
-0.115811
2.32748
1.3219
2.26487
1.55322
-1.21211
0.0218077
0.0676239
1.66715
0.00231442
2.08009
1.33841
2.81371
-0.10071
2.20413
0.902468
2.83204
-0.0779209
-1.04873
2.90442
-0.119948
1.31378
-8.54627
2.51534
2.79615
1.7962
-2.59713
1.65235
2.16353
-0.934717
0.73843
-0.325784
2.30908
-0.150678
-0.0224812
-6.71561
-6.99433
2.12419
0.877481
-9.81705
0.901201
2.79469
-0.830427
-0.243228
-7.36255
-1.29869
1.44364
-0.271841
1.58656
1.57418
-9.77887
3.12177
-0.0909956
2.37004
2.3691
0.0662948
0.0120398
1.50107
-2.35328
-0.34912
1.49345
1.28544
-0.575948
1.58318
-0.0761917
2.43343
1.80064
0.689171
0.145872
1.87456
-0.0911442
1.02696
2.21989
0.366517
0.0268467
2.15017
1.79665
-0.975037
-4.77515
1.31488
1.87977
2.83572
-5.35838
2.98982
2.90805
3.03405
-0.11889
2.0831
-5.48097
1.662
2.24939
2.17364
1.8607
2.45384
3.29251
1.44937
-5.32146
0.285088
-3.40993
3.25984
0.929895
-0.0192788
-0.198046
1.56803
2.45592
1.57538
0.615438
-0.192523
2.44725
-3.61114
1.80119
-0.236427
0.778949
-0.0220117
0.613822
1.11205
-2.96211
-2.48352
-0.00922903
-0.610249
-0.113663
2.04111
-0.334006
0.174618
1.56416
-6.45792
1.09469
0.0290949
-5.24134
-6.29339
-5.02558
2.347
2.51455
-0.199844
0.639915
2.146
1.93934
0.0273315
-1.77321
1.8365
-5.57406
2.30081
-4.32893
2.23916
1.05914
0.256951
2.08019
1.128
2.19657
0.648671
0.793911
-0.806652
-4.8813
-11.2832
-0.146181
2.15496
-2.60954
-0.265732
-2.49831
2.36781
2.17733
0.612747
1.26796
2.41034
-2.60684
1.60162
-0.202434
-0.895861
1.59332
-0.344777
-8.05625
-1.49683
-5.63935
-0.471211
-4.78434
-0.201566
-10.9274
-4.84521
1.38692
2.86287
3.11901
2.72301
-2.70057
1.82093
-6.98328
1.55115
2.39279
0.260829
2.11504
-2.37409
0.633511
-0.854828
-0.103017
2.30119
-1.17443
1.90334
-7.88771
-0.414452
-5.80567
1.91959
1.88708
1.65936
-8.62843
1.58357
-0.0632666
-8.71099
-7.6772
0.593285
2.88128
-3.08036
-0.462327
-0.295835
1.60518
1.59375
-0.0857424
1.05446
-9.29382
2.44433
2.20332
-0.218387
-0.337427
2.39125
-0.383863
-10.1725
0.0211719
2.17927
2.45702
-4.76866
1.23312
-0.203809
2.81199
-11.2607
-0.940178
-0.112705
2.64729
0.0083864
-0.773983
-0.0178428
2.28835
1.32393
2.2668
-0.170553
-2.83573
1.86404
3.22693
-5.06494
1.537
-0.0373812
-9.47842
-0.0147563
0.649162
-0.314948
1.20806
-0.0754477
1.10325
-0.112581
-1.12346
2.07392
2.48456
1.57149
-2.18731
-0.963637
1.9512
-8.64556
0.68205
-0.903949
0.858812
-12.7109
1.79742
1.9537
-0.0617998
1.84188
2.78396
-0.326354
1.39714
1.88982
-6.76296
1.03555
-0.645487
0.856663
0.679413
1.31662
0.00678302
0.611649
-0.348803
-3.30518
2.33915
0.738754
0.320559
-0.469946
-0.326474
1.72028
-11.0254
3.02248
-7.6196
-5.78282
0.0032965
2.11842
1.9015
2.23926
-3.48624
2.68251
-4.20882
1.36013
0.00537558
-6.19806
1.53894
0.794049
-0.403487
1.17096
-3.86574
1.35603
-5.68067
-0.434518
0.00850371
-3.64506
-4.40874
1.51626
2.74677
-1.04663
-6.04048
2.15006
-3.15474
2.5038
0.837596
0.0611128
0.942775
1.67262
0.901253
-0.0503478
0.157519
-0.020344
0.436078
0.630344
-7.42388
-0.336869
0.086373
1.04647
-0.194901
3.2712
1.81372
1.65258
2.5313
0.292648
1.85632
-2.20152
-3.88097
-0.686485
1.66787
3.19667
1.55746
-1.16336
2.34137
1.60387
1.62294
-0.302476
-0.0530202
0.913743
3.03833
0.131004
-1.12166
2.20737
2.38921
1.78523
1.65164
2.03103
1.18767
-0.0813298
-1.4627
1.83971
-5.2103
-4.74111
1.60311
-0.924045
0.123291
0.627312
1.82948
1.89712
1.91867
-0.134088
2.23427
2.28643
0.40503
2.01518
1.76059
1.37898
1.27227
1.18202
0.884485
-0.0885839
2.11992
2.0026
0.0635443
1.54869
-0.154687
0.0241491
2.72294
2.07647
0.0112012
-3.79477
0.140883
2.13708
1.23193
0.380097
-0.0237486
0.201107
-0.400463
0.313491
-0.691112
-0.267083
1.27431
-0.265369
-3.39319
-9.00908
2.57996
-0.291111
-4.24802
-1.02942
2.75561
-0.198311
0.42732
0.357581
-8.47457
1.31761
1.55926
1.09237
2.4374
1.34279
0.0382662
-3.98444
-2.9284
0.0267524
1.92579
0.113364
-5.69903
-10.837
-0.48579
-4.12699
-0.723461
-3.81731
-0.316127
0.639571
1.63675
2.17931
-0.398451
-0.149405
2.44603
1.85121
-4.36114
-0.210798
-3.43414
1.05519
0.0315801
0.942261
1.41822
0.0388747
-0.236379
-0.310144
0.465467
-3.57914
-4.70861
0.128613
-1.80407
-5.59045
-9.58668
-2.00728
0.147874
-3.11241
0.879241
-5.84301
1.63967
1.47485
0.495924
2.1431
-4.18288
2.76442
-0.929597
0.101954
-1.41226
1.65344
1.02939
-4.73776
-3.2081
1.69311
2.00629
2.86354
-4.78543
-5.58103
-2.89761
-0.276698
0.00933694
-8.24692
0.674595
-6.94153
1.00133
-6.42062
1.31823
0.241576
-0.133614
2.5042
1.4894
-1.17049
0.00144049
-1.99295
-5.47965
2.15031
3.1241
-4.97783
2.05554
1.5631
0.00344538
-0.0567615
2.08705
2.00044
-4.21638
-0.176709
-0.785088
-3.92112
-1.31383
-8.57907
-1.17101
1.10984
-0.0934239
1.8296
-8.72407
-10.0986
1.5544
-1.19788
-7.05669
0.105365
1.27724
-7.4182
-0.713477
-10.168
-7.39977
-6.74217
2.90586
-3.45271
-0.27628
-6.88234
1.81239
-6.22705
-0.0885398
-3.39378
-11.4345
-0.846892
1.89461
0.0130378
-7.84892
1.45147
0.0149802
-0.829017
-6.05104
-9.90707
1.22181
1.39149
1.66387
-5.05536
2.49547
-0.589286
0.00360744
0.0605232
-2.62507
-1.77963
-8.96303
-2.40005
0.406413
0.723446
-0.284434
-0.343405
-1.52959
1.57925
-9.05461
1.74092
-6.6905
1.06064
-0.457297
-0.00205618
0.0207014
3.19523
-0.136807
-7.82697
-4.58358
-1.40761
1.66408
-0.0866196
0.0359601
0.0642702
-10.3465
-4.25152
-4.7818
-7.81186
1.84273
-12.9512
0.243186
-10.0551
-0.0633905
1.45536
0.0723109
0.798767
-0.624216
2.19798
-5.66646
-1.32092
2.34877
0.706627
-5.85836
-0.354393
-5.70148
-1.42488
-0.450684
2.14431
-0.465144
0.730258
-5.57996
-4.68454
-12.9447
-12.7833
-4.12373
1.04285
-0.290585
1.63435
0.652879
-5.90649
-0.579092
-2.51753
2.04533
2.47509
-8.42491
0.127896
1.77445
1.63849
1.34993
-1.81803
-3.21606
-3.18966
1.67318
0.496926
-1.54262
-8.07984
0.994725
1.97238
-0.272533
0.0953888
0.0913446
2.3214
-1.81684
-1.96437
0.00764391
1.43555
0.147536
0.00644252
2.51102
2.06273
-0.190195
-2.41293
2.11872
0.841847
-0.102448
1.57175
-0.640979
-2.59623
-3.9044
-2.31626
2.01935
1.79934
-0.204958
-0.915098
-0.048746
0.0628073
1.83466
-2.48741
1.3033
2.21298
2.36581
-0.348002
1.65803
1.49518
1.87013
1.97731
-0.177123
1.98724
0.00636176
1.66338
0.935052
1.79675
-2.70201
2.0884
1.99996
1.49975
1.10671
-1.13933
1.20937
0.067356
-1.14268
2.2642
2.2125
-1.61062
1.85488
-2.18476
-5.23042
1.81275
1.79974
-3.00366
-0.115131
-5.56242
-2.19201
-1.37505
-0.268927
-3.24646
-0.424686
1.53293
2.99912
2.11312
-0.438815
-0.117902
1.7878
0.893757
-0.0360556
-2.61945
-0.906222
-1.92199
-4.99251
-4.9069
1.58917
-0.0974164
0.843138
0.0361972
0.0342086
-0.0185898
0.0373828
0.417169
0.904412
1.13653
-0.885333
0.863715
-2.96811
-7.65677
1.17587
0.931322
-0.146861
0.130526
1.11874
-0.0626279
0.669553
-0.915393
1.6401
1.39262
2.65144
1.66272
-1.77927
-0.427588
-0.911621
-0.812083
-0.0186608
0.0173394
-0.280896
-1.67189
3.05607
0.131452
0.0796167
2.46945
-0.325667
-1.00454
-0.0541148
-2.8041
-4.22005
0.569817
-1.56141
1.6461
-0.346721
-1.57869
0.0492598
-0.434206
-1.2517
-0.0441697
-0.946508
1.30464
-0.125476
-0.267365
-1.69175
0.685127
-1.50657
1.78721
2.5333
-0.763592
1.82286
0.983351
1.21784
2.78653
-0.506562
1.02601
0.902932
0.782021
2.39495
-0.440147
-0.274336
-0.0599853
1.76315
2.53063
-0.531051
-0.147968
-1.70625
-1.32937
0.87485
-1.27055
-2.67966
-0.879
0.680217
-5.57985
0.390085
0.575714
1.45965
0.296339
-5.29537
-0.558413
-0.0398061
-0.21317
2.69642
3.01413
2.25172
3.16319
1.48183
0.776171
1.90073
1.65767
1.52279
-1.4491
1.71616
-0.406673
-4.90072
2.46794
-0.363087
-1.47491
2.88352
0.0518815
-5.00335
0.9062
0.783635
2.02592
-5.4806
1.54194
2.65019
-0.367574
-5.18876
-2.17933
1.19461
-6.51323
2.15626
-0.165205
2.02997
1.65447
-0.26666
1.95831
-0.845089
-4.63198
-5.10277
-1.06472
2.02888
-1.45257
1.71133
-0.0762602
-8.41886
-0.167144
-0.0526892
-1.58853
-1.04074
-4.89044
2.05702
0.35701
-6.35142
-0.660558
1.08555
0.453521
-2.10547
0.824199