/*--------------------------------*- C++ -*----------------------------------*\
| =========                 |                                                 |
| \\      /  F ield         | OpenFOAM: The Open Source CFD Toolbox           |
|  \\    /   O peration     | Version:  2306                                  |
|   \\  /    A nd           | Website:  www.openfoam.com                      |
|    \\/     M anipulation  |                                                 |
\*---------------------------------------------------------------------------*/
FoamFile
{
    version     2.0;
    format      ascii;
    arch        "LSB;label=32;scalar=64";
    class       volScalarField;
    location    "10";
    object      p;
}
// * * * * * * * * * * * * * * * * * * * * * * * * * * * * * * * * * * * * * //

dimensions      [0 2 -2 0 0 0 0];

internalField   nonuniform List<scalar> 
13486
(
1.60001
1.74041
0.0405885
-11.0003
-1.48555
0.60351
-1.56361
-0.669038
0.30508
1.48043
-1.97567
0.282619
1.63899
0.829182
-0.789846
1.52565
-1.73456
0.385479
0.253816
1.50205
-12.4299
1.59111
1.7187
-3.31238
1.36993
-3.33973
-2.17509
-0.798802
-0.00848691
-1.67013
-6.80054
0.112201
-0.766501
-0.962889
-0.636322
-0.00734924
-0.134421
0.578569
-0.141532
0.568468
-4.95019
1.75383
-0.0430045
1.32627
1.3156
0.281268
-2.40016
-0.0113183
-0.131976
-0.132409
1.32667
-0.232334
0.403913
0.688277
-0.342887
-1.34651
-0.261054
-0.21651
-0.777025
-0.140679
-2.01656
-0.150884
-1.06388
-12.419
-12.6158
-0.140592
-9.81198
1.86997
0.258273
-0.100847
-9.6275
-0.0941215
0.778374
-1.04556
-0.163803
-0.254711
-0.165658
-0.896511
-2.31652
-0.541926
-0.00389445
1.84319
-1.19782
0.0835268
1.59415
1.96387
0.138932
1.32212
1.47093
1.68955
0.482386
-0.917592
1.38421
1.61038
0.167834
-0.00783537
-2.19741
-8.24466
0.544886
-1.92073
0.0136542
0.875974
-8.33882
-0.21526
2.09598
-1.99097
1.26661
-0.142764
-2.34057
-1.5883
-0.275325
-0.171285
0.695565
-0.324536
2.25187
-0.104153
1.39181
-0.924109
0.790252
-0.129488
0.459835
-1.97687
0.35178
-0.148751
-0.171015
-0.21265
-0.0615505
0.968184
-0.897207
-11.9741
-0.210775
-2.53006
-1.5825
-0.814557
1.32692
1.51853
2.83396
-1.4645
-0.125971
-0.419678
-0.548177
0.423021
0.292733
-0.538869
-0.118776
0.54149
0.131374
2.61406
-0.170304
-0.00437884
1.23525
-1.3963
-0.00129034
1.88741
1.06653
0.0367354
-2.18239
-5.05235
0.243931
-0.0412615
0.137683
0.252866
0.703442
1.73667
-0.233676
0.656448
0.930494
2.80723
0.120272
-0.825887
-1.78367
1.06816
1.29312
-0.0595017
-0.0103504
-5.43121
0.858242
-0.51128
1.24581
0.287585
0.332046
-0.290734
0.0562747
-2.47508
0.126167
-0.740024
-0.00114538
-1.21947
-4.53654
0.0711259
-0.134652
-0.0554611
-0.253374
2.28167
-0.316631
-1.9977
-12.331
0.084716
0.945945
0.691553
-6.60929
0.956841
0.583288
-3.07973
-0.049473
-0.339851
-0.197486
1.05939
-0.235778
0.12594
-0.973242
-6.17897
1.49137
1.27468
0.611261
-2.13146
-1.53663
1.67207
1.18319
-0.400705
-1.77632
-0.165388
-0.330603
0.0803952
0.432677
1.27834
0.483005
-8.13486
-1.03372
0.118758
0.330782
-8.18034
-0.580071
1.83951
-10.5968
1.10699
-1.13596
-0.0446017
1.14653
0.164093
-0.898313
1.28439
-0.172232
0.913611
-0.0868357
1.40547
0.220304
-2.72036
-0.879927
1.36753
-3.95115
2.30714
-0.236483
-0.154474
-0.681211
-4.81417
0.184618
-2.20105
-4.37867
-1.04267
1.5751
-0.0835137
-0.683115
-4.774
-1.86683
-2.44168
-1.00159
-9.10903
0.799864
0.552913
2.01029
1.3025
-1.52752
0.330769
1.28276
-2.50332
-0.657651
-4.39266
-0.172535
0.15484
-4.83676
0.268048
1.30366
-1.14955
-1.96184
-2.28565
-0.405537
-0.882703
0.406093
0.834745
-10.9994
-0.0745543
0.0157509
1.32687
-1.12154
-1.18934
0.114549
0.300321
1.27768
-3.20215
0.754598
-0.209685
0.135903
0.048166
-0.119326
-2.97317
-9.9219
0.222459
0.103839
-0.136373
-0.799399
-11.0492
1.01174
-0.0779911
-0.811073
1.5455
-0.0713805
1.48916
1.09704
-1.19449
-0.140188
-0.0821586
1.25568
1.64881
2.77004
0.432513
-0.482274
0.235087
0.233996
-0.611303
1.32252
-1.05997
0.560382
2.03951
-1.83343
0.0427163
2.23555
-1.40632
1.28117
-0.0746136
-1.04538
1.65769
-0.713003
0.0185633
-2.38423
-0.00908094
0.0374012
2.08873
-0.443755
-0.0700811
0.189862
0.276576
0.320955
-2.20461
1.27079
-0.069043
-1.06406
-0.0475232
0.0842978
-5.68409
0.237989
0.533271
1.50142
1.30518
-1.667
0.00065151
-1.18988
-2.84592
1.53098
-0.00289766
-0.0429367
0.0725076
0.389097
-3.38237
0.735242
1.32802
1.30856
-0.0690368
-0.611282
-0.708151
0.747168
-1.26637
1.86235
2.04066
-2.67127
-0.705415
0.797019
1.27138
-0.890543
-8.10404
1.44418
-1.39895
1.15388
1.26598
2.09865
-0.136374
-10.6861
-3.4998
-1.08893
-0.492245
-0.937056
1.43062
0.538268
-11.3028
-1.39708
0.285669
1.58833
-0.56385
0.142546
1.706
1.24163
0.807629
-1.1571
1.29179
1.29935
2.25918
-2.57994
-1.83297
-2.13733
0.14603
1.25393
0.118476
2.1124
1.30139
0.339873
-1.23106
0.975146
1.31897
-2.17722
0.986289
1.60236
0.558055
1.14414
0.365955
-2.30728
-2.15565
1.90075
-0.0719647
-0.0401328
1.84493
-1.89822
-1.42472
-0.764452
-1.2388
0.0582263
0.891258
2.18618
1.64031
-0.833704
-0.126206
-2.33668
1.29182
1.50684
-0.134387
0.382715
1.33802
-4.0748
-5.7282
-1.34089
0.375779
1.06335
1.16423
-0.0113553
0.98325
-12.2332
1.41777
-0.00970066
2.56566
1.32886
0.656977
-0.916782
-0.0124325
-0.00551549
2.2063
-0.652653
-0.127438
0.338334
0.0523939
-2.30423
0.300918
1.30129
-0.0839203
0.533531
1.73213
-0.353627
-1.27951
1.26987
-7.82406
2.79826
1.2757
1.33398
1.27242
-5.00798
0.153047
2.43287
-2.09444
1.60338
-3.00711
0.999306
-8.84398
-0.477929
-0.058628
-2.20076
1.51274
-0.176867
-3.9868
-0.00229843
0.560949
2.08405
0.872287
-0.669139
-0.107185
0.0518601
0.57566
-2.11384
1.32724
-1.93571
1.84771
-0.199297
-0.100517
1.78667
-1.33264
-0.0268632
0.218912
-8.04205
-4.78314
0.208453
-1.74137
0.411856
1.37226
-2.21381
-2.25621
-2.20997
-0.00819996
1.13361
0.986661
-2.54409
-7.83477
0.2151
-4.26773
-0.496687
-12.4973
0.394542
-0.103672
1.9994
-0.472482
1.514
0.388827
-3.03808
0.314117
1.13925
-2.25736
0.962986
0.134822
-2.10813
-0.101272
0.68161
-1.23021
-2.24679
1.33272
1.27689
1.15795
1.64757
0.142234
1.29357
0.984498
1.13191
-0.1337
1.1737
-2.1961
1.39498
-0.199448
-0.903206
-2.57566
1.22645
-1.78511
0.307666
2.13259
1.53889
-7.57952
-3.01506
1.12374
0.463284
0.602183
1.58622
-3.54091
-2.09653
0.746649
1.43238
0.897346
1.00858
-7.25285
1.56864
-5.61245
-0.264893
1.32962
-0.986698
-0.468098
1.4552
-0.729128
0.200362
0.175893
1.11392
0.034263
1.52207
-0.077307
0.297316
0.325103
0.447198
-0.352457
2.06642
1.01367
2.033
-8.22415
0.920668
-0.0136592
-1.10299
-1.86496
1.35438
2.24469
-10.6668
-1.35409
-0.576287
-0.565231
1.35526
0.227779
0.759071
0.431727
-2.2532
-2.42016
-2.35125
1.06449
-1.35842
1.25271
-0.00748091
1.80722
0.486943
-0.060032
-3.14895
-0.949392
1.04224
-1.92574
0.921599
-2.12537
1.07473
-0.000724284
-0.29029
-2.76436
1.84214
-0.00558973
0.78117
1.72876
1.32878
-2.74514
-0.398433
0.100188
0.822152
-0.3127
-0.167848
-8.69187
1.10386
0.610393
1.02856
0.446718
1.7857
-0.238306
-6.69012
1.23103
-0.0141389
0.532703
-0.480917
1.30386
1.20103
-2.65666
0.135191
-0.0743795
0.272294
1.13387
1.03842
0.227139
0.0998274
-5.63855
-0.395289
1.64892
-0.0872275
-0.399896
0.521222
1.9851
0.654211
0.662864
2.03331
-0.0383539
-4.26205
0.876297
-1.76201
1.50548
-0.117571
1.32164
-12.3327
-0.851613
-4.90293
-0.00494777
-1.48283
1.27286
2.15841
-2.32785
0.152747
0.438969
1.67941
0.409141
1.16739
-2.52588
2.29538
-2.70511
0.213621
-0.198436
1.301
1.46324
1.49837
-0.553858
-11.798
1.73421
1.3535
-2.2978
0.604107
-4.46766
-0.054992
-0.496733
1.26226
-0.794405
-0.573892
1.54458
-1.15148
-0.196387
-0.800556
-4.7963
-2.40634
-0.152652
1.03212
1.54188
-7.88022
0.148675
-2.87921
-12.1316
0.200642
-1.3863
0.53154
1.32163
0.917371
0.376582
0.568734
-2.39208
-11.2049
-1.31945
0.33958
-7.93744
-5.32032
-0.0833032
-4.39248
-0.34784
1.65693
-0.134928
-11.0155
1.73586
1.53182
-7.04418
-11.7472
0.116223
-2.50465
-0.130692
0.298507
0.888254
-1.38508
-1.34508
1.20239
1.29763
0.385837
-6.26234
-1.54695
0.646111
-0.0573235
1.52238
0.260246
-7.00577
1.71138
1.44365
-2.22907
-4.42929
0.307844
-3.36588
0.352211
-0.127976
-1.54755
-6.59662
0.668188
1.25472
2.05478
0.978108
0.462326
0.727124
1.25518
1.44798
1.35326
0.231072
1.06271
2.01405
-1.22442
-0.0885011
0.886718
-0.833818
1.90021
0.162516
1.51007
0.281074
-0.598716
0.262586
0.67072
-0.207434
1.4065
1.94952
1.29907
1.23183
-1.36558
0.480699
-1.28108
-1.31194
-0.0360335
0.98812
-0.121696
-5.84066
-2.17312
1.22519
-1.4173
-0.8705
-1.32387
-6.29969
-1.09804
-2.07241
-6.17607
1.1424
-8.56623
1.5613
-8.03403
-0.894601
0.461125
1.18099
-0.172389
0.90129
-4.06753
1.4627
-1.72596
-0.69635
-0.376613
-0.121191
-5.97574
1.33215
-0.34338
1.2606
-0.0789158
0.100851
-2.20153
-0.154472
-0.0687605
0.898083
-0.458065
-1.96519
-7.8489
1.56521
0.490203
-6.92936
-2.02384
1.05447
-5.41754
-0.0799133
0.253748
-0.730301
0.303949
-0.530396
-12.5429
1.69777
1.33417
0.632101
1.178
-0.108859
-2.44573
1.35345
0.778015
0.520422
1.58017
-0.617734
-0.151798
-0.829555
0.700069
-0.121171
1.39318
1.12983
0.164986
1.28898
0.168904
-0.0035426
2.19578
0.66751
-0.38494
1.29554
0.221158
-0.142213
-0.94862
-12.4507
1.02073
-0.21493
-0.0416898
-0.135497
0.776522
0.758462
-2.84717
0.000495287
1.28397
0.238656
2.01588
1.44587
1.13122
0.251385
1.53827
0.26612
-0.0171347
-0.81295
0.606904
-11.0956
-0.906372
-1.72646
-3.43131
-2.74592
0.894626
-0.0443085
-1.46742
-6.16039
-11.1502
-0.0815929
1.36534
-0.0395018
0.51435
-0.939241
1.29582
2.05127
0.260076
-1.09339
1.29252
-1.96544
0.943953
-0.0487293
-0.0988301
0.781861
-0.281284
1.79451
0.241464
1.26521
-1.33781
1.28123
-0.133298
1.46865
-0.192924
-1.13273
0.882721
-10.3441
0.268139
0.220313
-7.12425
1.61214
1.29966
1.5678
1.34491
1.55825
0.916032
-1.30563
0.239363
1.31942
1.22636
-0.850214
0.473694
-0.430538
0.687493
0.326634
0.316674
-0.826307
2.6676
0.351704
-0.198115
2.08076
1.57056
-0.919643
-9.32259
0.63885
1.26547
-4.84964
0.0653724
-0.758961
0.473149
1.26683
1.21694
-0.107369
0.263857
1.27967
-0.00104085
0.174751
1.4327
0.194647
-0.128388
-2.1015
0.078448
-0.192319
1.41969
1.89085
-0.110947
-3.0158
-2.33011
0.270362
-0.146797
0.256116
1.86011
-0.195337
2.42822
0.920066
0.267375
1.07371
-2.68895
-1.09271
-5.61364
1.03329
-0.119202
-0.721989
-6.15368
1.19264
1.36351
-0.0742927
-1.34525
-3.04429
-0.838982
0.534649
-0.0711113
0.232162
0.265741
1.03342
1.29376
1.53486
0.530636
-0.925962
-0.94305
-0.406113
0.117504
-8.19034
1.38046
0.202002
-6.7187
-0.111034
-0.106639
0.818181
-2.68701
0.269086
1.3433
-0.0262523
-2.49007
0.0184183
-0.0696842
-1.93616
0.31479
0.21492
0.271242
1.30435
0.765644
-0.787442
1.32648
-0.149136
1.44831
1.12145
1.2274
0.740721
0.680306
1.82047
2.48752
0.471737
-1.97878
1.32541
-0.0169105
1.82185
-0.820338
-0.82023
-2.55619
0.292439
0.580497
-1.73372
1.2856
0.87171
0.299292
-3.68651
-0.802613
0.591612
2.16435
0.385481
1.37368
-1.14516
1.58411
1.8299
-0.680615
-0.15946
-5.92245
1.85281
0.226335
2.36502
0.0760067
-0.496088
1.20015
0.313655
-2.29085
-0.786082
0.630668
1.51836
-0.00140414
-1.76949
1.55243
1.48164
-0.372361
-0.507281
0.0469253
1.0236
0.41999
0.775379
1.13262
0.250731
-1.90875
1.30249
-0.309601
-0.600711
-0.596073
1.47427
0.75538
-1.02456
-10.783
-0.00113388
1.34009
1.65791
0.216985
0.823333
-0.215331
2.19422
-2.23537
-0.50247
1.8397
1.32663
0.392785
0.0590777
-10.4022
-0.745419
-4.93999
-2.26822
-0.0839032
-4.92813
0.762986
-2.54285
-2.24978
-1.52957
-0.926295
-2.51276
-0.997131
-3.72346
2.21722
1.42373
-2.25499
-2.93079
0.220856
1.01295
-0.890075
2.41467
-0.949371
-0.285034
1.33227
-2.61218
-4.74755
-0.769119
-0.8795
0.880072
2.52483
-0.00774611
-0.647555
-3.50667
0.137133
-0.767706
-0.247707
0.468986
1.31776
1.55338
1.29798
-7.96176
-0.387221
-0.121925
0.18975
1.24521
0.077549
1.35542
2.3085
1.95622
-2.46007
1.33114
1.45022
-0.272238
1.06142
-0.151419
1.91089
1.02409
0.772516
1.48402
1.24733
-0.563944
-0.0859092
1.53836
-0.859107
0.314428
-1.25935
-1.33146
0.583475
0.966387
-0.139568
0.35362
1.76587
1.74263
-0.450328
-0.786473
0.246633
-5.73405
-0.558823
1.5037
1.37117
-0.76636
1.24144
0.191571
0.137371
0.216516
-3.01314
-6.20281
-0.10615
2.53647
-0.644675
0.0373308
1.67577
0.568645
-0.261985
1.20663
0.300995
1.35042
-3.01178
-1.2623
0.242487
-0.572395
-0.998964
-0.708042
2.11087
1.56399
0.63843
2.62612
1.65772
-0.667394
-0.169449
-0.351289
0.277541
1.78942
-6.49033
0.650083
0.0562546
-2.74291
-0.760772
1.0535
-9.29971
0.145788
1.49019
2.5474
-2.20553
0.18713
0.364782
0.318957
0.0398751
-10.4124
1.70052
1.03147
0.246984
1.0273
-3.03003
-2.59468
-2.17049
1.95143
-0.295135
2.34341
-7.62098
0.797482
-1.30132
-2.1991
-0.956627
0.574551
-0.19591
1.08281
0.158995
1.06933
-9.34654
-0.00203994
-8.01304
-0.789397
-0.655749
-0.801186
0.157683
-0.413281
-11.4466
-1.9952
-0.00458331
0.070594
2.16724
1.31344
0.0908869
0.212867
2.92564
0.622656
-2.22778
-0.0134242
0.707334
1.36467
0.351075
1.32266
-0.249937
-0.300516
-0.891585
-0.00141155
0.253716
1.73328
-0.799884
-2.47014
-1.98543
1.9936
-8.1515
0.268589
1.19072
-8.66251
-0.227834
-0.123389
-2.13124
-2.20679
-0.0687327
1.32466
0.62651
1.17719
-0.62589
-0.830789
-1.49005
-2.30055
-2.17164
-0.913829
0.494113
-6.75108
0.0659113
-7.96948
-2.20919
-2.55703
1.52625
-12.4467
2.03787
-2.2178
-2.45009
-0.0638635
0.46799
1.21896
-0.260026
1.81111
0.200083
-4.46781
-2.04268
0.994011
-0.76325
1.30838
-0.0816343
1.94935
1.35663
-0.0902808
1.04824
1.79442
0.427681
1.03556
-0.419455
-3.01278
0.0622962
-1.71891
-0.174839
-1.01063
-1.32862
0.0500909
-2.01091
0.260353
-0.103283
-0.533378
-1.04162
-0.937848
1.90238
0.116014
-0.00655441
0.289541
1.31845
-11.1143
-0.0174927
0.511982
0.428381
-0.0212594
0.514738
0.0158873
1.31382
1.32588
0.0462053
1.40071
1.42673
0.664481
-2.20754
-0.184846
1.06088
0.187945
-0.208256
-2.41523
-7.33922
-0.40759
-10.6978
0.0258165
-0.177836
-0.416005
-0.754676
-0.124968
-2.79361
-0.0933389
-7.23067
1.1127
-2.2768
1.31708
2.85074
1.16717
-7.91954
1.2151
0.94789
0.248106
-0.0243748
-2.17702
-6.91723
0.156552
1.06617
-0.00534685
1.70248
-0.00983378
1.32594
-0.403882
0.0854013
-1.51862
-2.02337
2.47527
-11.2829
1.3439
1.31363
1.31132
0.156666
1.02628
0.0815048
-1.20003
0.316722
-2.19532
-2.5791
1.05026
1.32698
-0.692384
1.13972
1.46399
-5.05019
-11.5357
-0.432211
-0.139095
1.49777
1.22294
1.51718
-0.238248
0.445855
-0.822994
-0.688657
-2.50085
1.52935
2.30072
-2.37355
-2.08437
-1.65865
-0.180625
0.127315
0.137819
-2.3641
0.161551
-0.222609
-9.2286
0.0873141
2.63037
1.183
0.372457
-8.33655
-5.84153
-2.63083
-1.27348
-2.35198
-2.4521
1.66697
1.22215
-0.995426
2.36569
-0.0147176
-2.05313
-8.27909
-2.5726
0.469047
-0.777744
1.07789
0.273884
0.0840834
-2.07397
-3.94399
-2.26022
-8.08106
1.53108
-2.62968
-0.132624
-2.03279
1.31587
1.07027
-7.81491
1.22947
0.848405
1.49268
1.8327
0.448362
0.281729
2.57942
-2.07434
0.00569739
-2.45217
-3.83696
1.70556
-7.49894
2.04382
1.1938
-0.266748
-3.07318
-2.90019
1.45442
-7.53691
-10.8039
0.100345
0.61419
0.313752
1.26936
0.892476
-0.41871
1.99199
-0.84514
-3.02874
1.15374
-0.0401947
1.47421
-4.61731
2.82516
-0.148762
-0.113767
1.51623
-0.0591002
1.32429
0.39331
0.780538
0.367911
0.554911
-0.699753
0.553619
0.24435
-9.76211
-0.039958
0.287684
1.07989
1.08389
-10.9668
0.0295361
-2.37348
1.25579
0.574467
-3.87015
1.39763
-7.39689
1.3265
1.34982
-1.65125
1.59898
-9.91976
2.45532
0.551703
-3.14627
-0.00789007
-0.149358
1.54502
1.45192
-3.88588
1.13363
1.42363
-1.96096
-0.116296
0.230704
0.766405
-2.05044
-1.79001
-1.19134
-7.58695
1.30644
-2.59575
-4.83137
-2.62306
1.52173
1.17973
1.63765
-2.71513
1.20469
-0.408693
0.0944162
1.23073
-11.3137
-10.8645
1.98217
0.459514
-1.31877
-0.88419
-2.5181
-6.61636
1.35943
-1.71252
-1.23846
1.46659
-0.429361
1.1729
-3.89667
0.175167
2.23439
-0.897168
1.53114
0.16924
-7.69377
1.07175
0.245363
1.08741
2.22566
0.689586
0.264634
2.3891
1.05242
1.61607
-2.31433
-2.64583
-1.68614
-0.345185
-5.58287
-0.0546665
-0.140727
-0.233369
0.00850237
0.222461
-0.948605
-0.508702
-8.31294
-1.03334
1.63654
-2.04896
-0.03335
1.27321
1.30463
-0.420633
-0.0851442
-7.74133
-1.35728
-4.52242
-1.31903
1.64534
-3.54563
1.46361
-2.77026
1.32374
-1.53512
-0.105406
-2.44525
0.803488
1.26157
0.966352
0.182892
1.18765
0.0667801
1.23379
1.91257
-5.07856
0.0087338
-4.1305
1.40685
0.830599
-2.75644
-0.538031
0.740328
-0.569704
0.0272288
0.346562
-0.780998
0.804273
1.26712
0.80851
-0.127256
-4.644
1.70837
-6.20731
0.965195
-0.00543152
1.34352
0.867426
1.24829
0.286501
-3.47456
-9.24203
-0.0856562
-1.7512
-7.08704
-9.65188
0.46349
-9.03074
1.38739
0.703189
1.31859
-5.52155
0.0028497
-0.72704
-0.143781
0.851036
-2.20757
0.593465
0.260429
-7.28624
-6.93966
-5.88026
0.289531
1.39694
-0.123005
0.288043
-1.09289
0.40533
-1.80434
0.16049
-2.43134
1.23118
0.187361
-0.088551
1.12561
0.438019
0.950292
1.68828
1.90917
-0.935576
-0.0771472
-4.77654
-0.314899
1.26786
0.25964
-3.90624
-3.56111
-2.82272
-0.617483
-0.00022852
-3.31867
2.52962
-0.522848
0.748747
0.158425
-11.3249
-0.200317
-0.0275949
-0.316528
0.8835
0.290848
1.39012
-0.0915104
1.26591
-0.805049
-2.98334
-11.0196
-0.24123
-3.4505
0.634231
2.17987
1.19592
-1.91966
-3.81113
1.49448
-2.18791
-1.96309
0.0394272
-0.528278
-5.98206
-3.07887
-4.01784
-0.979542
0.184898
-0.167641
-0.333998
0.250118
1.36186
-0.305925
-0.543378
1.43761
-0.181086
-1.92188
-0.106564
0.496913
-0.00847948
2.42952
0.0341459
-0.00970926
-0.0861971
0.155785
-0.275983
0.37801
-0.197109
-0.213434
0.280946
-0.566469
-0.0280537
-1.3099
1.48704
0.383633
0.94988
-3.86539
-1.02785
2.23514
-11.0469
0.758272
0.633438
1.04438
-0.260423
0.193558
-1.93655
1.50582
1.38965
1.34886
0.610398
-6.19688
1.41842
0.895039
1.84312
-1.05923
1.41563
1.40944
1.38796
0.392216
-2.67435
1.05942
-2.54592
-0.718188
1.20221
0.966332
0.819545
1.49014
0.290745
1.69245
0.401744
0.756522
0.689801
0.169264
0.403519
1.31551
0.0535734
1.24389
2.4066
1.35578
0.34439
-0.612359
0.178092
1.3264
-0.145643
-1.15643
0.325053
-0.00507434
1.32136
-7.33419
1.56612
1.00862
2.97041
1.96884
-1.09518
-1.62507
0.105724
0.791541
1.9534
0.11496
0.696903
-0.444869
2.67044
1.30878
0.140025
2.57373
0.0960732
1.06801
-1.15363
0.670916
-0.256654
0.336496
0.787002
1.03723
-0.19301
-2.30138
0.251303
-5.38027
0.00104887
-4.51389
0.0475031
2.01298
1.45752
-0.13738
-2.63297
-0.900534
0.816495
0.366635
0.283398
1.26047
-3.96669
-1.88596
-12.3229
1.35258
-0.779696
-2.08002
1.52357
-0.401166
0.183882
-0.513495
2.27902
-10.4229
1.46636
-3.22114
2.47771
-2.37946
0.164465
-0.120677
-0.126948
0.439899
1.29067
0.45047
-1.79566
0.403788
-2.50488
1.2275
0.61969
0.729957
-10.9457
-1.52389
-3.44673
0.640386
-1.45851
-0.069147
-0.274319
1.30039
2.32847
-5.12875
-0.027391
0.195159
-1.24352
1.21085
-0.075539
-1.24354
-1.63012
-3.09569
1.25337
-7.15965
-1.3157
0.15178
-0.0547699
-11.3107
0.909088
1.31272
0.917113
1.3264
2.16902
-1.98212
2.60623
-1.24838
2.37036
-4.23362
-0.0369437
2.02319
1.16855
-10.1246
-0.157823
-0.206686
0.200905
-11.1726
-1.94632
0.273196
-1.20294
-1.79246
-0.0111479
-0.765374
1.13102
0.629336
-5.13412
1.16003
-0.767171
0.315945
-10.314
-0.138555
0.75357
-10.7882
-0.414757
2.26095
-0.0966146
2.29068
0.23144
-2.20821
1.17655
0.177707
-0.127671
1.3253
1.11945
2.50904
1.34316
1.521
-1.3365
-0.85933
2.43377
2.34456
1.43781
0.225766
-5.95822
-2.55115
0.32738
-0.826897
-0.0192192
1.84074
-6.03919
-0.122739
-1.88334
2.35684
0.790085
0.849482
-9.73151
-0.0544541
1.66755
2.75376
2.57652
0.510267
1.24092
-0.669713
-1.13451
1.34116
2.62521
-1.98209
-0.134387
-0.634705
-0.0102943
0.327463
0.563222
0.388961
0.236873
0.501355
0.240894
-0.183052
1.08825
1.3104
-3.67651
0.925555
-8.8318
0.30527
1.87276
-0.331146
0.400768
-3.21615
1.19495
1.28618
-6.9207
-3.982
-0.0569205
0.576911
2.84911
-1.31316
-0.263814
-7.39841
0.538421
-2.93944
-3.35376
-8.3572
-0.27855
-0.0970036
-1.16471
0.223671
-1.56778
1.25706
-0.032807
0.820867
2.73546
0.923496
0.257167
-1.44933
0.925095
-0.744743
-1.41335
1.91091
1.06136
0.251935
-1.41171
0.770358
1.0447
-1.3983
-2.92894
0.0195797
1.94148
-0.519917
1.32618
0.764015
1.6212
0.331518
-8.14703
0.750922
1.23312
-0.837175
1.38286
0.105016
2.45213
-9.39437
0.482354
-2.05569
1.37034
-7.181
-0.175691
-9.07751
0.215973
-2.70407
-6.30192
-10.6399
-0.375664
0.498602
-5.82818
0.189831
0.430118
-2.56561
0.134235
-8.66877
1.21655
2.3411
-0.141825
-0.717484
0.141684
0.161365
0.398179
-0.446796
0.263341
-2.15869
0.0676371
-2.89188
-2.74281
0.808865
0.680498
-6.01647
0.507088
0.221313
1.3105
0.664898
-6.32355
0.509647
-0.14546
-1.79013
-0.239116
-0.253543
-6.06616
1.63042
-7.05256
-1.99651
-0.746478
-0.0530935
-2.24295
-1.99273
2.98186
0.0379799
-0.843591
1.41858
2.34969
1.87899
-7.80636
-1.13622
1.27579
-0.121522
0.084508
2.34754
0.133425
-0.625589
2.93168
0.670332
-3.11244
0.914869
1.82403
1.30041
0.123893
1.97257
1.30157
-0.952599
-0.0835411
1.18333
0.30467
-1.09372
2.15678
1.08725
0.562551
-0.18571
-4.74323
-0.160652
-9.43799
-1.40277
0.35746
0.376433
1.40102
0.393889
-2.18848
1.98781
2.05618
-0.0467318
0.19957
-0.646009
-0.174829
0.315124
1.28959
-7.38921
-0.290087
1.21504
2.37048
-2.18782
0.648915
1.01807
0.870324
-0.724866
0.303469
-1.85195
-0.848378
-1.92487
-0.203852
-2.2845
-0.641903
0.00117692
-10.4363
1.08415
-6.74903
-0.104174
1.03893
-0.761028
-8.62033
-1.73248
0.584135
-1.06879
0.0929151
1.21181
-5.64901
0.0630771
-0.232652
-0.583079
1.14936
-2.12241
2.37053
-0.144487
2.65274
-0.00337657
0.055246
0.175819
1.33948
0.0790442
-1.40663
-0.514374
0.754326
0.189605
-0.349351
2.99963
0.880698
-0.739575
-0.487715
-0.596893
0.0337576
0.385599
-2.29654
1.29952
-11.5026
-9.93609
-0.736655
-3.16814
-0.951219
-0.793146
1.27482
0.175982
1.90687
2.45065
-1.33309
-2.14637
0.490269
-0.00983067
1.98371
-2.68163
0.709739
1.1558
1.30676
-6.91376
-2.40756
0.338804
-0.19947
-0.372421
-5.98327
-2.81358
0.287562
0.114039
-1.03964
0.628846
-1.05436
-0.833211
0.471472
-7.82915
-8.57359
-2.16845
0.449561
2.45811
-1.18657
1.32629
-5.44358
-0.093793
0.686144
-0.610567
1.05605
-8.6101
-2.83653
1.95816
1.12439
0.779125
-0.832845
2.62781
-8.1334
-2.33398
-12.0455
-1.20248
-6.73125
-7.40016
1.74535
0.746451
0.122048
1.13207
-11.1878
0.240677
0.111746
0.228435
-1.23425
0.793219
1.1382
0.575238
-5.53789
-1.89652
-2.88197
-2.35279
-0.122493
-0.103522
2.51818
1.30337
-3.25249
-1.34655
0.987851
1.82016
-0.542486
-2.52005
-1.15017
1.5225
0.125255
-1.3101
1.39054
-1.98503
1.92174
-1.00151
1.44412
-2.1904
-1.16199
-0.166233
-10.7741
-1.56794
1.09159
-2.06569
-5.7786
0.810034
-1.94528
0.640485
1.5137
1.31529
1.46229
1.32617
-0.565695
-0.0526586
0.806741
0.31114
-0.00512467
0.783816
-0.912939
1.98141
-9.81605
1.40927
-2.34834
2.32626
-11.3112
0.164127
2.18127
-9.59264
-1.11055
-2.17399
1.39542
2.18135
1.21571
-0.347167
1.30627
1.08291
-5.33038
1.30159
-8.09534
1.24181
-9.20611
-11.0064
-2.2416
-2.30731
1.05883
-2.01233
-2.46675
-0.0388727
2.12433
0.628818
0.788921
-2.35002
-0.0827964
-0.801441
-1.39435
1.31811
0.411754
-2.34179
2.57443
-0.264997
1.90165
1.1418
-0.0201333
-0.07363
-0.064441
-0.572429
-1.78769
-0.317947
-0.372508
0.531838
0.37321
-12.5397
2.54011
1.47544
-0.0685294
-5.81182
0.207727
-4.89928
1.38556
0.928305
0.23614
-0.152023
0.955588
0.485247
-0.218564
-0.822072
-0.922773
0.559577
1.9373
-1.30993
2.16642
2.74446
2.2827
-3.43214
1.03932
-2.21837
1.24744
0.930542
1.53195
0.576502
1.3507
2.72189
1.39754
-1.6209
-4.74074
-2.91155
2.71645
0.0240938
-2.18905
-6.71767
1.58769
2.01759
0.767718
-0.00334728
-0.433649
1.76798
-0.35684
0.312093
-6.43609
1.17213
-0.127631
-3.50037
0.0859357
-2.54707
-2.63185
-8.1213
-2.12387
-0.951575
1.02014
0.712158
0.248754
0.444784
0.747406
-1.72452
-0.155438
0.776601
-2.19162
-2.07343
1.29103
1.79389
-8.71327
1.77823
1.35871
2.06648
-0.107477
-7.80389
0.58639
-0.976926
1.50834
0.510376
1.4566
1.39025
0.919871
1.48581
0.27284
1.12248
0.0137651
1.1837
-0.795905
-0.740342
-0.834343
-0.171245
1.09425
-5.53095
-7.74042
-5.20119
2.24677
0.986878
1.2136
-0.285199
1.68296
-0.757803
0.3778
0.13711
-0.647829
0.416828
-8.02309
-2.19003
-0.0453985
-1.51203
-1.27143
-3.46647
0.106378
-2.54297
-0.911651
0.102051
2.13936
2.43024
1.89833
-5.70851
0.328509
-2.10793
0.472214
1.95165
0.981895
1.07489
-4.71301
0.0902996
-0.862819
0.700595
1.25316
0.43035
0.580942
-2.28075
0.595852
-1.7745
1.24018
0.599868
1.2956
-2.12668
0.450806
-10.9979
-2.45253
-2.36244
0.0561702
2.01029
-1.22828
-4.73946
-6.16932
0.886855
1.31651
-0.248152
1.26218
-2.20332
1.73048
2.2006
-7.42804
0.621294
1.41227
-8.03871
-2.08848
0.78246
1.40358
1.51479
-2.31267
-1.11451
0.839751
2.11612
-2.27044
-11.3295
0.662023
1.73562
0.7604
-0.869408
-2.51046
1.07208
1.31635
1.20908
0.636116
-0.959545
0.610613
2.65152
-0.727972
-0.542953
0.7361
-2.16244
0.769836
0.130587
-5.43011
-1.24892
-12.06
1.27551
-5.68017
-2.06799
1.05749
1.34797
0.479544
-0.48815
-10.1528
0.371655
-2.23028
-1.55436
-0.428779
-0.00389691
-2.03118
1.64972
0.459059
0.755685
0.143917
1.85241
-7.39987
-0.729858
1.19789
-2.20525
1.32291
0.342185
-0.114489
-2.3546
1.35479
-0.0136323
0.131507
-0.881575
-0.204281
1.09373
-2.18859
0.64148
-8.20531
-1.99263
1.21249
-2.37652
2.25091
-2.19643
-1.94486
-6.32768
1.47673
0.505304
0.915202
-3.03662
1.68154
-2.2008
-0.97089
0.244981
0.889355
1.37534
0.0821031
-0.873759
-0.371334
-2.55305
1.31997
-1.55978
-7.88296
0.00187794
0.0848865
0.580457
-0.242469
1.88094
0.0999203
-2.18496
0.976316
-0.417648
1.46841
-2.5977
0.795834
1.5973
1.3446
-0.00179203
-3.5149
-2.28475
0.724352
1.08646
1.19015
0.783743
-6.41119
-0.179641
-1.87668
1.0767
2.80156
0.359041
1.21075
1.42726
1.00737
1.34964
-4.209
-2.99756
-7.45519
1.28045
2.6852
0.503441
0.123554
1.16851
-0.386169
-0.221919
0.0672018
0.770382
0.163885
2.2477
-3.79222
-1.85174
2.49242
1.18202
0.0213428
0.662335
1.03382
0.287566
-10.8312
-5.62328
0.618486
-0.929133
-0.722385
1.04924
-6.96805
-6.20473
-2.73774
0.210168
0.26156
0.521213
0.865585
0.973308
1.00106
0.240938
0.58026
0.417694
2.03747
1.63068
-1.46016
-0.0552984
-0.264953
1.35286
0.473886
0.591225
-0.27556
0.840361
-0.110119
1.87793
0.698188
-0.0139672
-2.37306
0.733192
0.725695
-0.798204
1.2925
-0.126927
0.211326
-9.71152
0.26569
-4.00288
0.545156
-1.22744
-5.95085
-0.682255
-2.12047
1.50994
-5.64288
-1.77493
-3.74826
1.97615
-5.94269
0.38553
1.05719
-2.49441
1.63012
1.32893
-1.01932
1.26656
0.356861
0.770088
-2.77248
-2.53988
-0.0436685
1.65165
0.745657
-2.22779
-2.2008
-9.95447
-2.12621
-4.31732
-0.56411
-0.798847
1.11444
1.29227
0.799908
-8.71312
-0.031644
1.32725
1.01517
-2.35109
0.971895
-2.97689
-0.454283
0.266573
0.17759
1.32384
-1.5014
-6.8116
-8.30911
1.10854
-3.63341
-2.35714
0.10363
-7.97427
-1.31261
-2.54029
-2.98137
0.105137
-3.0339
0.0105934
-2.21692
1.34711
1.33865
-0.296915
1.51597
-3.51577
1.81546
-2.1844
0.816149
0.0432901
0.687439
0.190137
-0.810585
-3.09705
1.36469
1.64473
1.97846
-2.25055
-1.16959
-4.68776
-0.733453
-0.0122043
-2.17651
-2.25794
-2.22044
0.192334
-2.15349
-1.08567
-2.84859
-0.364509
1.72559
0.23421
0.633928
-0.0984492
-0.386294
-1.52219
1.94309
2.39122
-1.33684
0.577985
0.717347
-0.00716047
-10.4567
1.46194
1.61597
-0.537188
-5.30421
-7.05063
-4.15711
0.139782
-2.32445
0.322651
1.47228
-0.381074
1.47986
-2.01332
-2.51915
1.37113
0.24316
-2.31882
0.886244
1.59425
-2.37424
0.414294
-2.40513
-2.20425
-2.23586
2.02676
-3.08024
0.641973
-2.07287
0.990687
-2.02307
-2.70121
-0.338555
-1.92105
-0.756654
0.69373
-0.0391001
-2.19065
0.46723
0.0079688
-9.87649
0.960099
-2.12847
-0.750536
-0.158612
1.22613
-2.72347
1.36036
-10.6404
-0.0068711
-0.0223273
-0.530632
-5.16931
-2.16409
-3.05222
0.41668
1.15569
0.0790201
0.687384
-0.662281
0.127101
-2.29846
1.38982
0.21183
1.26489
-1.44649
-5.19538
0.265148
3.02715
-10.044
-2.40145
-2.38767
-1.29627
1.29358
0.00079482
0.509644
-0.312875
-1.91393
-2.30859
-0.889616
-2.23388
0.144142
-2.10286
0.866576
-2.24077
0.678912
0.483407
-0.0177994
-1.44434
0.228046
0.881665
-1.57218
-7.21738
1.10291
-0.105151
-1.82936
0.651485
0.688075
-0.764913
0.5157
1.01402
-7.54574
1.23956
-0.990223
0.568643
-1.8161
-1.73945
-2.28825
-1.67861
-6.8368
1.13997
1.23613
-1.56307
1.77273
-4.7266
1.57393
1.32411
-2.47187
1.05341
0.964205
1.33061
-0.857995
-5.04265
-0.631235
-0.386068
1.26923
1.04696
-1.39047
0.535231
-1.00323
1.6378
0.719039
0.123632
0.869903
1.12543
-0.243265
-0.316812
-0.106768
1.32527
1.16451
-0.140274
1.39152
1.42343
0.0446814
-5.77088
0.938212
1.24146
0.783317
-0.462386
-3.98908
-2.12203
0.224567
-5.35445
1.57983
0.140084
-0.556112
-0.495228
0.191731
-3.16412
0.448255
-6.03562
-1.15164
0.926816
1.13945
-8.83677
1.01689
-0.249108
0.203401
0.421597
0.794302
0.518153
-0.00983272
1.33603
1.46493
1.19271
-2.6051
1.31015
0.998483
1.32614
1.41106
-8.69894
-0.498393
-0.0780531
-0.923802
0.95946
2.16768
-7.98422
2.44827
-4.8141
-0.809546
0.595242
0.997032
-0.374855
0.655194
-1.18097
-6.8446
0.520536
-8.47729
-0.220528
0.674841
0.323475
2.55692
0.681335
-9.68719
-11.4837
0.334154
1.21884
-11.4503
-2.47881
-11.0119
-0.229923
-0.90678
-0.707168
1.31785
0.303093
1.25159
-0.642255
-0.5374
-0.808791
-0.0867792
0.395383
-1.08817
1.70194
-2.05294
-2.5128
1.1489
-2.67873
0.137112
1.23802
-0.388052
-2.23709
1.45034
-0.187373
1.22585
-1.0467
1.14416
0.392093
1.67067
1.22976
-5.74792
0.617083
-0.563138
-11.3221
-0.123506
-0.105967
-2.30864
-8.20851
2.62095
0.0608196
-1.1017
1.35108
-5.60944
0.456904
-8.70954
-2.55366
-2.73487
-2.6556
-0.120939
-0.0361639
-3.87939
-6.57996
0.625071
-9.74904
-0.256633
-6.28231
0.168261
1.35744
-8.76418
-8.1029
-0.191508
0.134488
-0.946526
1.09926
1.42559
-11.9108
1.12584
-0.467288
1.29986
1.95812
-4.52135
1.31304
0.19134
1.18592
1.18923
0.846193
-0.729817
-4.15615
0.972117
1.42039
-8.05243
-0.0873752
-1.78213
-1.31123
1.24488
-8.10581
-0.539829
-11.9865
1.22154
-0.912353
0.245457
0.137248
1.37537
0.258214
-1.47414
0.241498
-0.108909
-4.60597
1.69335
2.20354
0.981467
2.68934
1.55367
2.3232
0.263009
-0.206633
1.78419
-3.8778
0.630563
0.586445
-0.917121
1.56353
-0.898966
-0.624633
2.20944
0.82651
-2.96909
1.23028
1.17604
1.43051
-1.78991
1.38439
2.28593
-5.16225
-0.843848
-0.480252
0.242143
-2.16971
0.820218
0.630993
1.53602
1.25984
-7.53914
0.874238
-0.103563
-2.35284
-1.89105
-6.53924
0.581165
-1.42051
1.3558
-0.228452
-2.19576
0.0945693
-1.62227
0.446928
-10.8167
-2.50974
0.794922
0.964054
-2.14279