/*--------------------------------*- C++ -*----------------------------------*\
| =========                 |                                                 |
| \\      /  F ield         | OpenFOAM: The Open Source CFD Toolbox           |
|  \\    /   O peration     | Version:  2306                                  |
|   \\  /    A nd           | Website:  www.openfoam.com                      |
|    \\/     M anipulation  |                                                 |
\*---------------------------------------------------------------------------*/
FoamFile
{
    version     2.0;
    format      ascii;
    arch        "LSB;label=32;scalar=64";
    class       volVectorField;
    location    "10";
    object      U;
}
// * * * * * * * * * * * * * * * * * * * * * * * * * * * * * * * * * * * * * //

dimensions      [0 1 -1 0 0 0 0];

internalField   nonuniform List<vector> 
13486
(
(1.64145 -0.344058 3.87677e-19)
(1.7396 0.11796 2.48459e-19)
(2.66855 0.0126703 0)
(1.76488 -0.775985 -3.64177e-18)
(2.76612 -0.102567 -3.63186e-19)
(2.36782 0.16283 -5.94824e-20)
(2.58348 0.67401 -3.25251e-20)
(2.40848 -0.736474 1.40873e-19)
(2.1873 -0.352818 0)
(1.88885 0.534574 0)
(0.00785906 0.834059 -3.41756e-19)
(2.32243 -0.0657049 0)
(1.51594 -0.542957 -3.71145e-19)
(2.23251 0.643828 -1.02733e-19)
(2.44651 0.284893 -1.25154e-19)
(1.86119 0.52089 -2.52168e-19)
(1.10058 -0.579054 2.89248e-19)
(-0.297632 -0.0672964 1.79149e-19)
(2.03264 -0.00459635 1.34231e-21)
(1.77427 -0.159855 -4.11828e-19)
(-0.616629 1.20721 -1.86023e-18)
(1.53643 -0.560034 4.79679e-19)
(1.75369 0.110657 -1.98492e-19)
(3.85109 0.879108 0)
(1.95738 0.435935 9.03369e-20)
(3.77571 0.745694 -3.33472e-19)
(0.406076 -0.111321 3.96193e-19)
(3.25931 -0.133525 3.54496e-19)
(1.94854 0.272875 0)
(3.35613 -0.287223 -5.11091e-19)
(-2.38836 2.82232 -9.62046e-19)
(2.05609 0.181461 -2.05587e-20)
(3.12255 0.392429 1.52664e-19)
(2.59151 -0.252621 0)
(2.41323 -0.694801 0)
(1.58124 0.0198916 4.97406e-21)
(1.66972 -0.154363 -5.8255e-20)
(1.75406 -0.812135 8.75807e-20)
(1.97736 -0.273763 -1.10829e-20)
(2.14503 -0.215517 1.0253e-19)
(3.72716 -0.471414 0)
(1.07044 -0.532532 -4.5046e-19)
(1.96576 -0.00421089 0)
(1.9835 0.358727 -4.15613e-19)
(1.99215 0.359537 1.71607e-19)
(2.32325 -0.0655939 6.29735e-20)
(-1.65466 -0.996307 7.67531e-19)
(1.89999 0.252368 1.62058e-21)
(1.65454 -0.142854 4.42239e-20)
(2.75584 0.0847534 2.49649e-20)
(1.99937 0.00172605 3.1365e-19)
(2.04947 -0.0612279 0)
(2.17694 -0.207184 -1.57746e-19)
(1.90163 -0.687677 -1.50114e-19)
(-0.555685 -0.409144 0)
(2.71254 -0.140113 1.87611e-19)
(2.37596 -0.297842 4.72823e-20)
(2.09298 -0.13445 -6.36343e-20)
(3.11571 0.417069 2.15684e-19)
(1.71934 -0.255451 0)
(-0.467952 1.79389 -3.77227e-19)
(1.72287 -0.259487 0)
(3.33128 0.496569 -1.68743e-19)
(-0.578758 1.31567 -2.22277e-20)
(0.788943 0.402195 0)
(1.65991 -0.18086 -2.95257e-20)
(1.27216 -0.81987 -2.99259e-18)
(1.58422 -0.108862 1.54021e-19)
(2.19432 -0.373807 -2.84833e-20)
(1.47054 0.0131282 1.56276e-20)
(1.60765 -0.85367 3.44616e-18)
(-0.487962 -0.335859 -9.19999e-22)
(2.12127 -0.117808 1.02687e-19)
(-0.488868 0.585333 -1.47317e-19)
(1.63632 -0.240834 -6.75915e-21)
(2.39131 -0.206423 -1.09731e-20)
(1.60877 -0.234072 2.57437e-20)
(2.47466 0.310924 5.76349e-20)
(-1.53688 -1.11922 -3.84471e-19)
(2.08726 -1.13892 0)
(1.86244 0.0438356 -6.47162e-22)
(1.68001 0.183402 -1.62931e-20)
(3.04281 0.260903 -6.05098e-20)
(2.71414 -0.0111241 -6.19543e-21)
(1.63775 -0.352168 -7.57045e-19)
(1.3011 1.08853 0)
(1.59145 -0.525832 2.90915e-20)
(2.00036 0.00793079 -4.97936e-19)
(1.90902 0.0843691 -2.05401e-19)
(1.72201 0.710775 -3.36425e-19)
(1.89208 -0.00700034 -8.03413e-20)
(2.55702 -0.503595 1.14248e-19)
(1.71083 -0.427569 9.00299e-20)
(1.76841 -0.0472242 1.18842e-20)
(2.15198 -0.606652 8.12874e-21)
(1.87889 0.197976 -5.7979e-22)
(0.410309 -0.103273 0)
(-0.370176 -0.401246 1.25499e-18)
(2.15564 -0.205278 -1.96967e-19)
(0.98021 -0.581415 9.29571e-23)
(1.73206 0.0269409 0)
(2.21279 0.637275 -4.15409e-20)
(-0.762399 -0.31997 -4.84135e-20)
(2.06865 -0.10989 7.44379e-20)
(1.25271 1.02173 0)
(0.782451 -0.598071 2.59198e-21)
(2.01845 0.0101895 -1.14707e-21)
(1.98918 -0.318725 -2.33956e-20)
(-1.58076 -1.07917 4.94359e-19)
(2.39406 -1.0076 0)
(1.63531 -0.765175 0)
(2.00826 0.491356 5.47422e-20)
(1.91106 -0.667146 4.35276e-21)
(2.86392 0.2172 -5.50345e-21)
(1.28695 -0.242374 0)
(1.54375 -0.748957 2.16794e-20)
(1.94791 0.44879 0)
(2.78095 -0.238334 0)
(2.11476 -0.116453 0)
(1.63752 -0.0805526 -3.09678e-20)
(-0.120235 -0.317537 -8.81908e-20)
(-0.465612 1.54565 0)
(2.10399 -0.548969 0)
(1.99329 -0.277262 3.683e-20)
(2.24061 -0.710765 0)
(2.05498 -0.0563829 0)
(2.34286 -0.0934532 -2.21908e-22)
(2.14464 0.0486282 2.15125e-19)
(2.11282 -0.172286 -6.66193e-20)
(1.89796 -0.760462 -1.32123e-18)
(1.99523 -0.0389358 -7.94965e-21)
(-1.63469 -1.14561 -2.02621e-19)
(0.444256 0.884849 3.73494e-19)
(-0.156218 0.117335 1.657e-19)
(2.00007 -0.000424111 -4.94193e-20)
(1.88289 0.255956 -2.85277e-19)
(0.880821 0.352055 -1.65282e-19)
(2.38838 -0.967196 0)
(1.63143 -0.0644175 9.36108e-21)
(2.38626 -0.523479 2.39213e-20)
(2.9811 0.29437 -1.55003e-19)
(2.14453 -0.201447 1.36364e-19)
(2.11642 -0.00489154 0)
(2.1461 -1.06829 0)
(2.12109 0.0170563 -7.50089e-21)
(2.34644 0.381736 1.18256e-19)
(1.86831 -0.301449 -1.59762e-20)
(0.554488 0.960149 0)
(2.75829 0.133522 0)
(1.96822 0.259998 0)
(2.00562 0.0039012 6.57541e-21)
(2.66965 0.250168 0)
(1.84555 0.031387 6.79216e-22)
(1.65396 0.178095 -1.41582e-19)
(2.11282 0.243673 0)
(2.88284 0.0170518 0)
(2.34594 -0.976968 0)
(1.98499 3.0555 1.0019e-18)
(2.04316 -0.783724 8.94299e-20)
(1.7789 -0.196581 -1.44645e-20)
(2.65784 0.0554383 -2.739e-20)
(2.05201 -0.753996 -1.27734e-19)
(1.48654 0.0861663 1.1793e-19)
(0.962675 -0.460198 1.94108e-19)
(2.10073 -0.0823796 0)
(2.32277 0.663855 9.26313e-20)
(2.1876 0.570415 2.759e-19)
(0.740001 -0.318171 -6.13663e-19)
(1.82738 -0.299946 3.96027e-20)
(-0.167149 0.145015 4.54953e-20)
(0.431357 0.896132 3.67746e-20)
(2.10903 0.219304 1.67758e-19)
(1.99655 0.0292128 -4.68253e-19)
(2.31113 0.0349724 -1.03384e-21)
(1.8409 0.0960789 -1.43174e-21)
(-2.58799 1.7296 0)
(2.15724 0.881886 -2.0642e-19)
(2.97309 0.39164 1.80381e-19)
(2.02747 0.0138203 -4.26385e-19)
(2.13759 -0.0265666 0)
(2.2166 -0.233812 1.24576e-19)
(2.85633 0.254969 -1.03367e-20)
(2.24607 0.0515101 4.20284e-21)
(0.495147 -0.285998 0)
(2.55831 -0.105172 2.14038e-20)
(2.94124 -0.11216 -1.55944e-19)
(2.14423 0.264697 4.65654e-22)
(3.14411 -0.310383 -1.20519e-19)
(3.61153 -0.443683 0)
(1.39263 -0.66243 -8.89068e-21)
(1.62991 -0.122152 0)
(2.59718 0.0425425 0)
(2.16101 -0.225874 0)
(1.35615 0.49043 -3.31578e-19)
(2.23487 -0.293009 0)
(0.195037 0.448944 -9.15585e-20)
(1.20699 -0.411229 2.93854e-18)
(2.62608 0.0243374 -9.01441e-21)
(1.32764 -0.652147 -5.57499e-20)
(2.31293 0.629132 7.81421e-20)
(-2.58635 2.56681 8.89297e-19)
(2.15236 0.0667687 -6.77717e-21)
(1.63222 -0.777904 -1.01331e-19)
(2.6484 -0.979556 -2.94326e-19)
(1.74395 -0.181985 1.78667e-20)
(2.28004 -0.279 -6.6078e-20)
(-0.690686 0.388796 -4.24755e-20)
(2.03046 -0.0907749 2.68799e-19)
(2.13643 -0.227477 0)
(2.58131 -0.0875331 0)
(3.35074 -0.210401 3.22413e-19)
(4.1227 0.374556 1.19426e-18)
(1.7888 -0.146885 3.76714e-19)
(2.0105 0.00907097 -8.93362e-22)
(2.36146 0.193404 6.85198e-20)
(3.04633 -1.4246 1.33186e-19)
(3.31045 -0.206271 0)
(1.73113 0.699898 7.58969e-19)
(1.80495 -0.432997 0)
(2.81429 0.842462 0)
(0.936303 -0.615326 -5.34362e-19)
(2.78731 0.175475 0)
(2.35463 -0.522752 -6.73355e-20)
(2.59283 0.0641645 0)
(2.19134 -0.31438 -3.3448e-20)
(1.49103 -0.703736 1.14825e-19)
(2.43956 0.358227 5.85737e-21)
(-3.40419 1.92515 5.06948e-19)
(2.66486 -0.925594 2.17671e-20)
(1.63936 -0.523631 -3.51284e-21)
(2.2181 -0.220996 -4.21499e-20)
(4.14243 1.68482 2.1605e-18)
(3.00258 0.33134 1.92659e-19)
(1.1009 -0.540243 1.58497e-19)
(-2.20168 0.642427 0)
(1.2868 -0.624167 1.19894e-20)
(3.02949 -0.351037 2.2816e-19)
(2.6251 0.0390768 3.13487e-21)
(1.14169 -0.549514 3.36831e-19)
(2.26826 0.012596 0)
(3.17854 0.466724 0)
(1.99943 0.0199488 7.17373e-19)
(2.79691 0.147448 0)
(1.14555 -0.566777 9.54939e-20)
(1.90148 -0.32372 -1.58337e-20)
(1.90253 -0.01907 0)
(2.10276 0.00815022 -1.24263e-20)
(3.84205 0.0641553 1.03367e-18)
(-0.378135 0.263026 2.94671e-19)
(1.96269 0.331521 0)
(-1.03043 0.377223 -2.84604e-19)
(1.25611 -0.219161 6.82131e-20)
(1.35492 -0.656014 -5.05173e-20)
(2.00653 -0.324578 0)
(2.4015 -0.90685 7.03269e-20)
(-2.1889 1.90313 1.65539e-19)
(2.03001 0.159255 4.82356e-20)
(3.01739 -1.54443 -1.68906e-19)
(2.3943 2.56322 -1.00415e-18)
(3.23423 0.433552 1.82864e-19)
(1.83834 0.0871446 0)
(1.88834 -0.315863 -1.6487e-21)
(2.40086 0.292257 2.78726e-19)
(-2.3006 1.77345 -2.03957e-19)
(2.8366 -0.586257 4.09871e-19)
(0.522518 -0.312944 0)
(2.68981 -0.864717 -1.85393e-19)
(-2.84149 2.82514 -1.71497e-18)
(2.23969 -0.000792828 -1.32085e-19)
(0.683946 -0.824717 0)
(1.53525 0.582072 2.67668e-19)
(2.00467 0.0111976 -1.22775e-19)
(3.33482 -0.213206 0)
(2.28495 -0.149604 6.88282e-20)
(1.41736 -0.682484 1.49292e-19)
(3.83341 -0.0460929 -5.83389e-19)
(2.40375 -0.824298 0)
(-0.212778 -0.964283 0)
(2.02711 -0.376356 -2.81673e-20)
(1.95988 -0.303983 3.47639e-20)
(-0.331812 -1.29759 1.15372e-18)
(2.26391 -0.104234 -4.38758e-20)
(1.9933 0.0110925 2.58957e-19)
(2.01736 1.08467 -1.63949e-19)
(-0.367947 1.21473 4.59727e-19)
(1.24747 -0.356602 7.03855e-19)
(2.91498 0.364156 1.17735e-19)
(2.06532 -0.202829 8.73254e-20)
(2.28227 -0.311791 5.1511e-20)
(2.19675 0.0101627 0)
(-1.77557 0.546371 0)
(1.78627 -0.257233 1.32316e-20)
(1.57403 -0.743605 7.99227e-21)
(2.00017 0.00228863 -4.81293e-20)
(3.13556 -0.354601 2.16089e-19)
(3.09701 -0.338447 0)
(2.1506 -0.0101829 2.79015e-20)
(2.3373 -0.133391 -5.63896e-20)
(1.99644 0.00150114 -2.32368e-19)
(3.19574 0.504791 -6.43207e-19)
(1.44802 0.0386713 -1.37946e-19)
(-0.753156 0.478248 3.25897e-20)
(1.99007 -0.297319 -2.98561e-20)
(2.09545 0.18765 2.81165e-20)
(1.67377 -0.0869158 9.64331e-21)
(2.28922 -0.989461 0)
(4.30702 1.52785 0)
(2.10511 -0.000711327 2.2846e-20)
(1.64464 -0.561898 -2.09145e-20)
(1.64568 -0.137086 0)
(1.61087 1.1457 -3.07251e-19)
(1.6493 -0.748214 0)
(2.08643 0.839954 1.32956e-19)
(1.97806 0.460756 8.50562e-21)
(-0.0505073 1.98675 0)
(1.87155 0.249781 -1.8176e-19)
(1.76577 -0.247663 -1.94807e-20)
(1.89753 0.0800078 -1.76263e-20)
(2.01668 -0.0875232 -3.08128e-19)
(2.82129 -0.845663 0)
(1.64342 -0.172819 5.39061e-20)
(1.80496 -0.246273 7.31318e-22)
(2.02855 0.0154203 5.44084e-20)
(1.75572 -0.00844745 -2.29741e-19)
(0.950796 0.334132 2.94916e-19)
(1.92031 0.0334805 1.80404e-19)
(2.45197 -0.0859291 3.00767e-19)
(2.27738 -0.106215 0)
(2.44607 -0.162091 -1.30578e-22)
(2.48799 -0.045843 1.03324e-19)
(2.00029 0.00151458 7.20274e-19)
(2.61067 -0.474679 0)
(1.79483 -0.0299531 -5.76689e-20)
(1.54684 0.156771 0)
(2.67068 0.693887 9.08905e-19)
(2.22287 -0.52632 1.1079e-22)
(0.907672 -0.438523 2.09648e-19)
(2.68615 0.218273 3.39876e-19)
(1.99867 0.100269 0)
(1.87286 -0.312315 -2.16155e-20)
(2.74728 -0.850774 1.9855e-19)
(1.75573 -0.00476742 2.16955e-19)
(2.51766 -0.0268125 -3.144e-19)
(2.25552 0.0590608 8.75843e-21)
(0.028901 0.222637 -4.30354e-19)
(1.90541 0.232277 2.27386e-23)
(2.31532 -0.0235008 0)
(1.26859 -0.50095 4.8766e-19)
(2.83174 0.835904 0)
(1.7864 -0.251092 -9.39616e-22)
(2.32172 -0.00943983 6.69646e-20)
(2.38694 -0.167453 -6.14087e-20)
(2.29966 -0.144038 5.8143e-20)
(0.280112 -0.0951279 -4.64846e-19)
(2.00205 0.00500569 2.88191e-19)
(1.7524 0.0207576 0)
(-0.384966 0.662536 -1.43814e-19)
(2.33533 -0.076575 2.90236e-21)
(1.68568 -0.539226 8.08712e-21)
(4.03104 0.0874452 9.13868e-19)
(2.22311 -0.0114979 0)
(1.91521 -0.100016 1.51589e-19)
(1.87077 0.0354694 4.81008e-19)
(2.00263 0.0124103 3.75593e-19)
(3.37435 -0.289353 0)
(1.84623 0.021537 3.1715e-23)
(3.16967 -0.336807 -2.14299e-19)
(-1.16494 -0.696349 1.04689e-19)
(1.75724 -0.168451 5.23935e-20)
(2.33174 -0.0721715 -2.7596e-21)
(2.01537 0.00780492 3.08436e-21)
(2.31382 -0.0449735 0)
(2.23023 -0.343965 -1.19069e-19)
(-1.05514 0.608547 2.09813e-19)
(2.30212 0.369128 -1.41401e-19)
(1.99911 0.00240926 2.60831e-19)
(1.40074 0.0271523 0)
(1.82361 -0.265923 -2.33243e-20)
(0.141164 1.89494 0)
(2.76049 1.26067 -7.04677e-20)
(2.25456 -0.0174355 0)
(2.64443 -0.63056 -1.15813e-20)
(1.52988 -0.263022 -1.17428e-19)
(1.52607 0.535044 6.06583e-19)
(-1.6075 -0.861506 -5.28034e-19)
(2.47018 -0.807633 0)
(2.30191 0.0506167 -2.11866e-19)
(2.00202 0.10608 -2.06303e-19)
(0.168323 -0.286504 -9.11996e-20)
(-1.03759 3.63538 1.90255e-19)
(1.81124 -0.152147 -5.60179e-19)
(3.29106 -0.151019 1.8735e-19)
(2.05083 0.12519 1.7001e-19)
(1.70466 -0.559876 0)
(1.49834 0.091598 2.75057e-19)
(1.60112 -0.0460226 -3.08515e-20)
(1.59875 -0.816027 2.0425e-18)
(-0.881112 0.435337 -7.73217e-19)
(0.371202 -0.480751 -2.15913e-19)
(2.9541 0.341979 0)
(0.124222 -0.375566 0)
(1.82886 0.878861 0)
(2.23519 -0.0533407 0)
(4.07057 0.35195 -1.40946e-18)
(2.50781 0.677095 0)
(1.39851 -0.455514 0)
(1.78932 -0.0257394 8.65541e-20)
(2.9908 0.406755 -1.87186e-19)
(2.29813 -0.0517881 -3.37294e-20)
(1.76626 0.14837 8.67447e-19)
(2.00322 0.00664594 -1.04756e-19)
(1.95053 1.31933 0)
(3.20789 -0.0407618 0)
(1.98883 0.000648785 2.48747e-19)
(2.03713 0.0408882 4.52221e-20)
(1.3751 0.522314 0)
(0.489827 -0.29628 5.02032e-19)
(2.82715 -0.617428 -4.62158e-19)
(0.0368633 0.766728 0)
(2.27503 0.0150154 3.6408e-20)
(2.02215 0.00839707 -2.88493e-19)
(1.00192 1.02827 -4.26238e-20)
(1.26072 -0.491018 0)
(1.99136 0.108829 3.67203e-19)
(2.51788 0.241883 0)
(3.16736 -0.314778 0)
(2.14979 0.153104 -3.20767e-20)
(1.98581 0.0118326 1.39461e-19)
(0.520533 -0.114911 -5.12791e-19)
(2.15909 0.554609 9.12059e-20)
(1.57661 -0.467392 -1.82306e-19)
(2.24294 -0.0463445 1.50629e-20)
(2.05426 0.122894 1.36977e-19)
(2.35506 -0.345323 2.94923e-19)
(2.99634 -0.500767 0)
(3.66334 0.186189 4.14792e-19)
(1.52887 -0.208018 0)
(1.79776 -0.26305 1.23045e-20)
(2.30832 0.0199963 0)
(1.60559 -0.092974 3.27715e-19)
(-1.4068 -0.747446 -5.04534e-19)
(3.26349 -0.157639 0)
(-0.177554 0.0528833 7.06742e-21)
(3.23233 -0.0465635 -3.4052e-19)
(1.67695 -0.371652 1.80699e-20)
(1.99088 -0.302533 3.65207e-19)
(1.43332 0.500673 -3.85005e-19)
(1.56265 -0.459638 -5.40353e-19)
(2.87676 1.25488 0)
(1.64423 -0.0909181 2.75794e-20)
(-0.0371803 0.325096 -9.86103e-19)
(1.99423 0.113043 0)
(1.88733 0.0919365 1.91905e-20)
(2.90043 0.0490095 -6.06742e-21)
(2.36697 1.00286 0)
(2.00442 0.00755634 0)
(0.570924 -0.347406 0)
(-2.4946 1.82378 9.03028e-19)
(2.10124 1.43078 1.9483e-19)
(2.50435 0.489489 -3.33758e-20)
(2.06832 0.80296 0)
(1.90409 -0.240188 3.08525e-19)
(1.82524 0.0925105 3.0353e-21)
(2.16429 0.512227 -2.18269e-19)
(0.825661 0.134564 3.69853e-18)
(1.94228 0.0596364 0)
(1.92004 0.257411 0)
(1.01477 -0.311367 -3.69935e-19)
(1.67478 -0.553764 -1.15627e-19)
(2.1324 -0.16105 0)
(1.77906 -0.827658 1.75316e-19)
(1.73886 0.0263208 -2.09697e-21)
(1.89149 0.179059 8.33327e-22)
(1.00884 -0.486776 0)
(2.11106 -0.11642 1.06409e-19)
(1.63068 -0.0525442 2.68068e-20)
(2.5185 0.218432 -7.99296e-20)
(2.21162 -0.558497 0)
(1.22653 -0.380983 -1.06712e-18)
(2.34617 -0.154548 6.14984e-20)
(1.99676 0.0302572 7.14478e-20)
(1.71765 0.0188869 1.20837e-20)
(2.38507 0.670395 0)
(1.74907 0.148603 -2.30953e-19)
(2.84812 0.615798 -4.73966e-20)
(0.613356 -0.549394 5.14428e-20)
(2.00294 0.0147409 0)
(-1.0598 3.28387 -2.02078e-19)
(0.79002 -0.297806 0)
(2.00185 0.0157963 -2.88854e-19)
(1.99561 0.00922394 1.05179e-19)
(1.97548 -0.0263128 -4.77822e-20)
(-2.40316 1.73792 0)
(2.20892 0.00646985 -1.81467e-20)
(1.25781 0.172194 7.79905e-19)
(2.91915 -0.507885 0)
(1.77257 -0.0367252 2.65565e-19)
(3.17778 0.340967 7.32209e-19)
(2.1687 -0.0252904 0)
(-2.83531 2.73496 7.24922e-19)
(2.11448 -1.0173 -1.1467e-19)
(2.04207 0.00202929 0)
(0.627369 -0.532181 6.40175e-19)
(1.88051 0.0843185 0)
(2.06449 -0.90451 -2.8105e-20)
(-1.34045 0.496818 4.69432e-19)
(2.1324 0.297588 -4.92527e-22)
(2.38895 0.159411 1.07305e-19)
(1.50156 0.0752581 1.42451e-19)
(1.98643 -0.323734 -1.3227e-19)
(2.46443 -0.733795 -7.05387e-20)
(2.09403 -0.900373 4.99823e-21)
(2.31312 -0.0831164 8.12662e-21)
(2.36778 0.672319 -1.66282e-19)
(2.57086 -1.03583 0)
(1.99931 0.000267498 -2.31397e-19)
(0.185368 0.836403 -2.16742e-19)
(1.55797 -0.218972 0)
(1.49611 -0.092958 -1.52992e-20)
(1.43612 0.00891494 0)
(1.46106 -0.491249 4.7753e-19)
(2.62527 -0.768452 0)
(1.60033 0.00404104 -1.11596e-20)
(2.34147 -0.0235225 -3.94137e-20)
(-3.05913 2.40796 1.15336e-18)
(0.501795 -0.402398 1.06958e-18)
(2.14293 0.00421947 -5.46668e-22)
(1.9624 -0.896928 -3.85959e-19)
(2.08059 -0.545529 6.76808e-20)
(1.71204 -0.428346 0)
(0.283495 -0.213256 -2.6772e-19)
(2.99304 -0.340625 9.06541e-20)
(0.283982 -0.236972 -3.12456e-19)
(1.88782 0.209246 -4.68386e-22)
(1.70373 -0.675374 0)
(2.18883 -0.0328188 -2.33068e-21)
(0.515082 -0.314701 0)
(-1.19777 -0.141012 -4.50431e-20)
(0.947866 0.985333 3.68551e-20)
(2.33687 2.53785 0)
(2.43289 -0.426429 -2.80614e-20)
(0.452906 0.423684 0)
(2.38629 0.944623 0)
(1.83254 -0.842544 3.52191e-20)
(1.57346 0.138956 2.24845e-19)
(1.70823 -1.41765 0)
(1.87085 0.055768 -1.36654e-19)
(2.35993 0.31198 -1.20463e-19)
(-1.00706 0.777662 8.19009e-19)
(2.30028 1.19723 0)
(2.16317 -0.0528221 0)
(0.0949653 0.187892 -4.10025e-19)
(2.03884 -0.136976 0)
(2.60871 -0.0272207 0)
(-0.712937 2.04911 -2.074e-21)
(2.33588 -0.264488 2.01391e-20)
(2.00866 -0.458484 8.39649e-20)
(3.32457 0.473367 2.78729e-20)
(0.320258 -0.206428 5.73787e-19)
(1.99652 0.00824569 1.18247e-19)
(1.74829 -0.452098 0)
(2.07399 0.367097 -8.10074e-20)
(1.62407 -0.328205 0)
(2.32705 0.0150351 0)
(1.99426 0.044984 0)
(2.14035 0.134419 -2.62089e-20)
(2.00215 -0.0891435 1.4468e-19)
(2.74076 0.140952 1.50342e-20)
(1.79895 -0.44624 0)
(0.269114 -0.0815967 -3.78769e-19)
(1.86545 0.825487 1.86539e-19)
(2.24243 -0.722044 -4.21845e-21)
(2.327 -0.245675 -1.56188e-19)
(3.77444 -0.113954 1.02855e-18)
(2.07276 0.0605146 -1.63015e-19)
(-1.39055 -0.645608 0)
(2.32167 -0.138185 0)
(1.46332 0.518659 0)
(1.45744 -0.666648 -3.13903e-19)
(-2.26973 1.0732 -1.29006e-18)
(2.20273 2.09832 0)
(2.09409 0.381184 0)
(2.1339 -0.299594 1.41242e-19)
(2.00002 -0.0145112 -2.46952e-20)
(1.84147 0.432717 3.39072e-19)
(2.7549 -0.976824 0)
(0.713038 -0.161942 -1.42376e-19)
(2.33484 0.0611889 1.22887e-19)
(1.63735 -0.521205 -2.88083e-19)
(2.18844 0.0465836 -1.69413e-19)
(2.15635 0.517394 2.80484e-19)
(2.51638 1.48124 8.66831e-19)
(1.4509 -0.674238 5.51905e-19)
(3.29543 -1.9849 1.22807e-18)
(2.88861 0.192163 -9.96195e-21)
(2.00181 0.00263543 -5.45721e-20)
(1.65003 -0.736533 7.06288e-20)
(2.14423 -0.940147 4.9649e-20)
(1.40331 1.4215 -1.82097e-19)
(1.76396 -0.812375 -7.17552e-20)
(2.46976 -0.150974 0)
(1.5356 -0.462005 -9.07535e-21)
(2.18962 -0.0522654 -3.54623e-19)
(2.61462 0.788101 4.83556e-22)
(1.60529 -0.49121 -2.73168e-19)
(2.2105 -0.693299 7.47055e-21)
(1.93821 -0.00191878 1.56332e-19)
(2.38068 -0.0337453 -8.9244e-20)
(1.24612 -0.450021 -1.09123e-19)
(2.89495 0.364441 -6.7002e-20)
(1.37625 -0.318305 -7.17765e-19)
(2.10361 -0.0387513 -3.0222e-19)
(1.36901 -0.378958 0)
(-3.52242 1.99583 -2.15311e-18)
(1.95808 0.036768 3.19891e-19)
(1.41246 0.00341229 6.59401e-22)
(-0.533844 0.590938 0)
(2.24608 -0.950677 0)
(1.97126 0.30471 3.08168e-19)
(1.25427 -0.328742 4.60146e-19)
(-0.0972761 1.78229 -1.94175e-18)
(2.67356 -0.61028 1.6483e-19)
(2.47978 -0.0808126 -1.72137e-19)
(2.89456 0.804341 0)
(1.97107 0.337291 1.77507e-19)
(-0.493016 0.209272 -2.84319e-20)
(2.20297 0.895046 -1.7534e-19)
(2.18911 -0.221642 -9.93291e-20)
(0.390183 -0.275432 -9.36485e-19)
(3.74957 -0.220244 -9.42317e-19)
(3.67627 0.159657 1.83343e-19)
(2.00596 0.951676 0)
(3.00662 -0.694814 -1.46099e-19)
(1.98646 -0.0257028 4.16262e-20)
(1.84472 0.0622322 -1.41988e-21)
(0.999084 -0.487641 5.4718e-19)
(2.16668 -0.227417 1.5162e-19)
(1.79065 -0.217379 1.02106e-20)
(-0.91927 0.595452 -5.06203e-19)
(2.78014 -0.212915 -1.61329e-19)
(2.24023 -0.0356638 2.707e-19)
(-0.189339 0.946509 -5.82183e-20)
(2.13683 0.835276 3.72966e-19)
(0.815236 -0.54141 -6.94396e-19)
(1.17774 -0.572773 -1.29593e-19)
(1.87664 0.0557336 0)
(2.47913 -0.180903 5.28608e-20)
(-1.27522 2.00704 -2.70092e-19)
(1.5294 -0.28612 6.24353e-19)
(2.2805 0.216714 0)
(1.43316 -0.0741994 1.48078e-19)
(1.41947 -0.618127 1.33562e-19)
(1.99879 0.00553432 -5.10912e-19)
(0.377405 -0.198347 -5.16241e-19)
(1.7027 -1.3466 -3.03566e-20)
(2.30466 -0.0464998 2.11217e-20)
(2.26309 0.0536245 3.18795e-19)
(2.10349 -0.916961 8.01215e-20)
(2.77449 0.144719 -2.47422e-20)
(-2.21084 1.2088 -3.14865e-18)
(2.10038 -0.0516536 3.32807e-19)
(2.23809 -0.0413218 -6.78856e-20)
(2.10962 0.0635584 -3.61945e-21)
(2.16097 -0.0154611 -1.25e-19)
(1.3575 -0.62359 -2.5872e-19)
(2.85445 0.21989 0)
(-3.11911 1.52101 9.50062e-19)
(2.13631 0.066189 3.16554e-20)
(1.27114 1.0028 -1.6361e-20)
(2.3603 0.0434105 1.03821e-19)
(2.45597 -0.158607 8.20461e-20)
(2.00025 0.00527814 -4.52776e-19)
(2.04249 0.227549 1.02896e-19)
(0.510645 -0.278795 -5.16158e-19)
(2.64762 -0.0232699 0)
(1.83182 -0.271218 1.2548e-20)
(2.40441 -0.188286 6.28603e-20)
(1.71306 -0.659513 0)
(2.10409 0.0443387 2.23775e-19)
(2.45682 -0.17311 7.06937e-20)
(2.61541 -0.0120347 3.68433e-24)
(3.89533 -0.509416 7.66999e-19)
(2.35299 -0.276551 0)
(1.80712 0.190049 4.48913e-19)
(1.85444 -0.235236 -1.72716e-20)
(1.68644 -0.791685 -6.83893e-20)
(2.18865 -0.140534 0)
(1.57461 0.104439 -6.4526e-19)
(0.145634 -0.341228 -1.33789e-19)
(2.10802 1.20687 1.39421e-19)
(1.38775 -0.340076 6.93249e-19)
(2.21122 0.0114017 -1.3913e-20)
(0.419867 -0.301358 7.53348e-19)
(2.09128 -0.113773 -1.86219e-19)
(3.51041 0.201625 -4.84242e-19)
(1.86567 0.0369166 -2.79401e-19)
(1.97173 0.02192 0)
(2.00547 0.00731384 -2.03833e-19)
(2.58053 0.592343 6.82248e-18)
(-0.285192 0.443309 0)
(3.83266 0.587362 0)
(1.84659 0.0622858 0)
(0.858033 -0.577535 0)
(2.00748 0.213386 0)
(1.31732 -0.317311 0)
(3.24629 -1.27892 -8.92149e-21)
(2.63495 0.688143 4.0295e-20)
(2.46041 0.386169 0)
(1.79034 0.187537 6.74166e-19)
(0.710061 -1.02452 1.81012e-19)
(2.04327 0.125164 3.21554e-21)
(-1.09096 2.08686 -1.08694e-19)
(1.30074 -0.122866 2.75086e-21)
(0.519427 -0.301404 4.606e-19)
(1.6134 0.0102901 -3.46955e-20)
(2.80442 0.0899629 6.47231e-21)
(1.99276 0.193708 -2.07206e-19)
(1.91203 0.072421 -3.99951e-19)
(1.82807 0.745445 -3.38889e-19)
(2.76375 1.19443 0)
(-0.439564 1.57601 7.46925e-19)
(1.48644 -0.508346 -5.22761e-19)
(2.01282 0.0205277 -6.1978e-19)
(2.99783 -0.375503 8.50499e-19)
(2.03826 -0.00937165 2.3398e-20)
(3.5967 0.477617 -9.82832e-19)
(2.33621 -0.149961 2.8344e-21)
(2.43616 -0.402939 9.80618e-20)
(2.00461 0.0945742 2.1482e-19)
(1.57624 1.02803 0)
(2.41575 -0.645038 -5.92428e-20)
(1.80902 -0.0441388 -8.35078e-20)
(2.39328 0.669583 0)
(2.06424 -0.331405 0)
(2.23439 -0.962036 -7.70979e-21)
(0.203363 -0.309593 8.50734e-19)
(3.20234 -1.43744 -6.92676e-19)
(1.92844 -0.051974 0)
(2.04309 -0.0836305 -2.80487e-19)
(1.861 0.0868221 -7.68978e-20)
(-3.46683 1.55133 6.39333e-19)
(2.53255 -0.105436 2.54956e-20)
(0.519959 -0.306619 0)
(-0.155667 1.45427 8.49091e-19)
(2.50412 -0.144821 0)
(2.99505 -0.759584 1.62117e-19)
(1.88223 -0.0813537 -1.03849e-19)
(2.00426 0.00407332 4.05042e-22)
(2.19298 0.582817 -4.90242e-19)
(2.31787 1.10525 -1.84026e-20)
(2.02213 -0.535223 1.66307e-19)
(-1.02409 1.98505 0)
(0.579405 -0.91007 -3.00464e-18)
(0.768022 -1.96433 0)
(2.5137 0.392891 2.39021e-20)
(-3.30321 1.32936 1.55821e-18)
(4.09002 0.496851 1.06547e-18)
(1.85612 -0.277229 -1.37595e-20)
(-1.89782 2.03468 -9.22935e-19)
(1.46994 -0.710992 7.9041e-20)
(1.52732 -0.509275 -2.90244e-19)
(1.60222 -0.0615039 1.08413e-20)
(1.27384 -1.11307 2.46027e-18)
(1.39985 -0.639664 2.13997e-19)
(1.58333 -0.526077 3.06659e-19)
(-2.56446 1.25457 1.42532e-18)
(2.29043 -0.48254 -1.38539e-18)
(2.17295 -0.601952 1.72264e-20)
(-1.64252 -0.694866 4.71369e-19)
(2.55081 0.046016 -1.03654e-20)
(0.678099 -1.10873 -1.42963e-19)
(2.21938 0.372311 -1.25534e-19)
(2.73257 -0.180452 0)
(0.712525 -0.531478 -4.98421e-19)
(2.10074 -0.0470259 -3.97312e-19)
(1.99211 0.0493306 0)
(2.49182 0.369838 0)
(-0.407648 -1.15415 -1.60243e-18)
(3.44455 0.627814 -3.17792e-19)
(2.34436 0.219833 -2.73557e-19)
(2.32502 -0.260113 -2.95374e-20)
(1.82397 0.723078 2.90008e-19)
(1.37533 -0.0212381 8.8893e-20)
(-3.19073 1.28711 4.16057e-20)
(1.76277 0.415652 0)
(1.61642 -0.551907 2.83143e-19)
(-0.376551 -0.0072401 1.05417e-19)
(-1.99561 1.92959 7.19443e-19)
(2.03864 -0.736432 1.4836e-20)
(2.4917 -1.05942 3.45515e-19)
(1.54226 -0.0143987 5.77568e-20)
(1.95317 -0.269863 1.09388e-20)
(3.30487 -0.35799 5.1689e-19)
(-2.99943 1.27301 -8.03847e-19)
(2.33024 0.208491 2.05308e-19)
(2.0104 0.00242478 1.41194e-19)
(1.35963 -0.370953 -2.84163e-19)
(2.04374 -0.116281 1.64858e-19)
(1.12196 -0.459737 0)
(2.30191 0.361331 2.4891e-19)
(2.02723 0.0157756 3.20704e-20)
(1.68829 -0.403428 -9.43366e-20)
(1.59153 1.3231 -1.61618e-19)
(2.13192 -0.597134 3.4364e-20)
(2.15603 0.029057 5.33164e-20)
(1.51924 -0.0455186 -4.61627e-19)
(2.46172 0.620101 0)
(1.84731 -0.249785 -2.86124e-20)
(2.19973 0.0677742 2.2984e-19)
(2.55719 -0.275887 0)
(1.55965 -0.126012 2.5261e-19)
(2.54197 -0.108415 0)
(1.50423 1.30643 6.22927e-19)
(2.31363 -0.0154775 0)
(2.41573 -0.712953 0)
(2.37082 -0.0427103 2.89263e-20)
(2.32852 0.163494 1.60176e-19)
(2.814 0.436346 -5.67349e-20)
(1.94815 0.0473432 -1.85776e-19)
(1.50407 0.809037 -1.93961e-19)
(1.99542 0.0333181 -9.00815e-20)
(2.0267 0.22321 0)
(-0.743088 -1.15331 -3.8482e-20)
(2.4347 0.162507 -1.16752e-19)
(2.91839 -0.770055 -3.23484e-19)
(2.70631 -0.176256 0)
(2.64679 0.781042 1.5844e-20)
(1.85516 1.29398 -2.85037e-20)
(2.524 0.0387596 -4.55729e-20)
(-0.314626 2.47979 0)
(-0.619876 2.14628 3.24425e-19)
(2.01952 0.0973795 0)
(3.23861 -0.288964 -2.42758e-19)
(-0.314728 0.2149 0)
(1.70785 -0.212113 0)
(3.0578 -1.91748 0)
(2.54178 -0.779812 0)
(0.433687 0.393632 -6.36931e-20)
(-2.64264 1.82889 -2.10369e-19)
(1.99472 -0.0801958 -2.18126e-19)
(-3.42021 2.23982 -1.49709e-18)
(1.48181 -0.66229 0)
(-3.40701 1.89878 -8.77593e-19)
(-0.471827 0.319272 -2.91163e-19)
(1.78517 -0.82392 0)
(1.71137 -0.621048 -2.62388e-19)
(1.63497 -0.265526 -8.93231e-21)
(2.21089 0.353788 3.27511e-19)
(3.48986 -0.580373 -6.07798e-19)
(1.90813 0.0593997 0)
(2.80934 -0.541207 0)
(3.03941 0.551767 5.93086e-20)
(2.1278 -0.829628 1.0119e-20)
(1.68327 -0.10001 -1.97669e-20)
(-0.206999 -1.31161 1.63247e-20)
(2.00053 0.00249593 1.52168e-20)
(2.58086 -0.128826 6.97958e-21)
(2.00525 0.0944975 3.07188e-19)
(1.81859 -0.24501 1.36151e-20)
(2.21055 -0.504107 0)
(0.94905 -0.101488 0)
(2.76831 0.146374 0)
(1.62051 0.0197411 0)
(1.9639 -0.359895 9.89121e-20)
(2.92478 0.195838 0)
(-0.202366 1.09789 6.60413e-19)
(2.08101 1.69262 1.12006e-19)
(1.55549 -0.543851 -4.65913e-19)
(0.632034 -0.897041 -1.01566e-19)
(-3.16853 1.68218 -4.96134e-19)
(-0.21958 0.98044 -3.39695e-19)
(1.90793 0.0506007 4.24328e-20)
(-2.64804 1.12378 -5.48232e-19)
(1.80363 -0.24104 2.13499e-20)
(2.42692 -0.0323474 0)
(2.47863 0.142475 0)
(1.27671 -0.792332 0)
(2.47077 -0.181114 -4.9942e-20)
(1.49882 0.0725791 0)
(1.77413 0.426563 0)
(2.00239 0.00490249 0)
(2.03011 -0.46345 7.87745e-20)
(2.04346 0.127843 -3.39877e-19)
(1.51865 0.0357202 0)
(3.38972 -1.11657 -5.58794e-19)
(1.97465 0.0848146 -2.57381e-19)
(2.21814 0.83246 3.62377e-19)
(1.8196 -0.834685 8.08212e-20)
(1.83429 0.480006 3.52444e-21)
(2.11665 -1.2054 -1.16685e-20)
(2.00359 -0.364025 2.7794e-20)
(2.52508 -0.920047 -1.52405e-19)
(2.30969 0.166137 -2.15942e-19)
(1.66737 -0.0785654 -4.55003e-20)
(1.91219 -0.0140546 -2.5014e-19)
(2.10809 -0.0498607 0)
(1.19696 0.937961 1.06729e-20)
(2.00755 0.00969103 2.72059e-19)
(-0.392641 -0.174633 -6.8178e-20)
(2.32334 -0.149597 3.77404e-22)
(1.28229 -0.344044 -5.02327e-19)
(2.32862 0.149868 3.64971e-20)
(2.85787 0.651716 6.80501e-20)
(1.9952 0.0293605 0)
(1.44673 -0.434568 -2.96591e-20)
(1.92669 -0.107599 -1.2625e-20)
(2.5839 -0.933698 3.32082e-19)
(0.363974 0.42485 -4.22742e-18)
(2.14104 0.0277988 1.11045e-19)
(2.85425 0.168498 8.67323e-21)
(2.28826 0.0183583 1.04519e-20)
(2.7223 0.161845 0)
(0.605792 -0.383661 0)
(1.61986 -0.768654 1.38005e-19)
(0.431012 -0.230808 5.54797e-19)
(1.86636 0.0330679 5.26993e-23)
(2.00996 0.0121626 5.35392e-19)
(1.44816 -0.443079 9.3765e-20)
(1.5542 0.0880014 0)
(1.88814 -0.00709211 0)
(1.82973 -0.432219 -9.16259e-21)
(2.29559 -0.0148227 4.317e-20)
(1.86505 0.475136 4.84911e-19)
(2.15828 -0.0115316 0)
(2.12226 0.00598839 0)
(2.52908 -0.457749 -2.82e-19)
(2.16347 -0.139792 1.09225e-19)
(-0.00709624 -0.297676 -7.7461e-19)
(1.81048 -0.149734 0)
(1.41228 -0.238023 1.11988e-19)
(3.97757 -0.904544 -2.35974e-19)
(-1.30108 1.85962 -3.09098e-19)
(2.13551 -0.0329148 -2.11819e-19)
(2.95947 0.689105 0)
(3.47366 0.620213 2.63831e-19)
(0.0778551 2.42193 -1.02693e-18)
(-0.109834 -0.367955 0)
(1.6712 0.0191535 -3.68768e-20)
(1.96405 0.0269755 -1.83198e-19)
(1.58845 0.0185614 -2.26225e-23)
(1.84501 0.0186276 5.69282e-20)
(1.20714 1.04135 1.10743e-19)
(1.88122 0.0431065 0)
(1.28292 -0.522129 -6.65865e-21)
(1.39491 -0.442309 -8.76269e-20)
(0.308239 2.06987 -2.52585e-19)
(1.99882 0.197665 2.45904e-19)
(-0.862122 1.81074 4.38636e-19)
(2.09963 0.0259978 -4.91722e-19)
(1.76786 -0.214359 -4.37319e-21)
(1.91835 -0.32831 1.74102e-20)
(1.97982 -0.431131 0)
(1.71811 0.0291308 -8.45005e-20)
(1.3269 -0.62728 1.70296e-19)
(2.31307 -0.0247837 -8.73635e-20)
(2.02589 0.0161953 -2.40733e-19)
(3.21382 -0.331277 2.08845e-19)
(1.84951 -0.239363 4.80931e-19)
(2.43873 0.0398756 1.2461e-20)
(1.87279 -0.00134696 1.5251e-19)
(1.50193 -0.117073 -4.97557e-20)
(3.27256 0.503081 -2.99877e-19)
(2.14246 0.907176 2.97491e-19)
(0.128047 1.85564 1.54513e-18)
(1.8623 -0.00611424 0)
(1.45444 -0.683718 0)
(3.76844 1.57357 0)
(1.54958 -0.513664 3.68941e-19)
(2.16563 0.0633142 -3.92957e-19)
(1.84703 0.0960774 0)
(1.73476 -0.411705 -2.62568e-19)
(1.84703 0.0726607 0)
(1.96872 -0.328964 -1.61626e-19)
(2.90732 -0.813467 -3.7129e-19)
(2.16809 -0.480388 -3.42089e-20)
(1.95554 0.0433949 0)
(2.02124 -0.000942478 0)
(2.62788 -0.294752 1.45516e-19)
(2.44639 0.330958 -5.84282e-21)
(2.91273 0.0184736 8.23741e-20)
(1.96119 1.38525 -1.08957e-20)
(2.02538 0.0340394 0)