/*--------------------------------*- C++ -*----------------------------------*\
| =========                 |                                                 |
| \\      /  F ield         | OpenFOAM: The Open Source CFD Toolbox           |
|  \\    /   O peration     | Version:  2306                                  |
|   \\  /    A nd           | Website:  www.openfoam.com                      |
|    \\/     M anipulation  |                                                 |
\*---------------------------------------------------------------------------*/
FoamFile
{
    version     2.0;
    format      ascii;
    arch        "LSB;label=32;scalar=64";
    class       volScalarField;
    location    "0.4";
    object      p;
}
// * * * * * * * * * * * * * * * * * * * * * * * * * * * * * * * * * * * * * //

dimensions      [0 2 -2 0 0 0 0];

internalField   nonuniform List<scalar> 
13486
(
49.2979
37.3255
3.22282
-14.297
14.5253
-6.89657
5.38708
26.7531
32.8378
14.2502
-26.4841
6.99772
52.4925
-11.2018
9.84254
14.4324
-95.8151
-49.6659
9.21463
43.5399
-13.7568
51.944
36
-17.5961
12.3286
-17.0415
-14.0866
-13.2395
-0.353829
-10.8888
-12.9331
5.41382
-22.8067
-7.82961
26.7493
-1.92454
0.146664
40.5458
-1.05658
32.8483
-0.895581
54.8756
0.479614
12.587
11.833
7.02615
-142.465
-0.519101
0.211519
-16.8014
26.3696
-1.58854
5.14259
41.0997
-19.9443
15.6209
0.696237
-2.40474
-21.7197
0.316334
-24.2358
0.531193
-56.6226
-13.3041
-11.8781
0.0056918
-16.2573
48.7614
32.7327
-1.03685
-15.6618
-25.417
32.6783
-199.01
0.335345
1.46932
-0.136093
9.64895
-103.196
-2.44814
-0.263859
37.4069
-57.6457
4.42312
49.5642
8.52821
1.07803
24.2623
30.3818
17.2608
1.91739
22.8739
47.2886
40.9446
34.371
0.105745
-14.2827
-15.8287
32.0407
-83.3305
0.381319
-10.0088
-15.5048
-2.06357
16.7619
-84.4877
30.6853
-1.4844
-114.431
21.2129
32.6928
1.18009
41.0183
1.08809
58.8476
32.9357
11.5251
-7.80888
33.2964
0.292399
-49.4854
-23.9772
35.9892
-1.50858
31.4878
-1.64881
22.6003
4.35781
-7.62397
-10.4756
-1.80682
-136.603
-183.493
-145.484
27.0193
23.6171
54.6501
21.6745
0.280961
27.5753
-20.8443
4.94576
7.46888
-2.4282
0.313354
-37.3942
3.02026
44.489
-16.965
0.726377
15.1023
9.19325
0.289436
39.075
5.10354
2.92978
15.6399
-5.81597
36.4395
0.274939
-14.6641
36.3979
-5.70742
54.1364
-2.26337
-17.6303
-5.62756
69.4368
3.20065
-146.454
-181.559
5.54265
18.9571
16.1679
0.049914
-16.7008
-18.0224
-24.7146
30.7313
7.42517
31.0197
0.423771
12.4956
-17.3687
3.89335
-13.1052
0.020975
-10.1866
0.820831
35.6781
0.179121
1.44041
-1.88207
43.8237
-2.68354
-26.193
-10.7295
-14.9626
45.1784
-14.7919
-12.8815
4.5903
40.546
12.1921
1.43263
-2.90723
-16.1676
34.7913
-1.43511
4.42315
-11.2908
-13.3015
42.9612
31.4396
-6.39076
-5.46149
-11.6136
17.8738
44.8502
-48.5009
-92.3969
-17.7207
28.3115
-14.9676
3.99512
48.6323
-13.5442
-13.5252
-5.27709
1.11299
30.7855
-40.9098
-21.2305
56.22
-14.5611
46.7872
-9.14649
2.67285
47.2903
12.8915
-21.434
19.8008
0.842437
44.7229
-0.782116
35.9505
11.8192
-14.4532
-178.79
14.6405
-17.3858
59.3648
30.9826
-1.51629
-3.52573
-17.6736
5.17579
-5.18961
-4.92355
-21.0842
33.739
-0.577227
9.50163
-17.4614
15.7492
-17.0734
-5.03238
-12.6619
30.4672
-2.51915
31.7585
29.3263
-11.8872
7.04984
48.8086
-13.8524
-3.68732
-7.71325
-1.85851
2.89214
-7.08658
26.4811
30.4622
-23.6796
-22.4525
-31.7239
-22.4434
-8.24241
3.57326
29.4586
-14.6667
-0.105959
35.0938
27.768
-9.05597
-9.51986
-14.322
5.84563
32.336
3.70515
-8.40567
-20.5816
2.96191
6.0146
-0.0579288
9.64283
9.27726
14.2134
0.544839
0.201069
-90.3817
-13.8068
-10.9352
1.10631
-29.2759
23.662
-0.0151517
30.7083
34.6301
-4.87771
0.21405
-0.0117303
29.9195
41.1275
58.7331
2.52343
19.5395
25.2065
5.03264
18.3941
25.6481
21.9035
-0.161734
44.5027
3.10197
32.3305
61.8234
10.0155
16.7367
-0.220165
-4.87874
40.3769
17.5627
12.7668
-18.6704
0.188678
20.646
59.1637
-49.0632
0.261671
18.9882
5.14969
6.21511
-14.4426
31.9261
-0.669074
-186.495
22.9124
0.507868
-13.5673
10.2594
1.41498
34.7491
30.5446
-11.2986
-0.669813
-9.061
-152.537
44.1332
22.957
0.343945
21.5634
4.16224
-17.9111
-6.98458
24.4592
29.6915
-0.055294
-29.1502
-84.8334
30.0321
20.6851
51.987
31.239
-159.005
-3.92226
-0.47533
15.8428
-226.258
-11.4695
42.2568
-12.5892
10.2209
47.3031
47.6852
0.0462094
-14.791
-17.8306
-191.58
-23.0401
-217.143
2.06549
28.4083
-25.6042
5.12821
1.60616
40.6818
-24.187
23.2552
35.0759
15.0295
-34.4252
-13.852
32.2834
28.9244
39.3397
-18.6443
16.3989
-210.234
13.4184
30.0896
-9.80393
59.3361
18.5645
-13.7067
-9.86227
1.74556
31.2067
-14.5743
-4.06116
51.3662
29.7989
9.70859
3.69387
12.4082
-14.8901
51.659
0.348585
16.2322
48.0312
-228.589
-12.4244
-140.563
-13.5808
0.673781
38.5709
37.6238
51.5799
-86.6115
0.113942
-18.8539
16.5055
30.7663
-14.3434
-35.8264
29.341
-17.5147
-16.6576
-23.421
-35.7924
-9.52567
40.8938
0.302476
-3.58047
-14.8964
28.9798
-0.522073
65.0181
48.0689
32.7966
25.4274
0.858059
0.267138
61.4809
-3.64046
0.0960986
-13.2161
32.5141
-37.272
5.54418
19.5919
-0.49415
-20.1986
35.7079
-37.8518
-161.298
18.6004
-12.7087
68.697
18.6934
27.3569
32.9495
-17.0009
3.45825
53.094
13.7101
41.3948
4.89702
6.39475
-12.6381
-2.4025
0.200882
-71.9067
31.1932
32.5497
-17.3831
-0.121721
-8.33516
48.4457
38.9317
-3.73101
33.1893
23.2216
-19.3521
16.0735
27.3014
-211.821
51.0535
0.232485
-0.796848
54.1875
21.1855
0.576378
21.9671
-12.9681
-17.3024
11.7621
19.1735
36.4298
47.6854
-17.9377
12.2489
-17.3868
0.11029
46.4926
5.4233
-18.9411
-15.7151
-11.4297
-1.71766
25.3468
-11.7168
-34.8665
33.2464
43.8514
-1.78637
34.0048
-39.0232
-18.1503
-50.1421
7.1241
-19.1549
35.3357
4.23835
-23.6671
27.1785
38.6139
-20.6542
-18.2253
27.6361
46.1081
5.87363
49.6739
4.54025
18.5242
2.7976
35.8612
1.00716
44.9261
-13.7368
4.14609
31.3724
-5.69159
-13.1451
30.5501
-243.7
5.90217
39.499
51.9549
-11.44
-1.28095
4.36608
3.7905
28.6031
19.275
7.07626
-18.9363
-3.25457
49.2986
2.34623
-3.03331
-16.1021
52.192
-7.26593
0.597188
29.1921
23.7471
-2.33588
-18.1647
27.8298
4.36471
1.35723
8.70997
-36.2508
50.4445
32.2727
21.433
23.005
1.18006
-23.1445
56.9127
5.91529
57.0114
-13.475
30.3155
2.04368
-215.198
19.0746
14.95
59.8328
-14.2224
19.6797
18.85
-51.2366
13.5262
-30.9427
-20.0267
31.1176
-17.7033
-12.6121
-15.3524
-9.07474
-6.89226
33.4757
0.211243
55.6896
31.951
0.659362
-18.0467
-11.0596
6.94924
-22.6026
-14.0191
-74.2808
46.5368
-0.106426
0.710009
-20.1573
52.3771
0.131351
-11.831
54.4141
27.0738
-18.5497
-1.70333
22.7701
-0.397076
31.4547
0.708255
-11.883
8.98069
29.7381
5.5624
24.7164
55.1933
0.610702
-15.528
30.6633
-11.6684
-7.39997
21.5261
21.8404
10.2666
-19.2713
4.0388
-0.0950364
4.82579
46.3399
5.49158
4.48856
4.1851
-3.58618
-2.78822
32.1806
1.88066
30.2279
30.1924
44.9202
-53.5679
-37.3605
56.518
0.329827
-17.3778
32.6512
-15.7075
35.5171
0.662034
29.7076
-30.3529
-145.309
-15.14
0.477205
-127.496
13.9753
58.1677
-6.77604
-31.5821
-14.6459
32.3078
-1.66787
10.1144
-21.0334
57.1011
-17.507
15.4876
-15.1842
15.5019
30.6434
8.14345
-78.2912
-13.0581
53.5963
28.8429
11.5708
28.7591
1.90067
24.3868
25.344
16.0698
-87.5995
-3.87995
39.657
3.024
-1.58001
26.7632
-17.7877
-6.6945
-1.31984
34.5183
32.5888
-14.8954
3.771
-18.469
-12.7408
4.17005
-7.12107
1.73305
28.8242
-6.26522
-41.9272
38.3266
-11.4842
-9.85737
-3.6798
-16.6737
-15.0469
-14.7562
-0.372102
-18.2665
31.6314
52.407
0.0779282
-9.50948
54.5026
50.7158
-11.8087
-10.8345
33.7473
-211.056
-0.235305
-4.85203
-3.16441
16.0908
-149.418
10.1435
17.6877
-15.8113
-8.09241
-19.6722
-6.58971
27.5192
9.61458
20.0562
-15.5368
25.2487
49.4866
-47.5211
-18.1707
37.0227
8.35311
19.4097
-0.960463
-10.6426
-15.676
-5.99651
31.6153
57.2431
34.8541
1.01179
-7.01535
30.5823
47.869
-22.5426
34.8008
31.3303
49.7605
3.28012
-0.30997
1.61441
-5.0283
49.0926
4.13587
3.29281
22.1193
-3.60418
6.7917
-5.19592
-26.3248
28.4882
29.4883
19.5046
11.3758
-64.4384
-9.90247
-5.99362
16.1702
-38.0154
-24.124
1.90432
-18.6835
-23.7406
13.6779
-10.838
-170.93
-62.4994
-7.66279
23.0352
-26.4824
-16.2615
35.6299
-13.1889
52.1898
-13.2434
-188.38
39.2178
46.7462
0.214163
-2.38988
3.72218
31.8977
16.7528
-43.3986
-2.0125
-0.0259435
-7.51852
29.0287
0.644368
16.6472
-0.0347958
32.7496
-16.2688
0.711313
-1.09954
39.8221
-18.4516
-25.6326
-15.8388
51.5504
-8.47555
-15.3205
-30.9368
31.1204
-16.6106
0.105872
6.76601
13.1103
0.292348
21.3101
-11.4243
23.9735
28.8699
37.9375
9.97712
0.0477232
-7.09175
21.558
-18.8146
39.8094
18.6853
-2.55732
-1.88102
-4.02294
-5.42054
-0.073506
35.2621
9.25305
-10.8654
29.3857
-33.8179
25.3084
59.308
-5.67219
-39.0845
20.0331
1.88666
-1.38459
-4.30725
-14.2703
31.5147
0.618208
1.20486
0.871997
-18.9368
42.7856
-18.6507
-0.000204095
30.0844
2.00054
45.9109
35.6777
43.9133
6.83162
18.6886
7.86207
1.67882
23.2295
30.7974
-17.022
-6.92504
-68.8911
-9.60173
-19.7621
32.1752
-31.7391
-20.5068
-18.4237
-18.7684
-0.0934546
30.6566
0.152811
0.343797
-196.472
31.4975
58.6511
1.66307
-27.2035
14.9611
-11.4479
31.9219
1.74911
-0.732503
39.2854
-1.68628
55.3131
23.2338
29.9874
-10.3477
41.8992
1.03575
35.7852
0.464745
-21.106
-18.941
-14.5815
19.6213
0.900665
-5.77024
51.905
31.6341
32.9994
46.8003
34.6199
39.7907
-6.09484
33.6793
27.9937
31.8963
-5.91968
-13.217
-16.0427
-34.5899
5.31355
36.9117
-136.309
57.0848
-41.9407
0.709456
56.5736
46.6377
-6.25435
-14.6165
32.5163
12.7947
-3.75955
30.1911
-133.252
-17.0993
31.4513
45.5911
-0.678004
36.2129
41.4198
0.790431
-13.559
41.5506
13.0832
-0.0571159
-19.0856
2.77742
-25.2375
28.15
21.2175
0.0359727
-11.923
-11.4317
5.08227
-1.39639
7.2065
47.1515
-2.09998
64.1055
31.8061
9.93458
36.0911
-18.3109
-134.656
-16.4476
31.8257
-0.987741
-133.45
-11.1409
12.3923
15.2492
-0.225909
22.0912
-171.356
15.0559
-5.78471
0.163237
24.6653
8.05326
42.6264
32.2093
33.3545
31.0827
-6.17239
-18.9861
-18.6833
2.84804
-11.9597
-19.5699
24.3473
-12.8622
-0.609525
0.38766
-9.97145
-21.11
21.4839
10.4953
1.92352
-11.6545
13.2558
-16.9743
-15.7441
4.72939
1.07676
36.152
21.8581
42.7488
-141.798
25.8956
0.687914
45.3462
-8.46923
13.2968
-19.7072
-7.70601
53.8116
54.8958
27.4683
15.7855
19.1274
29.59
54.7026
20.9309
-21.3296
-20.5447
6.30059
-48.1725
-71.4411
30.3659
29.9078
0.432668
4.27109
26.3258
30.0461
60.1128
-32.8918
23.7148
-200.506
-19.1962
46.4551
-3.96427
26.0004
-11.3146
7.51562
11.3456
62.6794
1.14087
-15.6126
12.3826
5.45287
-18.8987
-136.392
-70.1101
34.7296
1.62088
16.1265
50.5512
45.358
-2.57666
-72.3534
0.849945
0.494322
38.732
30.7188
46.0428
17.7593
-31.2005
48.545
29.1078
-41.8163
24.1775
31.7386
41.5693
-26.9333
-15.8908
0.149427
25.3688
53.7161
16.22
-13.5314
-24.8158
60.2518
-40.0559
-21.0921
55.8826
25.5394
1.49132
24.5935
-15.5385
16.827
-8.71615
-38.4693
-0.321563
-16.9189
-1.93324
-7.14041
-228.052
-120.934
-58.0181
-1.40864
-199.864
-17.6118
29.7397
27.9574
15.549
-175.489
4.15083
-0.581652
-7.78215
63.568
20.1464
-16.735
24.9333
-8.17644
-17.044
26.0973
25.9005
29.9043
64.442
0.160079
-4.07121
-17.3577
3.39383
20.88
32.0507
-15.8687
49.115
19.0628
32.8587
-12.9169
-2.31719
-0.332013
33.6496
31.0934
35.1211
30.8346
57.8906
57.7034
-8.65966
25.9847
40.8225
-16.2607
46.2407
-1.20449
56.7996
45.9381
-2.01522
35.2704
11.5593
23.9186
0.379553
30.761
-19.1107
28.1645
9.42366
20.307
-7.42072
31.3271
-0.922962
4.94864
54.7582
54.4374
20.385
-139.7
7.68427
-1.72103
-3.39231
22.9529
48.4996
-140.508
31.852
30.8458
14.3606
33.345
-18.7678
-11.0518
0.282328
59.1886
5.70424
0.976517
36.3746
-6.85138
0.635218
12.4946
6.19515
21.4761
10.3667
-10.7027
16.987
25.4769
20.4423
23.5564
57.6307
46.1916
41.2219
58.7769
54.1496
13.3776
-0.93898
-18.8699
-47.8979
53.7545
-12.2917
31.6032
28.604
-18.4187
15.2384
34.8027
-14.3459
14.9483
16.6004
65.255
-14.3996
12.6327
1.56369
37.686
2.6449
-14.6346
52.9007
44.8483
31.1371
30.9429
-9.40347
10.0475
-90.5249
57.4466
0.322787
62.2153
-13.5842
-11.0534
-274.805
15.7042
-172.391
0.0679253
-1.21276
7.64335
0.997178
7.72655
-15.0275
-0.314403
-8.4167
-132.484
-13.7666
-45.158
1.2698
-2.90952
-15.4555
-22.7469
33.2457
33.9461
41.823
28.9827
10.7878
11.2471
68.0694
31.0187
-18.495
0.413975
-6.55874
21.6332
27.82
49.0141
-22.4876
-22.6003
25.8471
0.216408
7.36703
39.7841
-137.278
-18.6574
-121.914
58.2958
-15.8292
20.7869
41.4436
-15.1636
24.632
0.0208465
-18.0493
-15.814
0.528909
18.7043
38.7284
40.4359
-43.9013
-156.159
20.1086
-83.2125
-10.9492
-6.25251
2.22361
-8.25018
0.294932
-15.7786
-14.8881
-17.7478
50.8326
-13.7391
55.4877
-19.4086
-4.17005
9.67366
-0.871443
47.0046
32.1332
38.3468
1.3374
-8.42225
-20.472
45.5285
-158.297
20.9306
-0.0744276
38.1542
46.5673
-0.148517
30.3474
53.2804
35.5626
34.0978
-80.3578
-12.0093
11.0859
-15.4059
-1.37006
17.9119
22.3079
2.12237
-25.0713
7.67336
0.746815
27.7024
23.0284
-11.9614
56.6137
4.27528
0.127682
5.04729
28.7644
-10.4718
0.342422
35.1915
-22.5013
2.81922
-9.67677
34.4908
28.7153
27.6572
-0.0418951
27.9643
35.5068
36.5659
-8.66137
0.813838
2.83456
26.6745
-23.8262
-234.865
-14.9711
-44.0459
-14.9507
0.122651
-1.34132
0.99788
-133.692
-17.7351
-21.7533
1.18287
-8.49012
7.4285
-18.0476
33.2137
69.6835
6.77542
-7.97233
11.076
-1.1988
7.54302
-0.100208
-10.4031
-17.5003
1.59501
43.3621
-0.134184
52.44
0.14417
27.7066
25.8963
11.8926
-287.97
18.1142
57.6227
-15.325
28.715
28.6616
48.9531
4.8011
44.6971
35.1444
-266.304
37.5462
-14.8185
-44.1333
45.9933
27.6369
-44.2244
-4.06171
41.4416
-3.408
-13.2729
0.932449
0.877436
22.6057
13.5376
30.442
29.8536
27.3355
-80.7337
-14.7778
-7.5509
29.9689
62.4635
-10.8882
-46.7802
-280.346
32.7908
3.24541
3.18013
11.8488
-20.0254
24.8029
-29.5065
0.483029
53.9181
9.8891
-31.1698
-12.1467
-16.5096
-14.973
-185.24
-18.0202
-18.8567
36.8757
13.4506
-14.2943
51.8432
0.44291
-19.7555
-7.84754
-44.5137
34.8603
-132.274
6.10356
32.1292
0.475636
-8.9625
-6.45839
-19.4043
-13.2226
33.4126
-21.7317
-0.53608
-97.9174
29.1517
33.4409
-15.8833
40.7658
37.9358
50.4327
51.4508
35.9986
5.9054
58.5012
-119.386
31.0794
6.88353
-20.9224
37.6414
-15.0256
49.7007
13.0578
-35.0383
-172.498
-137.15
33.5469
-14.8102
-9.5058
2.63513
-36.6103
-39.3364
16.0875
2.59011
22.8536
58.2581
-145.855
-16.674
-16.1649
33.9962
21.8018
-12.7762
68.8476
-1.29833
0.770189
16.9094
-37.0679
28.1748
33.2428
37.3623
38.2161
-43.4108
16.1702
29.9396
6.84638
-43.1996
-0.390975
35.5083
35.7273
45.5592
-15.5241
3.28064
13.68
15.9625
0.821465
-20.185
23.5672
-10.576
25.6005
31.8022
-101.982
52.6233
-13.6789
56.3494
37.3986
-20.6331
0.0558658
0.682315
7.81809
32.9989
-19.0856
44.4782
28.5744
14.7915
0.56283
6.95799
-13.9362
14.3335
-115.154
18.6946
-13.0393
29.4589
-192.91
12.5382
-7.24326
38.9614
47.4912
12.1803
-173.782
12.7907
-2.97532
2.96379
14.5595
-20.3559
-13.8712
55.7938
-22.4011
-3.36854
-18.9653
-35.7535
4.27382
29.1479
-115.588
-6.8335
32.2731
19.4188
33.4295
-17.8744
12.8243
56.044
-77.6629
28.8764
7.06769
-19.4089
6.40213
7.00404
-18.7476
57.2935
37.1618
1.69025
54.7438
42.5268
39.158
-94.2417
-215.233
19.9443
-40.0549
-0.154081
-38.583
-38.6655
-37.399
24.8385
10.4394
18.1184
20.5447
-15.4189
23.4817
29.4406
-36.2497
34.4672
16.9168
28.8716
-2.89652
0.420324
-15.8953
-187.819
-17.2861
-8.31169
29.1435
-21.1382
51.1668
-18.2775
28.2433
18.4347
0.718407
5.10287
32.4746
11.0978
4.26455
28.4819
-2.60903
-26.7234
48.0706
37.0099
-13.5984
-27.6921
8.19772
26.3378
-3.6671
10.99
-41.7395
-2.89918
-3.16204
0.945689
27.4364
26.746
-11.6946
10.8223
-4.25394
-0.719057
-19.5965
38.4182
-16.3174
31.8979
-0.170799
24.8125
34.3467
15.7371
29.6796
-1.51751
-14.9549
0.318995
-151.354
-15.3049
-13.3259
-2.74181
-11.9208
22.2697
-4.49206
28.985
-11.7196
-17.4846
-54.8084
-1.22821
34.0253
-15.4827
30.7474
7.17321
-17.2038
-7.80861
-16.8587
22.4745
28.9009
-0.890882
6.29633
-147.803
38.5642
-6.84204
6.35076
-18.6976
40.805
13.3959
-0.197732
33.7734
33.1474
39.3342
13.5142
39.4817
-82.304
1.50819
-7.01747
31.2777
16.4967
8.24555
-6.08498
-18.8079
-18.9836
16.1814
2.03171
-19.1371
54.0357
-89.0843
38.7104
22.1462
-9.60858
-2.43972
2.22686
-1.98318
0.192484
5.1329
28.0312
0.673215
30.7201
-55.9422
11.3491
-11.638
2.00584
-20.3221
41.1219
56.2804
34.0166
16.3764
3.12116
17.8164
-15.6687
-10.3366
0.414354
-3.93538
-14.2795
-21.1252
-20.1712
-14.6334
28.099
31.8525
-45.9393
5.98464
34.8955
-15.2121
-39.185
33.3873
-1.44123
-23.6667
0.271084
-10.3846
-0.00480091
52.5027
0.44712
30.826
-36.4222
-21.803
-15.1421
31.5117
3.66937
25.8931
-33.8129
-18.1294
1.68061
0.561643
35.6368
27.3555
1.54595
-9.04628
-8.80118
58.9923
-14.6745
36.6958
41.1025
-8.69903
-2.28249
13.0764
-281.642
-37.0941
25.1356
15.0345
30.6608
-15.9035
33.8313
0.704014
45.7236
0.00524251
26.5528
40.3603
23.7093
5.03787
-18.3484
7.7995
-39.3224
27.0191
10.5754
38.7132
-0.954109
50.1307
6.13874
54.0369
-1.05351
41.3486
-7.91366
22.8052
-32.9375
28.1319
13.6964
9.64364
49.4039
30.6371
7.00564
-13.8885
16.2464
27.9174
-1.08557
-175.057
23.3491
1.52607
41.74
-14.7059
51.212
4.75661
68.6238
51.0082
22.568
20.158
-31.6266
-1.11069
55.1247
2.93514
-4.15458
-3.25094
54.2404
12.2531
27.3585
44.8845
-22.2702
33.9028
-6.5412
38.8602
0.810363
36.6984
32.5496
46.0259
-2.37213
-96.7105
7.31853
-17.7222
13.1721
0.987999
1.38728
40.2761
47.5379
0.110517
7.71233
-6.36499
43.2353
26.4873
29.1515
16.5708
-5.82306
-138.748
-13.3413
32.1156
-56.7524
-12.2869
-2.18929
22.0114
13.5545
-14.6273
57.9738
-11.4347
51.1549
6.67349
53.2001
-10.3616
0.435376
0.0229911
1.80729
26.5972
28.9872
1.53391
-13.6482
-0.0371548
-12.3672
48.0425
-15.0303
-2.43982
-20.3123
-12.8643
7.3806
40.1211
13.9231
0.410208
0.109493
29.6114
62.4732
-17.2716
1.20111
31.314
-12.4234
12.137
-0.429111
21.9443
-14.1534
-151.26
-14.2074
-11.1772
-3.42701
2.3677
-33.7434
-13.6489
-5.28751
23.1739
33.1529
25.4398
60.7709
-25.5671
53.9327
-130.183
51.0818
-18.8694
-22.6622
58.4988
9.22591
-11.4074
32.0713
-1.4425
35.6106
-32.5613
-100.178
5.86026
-12.9169
-13.9268
-0.193899
-3.75991
8.72123
40.9642
-19.4723
10.036
-52.0041
4.85091
-17.5692
-0.413437
-13.5323
-11.5652
-42.9236
41.0144
-0.0550819
47.265
10.7283
-14.9409
6.79961
-35.8755
0.00424236
26.5626
40.5548
59.6581
21.685
25.6725
13.5505
-151.042
57.4622
62.9115
33.9979
-22.7349
-16.0283
-38.1976
29.5316
19.9527
9.41549
24.0933
-12.7835
-0.593841
-35.4475
48.3127
-6.5027
0.307454
-14.5139
30.6965
6.91493
67.4747
62.7065
27.7154
-7.28103
4.78993
-97.3048
8.44178
64.2469
-6.90378
-0.0280171
22.9074
-0.730537
6.3881
-6.93906
-11.8817
8.15054
2.88464
12.8241
0.262571
6.16101
45.6264
6.82648
33.9796
-14.5583
-10.1198
56.3338
-26.2272
-3.44883
5.71061
10.3267
-0.969489
-16.5032
1.44563
0.551966
1.46817
67.0763
-282.709
-42.4869
-15.5419
-29.3548
-3.48484
6.10854
-15.8151
-34.7862
0.106788
-57.9372
-32.0601
-15.1444
0.0177152
2.25391
0.582981
66.6895
-1.22718
7.27748
-3.83872
3.23801
-135.569
-8.46591
44.1667
31.5357
8.51026
-12.5918
29.9657
33.8456
-11.5635
-20.6121
0.459537
43.8491
-15.1301
28.266
-0.975497
50.4984
4.34777
-14.6167
-10.7326
33.8411
-12.331
26.0941
-22.9291
64.075
-15.5295
-9.9074
-27.6118
10.3058
-15.7542
-21.4283
-15.381
5.02096
12.0007
-16.0217
-15.1747
-2.23115
2.41125
-12.3488
-31.2333
24.2676
-49.8963
27.8352
-15.4633
34.7514
57.3067
29.9139
-141.406
32.4175
3.23844
-2.39577
-3.5488
-11.5522
-42.0657
1.69576
-8.71615
12.3556
-3.98975
-33.6079
6.59054
-31.9167
13.0686
28.8785
-38.2933
-16.2663
-14.3949
0.213321
-11.5992
18.0584
-90.2357
-16.5295
30.4743
-12.5864
17.1138
-20.4653
-32.9105
-18.2231
-25.7277
64.7497
7.10566
-17.0713
4.22942
53.9176
56.5269
-14.5263
-6.69315
29.8232
-0.683618
1.45803
54.7804
16.4063
28.1164
68.2667
-15.5803
6.97563
1.60308
48.4272
31.876
33.3916
40.9102
21.1277
0.750995
1.76218
11.6552
6.83499
-219.218
56.7971
-23.091
-24.5141
0.227773
-12.2758
14.0123
-14.4121
-7.39514
6.52409
33.7772
33.4632
37.4213
-15.8482
47.8353
55.1855
-40
19.5308
-2.42668
-0.636989
-3.21518
16.2122
-27.3914
-16.1513
-34.0559
62.2522
-15.8375
37.6518
31.502
43.9365
23.6217
24.2765
-13.4293
0.411927
17.3093
-2.09988
-44.603
-45.0564
2.88933
-14.9101
39.836
-15.5542
0.0740448
2.02421
-148.527
-14.9492
-137.712
27.741
-6.53631
0.725495
9.12703
-17.4667
8.94111
-46.4743
-2.26977
33.915
-18.3916
56.5065
0.111679
60.0445
0.193087
0.474782
5.03035
26.6908
27.4706
-70.4057
-3.7384
-12.1844
6.08028
21.7572
68.4201
43.9964
8.15733
-13.6538
15.4664
-23.1378
37.4788
-9.22824
14.9255
-14.0116
-14.8768
-117.984
8.72929
0.662996
-142.23
16.4905
19.8757
54.7866
58.6212
-161.817
-35.878
0.949652
-34.6045
57.9428
1.97737
-20.1879
10.2073
19.7963
-12.5305
-6.85252
4.27855
-1.91301
29.2581
-11.9236
5.49665
1.76531
-24.1328
-59.7113
-13.1392
-61.7705
-52.3552
35.8173
-14.4753
-14.3319
-6.96687
-37.8706
63.0815
23.4544
27.8218
-7.53071
14.8807
-4.83928
10.9615
5.64955
-15.6421
-210.961
57.7717
33.2384
-3.46756
-232.662
66.3387
-15.3551
-191.429
-13.8698
15.3621
-16.0273
-12.8229
48.8797
-5.77534
29.5075
8.96143
-15.3744
-11.1573
1.10818
13.1915
-68.2921
-3.90365
5.7258
31.3468
-16.9299
-167.358
-0.308068
-9.63794
-38.8475
-33.6224
61.3006
18.1285
-19.5606
14.2824
4.38985
53.2731
16.9734
-246.109
18.0348
40.4063
36.0572
-13.6901
26.285
-13.4456
57.3292
0.525772
31.0206
-18.8252
-12.8335
0.208966
-14.0492
18.0985
7.53021
-271.831
-16.514
38.4126
-12.0525
-4.77247
45.3883
23.9665
44.0867
27.1161
-18.3444
-0.213603
-2.52251
31.9616
-0.196812
40.5498
24.65
56.266
-15.2465
42.4723
13.9002
56.2453
-15.5918
-22.935
58.1766
-15.3765
23.9817
-17.9124
50.2219
55.4985
34.0949
-63.1011
29.6195
42.1656
-12.34
9.66308
-13.8181
45.3298
-15.4047
-13.3369
-50.9624
-63.1271
41.3269
13.8419
-64.6303
15.1918
55.4705
-23.1591
-10.0365
-80.1233
-23.996
27.1117
-4.26324
29.4751
29.662
-68.0081
63.3402
-2.71895
46.1765
47.11
1.29672
-0.369623
28.3321
-42.4659
-5.54045
28.1003
23.6795
-16.1036
30.2646
-14.8902
50.8712
33.9212
10.3739
-2.79902
36.5809
-12.3281
16.3338
43.6568
6.95881
0.282557
41.8981
34.5012
-16.5487
-137.584
23.9841
36.3195
56.9377
-252.918
60.6309
58.5139
61.3098
-8.92866
40.4811
-19.1676
30.0777
44.6456
42.1723
35.5961
48.6735
67.4734
25.7444
-265.969
-4.01273
-169.472
66.6423
16.1782
-13.2763
-16.2077
29.2856
47.8086
30.4786
8.67552
-3.15516
47.6207
-41.5753
34.7117
-16.5311
10.0119
-1.05638
6.84515
19.7084
-18.5345
-18.4949
-5.05518
-9.38529
-2.76281
39.103
-11.7235
4.84483
29.4429
-32.481
19.5824
0.190673
-31.8643
-18.1723
-268.816
46.157
49.1787
-15.3104
11.2854
41.4974
36.1513
0.714963
-16.3576
35.2571
-240.563
44.6581
-31.0748
43.3021
16.7782
0.43051
40.1757
21.2188
42.9155
9.41544
10.9037
-11.7735
-136.165
-35.6621
-1.09616
42.036
-18.8925
-12.912
-18.6277
46.8298
42.6225
7.58695
23.7003
47.1598
-47.6963
30.0921
0.21439
-13.4507
30.0128
-14.4487
-16.0006
-31.5704
-173.909
-7.39743
-20.121
0.214331
-43.6308
-186.09
25.7896
57.2453
63.6334
54.0713
-18.7993
35.074
-19.8045
28.5239
46.7979
0.322671
41.1025
-18.5108
9.4352
-12.2669
-4.80766
45.0205
-29.8723
36.8755
-22.2039
-12.2324
-157.702
36.3768
36.443
29.5216
-18.6144
29.6709
-21.6833
-76.7126
-90.0586
7.89529
58.134
-64.6322
-7.42103
-16.3568
31.5742
28.2784
-0.643594
18.8041
-21.6955
47.8974
44.7885
-13.0092
-10.8242
46.9824
-13.8023
-24.8944
-4.23054
42.2489
48.2415
-18.2017
22.1671
-9.06016
56.0747
-53.876
-12.6538
-4.92964
52.4654
-4.16767
-11.4717
-12.6349
45.1236
23.1123
44.3946
-6.53454
-54.0198
35.9603
65.2875
-132.666
28.9193
-3.3556
-68.3886
-3.33189
10.018
-17.462
21.3089
-14.8585
17.7754
-11.6231
-14.4944
39.8838
49.3544
29.4857
-40.0978
-12.6017
38.1477
-19.755
9.93161
-14.4565
14.7768
-41.8795
32.9633
37.9968
-4.83511
35.7191
55.9143
-7.30676
25.7054
35.5892
-103.85
16.954
-14.7981
14.3118
9.24948
24.1691
-0.133528
9.09491
-5.33406
-80.7124
46.4594
10.4021
-9.07278
-13.8897
-5.38171
31.7753
-30.0753
61.1845
-15.741
-190.149
-10.5019
40.6595
37.3214
44.4548
-180.204
53.6999
-22.7164
25.1817
3.74106
-37.7039
27.4756
12.6605
-6.39532
20.9032
-157.586
24.0117
-128.122
-14.2828
-0.975804
-29.7525
-33.002
28.4445
54.7421
1.22095
-19.4858
41.8475
-38.5045
49.5891
11.8439
-3.09242
15.2326
30.8026
15.2882
-12.0144
1.59555
-2.93527
4.36223
7.99836
-36.1311
-16.0671
0.982269
18.8803
-7.54835
67.0011
34.8677
31.0008
50.4778
1.12094
34.8274
-18.7635
-133.6
-15.116
29.7163
65.9166
29.768
-24.8116
46.2107
30.5021
31.0106
0.77732
-4.84248
15.8084
61.6998
2.72282
-14.6564
36.7934
47.5157
34.5737
31.5259
39.2566
21.7128
-16.3802
-16.9484
35.3758
-148.798
-129.386
31.5658
-15.6902
-1.34413
8.08788
35.4122
36.9
37.4226
-8.08053
44.0237
45.369
-1.81767
39.32
33.7085
27.0781
22.5207
20.9467
14.7084
-2.29827
40.8702
39.2904
-29.0204
29.3598
-8.16703
-0.278157
54.1445
40.5881
-0.303727
-19.0158
-3.55681
42.2439
22.4481
2.38802
-0.828445
4.4338
-10.917
5.73969
-17.4298
-7.52125
23.1106
-6.30276
-25.1491
-20.218
51.567
-18.263
-123.561
-17.5533
54.8688
-10.5274
4.37414
2.32518
-56.2182
23.1476
27.6594
19.1251
48.4387
25.4036
-2.75097
-228.906
-18.7288
-0.375568
35.2279
-62.2006
-18.5896
-56.5906
-8.93735
-140.039
-17.1978
-48.1747
-5.38082
7.65049
30.1078
43.2126
-8.10289
-0.846702
48.464
35.1629
-18.1261
-10.4343
-181.666
18.658
3.77621
15.628
25.6653
-13.271
-10.3146
-10.4077
4.51595
-20.9102
-258.616
3.01088
-16.4469
-211.202
-56.7084
-18.2987
3.17936
-140.795
15.0316
-17.8528
29.8086
26.7377
4.07564
41.02
-19.5766
55.4846
-12.6676
-2.53489
-31.4613
32.2123
18.1898
-144.592
-139.598
31.5841
37.928
57.6292
-19.3929
-245.568
-18.4719
-4.39807
-0.289783
-16.6365
9.44024
-29.3376
17.5161
-19.3947
24.3341
0.274266
-3.01439
49.3143
27.5941
-30.8201
-0.357894
-37.2797
-277.165
41.5351
63.679
-170.004
40.3823
31.3405
-0.0700161
-13.7031
40.1156
38.0027
-49.2101
-10.5253
-15.4665
-19.4406
-30.6353
-22.9689
-29.2811
17.7435
-1.8987
34.2232
-20.7366
-57.2142
28.0082
-29.0819
-51.9479
-2.74661
21.998
-62.8855
-17.3074
-61.5037
-15.2189
-42.7879
58.7271
-148.302
-9.02373
-20.2631
34.1543
-138.856
-9.2601
-39.517
-26.8463
-12.6597
36.4058
0.114968
-15.0161
28.2956
-0.653509
-11.4866
-35.0017
-23.3871
22.0054
25.7682
30.4668
-116.688
49.84
-9.80418
-0.028071
1.62082
-63.787
-17.3801
-19.4299
-19.9383
4.22599
8.67304
0.44146
-11.7468
-21.0198
30.0426
-23.9748
29.7187
-29.8866
17.8693
-7.15847
-11.5597
-20.0668
69.3865
-15.3599
-77.4071
-81.4923
-17.982
28.8443
0.452747
-17.7856
1.59324
-57.7397
-19.1207
-160.703
-18.7287
35.9125
-39.9303
1.63629
-65.381
-4.76177
26.3717
1.82168
12.2875
-12.6363
43.2536
-149.215
-14.6302
46.7172
10.6742
-136.319
-11.033
-31.5498
-20.1293
-12.1079
41.7273
-14.8492
10.024
-228.956
-30.4127
-33.2092
-37.8834
-156.527
17.9528
-7.05145
29.9173
8.20027
-25.089
52.8415
-18.172
39.2107
48.8866
-67.4394
-3.28302
34.1309
29.1966
24.8089
-17.151
-24.9985
-26.5768
29.8809
6.44434
-18.884
-35.2514
17.2561
37.3537
-9.89491
-20.8451
-3.0812
45.8301
-38.5429
-43.1946
-0.138945
25.345
-2.95064
-18.1682
50.0229
39.6243
0.0215419
-18.2799
41.2987
13.424
-6.45977
29.71
-9.31271
-21.7856
-29.7074
-18.5987
38.5863
34.7789
-3.40079
-14.4815
-2.2854
-11.8325
35.3621
-18.5288
24.6493
43.5597
47.1325
-10.7286
31.2312
27.9923
36.2501
38.7618
-8.5005
38.7552
0.120651
30.0136
14.9019
33.4451
-18.4399
39.991
38.7477
26.9153
18.428
-13.6993
22.1468
2.28056
-16.6361
44.9179
42.6999
-16.2
44.3162
-18.6344
-129.473
34.8119
34.1699
-34.4697
-5.84997
-225.049
-17.651
-37.5183
-14.8472
-33.1024
-12.8038
29.0828
60.5169
41.7551
-8.64391
-14.1884
34.3403
12.689
-12.6878
-21.5306
-12.3669
-44.2629
-162.35
-138.611
28.7353
0.0535459
11.5286
0.529567
0.378725
-12.6381
0.551385
4.78928
15.6195
19.1339
-12.3343
15.2608
-86.9884
-22.4023
21.6528
15.615
-2.57168
-1.67753
18.6276
-1.72518
8.83178
-13.8875
31.3523
26.156
52.8861
30.3881
-16.9158
-12.5485
-14.5589
-11.5533
-0.848562
-0.0668743
-4.28042
-15.961
61.1801
3.39807
-12.5804
48.9826
-16.7581
-26.9989
-22.1085
-18.4973
-207.968
6.73476
-32.0973
31.3258
-5.6594
-15.9421
-11.0935
-11.7253
-21.1461
-12.1095
2.12249
22.5343
-15.8289
-15.2853
-34.2392
10.6667
-19.8462
34.5302
50.6116
-11.4483
34.9509
17.2773
20.3772
55.5613
-17.5482
16.1322
14.5264
9.92595
47.4852
-15.1727
-4.71529
-12.2807
33.4865
50.7223
-14.2769
-0.844125
-18.8619
-17.3421
13.1271
-14.3234
-40.1978
-12.2969
9.11423
-246.002
5.95684
8.0391
25.4846
5.88394
-258.005
2.12922
-0.610691
-5.93501
54.1711
61.2694
44.3788
63.6265
26.1642
36.0922
37.1652
31.4954
28.1236
-15.0852
32.6137
-11.8313
-172.491
48.5387
-5.31994
-21.5881
57.6337
-3.4456
-20.0305
14.1224
10.9264
38.5099
-70.7969
27.5171
52.407
-17.0549
-139.578
-37.2289
22.0359
-18.5276
42.3713
-6.71054
38.8155
30.5469
-15.6978
37.833
-15.4779
-251.4
-262.502
-16.115
39.6441
-18.1409
30.3097
-1.45575
-17.3825
2.90466
-10.1291
-43.3966
-13.4815
-177.399
39.8736
3.66834
-57.6645
-17.9047
17.5329
8.01034
-17.0778
11.7553
0.422998
12.9229
-87.6346
15.4008
5.57767
18.5791
-3.34008
32.1859
18.1881
6.56905
-174.592
64.2184
-20.8743
-74.3859
30.9187
25.6482
-23.782
-19.445
-17.7728
19.0918
15.5999
-17.369
-4.66826
-8.6305
64.1528
0.57964
-16.3115
2.93266
-12.6942
21.5669
-6.67752
28.83
17.4098
-17.5338
21.1034
-251.691
24.88
11.4876
32.6538
19.6669
-0.206261
-0.0570446
14.2594
34.4943
-1.08372
3.34272
-103.729
-23.2609
-11.611
25.1069
-88.7856
14.594
-114.907
39.8725
-21.1622
-10.5186
43.1997
38.2306
11.2367
-17.7346
-145.675
35.2057
-13.4371
39.9162
13.9023
-11.6305
31.6133
6.87983
5.79467
5.50595
-11.0208
-14.284
19.1438
-11.7493
44.1785
8.47773
64.4528
-2.79274
5.31191
39.1552
1.18331
8.74905
33.9585
26.8713
18.3583
-19.2784
-0.856125
30.3844
18.9947
8.41637
-19.3659
-4.55814
-18.455
-23.2536
-12.1637
25.4694
1.50043
24.8217
-6.75463
53.71
41.1839
8.52868
25.8965
8.01425
-156.141
28.2095
23.26
-2.6031
11.8758
39.6304
35.4401
-1.22204
-19.6922
-48.6894
28.4772
12.8904
-9.49297
33.3907
-20.0422
29.504
-57.6632
31.6339
12.487
-0.989574
10.7541
36.9674
-3.31525
32.6111
42.8319
6.11293
-8.27295
14.3141
4.19593
50.5162
-35.0481
45.3819
37.6816
-23.0507
-12.214
0.148964
-11.3902
-20.3549
-13.3497
29.6241
45.613
34.5347
46.6337
19.4882
42.0879
9.62723
4.63464
11.8087
2.3145
-0.55425
27.107
0.544775
48.6022
7.08691
-65.7769
20.6834
47.8786
50.621
-24.8527
17.1916
-15.3785
-173.2
13.1022
-9.54021
-15.7731
12.5303
50.6006
-215.716
-33.9036
-19.7834
10.8638
5.04594
2.49634
30.3076
32.0853
-13.3421
2.56353
0.566051
-18.1945
28.3923
29.8325
30.1727
17.3752
-0.884942
19.8885
2.1854
-28.3878