/*--------------------------------*- C++ -*----------------------------------*\
| =========                 |                                                 |
| \\      /  F ield         | OpenFOAM: The Open Source CFD Toolbox           |
|  \\    /   O peration     | Version:  2306                                  |
|   \\  /    A nd           | Website:  www.openfoam.com                      |
|    \\/     M anipulation  |                                                 |
\*---------------------------------------------------------------------------*/
FoamFile
{
    version     2.0;
    format      ascii;
    arch        "LSB;label=32;scalar=64";
    class       volVectorField;
    location    "0.4";
    object      U;
}
// * * * * * * * * * * * * * * * * * * * * * * * * * * * * * * * * * * * * * //

dimensions      [0 1 -1 0 0 0 0];

internalField   nonuniform List<vector> 
13486
(
(7.4499 -1.27237 2.44538e-20)
(8.42166 1.34517 1.05379e-20)
(10.5404 -0.0561935 0)
(6.58465 -3.47105 -1.02301e-20)
(11.7235 -2.74119 7.14325e-21)
(11.4018 0.314742 1.3034e-21)
(12.999 -2.40099 -4.39084e-22)
(10.068 -3.69784 -1.25562e-20)
(9.69153 -2.04861 0)
(10.1994 2.77142 0)
(7.47152 -5.22213 -9.52067e-21)
(11.4569 0.309239 0)
(6.85841 -2.20507 -2.46569e-20)
(12.109 2.13784 3.16754e-21)
(12.5726 -1.76231 3.22221e-21)
(10.1042 2.89802 -5.37233e-21)
(-6.51179 0.144081 2.94545e-20)
(2.35182 -3.03861 -4.51155e-20)
(11.2607 0.234301 9.88367e-23)
(8.09256 -0.355237 -2.39256e-20)
(7.14956 -3.9963 -4.13603e-21)
(6.93397 -2.24903 3.17661e-20)
(8.61571 1.12849 -8.44155e-21)
(9.97511 -2.29522 0)
(10.4861 2.21827 1.52146e-21)
(10.0916 -2.18574 -2.99585e-21)
(3.56032 -2.73403 5.50468e-21)
(10.3982 -0.101243 1.1824e-20)
(10.1212 -0.0330009 0)
(9.74184 -0.724704 -6.6434e-21)
(6.71812 -3.57478 -3.20368e-21)
(12.9584 -0.293669 -3.15407e-21)
(11.3023 -1.61924 9.75273e-21)
(9.58093 -0.242521 0)
(10.1483 -3.58229 0)
(9.88093 0.0894484 3.20482e-22)
(9.94645 0.180223 1.5562e-22)
(8.19493 -3.78372 1.27355e-20)
(9.50311 0.250135 -1.96849e-22)
(9.67595 -1.23647 1.20413e-20)
(12.2066 -4.00783 0)
(6.33627 -2.98876 -2.93213e-20)
(10.4089 0.0608766 0)
(10.5388 2.06698 -7.84833e-21)
(10.3243 1.92046 3.30172e-21)
(11.5635 0.521309 3.35145e-21)
(13.018 -12.041 9.38561e-20)
(9.95027 0.116118 4.39788e-23)
(9.94358 0.187082 -1.18777e-22)
(11.5912 -0.186559 7.05825e-21)
(10.1745 0.243339 1.26878e-20)
(9.56849 -0.00423405 0)
(11.7233 0.94048 -3.92784e-21)
(8.33975 -3.1433 -1.83744e-20)
(3.95554 -2.03513 0)
(11.7042 -2.77286 -4.91646e-21)
(9.98022 -0.0286879 -2.8949e-22)
(9.71371 0.133037 -1.32594e-21)
(11.1412 -1.60707 1.15181e-20)
(9.96077 0.159447 0)
(7.94676 -4.58333 -9.61866e-21)
(9.8083 0.241083 0)
(13.8336 -3.57313 -1.75865e-20)
(7.36066 -3.86036 -5.01731e-23)
(8.23413 -2.31534 0)
(10.0342 0.313246 8.50572e-24)
(6.49996 -3.44405 -1.02365e-20)
(7.1456 0.0583178 8.04111e-21)
(9.71574 -2.21061 -6.95853e-21)
(9.91021 0.216005 2.3458e-22)
(6.31655 -3.19086 1.18199e-20)
(2.09249 -2.38607 -1.29585e-21)
(9.7495 -0.786917 8.84165e-21)
(3.65527 5.49601 -5.6422e-20)
(9.89043 0.0319479 3.23938e-23)
(10.0506 0.164306 9.45831e-23)
(10.1552 0.0369315 -9.09242e-23)
(12.6975 -1.9463 -1.36322e-21)
(10.5975 -11.9305 -3.29741e-20)
(8.74351 0.344363 0)
(9.87986 0.0221163 9.67565e-24)
(8.52124 1.55791 -6.80378e-22)
(13.76 -4.39082 -1.61812e-21)
(10.3541 -0.083888 -5.35665e-22)
(7.43702 -1.18803 -4.76815e-20)
(8.59811 8.13082 0)
(9.48901 1.0076 4.94595e-22)
(9.7364 0.27449 -1.87979e-20)
(9.63264 0.847394 -8.44012e-21)
(9.4093 3.96486 -5.60878e-21)
(13.0601 0.655425 -9.53456e-22)
(10.6238 -3.15598 -6.37571e-21)
(7.82094 -1.82797 6.27639e-21)
(8.36547 0.126585 6.10258e-22)
(9.34425 -2.88119 2.87016e-21)
(9.92229 0.0691739 1.56801e-23)
(4.70147 -3.36469 0)
(7.73774 -3.94929 5.00923e-21)
(9.74419 -1.25095 -2.29531e-20)
(-3.54482 -2.89281 3.16299e-21)
(10.4117 -0.0986901 0)
(12.0309 2.10201 1.04881e-21)
(7.68265 -3.76787 -4.08501e-23)
(9.63418 0.0911097 1.48689e-21)
(7.38005 6.62233 0)
(-4.43411 -1.98121 2.85063e-21)
(9.79522 0.324674 -1.20449e-22)
(9.57019 0.212191 -4.60539e-22)
(12.1997 -12.3432 5.29254e-20)
(10.455 -4.79811 0)
(9.04508 -4.25243 0)
(13.766 -1.075 -8.99934e-22)
(8.3697 -3.01622 1.68857e-22)
(10.1877 0.107023 3.40192e-23)
(5.78838 -0.503619 0)
(8.80987 -4.1385 -1.08186e-20)
(10.3871 2.5254 0)
(9.91174 -0.254324 0)
(9.78188 -0.537579 0)
(9.89809 0.0759991 1.3177e-22)
(3.04203 0.3419 2.02866e-20)
(7.7087 -4.58954 0)
(9.23905 -2.70886 0)
(9.72462 0.264876 6.91898e-22)
(9.57419 -3.45898 0)
(9.72515 -0.0175928 0)
(10.9822 -1.22087 2.56111e-22)
(10.37 0.215339 1.87023e-21)
(9.74095 -0.113359 -1.20229e-21)
(8.17098 -1.91579 -2.25649e-21)
(9.65973 0.109666 -1.53636e-22)
(13.9601 -12.0705 -2.33317e-20)
(17.3261 0.988051 8.44108e-20)
(-1.89028 2.52111 6.21073e-20)
(10.1073 0.142703 -2.02337e-21)
(9.62748 1.87083 -8.82305e-21)
(5.39413 2.88031 -6.80877e-21)
(9.78255 -4.3455 0)
(9.846 0.12357 -2.81129e-23)
(10.1172 -3.01566 -4.45257e-21)
(11.6919 -1.13714 -1.14889e-20)
(11.8883 1.06954 3.33815e-21)
(12.3475 0.12186 0)
(8.78399 0.304782 0)
(10.2278 0.0680313 4.73904e-23)
(11.7528 -3.99746 -1.96993e-20)
(10.4177 0.874796 -7.89048e-22)
(-4.86906 5.61331 0)
(11.5062 -0.330364 0)
(9.90153 0.0508756 0)
(10.2761 -0.0370611 1.58076e-22)
(12.538 -2.32867 0)
(9.9639 0.0557119 -1.01264e-23)
(8.39596 1.4334 -5.8913e-21)
(10.7103 1.17568 0)
(10.6623 0.180999 0)
(10.4287 -4.65456 0)
(5.17174 -4.04553 2.32769e-21)
(8.86877 -3.44878 2.61981e-20)
(10.0991 0.407528 5.32807e-22)
(11.9156 -0.255422 4.86372e-21)
(8.92059 -3.38884 -3.93423e-20)
(14.7487 0.420171 -2.18911e-21)
(5.67223 -2.82609 1.28521e-20)
(9.70313 0.228126 0)
(12.6527 2.00428 -5.62095e-21)
(11.8473 2.32362 -3.61554e-21)
(2.89705 -0.837095 -3.19138e-20)
(10.3203 0.757099 1.96438e-21)
(-2.37076 2.18997 1.6987e-20)
(18.6158 0.291835 6.10532e-21)
(10.7041 1.09466 1.90161e-21)
(9.88926 0.406298 -1.404e-20)
(11.5451 -0.814603 3.73113e-22)
(9.9958 0.0941382 1.17315e-22)
(7.84667 -3.59314 0)
(12.5613 3.7264 8.95523e-21)
(11.7299 -1.24597 1.65495e-20)
(9.8781 0.174325 -2.12341e-20)
(12.2533 0.287051 0)
(10.1268 -1.50443 2.46507e-20)
(10.1391 0.0958949 4.46111e-23)
(11.9529 -0.518171 -3.20452e-22)
(6.41958 -3.03504 0)
(10.7161 0.415568 1.42008e-21)
(10.7991 -0.103776 -5.37067e-21)
(10.0062 0.0480738 2.63712e-23)
(9.95563 -0.464759 -2.08052e-21)
(12.0617 -4.39526 0)
(8.15445 -3.92599 -1.47779e-20)
(9.94687 0.106333 0)
(10.3703 -0.0111238 0)
(9.49449 0.217451 0)
(10.1074 4.84481 -1.25751e-20)
(9.26301 0.125428 0)
(7.2103 -5.21388 -2.39132e-21)
(8.14819 -2.14007 5.16874e-21)
(11.6979 0.167186 2.6973e-21)
(7.55364 -3.66067 -5.74461e-21)
(12.4092 1.90259 -2.83294e-21)
(7.00432 -3.54313 3.36845e-21)
(10.7884 0.594767 -6.07281e-23)
(8.17058 -3.87638 -1.47581e-20)
(11.7837 -4.76575 1.93582e-21)
(10.0794 0.424815 -7.71147e-22)
(9.63777 0.161964 -1.14566e-21)
(5.29125 -3.64954 -7.7113e-21)
(9.46234 -0.301373 1.77888e-20)
(9.41357 0.0869003 0)
(10.5083 0.34652 0)
(9.88757 -0.313264 7.53124e-21)
(9.36201 -1.84423 4.78311e-21)
(8.49952 -0.287621 2.19666e-20)
(9.39943 0.133837 1.08178e-22)
(11.3749 0.397009 -1.50311e-21)
(8.92343 -0.497311 6.54455e-22)
(9.92717 -0.684286 0)
(9.86273 4.09467 1.61017e-20)
(8.09193 -1.8576 0)
(14.6362 0.0398372 0)
(-6.00361 -0.315397 -5.95144e-20)
(11.7217 -0.399238 0)
(10.0796 -2.95292 1.04481e-20)
(11.4487 -0.0378752 0)
(11.3354 1.40911 -6.89614e-22)
(7.09816 -3.28603 9.07101e-21)
(12.1444 0.601755 -3.28941e-22)
(7.37482 -3.29732 1.70054e-21)
(9.0329 -0.08346 1.84132e-22)
(9.59847 0.937824 -1.00999e-22)
(9.90257 -1.33075 -7.91585e-21)
(12.2576 -3.01586 1.6993e-20)
(11.4919 -1.11862 1.45109e-20)
(6.18569 -2.91413 1.00341e-20)
(7.35585 -3.75167 0)
(6.96106 -3.35672 1.07144e-21)
(9.99255 -0.384278 3.58059e-21)
(10.2733 -0.0857035 -2.55668e-22)
(7.13633 -3.39182 2.94457e-20)
(11.6343 -0.215961 0)
(11.0249 -1.68915 0)
(9.98338 0.330923 2.15926e-20)
(10.0681 0.136124 0)
(6.9031 -3.40913 9.8056e-21)
(9.72717 0.306938 -2.58003e-22)
(8.99903 0.196013 0)
(11.7361 -0.262475 -1.39803e-21)
(9.96622 -1.41727 1.13748e-20)
(-7.524 7.47856 1.27659e-19)
(10.327 1.86418 0)
(7.73535 -3.79729 -2.28464e-21)
(5.68307 -0.365357 3.6149e-21)
(8.35602 -4.08365 1.36658e-20)
(9.64138 0.386333 0)
(9.09497 0.111282 7.26168e-22)
(8.13096 -3.66397 1.23698e-21)
(13.1359 -0.28205 2.21069e-21)
(8.74177 -0.392189 -8.26994e-22)
(6.11323 -4.88662 -2.43773e-21)
(11.0887 -1.53678 7.08337e-21)
(9.09369 0.705752 0)
(9.63421 0.298473 -9.61106e-23)
(12.765 -1.76595 -7.58251e-21)
(7.99845 -3.60631 -1.54453e-21)
(11.2905 -3.72482 -7.33999e-21)
(7.05308 -3.45349 0)
(9.30554 -0.132456 -2.03418e-21)
(6.80062 -3.44431 -4.5339e-21)
(10.2077 -0.145388 -1.02934e-20)
(8.1918 4.03912 0)
(7.9732 4.06849 8.63463e-21)
(10.0295 0.332891 -5.76534e-21)
(10.0245 -0.74322 0)
(11.3866 0.586687 2.82074e-21)
(7.39509 -3.46407 1.2135e-20)
(9.84021 -1.21284 -6.34579e-21)
(9.10709 -0.0643731 0)
(6.57619 -1.37515 0)
(9.5815 0.205415 -6.53212e-22)
(10.5574 0.914987 1.40835e-21)
(6.8182 -1.30738 3.40717e-21)
(10.5441 -0.809304 -8.66212e-21)
(9.5162 0.35475 1.25552e-20)
(10.0514 -3.22636 -6.23768e-21)
(7.42131 -4.34828 1.08239e-20)
(0.705317 -4.09341 2.19707e-20)
(11.5737 -0.940074 1.43372e-20)
(9.4645 -0.128963 1.58096e-21)
(11.3118 1.32014 1.01659e-21)
(10.1121 -0.225018 0)
(7.43267 -3.66679 0)
(9.86856 0.341477 2.22133e-23)
(8.68451 -4.06132 1.10435e-20)
(9.93929 0.248575 -2.08028e-21)
(9.74078 -0.33633 3.6413e-21)
(9.90924 -0.27687 0)
(11.6444 0.149965 -6.22398e-21)
(11.087 0.617576 -2.13635e-21)
(9.33451 0.243934 -1.16937e-20)
(12.6408 -2.98413 1.85462e-21)
(15.2445 1.25984 2.55267e-21)
(5.50096 -3.86191 -9.06553e-22)
(10.5072 0.871728 -1.2002e-21)
(13.0781 -0.532839 3.02127e-21)
(9.89921 0.0999816 2.89902e-24)
(10.0313 -5.04865 0)
(-1.02423 -0.597393 0)
(11.413 -0.0428719 3.17632e-21)
(9.58488 0.949321 -3.13438e-22)
(9.8623 0.0893906 0)
(11.4775 9.22164 -1.01838e-19)
(5.68849 -3.05895 0)
(12.0035 3.96567 -2.87235e-21)
(13.6931 -1.04023 -7.66252e-22)
(9.49107 -4.68993 0)
(9.5195 1.48641 -5.05964e-21)
(9.86727 0.341666 -8.285e-24)
(9.30359 0.908854 -7.23674e-22)
(9.34485 -0.407082 -1.96442e-20)
(9.18101 -0.190409 0)
(9.95598 0.162633 -9.81117e-23)
(9.86343 0.371096 6.31428e-23)
(9.7197 0.289226 2.61387e-21)
(8.49796 0.346481 -1.13937e-20)
(3.80985 2.72023 1.28975e-20)
(13.2 0.43761 1.53724e-21)
(11.2566 -1.89685 -2.34869e-20)
(10.8066 -1.11977 0)
(10.8409 0.611837 7.07126e-23)
(11.517 -1.98115 -4.38975e-21)
(10.0826 -0.342443 2.71892e-20)
(10.7407 -3.1693 0)
(13.4033 0.979077 1.89766e-22)
(7.63664 1.45258 0)
(13.5031 -2.58018 -4.035e-21)
(9.60203 -2.79847 -7.73309e-21)
(4.79858 -2.17189 1.22681e-20)
(12.4038 -2.38507 -5.51365e-21)
(10.3099 1.09717 0)
(9.74853 0.340027 -1.88853e-22)
(9.20863 -0.223759 1.99269e-21)
(8.42545 0.456099 1.07742e-20)
(11.6434 -1.97275 1.68749e-20)
(11.9408 -0.655989 7.29613e-21)
(7.87071 -3.86016 -7.02901e-21)
(9.97504 -0.065751 -7.80959e-23)
(10.6769 -0.763374 0)
(5.60962 -1.92125 2.88214e-20)
(14.7701 -0.159497 0)
(9.72736 0.309969 2.9217e-23)
(11.1852 -0.220813 1.36678e-20)
(11.0018 0.650503 -2.23815e-21)
(11.2776 0.806217 1.97911e-21)
(5.3849 -3.34356 -6.35559e-21)
(9.96883 0.251694 1.45706e-20)
(9.8262 0.160051 0)
(4.73268 4.35632 -4.5118e-20)
(10.9329 -1.29747 -5.17057e-21)
(9.52325 0.900083 8.65013e-23)
(9.54307 -1.97357 4.6416e-21)
(11.3478 0.159977 0)
(13.026 1.07304 7.06814e-22)
(8.98787 0.820923 2.24885e-20)
(9.50608 0.492887 1.72864e-20)
(9.83765 -0.836781 0)
(9.98168 0.00555045 -2.66583e-23)
(9.68293 -0.317919 -3.36286e-21)
(15.2734 -10.6715 1.84804e-20)
(8.2182 -0.321186 3.06307e-21)
(10.7624 -1.0746 4.93172e-21)
(9.93095 -0.0912758 -6.78377e-23)
(11.5278 -0.949797 0)
(11.182 1.25666 -2.4198e-21)
(7.83381 -3.84246 2.24217e-21)
(11.6266 1.08909 3.20471e-21)
(9.89292 0.137628 1.01703e-20)
(8.997 0.157688 0)
(9.7459 0.300317 3.55834e-24)
(9.64035 -4.41588 0)
(17.4778 1.54013 -1.81759e-20)
(10.1248 0.0496444 0)
(10.7769 -3.68052 -2.86986e-22)
(6.971 -0.763512 -6.74182e-21)
(7.24465 2.64966 2.02015e-20)
(15.3649 -11.0621 -6.07089e-20)
(9.22341 0.0331454 0)
(11.2034 0.13211 7.65298e-23)
(10.296 0.881595 -5.20846e-21)
(-12.644 5.10663 -5.25448e-20)
(6.74044 -3.73729 5.9929e-22)
(8.51661 -0.481451 -3.30691e-20)
(10.1689 -0.659079 3.36986e-21)
(10.4021 0.894921 3.01078e-21)
(7.64397 -2.41171 0)
(7.45725 1.04264 1.2617e-20)
(9.88842 0.140674 2.48354e-23)
(6.03765 -3.372 5.83116e-21)
(7.79193 -3.8074 -7.78091e-21)
(-11.3571 4.2364 -7.95655e-20)
(11.8571 -0.918291 0)
(-12.4247 5.13794 0)
(10.9544 4.34475 0)
(10.29 -0.384182 0)
(4.76923 -2.85325 -7.34057e-21)
(13.3165 -2.39068 0)
(10.0031 1.34977 0)
(8.34594 0.258028 4.47857e-21)
(11.8506 -1.17473 -1.70043e-20)
(11.2556 -0.812527 -1.17655e-20)
(8.42535 1.46299 3.61183e-20)
(9.84476 -0.0245484 -2.66536e-21)
(12.6637 6.80053 0)
(10.4027 -0.85066 0)
(9.66971 0.304032 1.24036e-20)
(10.1293 0.123919 2.11254e-21)
(8.7208 5.20917 0)
(6.51379 -2.99786 7.67111e-21)
(11.1267 -3.83255 8.23359e-21)
(16.825 -0.584992 0)
(11.7448 -0.225201 7.16837e-21)
(10.2743 0.186547 -1.39104e-20)
(6.68103 -1.83142 3.9767e-21)
(5.58211 -1.84068 0)
(9.98059 1.26744 1.03391e-20)
(11.9627 0.161787 0)
(9.84458 -0.396443 0)
(10.7912 0.526061 -1.78996e-22)
(9.62629 0.412747 6.56805e-21)
(3.77157 -3.07416 -7.2303e-21)
(11.8272 2.36311 -6.06361e-22)
(7.06843 -1.83416 -1.20304e-20)
(10.3607 -0.453629 1.57072e-21)
(10.2764 0.656469 2.38748e-21)
(11.0646 1.2681 5.76531e-21)
(11.6497 -3.69687 0)
(10.0999 -1.43589 5.90131e-21)
(7.05361 -0.540039 0)
(9.85497 0.356338 -1.06176e-22)
(11.5865 -0.848873 0)
(7.48078 -0.0142616 1.70653e-20)
(6.31674 -9.5358 -1.21558e-19)
(9.92096 -0.728278 0)
(4.55565 -1.51811 2.69604e-21)
(10.2792 -0.846971 -7.63341e-21)
(9.93954 0.847126 5.38127e-22)
(9.07249 -1.42855 3.201e-20)
(7.2545 2.82656 -1.31343e-20)
(7.05272 -1.83218 -3.43346e-20)
(17.3062 1.51653 0)
(9.8964 0.111998 -3.60421e-23)
(7.87021 -3.88381 -1.67361e-20)
(9.80404 1.12801 0)
(9.36492 1.17036 7.92843e-22)
(11.4468 -0.2126 -1.41661e-21)
(13.845 3.10184 0)
(9.98821 0.0637536 0)
(5.98488 -2.97657 0)
(7.9566 -3.53173 5.37816e-21)
(9.92916 -3.17371 7.38786e-21)
(11.6525 -3.71014 6.43369e-22)
(11.9971 3.69211 0)
(8.67782 -0.988469 2.15396e-20)
(10.1951 0.0686966 -1.01068e-22)
(11.8226 2.10284 2.10256e-21)
(7.61972 -4.00424 9.10372e-21)
(9.35578 0.91291 0)
(10.0748 0.000144823 0)
(4.44017 -0.744513 -1.94808e-20)
(7.49964 -2.37079 -8.499e-21)
(9.87336 -1.05402 0)
(9.88015 -4.61502 -1.01004e-20)
(10.0326 0.0758941 1.58737e-22)
(9.96966 0.00718849 -2.24492e-23)
(5.14258 -2.2829 0)
(9.33404 -0.0426314 1.21658e-21)
(9.91795 0.128407 -2.83976e-23)
(12.0434 0.222917 5.7204e-21)
(9.59124 -2.83468 0)
(0.921349 -5.30435 -3.43248e-20)
(11.2696 0.750922 2.33312e-21)
(9.30759 0.661464 2.18964e-21)
(10.0406 -0.00661484 2.9056e-23)
(12.6584 1.81058 0)
(8.67844 1.52353 -9.46008e-21)
(13.4225 -0.831342 -9.91988e-21)
(-10.2059 3.27851 1.23354e-20)
(9.8833 0.375512 0)
(7.20837 -4.1056 -6.14906e-22)
(3.16234 -0.491459 0)
(9.92361 0.480878 -8.47278e-21)
(9.23191 0.70517 4.17441e-21)
(9.51605 0.194185 -2.36614e-21)
(7.96661 -3.62423 0)
(10.6904 -0.0278032 -5.34737e-22)
(6.10185 1.96966 3.46651e-20)
(11.5276 -3.69953 0)
(8.31633 0.176466 1.38628e-20)
(12.7355 -3.14825 -2.13059e-21)
(10.2943 0.00876913 0)
(7.22344 -3.50147 2.08494e-21)
(8.90729 0.287246 -1.15131e-21)
(9.90738 0.145775 0)
(-1.16592 -5.20935 4.49269e-20)
(9.2593 0.938317 0)
(9.06161 -4.0991 1.06791e-20)
(7.77222 -3.77805 4.38269e-21)
(10.1066 0.0419703 -2.79478e-23)
(11.5633 0.326843 -3.61977e-21)
(7.31039 0.987999 6.74435e-21)
(9.03725 -1.55842 -1.16783e-20)
(9.24043 -0.054346 -7.6949e-22)
(9.1855 -4.05682 1.34256e-22)
(10.8154 -1.20609 4.63772e-21)
(12.5734 1.79595 1.12701e-20)
(11.23 -5.05867 0)
(10.1069 0.030804 -8.99616e-21)
(17.7874 -0.069571 -4.28244e-20)
(7.25874 -0.647645 0)
(9.90861 0.108662 2.38048e-23)
(9.62343 0.0588109 0)
(6.63852 -1.93175 3.01657e-20)
(10.5498 -3.92959 0)
(10.2277 0.166967 -2.52546e-22)
(11.3236 -0.519937 -7.9287e-21)
(7.13559 -3.37022 3.77767e-21)
(6.68686 -3.37575 7.9575e-21)
(11.3932 -0.112565 -6.12056e-23)
(10.1613 -4.83594 8.9464e-21)
(9.14729 -2.70943 1.1659e-20)
(7.75309 -1.79986 0)
(6.42229 -3.0346 -4.53147e-21)
(11.7113 -3.5426 -1.6908e-21)
(6.60623 -3.2516 -5.2342e-21)
(9.92819 0.020176 -3.27615e-23)
(7.61199 -2.96137 0)
(10.1491 0.00411184 -2.64594e-23)
(6.69925 -3.37899 0)
(7.5023 -3.81708 6.92754e-23)
(6.90875 -2.40451 -4.89748e-21)
(4.10522 -3.15783 0)
(10.488 -2.74402 3.2739e-21)
(8.10448 -2.24787 0)
(13.9528 2.92745 0)
(8.9234 -4.20393 -1.40391e-20)
(7.75885 1.17397 1.01762e-20)
(8.43423 0.678499 0)
(8.93851 0.726357 -6.07429e-21)
(11.7399 -3.95371 2.28865e-20)
(7.8184 -3.84855 1.00546e-20)
(14.8936 4.61017 0)
(10.548 -0.0455228 0)
(7.83459 -3.94229 -7.31896e-21)
(9.32582 -0.658524 0)
(10.6914 0.186701 0)
(7.93191 -4.4755 -2.00529e-22)
(10.5599 -2.12152 -1.56611e-20)
(8.89092 -2.19093 9.94347e-21)
(10.8082 -1.85477 1.00423e-21)
(6.52778 -3.17337 9.81588e-21)
(9.45565 0.263854 4.86945e-21)
(7.90913 -1.89233 0)
(10.7795 1.71599 -8.88287e-22)
(7.40145 -1.1978 0)
(10.2983 0.351547 0)
(9.65561 0.299194 0)
(11.0318 0.84814 -1.736e-22)
(9.15483 -0.268687 9.23827e-21)
(10.0084 0.0663304 -2.2931e-22)
(8.14528 -1.98805 0)
(4.3469 -2.7923 -4.87654e-21)
(10.6466 4.30052 4.37784e-22)
(9.60372 -3.4829 1.09824e-21)
(9.53522 -0.126312 -2.06085e-21)
(9.89662 -1.33198 1.02185e-20)
(10.2475 -0.12779 -8.21596e-21)
(5.05303 -6.83289 0)
(11.4247 0.537563 0)
(8.39479 4.53098 0)
(6.73072 -2.94467 -2.20962e-20)
(7.19974 -2.72026 -3.86552e-21)
(1.75876 -2.47435 0)
(10.7885 1.61434 0)
(11.5934 1.32039 1.90972e-21)
(10.2392 -0.296938 -2.34411e-21)
(9.95984 2.63562 8.30385e-21)
(12.0776 -4.80486 0)
(7.10049 -4.99105 -2.62027e-21)
(11.5684 0.154962 -1.01238e-21)
(7.28465 -2.22752 -2.02326e-20)
(10.6216 0.292836 -7.47746e-22)
(11.8105 2.11469 -1.03137e-21)
(9.10531 -2.56548 3.69506e-21)
(6.65839 -2.9065 3.81319e-20)
(8.28831 -0.892019 3.28621e-21)
(10.1358 0.0750323 5.55322e-23)
(10.0144 0.0477416 -2.37754e-21)
(8.90676 -4.35117 -2.91438e-21)
(8.93455 0.266621 4.53045e-22)
(9.08575 10.3162 1.33703e-21)
(9.6273 -4.53776 5.39445e-21)
(10.5601 0.545672 0)
(9.78836 1.16421 -1.43467e-22)
(10.3749 0.123643 -5.67886e-21)
(14.04 1.13818 6.44217e-21)
(7.15402 -2.03389 -1.84714e-20)
(9.49911 -3.35413 -1.18413e-20)
(10.7066 0.275592 2.22223e-20)
(11.1413 -0.344498 -1.27706e-20)
(10.4875 2.08799 -6.44992e-22)
(11.9399 -0.856466 -7.37229e-21)
(6.24424 -1.01369 -4.065e-20)
(10.4058 0.0393321 -3.79883e-21)
(6.24478 -1.3095 0)
(7.42018 -3.34419 -7.30264e-21)
(10.038 -0.0671129 2.13382e-20)
(9.48241 -0.0173131 -1.81345e-22)
(4.11879 7.63639 0)
(10.1805 -4.63295 0)
(10.1383 1.58524 6.89207e-21)
(5.64347 -0.992524 2.53733e-20)
(8.33209 -2.8315 -5.43051e-21)
(10.8633 -3.6078 -5.48976e-21)
(11.4786 -2.00676 1.28526e-20)
(14.6499 -0.172205 0)
(10.3421 1.78445 3.48517e-21)
(4.13537 -5.56547 1.4755e-21)
(12.7538 3.37243 8.91321e-21)
(10.1379 -1.4327 -1.36775e-20)
(6.52408 -3.12953 -1.56996e-20)
(9.9323 -1.21423 -1.00133e-20)
(10.1508 -1.48665 3.05748e-21)
(11.7442 4.60582 0)
(9.35055 -0.247609 -1.46856e-21)
(9.68906 0.156583 2.19465e-21)
(9.98684 0.0473891 7.69961e-23)
(5.62932 -2.75625 3.55608e-20)
(9.78843 -1.40013 2.066e-20)
(10.0544 0.272729 -2.21924e-22)
(7.80485 -3.82541 -6.0632e-21)
(9.91767 -0.312375 -3.57377e-21)
(9.929 0.133431 3.39586e-21)
(7.37094 -4.40682 -1.39328e-21)
(12.3207 3.56362 -1.08228e-20)
(-1.42147 -5.81141 -4.88163e-20)
(7.26668 -3.47816 -1.16173e-20)
(9.99386 -0.0802052 0)
(10.1728 -0.0215179 -2.26293e-22)
(7.99649 -3.93345 -3.60686e-21)
(6.84072 -0.866375 3.60721e-20)
(10.0932 0.0812799 0)
(15.3079 1.58873 -4.04721e-21)
(6.41487 -2.53007 8.66744e-21)
(9.9576 0.0612981 -2.0599e-20)
(7.74108 -3.74137 -7.1626e-21)
(8.5741 0.522566 -2.65482e-22)
(10.8893 -0.906794 8.12183e-21)
(10.9842 0.271257 -3.04801e-22)
(9.15844 -4.16816 -1.46639e-20)
(10.1711 0.113502 2.09058e-22)
(7.29963 -2.71241 -8.44826e-21)
(10.2464 -0.107491 5.33796e-21)
(10.1904 -0.281783 -6.53265e-21)
(10.4751 0.552323 -2.67169e-22)
(10.8915 -0.257662 -1.40587e-20)
(6.19712 -2.62449 -1.67465e-20)
(10.1823 0.137888 0)
(7.69162 -3.47365 4.37344e-21)
(9.88298 0.00127905 1.57532e-21)
(8.20574 -1.37619 5.51646e-21)
(11.0541 0.115847 -2.3365e-21)
(11.1074 -1.96043 -8.12116e-21)
(9.73435 0.117511 -1.50091e-20)
(10.479 1.32825 1.82933e-21)
(6.15174 -2.98701 -7.88461e-21)
(10.4748 0.0371282 0)
(9.7678 0.411147 2.65021e-23)
(11.0059 0.632207 2.29396e-21)
(7.68234 -2.89267 0)
(10.8104 0.601118 2.4002e-21)
(10.7106 0.626125 2.81437e-21)
(10.6946 -0.0963748 2.6268e-25)
(12.8754 -4.76467 1.07965e-21)
(9.62893 0.0280932 0)
(9.08548 1.56318 1.73214e-20)
(9.94031 0.509862 6.1267e-22)
(9.37782 -4.40843 1.19495e-20)
(9.95731 -0.768994 0)
(7.6958 1.17737 -2.94806e-20)
(5.50034 4.4307 2.16082e-20)
(13.4639 5.95936 -2.19996e-20)
(6.3337 -1.07002 3.97709e-20)
(10.0447 0.0284243 5.45726e-22)
(6.93171 -3.4496 6.18572e-21)
(9.85429 -0.630666 -1.41595e-20)
(10.1963 -1.39922 -8.71306e-21)
(8.99346 0.584872 -1.30516e-20)
(10.2743 -0.0543823 0)
(9.98508 0.221459 -9.07859e-21)
(-2.82455 -0.119798 3.26017e-20)
(2.80328 5.91998 0)
(9.676 -2.08166 0)
(9.90649 -0.0521104 0)
(-8.55638 2.12445 0)
(10.0023 1.25074 0)
(5.99399 -1.00141 0)
(9.09339 -0.567984 -5.97842e-23)
(11.2749 -3.36287 -9.61935e-21)
(11.8534 0.503362 0)
(8.8231 1.33638 2.58986e-20)
(7.75846 3.17664 -3.89463e-21)
(10.3835 0.895882 -6.50634e-23)
(7.97113 -4.07095 -1.95862e-21)
(6.0786 0.163727 -1.17391e-22)
(6.70061 -3.26215 6.15066e-21)
(10.9788 0.00943748 -4.5632e-21)
(11.2271 -0.365861 8.80552e-22)
(10.1372 1.24562 -4.87852e-21)
(9.56386 0.790216 -1.70957e-20)
(10.361 4.00867 -3.55614e-21)
(16.7387 2.03732 0)
(7.19247 -4.01581 1.76207e-21)
(6.69854 -1.99918 -3.3023e-20)
(10.12 0.331759 -2.67445e-20)
(11.7317 -3.46595 -9.03905e-21)
(10.4539 -0.270695 2.26143e-21)
(13.4884 -2.99664 -4.81682e-22)
(10.9014 -1.70865 -1.7457e-21)
(10.519 -2.74768 -1.1415e-20)
(9.91916 0.700349 5.39862e-21)
(17.303 5.86759 0)
(9.31444 0.04435 -7.5705e-22)
(8.55598 0.140879 -4.00637e-21)
(13.6568 -2.07296 0)
(9.48631 0.196136 0)
(9.54564 -4.33831 -7.8055e-23)
(7.10002 -3.47832 6.73507e-21)
(8.92291 -0.489072 -3.70385e-21)
(9.80502 0.0838379 0)
(9.24074 -0.502805 -1.86745e-20)
(9.15555 0.953218 -3.30397e-21)
(7.50998 -3.52059 2.68563e-21)
(10.8223 0.443276 1.32097e-21)
(6.78566 -3.34741 0)
(6.97614 -3.94841 1.91023e-21)
(11.1205 0.546954 0)
(9.29305 -0.381927 1.6093e-21)
(12.8812 1.01984 -9.59824e-22)
(9.76084 -0.0349449 -1.04712e-22)
(11.9671 2.34086 6.48233e-21)
(14.4195 4.02048 -1.85018e-21)
(8.94017 -2.5965 2.41903e-20)
(7.22325 -3.44623 0)
(7.93036 -1.9498 -5.28571e-21)
(6.75695 0.610466 0)
(11.9921 0.429763 -2.65298e-21)
(7.55805 -3.56515 5.7569e-21)
(9.66033 -1.9735 6.16824e-21)
(9.71213 0.438342 -1.39914e-22)
(8.1124 -3.75559 -7.95753e-21)
(8.49519 -3.98651 -1.38014e-20)
(6.8752 -1.9976 -1.91535e-20)
(9.87927 0.101447 -9.99681e-24)
(7.90954 -1.7958 4.30986e-21)
(6.28493 -2.68206 1.37328e-20)
(7.10967 -2.14588 2.07207e-20)
(7.41052 -2.83938 5.05304e-21)
(8.18071 -1.87679 -2.51339e-21)
(9.41239 -2.96274 1.18303e-20)
(17.4292 -12.2055 8.97359e-20)
(10.0859 0.284199 1.219e-22)
(7.40241 3.15828 2.90268e-21)
(11.2892 1.27429 5.44087e-22)
(11.6127 -2.86578 0)
(-10.568 2.34678 -1.20694e-19)
(10.2334 0.03933 -6.34594e-21)
(9.92236 0.012202 0)
(12.4397 0.480484 0)
(7.01778 -1.66088 -4.11638e-21)
(10.5056 -2.01572 -8.57564e-21)
(11.3757 0.456042 5.40419e-21)
(10.3945 -1.98195 2.05897e-20)
(10.4253 4.13379 3.94972e-21)
(9.86809 0.113583 1.52564e-20)
(7.63993 -3.55636 -9.22242e-24)
(9.39485 2.51889 0)
(7.21878 -2.34641 1.97287e-20)
(8.2633 -7.97636 4.8709e-21)
(8.09282 -3.67339 6.0628e-21)
(8.83246 -3.30488 4.05302e-21)
(10.447 -5.02424 -2.28045e-21)
(11.2786 -0.0562327 7.0337e-21)
(9.63122 0.269442 1.59171e-22)
(9.80981 -0.752607 7.11324e-21)
(7.67417 -3.57881 -3.85188e-21)
(11.3616 0.527768 -3.96226e-21)
(9.50169 0.18595 7.20205e-21)
(6.18843 -1.28128 -1.63591e-20)
(9.5904 -0.554714 1.16342e-20)
(10.3826 2.26681 0)
(11.6279 1.02266 -4.86895e-21)
(9.89895 0.260622 1.6065e-21)
(7.73758 -1.68128 -6.29219e-21)
(11.6294 7.79935 5.09529e-21)
(9.28591 -2.84566 8.83444e-21)
(9.70272 0.00349515 3.13397e-21)
(7.05053 0.498061 -2.31329e-20)
(13.2592 -2.20702 0)
(9.73455 0.31706 -1.87278e-22)
(10.7766 0.211959 9.88682e-22)
(9.38023 0.0589968 0)
(7.42326 -0.0446841 1.3323e-20)
(10.7437 0.42035 0)
(8.7294 6.52241 2.13749e-21)
(10.9631 -0.0107481 0)
(9.31183 0.0769568 0)
(11.3909 0.0833525 1.54719e-21)
(11.331 0.542597 -2.46075e-21)
(12.6327 -0.724838 -1.3869e-20)
(9.65279 0.675193 -7.49746e-21)
(8.16918 4.53833 -5.58723e-21)
(9.8544 0.526793 -2.56296e-21)
(10.5322 1.52443 0)
(12.1542 -7.01619 -5.03841e-21)
(11.4307 0.365299 4.60348e-21)
(9.24495 -0.236781 -3.18488e-21)
(11.5609 -2.85201 0)
(14.0635 0.957198 9.62584e-21)
(11.9568 7.02344 1.32683e-21)
(9.91957 0.05357 4.63691e-22)
(8.6693 -3.52589 0)
(8.129 -4.4079 7.38364e-21)
(10.1341 1.03908 0)
(9.96403 -0.622869 -3.62279e-21)
(-6.68228 7.90512 0)
(13.3652 -5.43794 0)
(8.46997 -1.08391 0)
(10.3781 -3.87398 0)
(6.76135 -5.6184 -1.67471e-21)
(7.87688 -3.49683 -1.1876e-21)
(9.72613 -0.3992 -1.37649e-20)
(7.21255 -3.43892 -4.4621e-21)
(6.75406 -2.79531 0)
(7.4268 -3.14213 -2.92485e-21)
(-4.99812 7.12082 -1.26612e-19)
(8.3302 -3.86866 0)
(7.65218 -2.6617 -2.12275e-20)
(9.87848 0.175767 2.87819e-23)
(11.3478 1.15433 -1.93429e-21)
(12.5236 -4.18678 1.30903e-21)
(9.00757 0.640489 0)
(11.2457 -3.59546 0)
(13.4383 -2.16523 6.56587e-21)
(8.97741 0.285948 1.17227e-22)
(9.89488 0.19171 -1.3757e-23)
(6.98395 -1.53512 1.4013e-22)
(10.0602 -0.117327 6.59456e-22)
(10.1225 0.108037 -3.60071e-23)
(9.89063 1.02278 7.85784e-21)
(9.77524 0.312278 5.64611e-23)
(9.60801 -2.72236 0)
(4.15465 -4.19876 0)
(10.1097 0.0292792 0)
(10.0638 -0.00714814 0)
(8.85843 -1.73395 8.68721e-21)
(11.3219 -0.610215 0)
(7.5245 -4.98724 1.74546e-20)
(8.66708 -2.58698 -1.49927e-22)
(6.98378 -2.17627 -3.13102e-20)
(8.06793 4.0704 2.52234e-21)
(7.803 -3.43035 -2.43563e-21)
(7.95135 -5.67288 -1.03034e-20)
(9.60217 0.254879 2.48183e-21)
(7.74474 -3.67904 -3.64224e-21)
(9.71193 0.26124 -3.18503e-23)
(11.3443 0.317617 0)
(12.2407 -1.84856 0)
(9.21678 1.78249 0)
(11.138 -2.16652 4.28531e-21)
(8.30161 -2.21249 0)
(9.62949 2.61305 0)
(10.0552 -0.114046 0)
(9.10635 -2.23462 9.24591e-21)
(10.2282 0.868759 -5.82419e-21)
(9.78333 -0.24986 0)
(9.17185 -0.650831 -3.42543e-21)
(9.74213 1.04954 -8.20429e-21)
(12.7081 3.12216 -1.88966e-20)
(8.32993 -3.79539 1.28042e-20)
(9.74674 3.00277 1.51008e-22)
(8.81624 0.304896 -9.39628e-23)
(9.57492 0.320991 6.41989e-22)
(9.0105 -0.0810504 -1.4931e-21)
(11.3558 0.347009 3.45955e-21)
(9.89721 0.139485 -4.1904e-24)
(9.18074 0.109802 -1.2717e-20)
(10.4781 0.0849239 0)
(8.54743 -2.08147 -4.21375e-21)
(9.85621 0.348157 1.24486e-20)
(3.02432 -3.94259 2.03618e-20)
(10.6066 -1.59063 -5.16762e-21)
(5.7763 -1.13107 -2.76001e-20)
(11.3714 0.35668 -5.88905e-22)
(13.8732 -0.575728 1.43507e-20)
(9.88087 0.751741 0)
(10.0805 1.14724 -5.03531e-22)
(9.68322 0.0924075 -2.33377e-22)
(9.13433 -0.147031 3.12871e-21)
(7.34467 -4.0145 -1.03882e-20)
(9.69461 0.0458836 6.89332e-21)
(10.1783 0.0251719 -4.70086e-23)
(9.96013 -0.108059 -3.95959e-22)
(10.1445 0.0456134 0)
(10.5818 6.53535 0)
(7.93994 -3.73466 1.59578e-20)
(7.33718 -3.53684 7.73605e-21)
(9.99649 0.0425419 -7.7422e-24)
(9.64648 0.277984 2.55497e-20)
(9.94766 1.33275 1.45446e-21)
(7.66743 1.05392 0)
(8.99062 0.270584 0)
(8.23551 -1.8394 -7.64428e-23)
(11.1673 0.09942 2.50068e-21)
(9.90508 2.61635 1.10939e-20)
(12.3465 0.117859 0)
(10.3068 -0.0973603 0)
(10.6488 -3.03618 1.56748e-20)
(10.0915 -0.899421 1.08996e-20)
(2.29409 -1.03758 -2.80754e-21)
(9.71622 -0.0628869 0)
(13.8365 -5.82522 8.60558e-21)
(9.16382 -1.06716 -1.35019e-21)
(7.92633 -3.88795 -4.83132e-21)
(9.68522 0.0125797 -1.49921e-20)
(11.3876 -3.31949 0)
(10.5697 -2.0648 6.77806e-21)
(8.52413 -3.2542 -6.66491e-21)
(1.71367 -0.420772 0)
(10.0858 0.0364281 -1.40977e-22)
(9.68662 0.382921 -8.38639e-21)
(9.79125 0.0742076 -1.98926e-25)
(13.5788 0.571524 9.41828e-23)
(19.518 10.2588 2.82709e-20)
(10.0409 -0.0458056 0)
(5.68815 -2.02342 -1.85815e-22)
(10.1861 1.54942 -1.29717e-21)
(9.4569 -4.34632 -1.31394e-20)
(10.3037 1.42166 5.77701e-21)
(5.39138 -3.07079 5.36058e-21)
(9.40558 0.081059 -3.28206e-20)
(9.90457 0.325323 2.86706e-22)
(9.61752 0.361011 2.83993e-22)
(8.86284 -2.14021 0)
(9.57449 0.14682 -1.24242e-21)
(6.12227 -2.76269 1.10801e-20)
(10.8007 -0.563578 -1.6122e-20)
(9.97901 0.30759 -1.17192e-20)
(9.86744 -0.6026 3.31673e-21)
(8.50168 -0.968114 3.12759e-20)
(10.0757 -0.0546715 -2.07079e-22)
(9.12417 0.363885 7.26571e-21)
(9.87947 0.149337 2.0391e-22)
(10.7614 -1.8287 -1.15595e-20)
(12.5751 3.71079 -1.49208e-20)
(8.3807 -2.82233 4.25078e-21)
(10.6182 0.0735126 0)
(9.2401 1.46557 0)
(7.03422 -2.59199 0)
(6.96654 -2.04482 2.40944e-20)
(9.76291 -0.146912 -1.88374e-20)
(9.06023 0.86871 0)
(7.84793 -1.78534 -1.86416e-20)
(9.05135 0.858841 0)
(8.9259 -1.47019 -1.43465e-20)
(9.35816 -0.272586 -3.36329e-21)
(9.47217 -2.5013 -1.29324e-20)
(10.2979 0.16354 0)
(9.63591 0.355748 0)
(9.39666 -0.038566 2.15871e-21)
(11.9374 0.373268 3.27254e-22)
(11.0722 -0.396937 6.33804e-21)
(12.7136 7.09375 -2.35733e-21)
(12.6393 0.329185 0)
(8.94812 -3.25963 -6.69905e-21)
(0.790957 4.93172 0)
(3.44564 2.38653 -1.28419e-20)
(14.3684 3.7562 0)
(10.101 0.16059 1.20802e-22)
(6.28391 -0.836957 1.05477e-20)
(7.95287 -0.796512 1.02387e-20)
(9.61011 -0.153396 -1.86198e-21)
(8.55516 -2.40944 -1.43901e-20)
(9.50679 -1.11528 2.78968e-20)
(10.4179 1.45432 -4.15225e-22)
(12.7586 -2.97503 7.81269e-22)
(10.0233 -2.26314 -6.43038e-21)
(-2.22967 0.925416 4.07502e-20)
(12.4319 1.14285 0)
(9.68848 0.133226 3.38189e-23)
(8.03119 -1.98815 0)
(9.54464 0.303683 -3.10126e-22)
(9.06388 -3.26271 -3.47881e-21)
(8.49842 -0.840221 -1.02683e-20)
(9.84078 0.0616655 2.95988e-23)
(11.1891 -0.0113808 -6.48796e-21)
(8.54627 -0.428374 2.11341e-20)
(11.5994 -0.165363 -5.00763e-21)
(9.8956 0.170405 0)
(7.45739 -4.52291 0)
(10.5943 0.154938 7.07634e-22)
(12.4331 -0.699073 0)