/*--------------------------------*- C++ -*----------------------------------*\
| =========                 |                                                 |
| \\      /  F ield         | OpenFOAM: The Open Source CFD Toolbox           |
|  \\    /   O peration     | Version:  2306                                  |
|   \\  /    A nd           | Website:  www.openfoam.com                      |
|    \\/     M anipulation  |                                                 |
\*---------------------------------------------------------------------------*/
FoamFile
{
    version     2.0;
    format      ascii;
    arch        "LSB;label=32;scalar=64";
    class       volScalarField;
    location    "8";
    object      p;
}
// * * * * * * * * * * * * * * * * * * * * * * * * * * * * * * * * * * * * * //

dimensions      [0 2 -2 0 0 0 0];

internalField   nonuniform List<scalar> 
13486
(
2.27749
1.98669
-0.00148884
-4.37836
0.163183
-0.00263743
-0.211687
0.838683
1.30607
1.13213
-5.35687
0.383817
2.37943
0.102975
0.202838
1.21551
-4.3404
0.433296
0.490647
2.07674
-3.54354
2.34295
1.95283
-4.32569
1.0659
-3.94298
-4.37528
-1.32973
0.000637937
-1.55698
-2.78428
0.380361
-2.19049
-1.03364
0.847525
0.00406665
-0.12949
1.64456
-0.214198
1.38023
-0.941435
2.48527
0.0159971
1.04944
1.01905
0.367063
-4.17426
0.00118446
-0.121356
-0.932687
1.46924
-0.260151
0.35198
1.69768
0.245677
0.249026
-0.217714
-0.25619
-2.10334
-0.278298
-6.53429
-0.250388
-2.39668
-3.34271
-7.49677
-0.149302
-4.8287
2.36761
1.28527
-0.117339
-4.86299
0.319542
1.45091
-3.1284
-0.185063
-0.211033
-0.158928
0.162397
-4.2065
-0.310228
0.00210346
2.03616
-2.42793
0.0394232
2.28227
1.23733
0.0131143
1.41187
1.65873
1.25614
0.427148
0.630232
2.13627
2.03912
1.31943
0.000553569
-4.38791
-5.6361
1.35336
-4.39304
0.0228413
0.184275
-5.73679
-0.25157
1.41096
-4.4381
1.59821
-0.215429
-4.28732
0.404591
1.11147
0.263815
1.69846
-0.0260795
2.78267
1.21304
1.07555
-0.963949
1.46511
-0.0915528
0.434564
-6.2727
1.42925
-0.219415
1.12764
-0.246202
0.828501
0.596046
-0.871629
-5.19138
-0.24191
-4.03655
-3.64657
-2.85735
1.52093
1.46357
2.93497
0.466491
-0.0850266
0.928198
-1.64844
0.352204
0.431827
-0.326922
-0.015131
-2.8898
0.10339
2.00639
-1.01639
0.000492326
1.09096
0.00442769
0.00395412
2.07832
0.692004
-0.0101254
0.130408
-1.22821
1.40949
-0.266955
-0.608358
1.41217
0.507133
2.47428
-0.263523
-0.148467
0.307924
3.24491
0.102202
-2.85845
-3.7233
0.702686
1.24819
0.606264
-0.0023899
-10.4931
-0.020843
-1.80026
1.59288
0.437576
1.23324
-0.0197875
0.519001
-5.13394
0.0967488
-1.2897
0.000391535
-1.32409
-0.816465
1.32292
-0.106393
-0.0477919
-0.288546
2.2435
-0.332498
-5.15007
-5.82807
-0.670498
1.89829
-0.077937
-2.89265
0.575018
1.6495
-0.241787
-0.368161
-0.346902
0.207295
1.63332
-0.274883
0.0969544
-1.3204
-4.22415
2.05284
1.60102
0.0029546
-0.950253
-1.56394
1.27362
1.98476
-1.63328
-4.37754
-1.02932
0.979452
-0.678844
0.288165
2.13244
-0.251176
-6.51199
-0.643418
-0.00545433
1.2184
-1.94537
-1.72598
2.54861
-5.24746
2.01275
-1.15611
-0.0447653
2.04143
0.576934
-2.31841
1.2289
-0.0139718
1.87577
-0.179591
1.81035
0.618358
-2.61237
-2.81155
1.1392
-6.90977
2.82238
1.13617
-0.223213
-0.466296
-11.1031
0.393572
-0.919014
-1.1081
-2.36461
1.81513
-0.177896
0.226096
-10.6397
0.176336
-5.11292
-0.655355
-3.51998
1.35473
0.338648
1.8321
1.58492
-1.60564
0.325663
2.13654
-2.39735
-0.469164
-0.942216
-0.235871
0.111963
-1.09461
1.0685
1.62225
-5.48746
-6.09428
-4.34528
-1.47742
-0.896361
0.274911
1.37884
-5.03955
-0.209523
1.28838
1.53206
-1.10828
-1.23813
-0.631244
0.298331
1.63715
-0.631191
0.519783
0.251984
0.110363
0.378569
-0.105968
-0.196839
-2.02351
0.645314
-0.017491
-0.113175
-2.89472
-4.22412
0.221262
0.298257
-5.87728
1.49311
-0.217947
1.66714
1.6516
-0.776765
-0.136909
-0.187113
1.5875
2.06128
2.89593
0.42463
0.607446
1.03701
0.203162
0.51327
1.42046
0.556047
0.439932
2.28919
-0.297023
1.2098
2.84769
0.0340673
1.15839
-0.171867
-0.70589
2.04931
0.459107
0.521179
-5.72149
0.000390558
0.801995
2.72842
-1.67087
-0.195919
0.820944
0.244704
0.31018
-4.41737
1.6258
-0.0360672
-3.19535
0.812037
-0.0349868
-3.79025
0.496961
0.418585
1.81102
1.58884
-1.60564
0.00228891
-1.19582
-3.89065
2.10231
0.835105
0.0107532
0.826312
0.253254
-7.07918
0.117688
1.49378
1.63362
-0.175129
-5.70011
-2.38498
1.32487
0.484388
2.45598
1.9122
-4.00405
-0.506358
0.32264
1.1361
-3.76043
-1.98298
2.01195
-1.65128
0.891458
2.09151
2.41148
-0.0693203
-4.5547
-6.90045
-4.04314
-1.60278
-3.85157
0.794971
1.2167
-2.02828
-0.129892
0.130552
2.0094
-1.81042
0.891319
1.89884
1.10638
-0.488941
-1.64303
1.6449
1.61894
2.17997
-5.29836
0.208191
-3.86158
0.59024
1.5956
0.448581
2.74279
1.1993
-0.411733
-1.28105
0.576868
1.62563
-4.36729
0.402027
2.33261
1.22564
0.875443
0.240502
-0.048399
-2.54872
2.45984
-0.190361
0.6455
2.33194
-4.36242
-1.58323
-2.83768
-1.70624
-0.0562614
1.69277
2.08044
2.35496
-2.50544
-0.0988748
-5.80135
1.17711
1.6943
-0.921053
-0.75569
1.61306
-6.15317
-11.1472
-5.89735
-3.01966
0.325169
1.8619
-0.00249214
0.418908
-3.71977
1.59845
0.00106701
3.06247
2.13814
1.41403
0.748196
0.00245623
-6.17307e-05
2.82665
-0.54265
-0.0783185
-0.407158
1.22425
-4.34095
0.285957
1.26922
-0.0527897
-0.313855
1.94299
-1.5433
-4.19309
1.19517
-2.06022
3.2336
1.2124
1.48308
1.70267
-10.3249
0.125784
2.68686
0.0495542
2.05502
-0.537123
0.659655
-3.83695
-0.310296
0.0103664
-4.46654
1.71979
1.16497
-7.19804
0.00165545
-0.0639019
2.4235
1.69116
-0.500259
1.20608
0.880751
-0.26747
0.148502
1.49834
-3.77251
2.42276
-0.0681514
-0.112441
2.4814
0.485387
-0.0141015
0.843426
-4.36719
-6.1492
0.540085
0.333438
1.46581
2.13684
-4.65637
-0.0403315
-4.63626
-0.000298986
2.01666
0.652745
-5.26828
-6.03187
0.51015
-1.15941
0.833073
-7.32243
-0.707095
1.21188
2.25945
-0.160911
1.79047
-2.69128
-7.0563
-1.01381
0.865811
-5.61387
1.61238
0.104513
-7.02459
0.990735
1.62023
-2.58174
-4.6969
1.48594
2.06388
0.771066
2.30724
0.110351
1.22752
0.597592
1.67904
-0.00047921
1.98721
-4.39992
0.769335
1.11685
-0.816509
-2.31838
1.57744
-4.27692
0.310209
2.0433
2.32342
-4.72787
-0.70977
0.712928
0.328018
1.23061
1.38216
-0.416507
-4.4624
0.243631
2.20965
0.483184
0.450837
-9.09396
2.34398
-1.67241
-0.0220522
1.58607
0.717293
-0.318296
0.146929
0.851479
0.169066
0.0532761
0.830136
-1.07546
2.27418
1.18207
0.915462
0.948305
0.236488
-1.42985
2.66177
0.691526
2.65508
-6.00282
1.41823
-0.000103278
-3.16752
0.274152
1.13043
2.81032
-11.1519
0.426579
0.553164
-1.82157
1.10407
0.393864
-0.156487
1.29618
-4.74739
-2.17303
-2.75099
0.218362
-0.959988
1.68582
-0.000613748
2.52501
1.34008
-0.368813
-6.97696
-1.30503
0.729111
-5.76079
0.0954394
-4.42709
1.98931
0.000533081
-0.153295
-8.71639
2.45475
0.00135765
0.516342
2.46044
1.48423
-5.7771
-0.160386
0.859443
0.360347
1.08511
-0.00920211
-6.12665
0.816392
1.26026
0.691259
1.10195
2.50524
-0.018081
-9.19405
1.57845
0.463985
-0.0845653
0.666953
1.31383
0.927154
-5.4326
0.104632
-0.175416
0.2313
2.01413
0.709232
0.191144
0.0605525
-1.1184
-0.382613
1.74373
-1.05338
1.03685
1.28469
2.27629
0.472598
-0.572029
2.64114
0.00769555
-6.18518
1.52019
-2.37516
1.83093
-0.012352
1.58231
-2.05744
-2.94429
-4.57492
-0.000164791
-4.27883
1.06447
2.73468
-1.10507
-3.26383
-0.32273
1.78234
0.285145
0.917986
-8.24275
2.75735
-5.5339
0.684981
-1.01344
1.12856
1.6671
0.962466
-2.17096
-2.84462
2.44476
1.64649
-0.0813181
1.22701
-1.08252
0.912635
0.814834
1.11929
-2.8609
-0.46227
1.98086
-0.0845346
-0.252771
0.805516
-6.23071
-1.07584
-0.196707
1.60786
1.76995
-7.49983
0.120658
-5.76716
-3.07081
0.173112
-0.939653
0.423953
1.57794
0.268524
-0.847877
1.575
-1.02133
-4.33141
-0.0659748
-0.472709
-7.23126
-4.23912
-0.175826
-11.2052
1.06789
2.38349
-0.0757659
-4.02112
2.46774
2.28775
-4.36002
-5.20436
1.28093
-4.15148
-0.0312594
0.262512
0.347261
0.276071
-4.21334
0.949017
1.23552
-0.395385
-1.79073
-3.01492
0.0399969
1.01232
1.0397
0.839634
-8.00514
1.58794
2.2229
-4.08829
-10.9685
1.44636
-0.357536
0.898628
-0.205132
-1.47093
-8.04024
0.0799428
1.61815
2.66737
1.61223
0.243745
0.112853
1.59022
2.17787
0.155059
1.35776
1.50912
2.43773
-0.0883314
-0.178746
0.461384
-0.710321
2.3934
0.136313
0.375203
0.89222
-0.465805
0.366323
0.0970269
-1.31136
1.59149
1.49658
1.25766
0.983279
-2.20806
-0.183254
-0.863685
0.299747
-1.16867
-0.21489
-0.015879
-13.0944
-7.31245
1.03745
-1.43773
-2.80593
-2.1873
-1.80886
0.608303
-4.74535
-11.1207
1.69461
-4.73323
2.33678
-6.55021
-2.83717
1.56834
2.0419
-0.202508
0.375855
-0.666511
1.69986
0.229341
-2.1176
-0.298908
-0.112159
-1.50389
1.59156
-0.122734
1.12018
-0.182863
1.23942
-4.35887
-0.00808867
-0.0368173
1.72864
-1.37342
-5.68128
-9.45195
2.32118
0.323329
-9.56596
-5.05899
1.50808
-8.61943
-0.191061
0.350213
0.327828
0.153363
0.65641
-6.81501
1.53795
1.60344
1.57923
0.935018
-0.136248
-1.25001
1.3506
-0.0952244
1.60591
1.34544
-0.327139
-0.22163
-0.54814
0.138377
-0.0994986
1.79329
0.853816
0.543664
1.59733
0.375961
0.941754
2.77374
0.0966182
-1.58579
1.24714
0.0971063
-0.195276
-0.594822
-3.66659
1.49075
-0.0206763
0.00754077
0.00114192
0.466297
1.76937
-5.83393
0.00284896
1.6008
0.104555
2.32872
1.82882
1.94062
0.374898
1.26659
0.447097
-0.052569
0.67115
1.34873
-2.20774
-0.828702
-2.25013
-1.93997
-8.52594
1.45223
-3.06004
-3.13758
-12.9312
-2.03293
-0.0499307
1.63724
-0.0154192
0.435183
-3.04413
1.62515
2.70024
0.118356
-6.3483
1.10403
-0.788899
1.43167
-0.319974
-0.187024
1.67677
-0.285612
2.51368
0.878313
1.58719
-1.38211
1.94624
-0.0372446
1.84398
-0.0766973
-2.53497
-0.00105406
-11.2752
0.868712
0.083508
-1.86637
2.34785
1.62254
1.79442
2.1014
1.81554
1.73014
-0.849445
1.32354
1.63961
1.61191
-0.731804
-0.256924
-1.16965
-0.730538
0.419558
1.44742
-2.94806
2.58693
-0.860796
-0.0170892
2.66006
2.19161
-0.819347
-8.4532
1.39105
1.04377
-1.14704
1.14191
-2.8745
-0.321263
1.58615
2.02381
-0.192428
1.40991
1.93034
0.00207238
-0.570131
1.98818
0.578337
-0.105555
-4.5907
0.0319805
-1.2779
1.57612
1.44399
-0.205914
-1.40016
-1.95372
0.407283
-0.175307
0.359965
2.32287
-0.230051
2.9816
1.46826
0.479937
1.67297
-5.91658
-3.24961
-8.21641
1.49243
-0.199828
-2.77668
-2.74383
0.985263
1.16067
-0.171912
0.522582
-3.88282
0.351383
0.318351
-0.179495
1.01525
0.451919
1.86553
1.6287
1.74951
1.3028
-0.829909
-2.01252
-1.33031
0.0814844
-5.55504
0.299046
0.987511
-4.04234
-0.13079
-0.239132
0.526227
-8.70318
0.908007
1.02538
-0.112018
-2.0952
0.563968
-0.932064
-2.52852
0.271586
0.0770012
1.40888
1.31512
1.77312
-2.85772
1.5096
-0.00466761
2.11322
0.281582
1.03844
0.439358
0.0536509
2.4892
2.755
1.12338
0.156132
1.25323
1.09012
2.50951
0.580968
-2.02744
-8.24503
0.324587
-0.73588
-2.33532
1.61479
1.40068
0.143223
-0.556943
0.807848
1.25162
2.78188
-3.21014
1.39247
-4.13212
0.259494
2.28169
-0.560658
0.941698
-3.27401
0.975825
0.530452
2.92839
-0.0340179
-1.21334
1.00072
0.284855
-5.5936
-2.8883
0.477762
1.8127
-0.100458
0.196016
2.29251
2.12954
-0.368171
-2.05673
-0.0696709
0.560286
1.54032
1.34384
2.00521
0.79509
-5.08263
2.13795
1.00908
-1.93765
0.749305
1.69704
1.73619
-6.262
-2.42148
0.00111041
1.45475
2.41277
0.688771
0.511086
-1.30538
2.8003
-4.25837
-1.58678
2.54792
1.48106
0.198034
0.957671
-4.68073
0.424264
-1.91317
-4.374
-0.176564
-8.72928
0.279448
-1.22231
-4.21454
-4.28209
-2.04194
-0.611895
-3.92955
-6.80649
1.61614
1.56739
0.0828854
-3.93429
0.39554
0.532558
-0.841945
2.96682
0.518637
-1.15341
1.48211
-1.50276
-9.06553
0.787923
0.758088
1.40086
3.02457
0.00230651
-0.543866
-4.72265
0.108661
0.587185
1.12185
-0.316195
2.16066
1.34855
1.67387
-3.92562
-0.291651
-0.042198
1.29895
1.59025
1.32276
1.62595
2.78641
2.63481
-1.51064
1.48777
1.97295
-1.11739
1.97932
-0.198631
2.59726
1.95295
0.28181
1.82654
1.00847
0.747019
-0.12153
1.70997
-1.89818
1.12553
0.0452844
0.461209
-0.0159964
1.43874
-0.168274
0.423014
2.48634
2.47507
0.646828
-2.85384
0.363314
-1.16011
-0.48909
1.46566
2.16397
-2.84612
1.61939
1.19817
0.611189
1.29805
-8.51468
-3.25636
-0.219269
2.88521
0.147715
-0.0721616
1.91312
-0.0269295
-0.126743
0.999527
0.326402
1.35643
-0.232734
-1.36933
0.777066
0.800184
0.505611
0.694173
2.70103
2.17194
1.68828
2.15145
2.41228
0.351763
-0.212204
0.206713
-1.02896
2.47292
-4.09069
1.37922
1.08421
-6.33598
0.381139
1.64127
-7.97077
0.626111
1.26002
3.05773
-4.43304
0.571856
0.1779
1.4739
-0.0085129
-5.3345
2.41466
1.93408
1.2247
1.48484
-1.76362
-0.0467126
-4.53896
2.62914
-0.0636418
2.90648
-1.6504
0.486414
-3.3842
0.105556
-3.09444
0.434283
-0.251992
0.785221
0.0299244
0.761906
-5.86892
-0.000191062
-2.53333
-2.85938
-1.22124
-2.18796
0.0416968
-0.377642
-3.3703
-6.39078
1.23175
1.27633
2.19744
1.59977
0.494951
0.518916
3.27003
1.34031
-4.34496
-0.00265599
0.102359
1.36812
1.14561
2.16614
-1.30818
-1.35471
0.754955
0.00053885
0.382093
2.04327
-2.87357
-6.10752
-4.60597
2.66487
-5.5216
0.896798
1.88845
-1.80479
0.868936
-0.152454
-4.4591
-4.52024
-0.579346
1.2426
1.61086
1.85646
-2.21844
-2.9036
0.411
-4.27027
-1.74592
-0.837764
0.423506
-2.17063
-0.0486079
-6.1596
-4.4557
-3.67348
2.29279
-3.79798
2.61782
-5.88273
-0.644391
0.419969
0.280353
2.06198
1.12014
1.98697
0.0712725
-1.85115
-4.52973
1.93189
-2.83655
1.3045
-0.178409
2.06335
2.09996
-0.178826
1.49586
2.46307
1.44267
1.59902
-2.12894
-1.4289
0.500105
-2.24758
-0.236412
0.425586
0.522077
0.00246441
-4.77124
0.358577
-1.36148
0.903578
0.613355
-1.33784
2.58794
0.0856504
-0.000201281
0.259102
1.59247
-4.56748
0.0025697
1.44917
-0.457226
-0.0596629
-0.136757
1.28671
1.59502
1.54654
-0.065598
1.57549
1.8248
1.54427
-1.40599
-0.018917
0.636681
1.07508
-1.27712
-3.92676
-9.187
-1.61275
-4.65854
0.0350538
-0.239568
-0.0382564
-2.89549
-0.99935
-9.07627
-1.18552
-2.43667
0.818922
-4.83965
1.68298
3.26978
0.810241
-2.2895
0.949164
0.461512
0.363915
0.0119314
-1.66616
-13.255
0.136434
1.89705
0.00359705
2.40178
0.019663
1.54382
0.860746
0.533623
-3.68181
0.204536
2.82921
-3.45642
1.62179
1.56884
2.15473
0.142596
1.92564
1.32287
-3.25846
1.4705
-4.40959
-4.33182
1.96916
1.48233
-2.05325
0.441368
1.99821
-0.998516
-8.9619
-0.031018
-0.00355177
1.42134
1.04898
1.68756
1.05884
1.13574
-2.41802
-1.26913
-1.39004
1.66593
2.89153
-1.87578
-3.92337
-3.64292
1.16507
0.0934726
0.10447
-0.0882947
0.363239
0.849015
-1.9323
0.349351
2.62527
0.924125
0.389553
-3.07012
-6.05704
-2.79438
-4.25761
-3.49447
-6.41414
1.94929
1.04646
-1.55834
2.64182
-0.00240281
-4.69773
-2.29002
-4.34368
1.43031
-2.85219
0.759412
1.27003
-0.0346293
-1.40306
-0.66027
-4.33378
-5.4722
1.79013
-8.61931
-0.177647
-4.55723
1.57075
1.6046
-5.6735
1.88677
1.65241
2.26614
2.42228
1.46578
0.287818
2.8983
-4.6435
1.16588
-0.478367
-10.2773
1.99201
-8.1641
2.45311
0.965586
-1.41507
-3.97953
-3.676
1.7403
-9.50011
-3.83372
0.100405
-0.605316
0.384864
1.16298
0.504457
0.734857
2.66246
-2.90466
-3.70501
-0.231802
1.24816
1.39305
-3.25182
3.23512
-0.201953
-1.38537
1.28361
-1.1734
1.56743
1.34282
1.60599
1.50622
0.432169
0.418629
1.2988
0.333625
-1.99357
-0.0172358
1.38264
1.66579
1.97303
-2.6531
-0.0144284
0.0512777
1.14323
0.418554
-8.68657
1.44754
-3.72442
1.47013
1.65893
-4.30815
2.36363
-7.55192
2.78611
1.52668
-9.78751
0.00316929
-0.155052
0.996816
1.72117
-10.9391
1.96237
1.59246
0.105618
0.00417211
0.304578
0.0148714
0.0872464
-4.47798
0.399977
-5.02145
1.57994
-4.0264
-1.35133
-1.36472
1.94879
2.06479
1.14065
-4.04566
0.989322
-0.373574
0.0562655
1.07778
-1.96347
-2.40939
2.60067
-0.424104
-0.0348325
-1.8479
-4.3252
-1.75846
1.65503
-4.40654
-0.937071
1.72097
0.618691
1.64304
-6.18023
0.583126
2.7013
-2.4065
1.65094
0.421288
-1.81792
0.77009
0.345047
-0.438065
2.73824
1.5712
0.114229
2.72763
1.86947
1.96957
-4.31414
-4.00733
0.354062
-1.528
-1.54672
-2.7043
-1.25364
-2.57392
0.929534
0.517198
0.437731
0.633793
-1.84413
0.633227
1.7075
-4.38266
1.25772
1.16913
1.60241
-0.373692
-0.051851
-5.75719
-4.3419
-6.13982
-1.07862
1.69802
-10.1513
2.26794
-6.12072
1.57272
0.336798
-0.246639
-0.508296
1.45883
0.979664
0.601516
1.11749
0.541397
0.348392
2.10049
2.02341
-3.56872
-4.19864
-1.1527
1.51292
0.291545
-0.104378
-2.18794
0.239592
-0.476585
-0.0841482
1.12787
0.810878
0.479262
0.97645
0.247308
-0.164844
-12.0339
2.01443
-5.87569
1.43561
0.00121127
1.46441
1.52402
1.09847
1.18342
-0.947827
-6.00942
-0.238439
-3.69225
-8.46781
-6.73543
0.265928
-2.02524
1.41086
0.155091
1.58637
-1.50061
0.293009
-1.99271
-0.193495
1.49193
-4.50395
1.32908
0.380892
-12.8256
-1.56802
-6.14305
0.920337
1.69594
-0.167464
0.312634
-3.26114
1.53356
-0.408685
0.41128
-5.80819
1.87359
0.632557
-0.0224441
1.61682
1.36309
1.73192
0.751255
2.07539
-2.51894
-0.750996
-0.99788
1.08656
1.18607
0.399676
-0.894486
-6.97857
-8.20243
0.452309
-0.0499034
-9.72752
2.62839
-2.32287
1.64713
0.887348
-4.25607
-0.226245
-0.142506
-0.274951
0.429912
0.272714
1.56844
-0.2594
1.59401
-2.06653
-0.204729
-2.39626
0.242466
-7.40332
1.68428
2.69045
1.66976
0.19244
-0.67614
1.28942
-4.36013
-0.584986
-0.0773636
-0.466915
-4.49432
-9.71003
-8.24761
-1.50183
1.10407
1.14056
-2.38586
0.379861
1.77315
-1.03479
-1.88538
1.73775
-0.22165
-5.64259
0.00556606
-0.137969
0.00335451
2.64209
-0.0817779
1.14461
-1.17724
-0.75713
-0.995948
1.26843
0.266911
0.914294
-0.780767
-1.44845
-0.114962
-0.148476
1.84525
1.14815
0.534561
-0.865756
-1.08636
2.7819
-2.62047
1.57949
1.6811
0.324288
-0.271208
0.597366
-3.74992
-0.259214
1.49215
1.14864
1.32178
-9.39397
1.74922
0.443343
2.27272
-0.0614139
1.51543
1.93934
1.44498
0.364191
-5.61077
0.744624
-4.27874
0.856325
0.951913
1.73124
0.366713
2.25931
0.299718
2.43656
0.221857
1.73145
0.0589412
0.926483
-3.97518
1.56291
0.573648
0.926751
2.52529
1.61371
0.405043
-1.19771
0.722552
1.55351
-0.189364
-4.09912
0.952014
-0.11563
1.95217
-5.67301
2.31648
0.63914
3.30555
2.46046
0.592309
0.377668
-4.42961
0.319701
2.56892
0.103113
0.151296
-0.39962
2.75442
1.03908
1.05026
2.43189
-0.832593
1.61449
-0.899034
1.62117
-0.160245
1.44829
1.43962
1.96208
-0.221305
-3.91424
0.426964
-6.10307
0.536975
-0.83663
-0.0620706
2.16131
2.17592
0.010073
-0.288868
-0.795317
1.80615
1.07437
1.16847
1.15796
-0.656696
-3.71209
-4.05257
1.65052
-2.05983
-0.812447
0.590024
0.712091
0.612591
-1.16152
2.77543
-1.97533
2.26824
-0.438487
2.61345
-1.69959
0.367358
-0.282263
-0.0385264
1.12291
1.58307
0.249452
-0.558691
0.232465
-1.10045
2.09464
-0.147177
0.228846
-2.08435
-0.175589
-0.379773
1.65244
0.149509
-0.48161
-0.0740875
1.59532
2.90592
-6.22947
-0.147568
1.21556
-0.356004
1.01086
-0.173612
0.536518
-0.336932
-3.90581
0.151576
-3.81739
-0.547651
0.0881756
-2.88033
-9.7487
0.316247
1.35959
1.54376
1.46752
2.79779
-6.30434
2.72921
-3.32261
2.56444
-11.5498
-1.01392
2.68313
0.88839
-6.40197
1.18544
-0.227241
1.37158
-2.12119
-4.4947
0.28868
-1.57056
-2.09917
-0.0023561
-0.502314
0.858389
1.67647
-12.6422
0.918318
-2.02808
0.41394
-2.04702
-0.184468
0.56712
-2.18851
-1.62497
2.26211
-0.121542
2.42489
0.520885
-4.47117
0.811837
-0.887412
-0.299381
1.45403
1.83029
2.90965
1.34462
1.50914
0.173544
-2.88506
2.81582
2.9215
1.75524
-0.677005
-8.87936
-4.27991
1.19031
0.537517
0.421978
1.57331
-3.09692
-0.157921
-4.41512
2.50656
0.469936
0.414522
-5.7359
1.13648
0.80713
3.18737
2.99632
1.19444
0.557647
0.117388
-2.88731
0.937935
3.0649
-0.354042
-0.269698
0.693035
0.003778
0.347736
-0.0325473
-0.270353
0.324634
0.345286
0.612961
-0.0616724
0.748768
2.05948
-0.465991
1.53826
-6.41106
-0.388623
2.56986
-4.22195
0.438235
-0.500883
0.923871
0.660695
-5.73248
-0.69747
-0.492262
0.41105
3.23204
-3.58734
-2.4759
-7.99914
-0.492379
-0.647362
-0.523072
-5.30616
-2.59184
-0.0236118
-2.44856
-0.806284
-2.13549
0.648433
-0.0852033
0.370136
3.14906
0.43234
0.425998
-0.549803
0.54651
-2.82296
-1.1286
2.22985
1.49656
0.433636
-0.0627952
1.33068
1.58234
-0.37705
-9.25571
-0.0969821
2.23411
-1.20336
1.53748
0.278882
2.31779
0.240549
-7.15574
0.430876
1.67831
-1.28242
1.50832
-0.830778
2.99087
-5.24751
-0.174295
-4.89389
1.01667
-6.20525
-1.18024
-5.5511
0.202192
-0.101218
-10.4712
-2.24821
-0.352523
0.412862
-3.59691
-0.838808
1.07711
-4.34961
1.0631
-5.96501
1.68628
2.77851
1.07976
-2.82171
1.24692
0.146929
0.428082
-0.397681
-0.453607
-4.35802
-0.0129216
-1.59988
-0.128333
0.26716
-0.463973
-1.6349
-4.07284
0.666186
1.6241
-0.861412
-6.07601
-0.246787
-0.0670497
-0.207308
0.615081
-2.02776
-6.3901
1.73526
-1.72009
0.195345
-1.89667
-4.2588
-4.8163
-6.50818
3.21241
0.388407
-1.6066
0.837769
2.6657
2.57635
-8.05928
-0.920652
1.5859
-0.153833
0.00217108
2.71602
0.693462
0.903463
3.24308
-0.092078
-0.420467
0.486385
2.34515
1.64191
1.27508
2.11669
1.27524
-0.0226425
-0.0478364
0.955676
0.380651
-4.07191
2.7004
-0.147711
-0.383869
-0.0546237
-3.10279
0.521056
-5.90821
-1.04982
0.406201
1.35497
1.72853
1.4891
-4.36039
2.37201
2.61792
-2.59345
0.795954
-0.302449
-0.0484235
0.415218
1.13368
-1.92774
-1.03727
-0.329144
2.92103
-4.40098
1.57257
1.49868
1.84289
0.697259
1.01693
-0.35322
-0.0106804
0.236561
-0.250908
-4.20332
-1.93029
-0.0435539
-4.84317
1.79575
-10.2785
-0.176929
0.608476
-2.83881
-6.44643
-4.51344
1.22321
-0.888124
-0.0273292
0.958952
-8.19526
0.437668
-2.30757
-0.298874
1.63505
-4.51154
2.75964
-0.0490716
2.96276
0.000397955
-0.0633829
0.207473
1.47971
1.03321
-2.6176
-0.430814
0.0452375
0.19556
0.72556
3.26465
1.85098
0.169676
-1.13133
0.438887
0.32476
1.48925
-0.266171
1.14397
-4.35366
-5.53925
-2.80344
-0.303378
-0.0179168
-2.86631
1.20587
0.797352
2.54764
2.8556
-4.27914
-4.35893
0.280326
-1.07553
2.65238
-0.682808
-0.175867
0.911101
1.2949
-4.66961
-0.496995
0.236502
-0.222487
1.00098
-3.58048
-0.373993
0.129504
-0.835576
-2.29386
-0.0955343
-2.3334
-2.10124
1.46292
-9.02528
-6.61075
-1.16576
0.466571
2.97861
0.592636
1.54296
-1.74529
0.565322
0.146395
0.294968
0.721125
-5.38031
-4.02861
2.63814
1.60718
0.236699
-3.0038
3.10492
-6.46935
-3.96
-4.03321
0.262337
-6.45639
-4.49373
2.31219
0.161104
1.13236
0.863577
-4.48244
0.45496
0.0112244
0.64961
-2.52448
0.270036
0.76726
1.33631
-6.3067
-3.76908
-0.758457
-1.60495
-1.25983
-1.19407
2.94175
1.22057
-9.80176
0.192477
0.634666
2.47469
0.500324
-3.93881
0.400054
1.98458
1.35411
-1.64851
1.5088
-0.565157
2.61039
-0.017137
1.68325
-4.9147
-1.48664
-0.0701127
-5.02937
0.306797
0.780323
-3.86147
-6.80101
1.65118
-0.78514
0.0839838
2.12888
1.37366
2.06957
1.53852
-1.49618
0.0110108
0.300821
1.27113
-0.000425936
1.71618
0.69809
2.61364
-5.02843
2.01106
0.0386137
2.74439
-4.33385
-0.754775
2.74192
-5.29698
0.639614
-4.38528
2.21726
2.67218
1.66587
-1.79223
1.59914
1.87077
-3.25939
0.975097
-7.08339
2.02308
-5.66001
-2.37357
-4.36513
-4.42446
1.83562
0.0696004
-4.44102
0.593945
2.65093
-0.309367
0.111236
-4.51907
-1.09607
0.815117
-0.606185
1.55772
1.23236
-4.29878
3.01635
-0.272679
2.29655
2.0355
-0.140219
-0.0398626
1.03768
-1.86757
-0.862456
0.964339
0.783556
-0.237918
1.22662
-3.84764
2.53453
1.7629
0.436037
-1.25576
1.40315
-2.63817
1.20215
1.86254
0.3254
-0.035059
1.81933
1.41909
-1.05434
-2.87625
0.675476
1.50318
2.61247
-3.27462
2.79344
2.92293
2.86122
-0.657238
1.80049
-5.3578
1.58522
1.88601
2.03564
1.4939
2.15957
3.17582
1.49407
-3.52728
-0.96167
-4.05678
3.1531
0.635336
-0.822112
-5.88997
1.64367
2.39366
1.32621
0.408953
-0.398505
2.29988
-2.44254
1.37272
-6.19341
0.940977
-0.167718
-0.424456
0.78989
-5.68196
-6.35306
-1.90232
-1.4918
-0.0132141
1.76506
0.0126957
0.217983
1.23505
-3.70104
0.326508
-0.0717096
-3.65667
-4.67077
-3.76798
2.06569
2.35381
-6.10587
1.05861
1.95507
2.05356
0.0121847
-13.6676
1.4791
-3.83106
2.10941
-3.68637
2.05082
1.22565
0.48428
1.95681
0.865686
1.90658
0.436317
0.960317
-1.26129
-2.83849
-4.05623
-0.189628
1.86892
-11.1288
-5.91394
-9.76281
2.40744
1.8489
0.854938
0.794006
2.24491
-2.04879
1.24167
0.0274695
-1.23404
1.24786
-7.38966
-4.37225
-1.10425
-4.44796
-1.01904
-10.4123
0.00237715
-4.36831
-2.87603
0.997571
2.70058
2.96752
2.52601
-12.2482
1.3925
-5.09483
1.23416
2.32834
0.519485
1.83445
-8.49574
0.450995
-1.34434
0.132509
2.02148
-0.608239
1.52718
-4.33211
-0.109645
-4.58627
1.76
1.52045
1.60059
-4.41109
1.25159
-2.04097
-4.5102
-4.58246
0.413806
2.66843
-2.45827
-1.61106
-6.54771
1.39917
1.56281
-0.26007
1.1681
-4.35643
2.28477
2.27969
-5.17014
-0.0505602
2.13624
-7.74312
-7.04855
0.258478
1.993
2.2161
-4.9746
0.563681
0.162387
2.65919
-4.13514
-7.28682
0.0995642
2.4194
0.236529
-1.29388
-1.11046
1.95537
1.37628
1.98332
0.0511498
-2.22729
1.50677
3.11059
-2.87404
0.949062
0.19399
-3.91472
0.228788
0.475932
-6.13358
0.514047
-3.95279
1.2073
-3.10697
-2.34357
1.80021
2.18052
1.25159
-1.74843
-6.23441
1.5055
-4.35157
-0.00720535
-1.10693
0.577365
-4.00169
1.82309
1.52883
0.192773
1.36065
2.54919
-1.86109
0.78732
1.72349
-4.62795
1.18258
-0.423631
0.538903
-0.183616
1.38639
0.0019048
0.45023
-0.746476
-2.03094
1.99932
-0.0950511
0.501224
-8.62623
-0.824225
1.61155
-4.37024
2.84299
-4.43428
-4.5175
-1.6255
1.97929
1.50461
1.87423
-3.95193
2.42435
-7.69111
0.706841
0.168857
-2.7104
1.54698
0.559173
-0.837502
0.69398
-3.99152
1.39817
-4.36313
-8.2982
0.0073755
-3.5303
-3.35739
1.00165
2.53451
0.00661246
-5.35319
1.82599
-2.37566
2.23168
-0.0627029
0.290571
1.21853
1.62755
0.606046
-1.81336
-0.548353
0.198105
0.683242
0.856241
-3.11644
-6.936
-0.148522
0.254696
0.275625
3.1874
1.39556
1.57068
2.23853
0.553132
1.75646
-7.19262
-3.60032
-10.2885
1.60194
3.10148
1.24849
-0.831257
2.02324
1.03998
1.09269
-0.050095
0.206942
0.674105
2.85283
-0.955128
-2.2295
2.36003
2.06175
1.28482
1.36835
1.76281
0.9105
-2.40365
-11.7505
1.49145
-3.10379
-2.81364
1.47726
-11.3991
-1.31055
-0.303609
1.36577
1.43431
1.52171
0.217421
1.8862
1.9338
0.385857
1.60913
1.37237
1.65055
1.45598
0.454678
0.577613
-0.272118
1.93588
1.57275
0.422866
1.01956
0.192112
-0.193252
2.51827
1.68866
0.00660147
-6.44049
0.428053
1.74478
0.633797
0.732223
-0.173297
0.202502
-5.52541
0.30439
-6.3968
-0.0714594
0.582318
-1.30007
-5.03266
-4.4046
2.29854
-6.05393
-3.58793
-7.44868
2.57483
-2.63344
0.423604
0.619014
-4.39948
1.48661
1.54346
0.464782
2.12189
1.04467
0.260933
-3.98966
-6.69122
0.00720955
1.91112
0.494482
-4.93541
-3.99889
-3.20038
-3.81012
-7.28697
-2.36626
-0.675466
0.826711
1.58366
1.79779
-2.47584
-0.00569748
2.14685
1.63185
-5.00978
0.221133
-4.03791
0.582186
0.180172
0.69848
1.44414
-0.545387
-3.09808
-4.25576
0.711552
-9.26829
-3.93261
0.0696974
-12.785
-4.29762
-4.41398
-7.46855
0.0658996
-3.9268
0.596068
-4.70538
1.6051
1.48948
0.245386
2.00984
-10.3981
2.52389
-2.0876
0.327559
-0.993761
1.37735
0.766179
-2.86687
-3.76141
1.64918
1.9634
2.64537
-6.16572
-4.0826
-12.0312
-0.602996
0.0049164
-4.38216
-0.168629
-4.36454
0.746364
-5.10827
0.647456
-0.690909
-0.340855
2.32237
1.11426
-0.499258
-0.107594
-1.59159
-3.50696
2.16215
2.95709
-3.50336
1.64144
1.30189
-0.000611389
-2.01398
1.95292
1.94869
-2.35781
-2.09498
-10.6931
-11.6063
-0.874705
-4.31471
-0.677508
1.29037
0.0914272
1.7843
-4.66038
-4.39514
1.55593
-0.745645
-4.37585
0.371121
1.44715
-4.44602
-0.393697
-4.35814
-4.45027
-4.35557
2.69
-3.74639
-0.00314171
-5.60583
1.59584
-4.65625
-0.418102
-2.46159
-6.20281
-1.25708
1.5554
-0.00692253
-4.3797
1.15815
0.0139425
-4.95029
-3.03548
-4.42523
0.636122
0.925227
1.58003
-3.57417
2.19228
-3.91765
0.00191611
-0.120771
-1.93463
-11.6752
-4.36305
-6.37618
0.422082
0.893951
-0.0393507
-0.00912441
-1.83604
1.15146
-7.92278
1.68743
-4.66226
1.17373
-1.03536
-1.75604
0.343023
3.19786
-1.91323
-4.52586
-2.72013
-2.25715
1.60342
-0.11393
0.381852
-0.401628
-3.49152
-6.14525
-2.90607
-4.34395
1.36239
-4.18566
0.448554
-4.08836
0.141578
1.16614
-0.162608
0.120633
-0.504628
1.83283
-4.45205
-6.25129
2.00933
0.435651
-4.58011
-0.0397256
-3.8939
-1.84701
-0.188682
1.83437
-8.47504
0.943371
-3.92023
-3.89421
-4.74628
-4.12066
-3.9058
0.28412
-1.65727
1.53199
0.890563
-7.12703
0.174531
-11.7861
1.96476
2.1667
-4.46122
0.471456
1.55993
1.59733
0.719545
-6.7545
-4.59402
-3.85076
1.60312
0.702153
-2.52587
-3.495
0.388284
1.93796
0.0498432
0.36147
0.353037
1.99546
-1.38487
-1.49064
-0.172293
1.45616
0.529759
0.279948
2.21294
1.92243
-0.0691189
-10.6007
1.79186
1.0187
0.187952
0.996114
-2.00964
-5.629
-3.8025
-9.23155
1.94887
1.32378
-0.463939
-1.15993
0.227056
-1.00222
1.43706
-11.9058
0.623915
1.85667
2.03232
-5.01066
1.49478
0.982949
1.39838
1.53946
0.151436
1.57058
-0.00122388
1.61711
1.16961
1.65712
-5.87473
1.89946
1.72937
1.50071
1.26571
-6.33467
0.689609
-0.81843
-1.69023
1.90553
2.27608
-13.7615
2.09028
-7.96161
-2.98053
1.46452
1.5891
-2.48662
0.0943844
-4.15444
-12.1536
-0.667657
-6.69706
-2.7306
-0.0605526
1.17399
2.92993
1.71449
-3.02413
-4.59548
1.36882
1.03784
-2.60177
-6.24196
-6.50476
-1.40943
-3.0037
-2.83008
1.55942
0.175372
1.00896
-0.00771238
-0.00358621
0.139648
-0.00225772
0.420386
0.2948
1.38607
-1.95026
-0.0246491
-1.70324
-8.86801
0.852704
1.07531
-0.357506
-0.426451
1.28834
-0.216137
0.896765
-1.51104
1.53708
1.09141
2.4005
1.57986
-7.43532
-0.101932
-1.19992
-5.89993
-0.164488
-0.182196
-0.703224
-13.2374
2.988
0.0138266
-0.329782
2.17124
-6.44671
-0.504751
-2.07026
-6.10367
-4.04417
-0.342662
-1.20027
1.15757
-1.10012
-7.33594
0.39259
-6.66871
-1.25426
-2.43232
0.0947437
1.37958
-5.42098
-6.6644
-1.30885
0.50175
-2.08547
1.61702
2.24007
-6.07195
1.65102
0.524557
1.29601
2.58797
-6.32802
1.17201
0.676123
0.946788
2.06864
0.0238685
-0.599591
-2.19651
1.55449
2.2371
-9.24288
-0.0113247
-3.12544
-2.17636
1.04187
-6.72353
-2.10944
-7.49002
0.902317
-3.66072
0.348224
0.42899
1.49226
0.290703
-3.4265
0.100721
-0.190655
-0.841896
2.43837
2.82263
1.90157
3.08067
1.5729
1.28275
1.43822
1.12438
1.67822
-3.97038
1.40544
-0.112072
-2.9647
2.24109
-0.76978
-1.76055
2.73832
0.303511
-9.26745
1.05521
0.946734
1.90054
-2.22982
1.5523
2.61128
-6.33284
-3.00083
-1.77434
0.900655
-4.75664
1.78348
0.0493184
1.94027
1.5856
-6.65716
1.65879
-0.870983
-3.87758
-3.67542
-11.6422
1.61951
-2.41637
1.6563
-0.245528
-4.35955
0.0967455
-0.0974951
-0.819808
-7.9185
-4.17448
1.70292
0.569433
-4.38474
-0.265693
1.26464
0.395472
-13.7145
1.02398
-0.122296
1.0102
-4.57205
1.20076
0.677943
0.28754
-0.424036
1.31506
0.783755
0.742536
-4.51382
3.02837
-1.17959
-4.47578
1.32048
1.09488
-4.34167
-1.75546
-5.6592
0.476107
0.463647
-2.05583
0.0738635
-0.129756
3.07073
0.192592
-7.02105
0.0803962
-1.28398
0.574047