/*--------------------------------*- C++ -*----------------------------------*\
| =========                 |                                                 |
| \\      /  F ield         | OpenFOAM: The Open Source CFD Toolbox           |
|  \\    /   O peration     | Version:  2306                                  |
|   \\  /    A nd           | Website:  www.openfoam.com                      |
|    \\/     M anipulation  |                                                 |
\*---------------------------------------------------------------------------*/
FoamFile
{
    version     2.0;
    format      ascii;
    arch        "LSB;label=32;scalar=64";
    class       surfaceScalarField;
    location    "8";
    object      phi;
}
// * * * * * * * * * * * * * * * * * * * * * * * * * * * * * * * * * * * * * //

dimensions      [0 3 -1 0 0 0 0];

oriented        oriented;

internalField   nonuniform List<scalar> 
20045
(
0.25106
-0.275586
0.0245265
-0.535883
0.194746
0.341136
0.198651
1.01653
-1.21518
-0.212385
0.287983
-0.0755984
-0.443198
0.408325
0.0348734
-0.31353
1.13548
-0.821949
-0.484837
0.165394
0.319443
0.0289452
0.224758
-0.253703
0.246271
0.209496
-0.455767
-0.407166
-0.0512776
0.458443
-0.234734
-0.166752
0.401486
1.11691
-0.534377
-0.582529
0.181965
-0.182613
0.000647632
-0.625413
0.548036
0.0773764
-0.127625
0.504205
-0.376579
-0.534454
0.127289
0.0268662
-0.0980819
0.0712157
0.20205
-0.261131
0.0590809
-0.8126
1.19911
-0.386513
-0.377958
0.0212824
0.356676
-0.315451
0.249633
0.0658187
0.0622649
0.1197
-0.0714634
-0.464419
0.62106
0.530578
-1.15164
0.406276
0.106137
-0.512414
-0.562614
1.18367
0.0501369
-0.0544162
0.0042793
-0.732543
1.37366
-0.641113
0.830422
0.159403
-0.989825
-1.39551
0.755257
0.640253
-0.208574
0.320473
-0.111899
0.679242
-0.499307
-0.179935
-0.317395
0.849885
-0.532491
1.27658
-0.738738
-0.537839
-0.287515
0.31646
1.00351
-0.483483
-0.520024
0.615381
0.065005
-0.680386
-0.0300585
0.187409
-0.15735
-1.01823
0.497224
0.521002
0.303459
0.26659
-0.570049
0.0102563
0.229634
-0.239891
0.0656925
-0.0944649
0.0287725
1.06545
-1.06628
0.000837377
0.736951
-0.274342
-0.462609
0.343659
0.393292
0.503282
0.613624
-0.0932328
-0.0167442
0.109977
0.657719
0.233917
-0.891636
0.757587
-0.142206
0.105718
0.992911
-1.09863
0.653842
-1.0996
0.445753
0.91804
-0.651711
-0.266329
-0.587974
-0.40928
0.997254
-0.0463512
-0.154069
0.20042
0.353993
-0.245573
-0.10842
-0.348146
-0.0950519
-0.296528
1.08006
-0.78353
0.780144
0.10874
-0.888884
0.666726
-0.984121
0.708819
-0.500767
-0.208053
-0.271315
-0.146976
0.418291
0.311265
0.397554
0.201434
-0.865906
0.664472
-0.187164
-0.128287
0.836412
-0.183971
-0.652441
0.686827
0.0524029
-0.73923
0.0950448
-0.278245
0.1832
-0.335274
0.0744441
0.260829
0.434548
-0.188277
0.776152
-0.789732
0.0135802
0.224841
-0.129796
0.12726
0.226733
-0.12882
-0.531132
0.659952
0.0588637
-0.0993078
0.0404442
0.745791
-0.200199
-0.545592
0.698774
-0.995302
0.0523191
0.693472
0.246124
-0.373749
0.129729
-0.0925706
-0.0371584
0.132794
-0.624165
0.491371
0.51605
0.579313
-1.09536
0.447285
-0.352537
-0.0947482
0.652894
-0.451459
-1.34146
0.227941
1.11351
0.00718784
0.243872
-0.256718
0.295289
-0.0385707
0.292398
-0.653805
0.361407
-0.801067
0.0318027
0.769265
0.512689
0.0841671
-0.596856
-0.415193
0.379471
0.0357212
-0.68514
-0.0951285
0.780268
0.377462
-0.0767816
-0.300681
0.204438
-0.295145
0.0907066
-0.0870596
-0.405351
0.492411
0.299269
-0.320151
0.020882
0.766494
0.155131
-0.921625
0.0463196
0.00381727
-0.0518926
0.296704
-0.244812
0.62155
-0.318091
0.0552656
-0.124848
0.0695822
0.679266
0.324241
-0.217763
-0.407649
0.29899
-0.350883
-0.190685
0.970829
0.00302115
-0.259739
0.132025
-0.0767592
0.225583
0.60858
-0.834163
0.529634
-0.94186
0.412226
0.0364962
-0.219371
0.189903
0.0294685
-0.103429
0.132402
-0.0289723
0.573028
-0.451383
-0.121645
-0.252086
0.205735
0.623028
-1.23611
0.613078
-0.0902205
0.161029
-0.0708084
0.0229696
-0.127765
0.104795
0.570964
-0.164687
0.894687
0.381889
-0.595518
0.466698
0.626554
-0.853416
0.226861
0.235281
-0.0332311
-0.411372
0.140057
-0.395256
0.320159
0.0750969
-0.488592
0.0525191
-0.299493
0.246974
0.628733
0.289306
0.552882
-0.724888
0.172006
0.810814
0.0934397
-0.904253
-0.991823
0.721136
0.270687
0.094139
-0.87703
0.782891
0.953802
-0.325069
0.161244
-0.177988
0.0833194
-0.0292904
-0.054029
-0.0336431
0.0254147
0.00822836
0.571754
0.40008
-0.971834
0.59716
-0.572249
-0.0249107
-0.168767
0.0948862
0.0738811
-0.15804
-0.0613307
0.972306
-0.345752
-0.335708
0.351626
-0.0159175
0.622452
-1.18835
0.565894
0.16294
-0.750914
0.537863
0.227191
-0.765054
0.712141
-0.579347
0.958812
-0.134289
-0.824524
0.57561
-0.838924
0.263314
0.9777
-0.638549
-0.339152
-0.127109
0.21987
-0.0927609
-0.0522512
1.13071
-1.07846
1.07166
-0.241243
-0.824559
0.0252876
0.799271
-0.488666
0.395645
0.0930205
0.982822
-0.466772
0.161943
0.285342
-0.628706
0.775491
-0.146785
-0.884656
1.08331
0.00911684
-0.16563
0.156513
-0.0953467
0.125152
-0.029805
-0.0181981
-0.188973
0.207171
0.577612
0.288599
-0.866211
1.404
-0.705028
-0.698973
-0.225522
0.207324
0.342215
-0.649887
0.307672
0.0774443
-0.0117519
-0.842395
-0.451682
0.678305
-0.226623
-0.663245
0.476167
0.187078
-0.0113615
-0.0279631
0.0393246
0.455245
0.522455
-0.0164781
-0.017165
-0.0127447
0.0960641
-0.706507
0.0778018
-0.7359
0.930805
-0.194905
-0.670956
0.749077
-0.0781202
-0.561686
-0.436988
0.998674
-0.0733219
0.401194
-0.327873
0.447654
-0.454431
0.00677646
1.03633
-0.00787259
-1.02846
0.0113111
-0.760368
0.749056
-0.36078
0.898643
0.194362
-0.554747
0.360385
-0.575082
1.19811
-0.808632
0.5475
0.261132
0.0955787
-0.0895823
-0.00599642
0.523725
-1.26479
0.741061
-1.07691
0.344363
-0.588365
-0.459917
1.28713
-0.755347
-0.531783
-0.293675
0.303931
0.128111
-0.13559
0.00747921
-0.673909
-0.12239
0.796299
-0.94712
1.32469
-0.377574
0.956001
-0.72558
-0.230422
0.0730185
-0.240029
0.16701
-0.32441
-0.474975
0.799384
0.178687
-0.413421
-0.716829
0.810968
-0.720561
-0.229387
0.949948
0.0912216
0.0248829
-0.116105
0.152434
-0.604116
-0.297552
0.0889786
0.871313
-0.0604989
-0.141812
0.111753
-0.143127
0.177628
-0.0345007
-0.487544
1.06516
-0.863381
0.538972
-0.0487084
0.123717
-0.0750087
-0.712087
0.139184
0.572904
0.281821
0.67418
1.33312
-0.809392
0.818239
-1.4393
0.621064
0.409034
-1.28564
0.876602
0.0348538
-0.412812
-0.49179
0.717372
0.654944
-0.968475
0.52237
-0.914602
0.392232
-1.5017
0.862654
0.639045
-0.0190787
-0.396114
0.182205
0.144213
-0.326418
0.734749
-0.26224
-0.472508
-0.0979817
-0.787144
0.734893
-0.256402
-0.0793062
0.68344
1.05955
-0.844729
-0.214819
-0.0104889
-0.127787
0.138275
0.664032
0.136923
-0.800955
0.0782417
-0.39012
0.311879
-0.275177
0.818382
-0.543205
-0.437644
0.730043
0.576452
-0.38209
-0.0778267
0.250956
-0.173129
1.01054
-0.388092
0.0908066
-0.00798904
-0.0828175
-0.176822
-0.193096
0.369918
-0.105425
0.109507
-0.00408175
1.26996
-0.775587
-0.49437
0.247426
-1.19455
-0.115287
0.0098616
-0.861795
0.266866
0.594929
1.36157
-0.511684
0.243538
-0.979438
1.44124
-0.603722
-0.837519
-0.0120736
0.103295
0.887228
-0.501125
-0.386103
-0.612697
0.135187
0.477511
-0.925171
0.925316
-0.000144895
0.444115
-1.14171
0.697596
0.0283192
-0.0305945
0.00227538
-0.463707
0.624307
-0.1606
-0.0230057
0.350874
-0.327868
-0.146556
0.0563352
-0.120576
0.0171465
-0.560199
-0.381661
0.410014
-0.883999
0.473984
-0.320702
0.40615
-0.0854481
0.403943
0.275299
0.84676
-0.32439
-0.06771
-0.0276367
0.699309
0.66226
-0.49601
0.0201689
0.475841
0.407625
0.479603
0.386988
0.117217
-0.415703
0.0950013
-0.286571
-0.0327094
0.319281
0.0204712
0.0751075
-0.867387
0.59221
0.0764338
-0.286759
0.210325
-0.937567
0.906354
0.0312125
-0.339733
0.456125
-0.116392
-0.207216
-0.109578
0.316794
0.763924
-0.832928
0.0690047
-0.908734
-0.592965
1.26919
-0.803151
-0.466039
-0.0939531
0.0834642
1.23111
-0.786995
-0.495245
0.905259
-0.549932
0.100262
0.44967
0.906331
-0.243303
-0.663028
1.08511
-0.286749
-0.798363
-0.5017
-0.048232
0.841385
-0.499157
-0.342229
-0.165722
0.789144
-0.623422
0.281763
-0.954825
0.673062
0.190943
0.218726
-0.409669
-0.0686768
-0.00507213
0.0737489
1.30567
-1.10992
-0.195746
-0.516314
-0.475509
0.698839
0.360709
-0.859549
-0.0780176
0.147485
-0.324307
0.345573
-0.734273
0.3887
0.00359662
0.124515
-0.538483
1.11024
0.523055
0.746902
1.40419
-0.826007
-0.57818
-0.80464
0.575252
0.705238
-1.18849
0.483257
-0.628616
-0.0441017
0.672718
-0.271034
-0.151756
0.42279
0.556692
-0.214478
-0.180363
0.131655
0.446564
-0.0490028
-0.450304
-0.614452
0.841141
-0.226689
-0.166268
0.0231409
-0.123549
0.0457221
0.110044
-1.03522
0.357935
-0.795579
0.0836782
-0.179754
0.244017
-0.0642632
0.0170607
-0.229446
-0.487723
0.370696
0.117027
0.346155
0.226872
0.558956
-0.187599
-0.371357
0.486703
0.110457
-0.367259
0.712831
0.572478
-0.0597888
-0.210361
-0.501726
1.14032
-0.92651
-0.213806
0.751832
-0.83086
0.411645
0.419214
0.800135
-0.869345
0.0692105
-0.440053
0.352993
-0.115056
-0.0537113
-0.119619
-0.565521
0.30176
-0.545237
0.243477
0.420714
0.420671
0.678836
-1.12263
0.443792
0.247319
-0.540262
0.292942
-0.973003
0.171935
0.0196428
0.357819
-0.537909
0.816368
-0.278459
-0.248071
0.305475
-0.057404
-0.432937
-0.0519
-0.126036
-0.231186
0.357222
0.0843706
0.000804744
-0.0851753
-0.309422
-0.179243
0.371049
0.446541
-0.81759
0.827168
-0.419542
0.272929
-0.449191
0.00913795
0.473096
-0.225777
-0.66358
-0.145052
0.329518
-0.342023
0.0125052
0.968125
-0.310406
-0.473956
0.756684
-0.282728
-0.116282
0.135996
-0.0197142
0.71315
0.0215988
-0.402254
-0.332018
-0.521343
0.93852
-0.417177
0.614066
-1.1197
0.505634
0.586868
0.682322
-0.0471974
0.0421319
0.0050655
0.0924751
-0.721092
0.637507
-0.959849
0.322341
0.0660759
-0.0072122
-0.0855113
0.638393
-0.358915
0.71685
-0.787928
1.19696
0.184659
-0.997259
-0.838244
0.453568
0.384677
0.643244
-0.107259
-0.535985
0.938933
-0.17501
-0.532856
-0.522686
-0.454634
0.628599
0.00717681
0.205013
-0.21219
0.319623
-0.29834
-0.726901
0.641389
0.837698
0.227749
-0.792997
0.319041
1.04831
-0.349466
-0.328474
0.37888
-0.0504054
0.0288016
-0.628893
0.600092
-0.901069
0.166983
0.734087
0.727831
-0.727831
-0.40798
0.803737
-0.395756
0.391541
0.167415
0.64501
-0.34128
-0.30373
-0.96837
1.00736
-0.038994
0.339549
-0.0372755
-0.302273
0.262265
-0.105392
-0.156873
0.10925
-0.316466
0.16842
0.459973
-0.955218
-0.859531
1.01027
-0.150742
-0.285514
0.656563
0.105203
0.00998825
-0.115191
-0.0134452
-0.158381
0.171826
-0.3775
0.412354
1.32605
-1.06672
-0.25933
-0.0847989
-0.523681
0.60848
-0.232671
0.252477
-0.019806
0.126604
-0.274929
0.148325
-0.903315
0.323978
0.579337
0.192345
0.0956387
-0.395014
0.06654
0.00131228
-0.12231
0.120998
0.648712
0.656958
0.119348
-0.0141449
-0.0446723
-0.281053
0.325725
-0.512248
0.81532
-0.303072
0.00606042
0.102806
-0.108867
0.410713
-0.245319
0.643
-0.21028
-0.43272
0.0147427
-0.420094
0.190415
0.845919
0.439923
0.293901
-0.733824
0.465301
-0.407183
-0.0581183
-1.01276
0.188201
-0.403542
0.164362
0.23918
0.500773
0.682201
-1.18297
-0.63296
0.588858
0.0457512
-0.915715
0.869963
-0.12558
0.198599
0.109885
-0.111441
0.00155583
0.0309853
-0.317557
0.0197808
0.0199862
-0.039767
-0.67501
-0.186785
0.619891
0.0620147
-0.0460547
-0.01596
-0.123598
0.00731571
0.165133
-0.704638
0.539506
0.260244
0.534564
-0.794808
0.461124
-0.709238
0.867092
-0.157855
-0.721676
0.555954
-0.0299582
-0.024458
-0.383587
-0.279658
-0.256444
0.0649096
0.191535
-0.888979
0.376731
0.665535
-0.750334
0.430429
0.617876
-0.31402
0.306087
0.00793278
0.380252
-1.14937
0.769118
0.152381
-0.266815
0.114435
0.332112
-0.734366
-0.633062
-0.0378944
-0.313102
-0.0221715
0.0882615
-0.0951999
0.00693839
0.417312
0.00654929
-0.0246056
0.0180563
1.12235
-0.621576
-0.533261
0.867037
-0.333776
0.264807
0.182525
-0.447333
-0.356681
0.231101
-0.21651
-0.0399346
0.433902
0.211109
-0.19042
-0.662996
0.314318
0.0151992
0.611674
0.411205
0.161273
-0.960284
1.066
0.12768
-0.459633
0.331953
-0.0868714
-0.827449
0.914321
-0.231383
0.251424
-0.0200417
-0.395893
0.322571
-0.563751
0.845514
0.919409
-0.343799
-0.422487
-0.0652362
0.00664255
-0.413268
0.406625
0.411442
-0.973128
-0.12947
-0.459876
0.589347
-0.0966144
0.278179
-0.181564
-0.648615
0.0468863
0.601728
0.934634
-0.700718
-0.0145143
0.0834655
-0.0689511
-0.214257
-0.0184138
0.181191
0.364268
-0.545459
0.102765
-0.128714
0.0259488
0.58371
0.3339
-0.91761
-0.355676
1.12217
0.0813814
0.00298921
-0.277483
-0.596943
0.874426
0.304754
0.667552
0.958827
-0.698583
-0.352861
0.226825
-0.0940478
0.025371
-0.445777
1.15101
0.13137
-0.763923
0.632554
0.864026
-0.143308
-0.720718
-0.487367
0.699525
-0.212158
0.393838
-0.461485
-0.403253
0.864738
0.119868
-0.132365
0.012497
-0.281557
-0.487064
0.768621
-0.185768
0.172323
0.0344308
-0.0457922
0.507452
-0.789009
-0.703192
-0.211523
0.914714
-0.0603274
-0.484411
0.544738
-0.0145085
1.20687
-1.22796
0.0210976
0.20598
-0.140229
-0.0657509
-0.00565134
-0.308369
0.257214
0.235197
-0.321944
0.0509094
-0.815823
1.02423
-0.208412
-0.242036
0.31847
0.272618
0.439523
-0.812655
-0.253629
-0.0736072
-0.0491748
0.122782
0.533391
-0.122186
-0.198684
0.218362
-0.0196778
0.357015
-0.380021
-1.18786
0.599495
0.937785
0.197694
-0.121206
0.24781
-0.202245
0.467053
0.934643
-0.47467
-0.20516
0.00647646
-0.1102
-0.6167
0.190938
0.217006
-0.207889
-0.919599
0.0185298
0.00703608
0.209481
-0.0570998
-0.842226
0.621664
0.220563
0.654778
0.121374
0.187462
-0.0623789
-0.125083
0.286052
-0.261631
-0.0244209
-0.749799
0.266316
-1.04692
0.525573
0.355111
-0.0807708
-0.27434
-0.0208318
0.235054
-0.214222
0.997836
-0.00284062
-0.994995
0.151405
0.00905993
-0.160465
-0.136817
-0.258439
0.226348
-0.0219099
-0.0100679
0.0126977
-0.00262977
0.390902
-0.0464427
-0.34446
0.0148398
-0.0249077
0.815041
-0.65991
-0.0285739
-0.142069
0.170643
-1.02022
0.204394
0.0203026
-0.115189
0.414179
0.0281998
0.0338149
-0.0230055
-0.0447046
0.239571
0.166709
-0.40628
0.606247
0.230165
0.433871
-0.306191
0.194197
-0.171228
0.0696056
-0.317677
0.598401
0.0551923
-0.653594
0.537285
-0.0404573
-0.496827
-0.496713
-0.342211
-0.356755
0.0186782
0.338077
0.392147
-0.414451
0.0223037
1.11262
-0.0412013
-1.07142
-0.370443
0.0955801
0.274863
-0.49905
0.666484
-0.167434
0.59024
0.654076
-1.24432
0.302227
-0.449203
-0.27656
0.435251
-0.158691
0.214922
0.0955289
-0.310451
-1.18959
0.724291
0.465302
0.0124715
0.000226193
-0.845278
0.142087
0.302629
-0.185562
-0.117068
0.481945
-0.608182
0.126236
-0.0855274
-0.190059
0.183303
1.02356
0.820961
-0.139392
-0.681568
-0.844255
0.135017
0.339729
-0.55009
0.814551
-1.24513
0.430575
-0.0998589
0.282064
-0.000877782
-0.375544
0.330872
-0.158942
0.211461
-0.142893
-0.810963
0.953855
0.545833
0.685277
-0.745719
0.774957
-0.0292381
0.0920404
-0.00377888
-0.601627
-0.247431
-0.111503
0.124606
-0.0131035
0.503571
-0.119031
-0.38454
-0.00960442
0.134854
-0.12525
-0.0660892
0.548035
-0.774128
-0.0872332
0.861362
-0.718765
-0.252403
0.971168
0.465584
-0.346179
-0.119405
-0.184062
0.0165471
0.167515
-0.141665
0.0785648
0.0631006
-1.01514
0.048483
0.966657
0.0254237
0.184932
-0.210356
0.80423
-0.905441
0.101211
-0.513057
0.660989
0.38271
-1.0437
0.0113129
-0.122815
-0.0559525
-0.750377
0.806329
0.601034
-1.17612
-0.947948
0.824321
0.123628
0.1194
-0.0166346
0.740635
-0.468017
-0.047802
-0.230041
0.277843
-0.00929895
0.129367
-0.120068
-0.184361
0.892504
-0.708142
0.710837
-0.39145
-0.319387
1.03576
-0.979729
-0.0560331
0.763531
-0.271653
-0.491877
0.0425728
-0.221549
0.178976
-0.287277
-0.0122158
-0.926767
0.812377
0.11439
0.0530936
-0.979861
-0.275475
0.446788
-0.171313
-0.584772
-0.525152
0.184851
-0.159301
-0.0255497
-0.798301
-0.221916
-0.175389
0.117563
0.0578256
-0.188707
0.266949
-0.882559
0.854792
0.027767
-0.166089
-0.083674
-0.0156339
0.165057
-0.0136523
-0.594928
0.131221
0.130533
-0.155155
0.0246212
-0.641448
0.411031
0.230418
0.366187
-0.0266379
-0.238502
0.687298
0.0258516
0.349965
-0.113929
0.179877
-0.0659475
-0.0788233
0.526478
-0.615482
0.398674
0.216808
-0.0102775
0.022749
1.20229
-0.656456
0.984776
-0.604524
-0.236887
-0.147975
0.384862
0.520413
-0.986984
0.466571
0.554443
-0.61477
0.957893
-0.431841
-0.526052
-0.00365837
-0.519926
-0.0955559
-0.359787
0.882378
-0.522591
0.0221249
-0.370124
1.18836
-1.06641
0.268114
0.380068
-0.189125
-0.0837348
0.0584177
0.112476
-0.00296882
-0.491909
-0.494835
1.46299
-0.764211
-0.452374
0.343517
0.108857
0.0602429
0.202022
-0.658772
-0.41636
1.07513
0.222703
0.33399
-0.00413655
-0.135196
0.139332
0.820825
-0.241705
0.0453286
0.196376
0.661336
-0.0629349
-0.353075
-1.02808
0.168551
-0.207147
0.0103127
0.196834
0.59262
0.848621
0.460952
-0.440826
-0.0201266
0.981007
0.0547555
0.612884
-0.869522
0.256638
-0.828258
-0.0114489
0.839707
-0.753594
0.984469
-0.230874
0.130193
-0.0053257
-0.124868
-0.541793
1.14283
-0.19638
-0.311728
0.508108
0.0207953
-0.766514
0.241947
-0.098295
-0.143652
-0.958757
1.25129
-0.292528
-0.228719
0.537704
-0.308985
1.16192
-0.511971
-0.649953
-0.00671302
-0.590366
0.597079
-0.0984065
-0.0130341
-0.521654
1.11189
0.377921
-0.785901
1.09524
-0.481176
-0.177985
0.149412
-0.865778
0.0375196
1.18155
-0.502713
-0.0140994
-1.32736
0.243386
-0.0137518
0.366345
0.546566
-0.91291
0.544008
-0.125093
-0.418915
0.373808
-1.04583
0.672023
-0.128732
0.00895588
0.119776
-0.198471
-0.481889
0.680361
0.343208
-0.273602
-0.244741
0.0248201
0.219921
0.112241
0.279834
-0.392075
0.0749368
0.109914
-0.896603
1.04744
-0.150841
-0.234467
0.00308467
0.451922
0.202853
-0.654775
0.570562
0.606196
-1.17676
0.157201
0.486043
-0.0166511
0.975463
-0.000190414
0.785525
-0.785335
0.0189816
-0.0129212
0.0641614
-0.00719501
-0.0569664
1.28441
-1.08168
-0.202723
0.44598
0.511913
-0.131413
0.0802575
0.0511558
-0.283273
0.798944
-0.515671
0.0103039
0.149872
-0.160176
0.641955
-0.974645
0.33269
-0.342794
-0.643065
0.985859
0.842936
-0.178904
0.292446
0.251563
-0.42062
-0.0164706
0.437091
0.282213
-0.805894
0.189379
-0.465908
0.276529
0.178187
-0.0697359
-0.108451
0.0393639
-0.13777
-0.065412
0.590119
-0.524707
-0.169596
1.16251
0.7645
-0.616333
-0.148167
0.623993
-0.539826
-0.505886
0.151661
0.354225
0.129786
-0.471067
0.264223
-0.138219
-0.126003
0.057623
0.129839
0.138313
0.734889
-0.873202
0.219989
0.170913
0.120133
-0.838898
-0.436185
0.139175
0.29701
-0.327447
-0.230191
0.557638
0.47637
-0.236799
-0.838784
0.55327
0.240554
-0.193107
-0.0474465
-0.469139
0.901316
-0.432177
-0.428467
0.44321
-0.446791
0.51666
-0.0698687
-0.569608
0.939312
-0.369704
-0.0196054
0.197549
-0.177944
-0.299227
0.278395
-0.272646
-0.558465
0.889629
-0.331164
-0.546567
0.68575
0.497633
-0.508005
0.0103719
0.207032
0.204537
-0.411569
-1.25044
0.820105
0.430339
0.0283275
0.125152
-0.15348
0.0770583
0.689277
-0.873638
0.930432
-0.410019
-0.341857
-0.496387
-0.698642
0.698452
0.490639
-0.0144716
0.380096
0.11166
-0.491756
-0.321308
0.296968
0.0243408
-0.201767
0.0302925
0.171475
-0.321479
-0.415251
0.73673
-0.0286788
0.46686
-0.438182
-0.736653
-0.270773
1.00743
-0.224854
0.431886
0.97991
0.304495
-0.875767
0.53344
0.342327
-0.422278
0.0612631
0.361015
0.00366985
0.170367
-0.21977
0.0494031
-0.598561
-0.897157
0.575678
0.126057
0.190976
-0.148404
0.192324
0.311247
-0.0304687
-0.846562
0.027703
0.271566
0.166487
0.0089966
-0.175484
-0.639348
-0.500637
1.13999
-0.144399
-0.276221
-0.497557
-0.102131
0.599688
0.112121
0.191396
-0.303517
-0.0115452
1.13049
-0.738904
-0.391591
0.173025
0.647935
0.106283
0.121132
-0.546946
0.425814
-0.594067
1.06387
-0.469801
-0.559493
-0.258567
0.81806
-0.448289
0.171729
-0.398466
-0.10742
0.858047
-0.42349
-0.434557
0.437953
-0.144559
-0.293394
0.375353
0.0504569
-0.42581
-0.158961
0.184384
0.195659
-0.311812
0.116153
-0.0161281
-0.0241877
-0.201335
-0.00643442
0.455473
0.402574
-0.364749
0.861973
-0.457605
1.21286
0.386013
0.0519392
-0.854996
0.295503
0.720048
-0.627573
-0.100452
-0.625396
0.126346
0.153308
-0.428783
0.720486
-0.691685
0.820811
-0.0206767
-0.188255
-0.106889
-0.265126
-0.0659511
0.331077
-0.287112
-0.0330397
0.707122
0.15217
-0.859292
0.0209602
-0.242732
0.221772
-0.0360786
0.434281
-0.875284
0.441002
0.87145
-0.0672205
-1.01274
1.08774
-0.0749975
0.205136
-0.130692
-1.06
-0.190441
-0.312928
0.839679
-0.0273023
0.465504
1.11003
-0.404964
-0.705068
-0.63738
-0.0355912
0.672971
0.243883
0.488423
-0.732306
-0.686124
0.0375093
-0.160217
-0.136122
0.296339
-0.465868
0.597238
0.129063
0.509103
-0.638166
0.102708
0.00872453
-0.111433
-0.967364
0.11942
0.847943
0.401019
0.529413
-0.236025
0.554732
0.208799
-0.28628
-0.117263
0.810249
-0.944537
0.302131
-0.288209
-0.0139217
0.459495
-0.157268
0.665079
0.0434193
-0.708498
0.763469
-1.22107
0.00668282
0.0216363
-0.271694
0.367782
-0.0960884
-0.816685
0.760733
-0.0203902
0.271229
-0.250839
-0.334446
0.197407
0.137039
-0.257781
-0.138112
-0.248408
0.588137
0.228492
0.126619
-0.141446
0.152759
-0.296719
-0.0934018
0.0150593
-0.0456538
-0.174976
0.168213
0.00676313
0.191625
-0.215886
0.0242612
-0.517548
0.317349
0.135305
-0.632863
-0.0276262
-0.266049
0.0175964
0.541811
-0.559407
0.306745
-0.339454
0.116319
-0.780255
0.663936
-0.265168
0.756419
-0.491251
0.18276
-0.797212
-0.380569
-0.024781
-0.923167
0.749722
0.713263
-0.734072
-0.104711
-0.456256
-0.374604
-0.398259
0.167074
-0.0468572
-0.00963504
0.0564922
1.29357
-0.70095
0.828249
-0.190742
-0.226055
-0.145098
0.371153
-1.19424
0.533593
0.660644
-0.447362
0.28061
-0.320407
0.981396
0.149138
-0.0868729
-0.356204
-0.403989
0.207609
0.387276
-0.39491
0.00763352
-0.115753
0.822875
-0.284018
0.406799
-0.122782
0.743758
-1.27601
0.574637
0.701371
0.196803
0.214854
-0.411657
0.553484
-0.216464
-0.33702
-0.505365
0.276646
-0.9008
0.00972504
0.365628
0.885293
-0.972165
0.388747
-0.173825
-0.390228
0.672441
-0.823181
0.585697
0.237484
0.688185
-1.02377
0.335589
-0.682692
0.722798
-0.0401059
0.414413
-0.493237
0.0124327
0.226327
0.239257
0.162026
-0.786191
0.346131
-1.04353
0.584889
0.458642
0.228353
-0.865733
0.650721
-0.0401865
-0.572511
0.132889
0.195892
1.01864
-0.33928
-0.679356
-0.133871
0.246806
-0.574253
0.140837
-0.9546
0.919008
-0.777944
0.316458
0.464937
-0.652314
0.36504
0.287274
-0.840703
0.513188
0.327516
-0.22515
0.11896
-0.215574
-1.00337
0.699767
0.3036
0.608794
-1.15059
-0.883791
-0.0128118
1.2207
-0.406153
0.179185
0.0970883
-0.276274
-0.0202955
-0.124841
0.145136
-0.213377
0.460136
0.526846
-0.398945
-0.25337
0.161365
0.181843
0.21756
0.339715
-0.557274
0.357995
-0.213782
-0.0369532
-1.05032
1.08728
-0.308127
0.390176
-0.750956
-0.579958
-0.422095
1.00205
0.231899
-0.308681
-0.659771
0.203764
0.456007
-0.0428679
-0.0477968
0.0906647
0.701823
-0.844716
0.0304732
-0.302167
0.528598
0.539178
-1.06778
-0.433771
-0.0186027
-0.802351
0.223748
0.578603
-0.985254
0.64246
0.460969
-1.05504
0.41386
-0.11173
-0.0413268
-0.00154112
-0.0251914
0.889217
-0.585693
0.730864
-0.145171
0.828027
0.00229213
-0.830319
-0.633038
-0.0116626
-0.168092
0.0635205
0.66431
0.108617
0.0273796
0.244056
0.537875
-0.146334
0.481227
-0.22292
0.0211525
-0.832116
-0.0504425
-0.847331
0.277003
-0.778127
0.160961
0.179665
-0.340626
0.774881
0.0491103
-0.823991
-0.0929997
0.087674
-0.334868
-0.712047
-0.757912
-0.111433
-0.483509
1.24698
-0.317791
0.435112
-0.117321
-0.915665
0.276317
-0.26593
0.48349
-0.249131
-0.593095
-0.490283
-0.299038
0.305814
-0.584134
-0.0573143
0.961438
-0.121759
0.579007
-0.254807
-0.3242
0.0757212
0.175235
0.235276
0.98682
-0.941069
0.00162345
-0.209356
0.300063
-0.468743
0.488912
-0.4283
-0.525491
0.204052
0.161543
-0.365594
-0.764802
0.0369716
-0.113645
0.737409
-0.623764
-0.058424
-0.954315
-0.668774
0.805697
1.42948
-0.630513
-0.798963
-0.129349
0.293711
0.753891
-0.396285
-0.357606
0.243043
-0.267231
0.0320494
0.032112
-0.186027
0.0413952
0.144632
-0.103103
0.483199
-0.544228
1.15302
-0.0266077
-0.132693
-0.257328
-0.0742781
0.331606
-0.0184021
0.720225
0.304572
0.323413
-0.627985
-0.364096
0.545287
0.40542
0.393524
-0.361395
-0.0747895
0.493621
-0.183113
-0.310508
-0.0507501
0.0355912
0.0151589
0.149782
-0.775549
0.625767
-0.884026
0.126114
0.20277
-0.499492
0.776494
-0.00704327
0.250086
0.114029
-0.431821
-0.916397
0.461764
-1.03055
0.325517
-0.420956
0.0434566
-0.38482
-0.552528
0.937348
-0.785385
0.1454
0.0544288
-0.199829
1.00152
-0.773584
0.781924
-0.538041
0.143532
0.499683
-0.643215
0.192933
-0.353151
-0.452539
-0.244455
0.696993
0.286071
-0.175569
-0.110502
-0.540502
1.16969
-0.629184
0.738788
-0.482245
-0.256543
0.635078
0.0223195
-0.657397
-0.527981
-0.748027
-0.298686
-0.0144159
0.367517
0.586285
-0.0119382
0.0793879
-0.0674497
-0.648479
-0.153871
0.642003
0.55711
-0.507692
0.607963
-0.10027
-0.26234
0.307669
-0.0287202
0.257697
-0.228977
0.113295
-0.397313
-0.115885
-0.887482
-0.86424
0.226081
0.0144729
-0.125514
-0.172038
0.0700436
0.693624
-0.763667
-0.473428
-0.121499
0.448708
0.37846
0.0625261
-0.220566
0.0112292
0.192863
-0.204092
0.0673384
-0.332244
0.264905
0.194104
0.262021
0.347481
0.787998
-0.367284
0.824694
-0.434518
-0.101163
-0.232689
0.333852
0.711949
0.0771945
0.0253863
-0.637325
0.438854
0.263717
-0.282119
-0.485322
-0.657731
1.14305
-0.618968
-0.575269
-1.07116
1.11113
-0.0399642
0.341921
-0.337396
0.271445
0.527138
0.26086
-0.318321
0.297604
0.0207172
-0.270681
-0.519052
-0.201286
-0.441507
0.642793
0.444737
-0.222034
0.462581
-0.273202
0.556872
-0.89174
0.437319
-0.331182
-0.498689
0.962057
-0.463368
0.661786
0.450541
0.291069
-0.74161
1.0918
-0.62132
-0.470484
-0.578808
-0.641156
1.07832
-0.43716
0.287021
0.291987
-0.261584
0.254541
0.401228
0.760696
-0.186586
0.166291
0.02122
-0.0146707
0.901212
-0.501132
0.44405
0.84952
-0.374436
0.194661
0.179775
0.195766
-0.432653
0.708721
-0.0436422
0.369519
-0.190334
-0.63964
-0.12279
0.762429
0.166579
-0.0290892
-0.13749
0.121951
0.0840297
0.129299
-0.882894
-0.257142
0.288127
0.650627
-0.572033
-0.0785944
0.152174
0.341447
-0.130677
0.0682978
0.236442
0.208822
-0.445263
-0.429139
1.09586
-0.122391
-0.534567
1.09345
-0.558883
-0.265141
0.377382
0.0643081
0.0384002
1.05034
-0.528864
-0.330685
0.25781
0.295674
0.273156
-0.300782
-0.143285
0.123679
-0.276095
-0.119913
-0.00368476
0.276344
-0.138736
0.760866
-0.62213
0.114244
-0.112932
-0.305577
0.0755363
-0.293041
-0.00564523
-0.846888
0.569405
0.223958
0.211293
-0.439719
0.146705
0.293014
0.253226
0.042063
0.769757
0.424339
-1.1941
-0.083543
-0.017039
0.100582
0.16024
-0.693501
0.946114
0.483363
0.733345
-0.663302
-1.08693
-0.0561244
-0.0187007
-0.00946029
0.430025
0.38315
0.399161
-0.782311
0.347868
-0.0411235
-0.030014
-0.293801
-0.0806354
-0.497037
-0.391219
0.521006
0.459569
0.407468
0.523347
-0.541622
0.0182743
0.161553
0.00665946
-0.0620155
0.223491
-0.0318667
0.671144
0.165204
-0.836348
0.44583
-0.0585543
-0.200662
0.122189
0.0784725
-0.309494
-0.00323089
0.312725
0.251606
0.581441
-0.833047
0.201993
0.274377
0.641589
-0.0160067
-0.23608
0.428194
0.109681
0.112645
-0.172742
0.0600963
-0.960932
0.501016
0.780677
-0.620398
-0.160278
0.0115706
-0.114581
0.10301
0.750873
-0.816285
0.514957
-0.0702205
0.380408
0.401517
-0.108747
-0.0111666
-0.370726
0.148537
0.222189
-0.539635
-0.100989
0.998884
-0.511176
-0.487708
0.463194
-0.0521225
-0.411072
0.383159
-0.646066
0.262907
-0.0858997
0.463727
0.00936903
-0.432495
0.904386
-0.471891
-0.220187
-0.150539
-0.427059
0.358833
0.0479665
0.685124
0.00285838
-0.687982
-0.28646
-0.0233429
0.18983
0.103103
-0.0228452
0.267787
0.0999954
-0.278271
0.268667
-0.00296242
-0.0441408
-0.121975
0.124996
-0.356129
0.499661
0.00945537
0.20755
0.216242
-0.255658
0.6596
-0.0501529
0.5735
-0.12358
-0.0954811
-0.206213
0.442655
-0.162432
0.867071
-0.704638
-0.740887
-0.104391
-0.689827
1.03646
-0.346632
-0.0722411
0.431074
0.279271
-0.0545126
-0.0173398
-0.211283
0.228623
-0.772652
0.243788
0.0924615
-0.106976
0.497191
-1.15596
0.363975
-0.960918
-0.597406
1.12798
-0.444682
0.456411
-0.24759
0.0112144
-0.571785
0.721567
0.000621971
-0.128408
0.132796
-0.478975
-0.0882249
-0.551045
0.63927
-0.322807
0.475467
1.28987
-0.846159
-0.443709
-0.194208
0.0604438
0.182834
0.0188445
-0.201678
-0.724022
0.13833
0.15595
0.0222373
-0.00544078
-0.102303
0.107744
0.414171
-1.104
0.0799378
0.400648
0.0295261
-0.430174
-0.961112
0.79868
0.118649
0.0321093
-0.150758
0.330116
-0.888581
-0.117464
-0.0016277
0.119091
0.15194
-0.0332911
-0.00486751
0.648901
-0.4917
0.534483
0.444326
-0.242332
-0.814176
0.234218
-0.603875
0.485692
0.118183
0.616487
-1.10181
-0.450122
-0.268736
0.718859
0.0428699
0.352775
-0.262259
0.224984
1.05274
-0.153985
-0.898755
-0.0116682
-0.820448
0.581904
0.0531732
0.363988
0.389902
-0.132067
-0.00312871
0.116446
-0.23906
-0.306177
0.0379773
-0.0339288
-0.00404848
0.0178413
-0.63833
0.620489
-0.067298
0.271611
-0.204313
0.398833
-0.957715
0.558882
-0.0947305
-0.477519
-0.0293246
0.0133717
0.606403
-0.304208
-0.168318
0.472526
-0.325958
-0.349051
0.390889
-0.229347
0.32831
0.0915194
-0.419829
-0.460453
0.0207343
-0.653825
-0.11345
-0.0253601
0.13881
0.134996
0.229899
-0.364895
0.37538
-0.777222
0.401842
0.0214724
-0.485892
0.152093
-1.11085
-0.342993
-0.86224
1.20523
-0.84636
0.0360181
0.810342
-1.13619
-0.703782
0.0210902
-0.246077
0.247996
-0.0019197
-1.23886
-0.304122
0.975266
0.333704
-0.166995
0.0813958
-0.287609
-0.139935
0.414311
0.124323
0.0761778
-0.333506
0.0126973
-0.100879
0.0881814
-0.191064
0.0639543
-0.0669398
0.0785104
-0.246482
0.443285
-0.896793
0.542018
0.354775
-0.260961
0.0805974
0.503807
0.169155
-0.00257608
-0.0806914
-0.237629
-0.430175
-0.229597
-0.478109
0.165261
0.312848
-0.0331645
0.344591
-0.311426
-0.361876
0.429214
-0.0685715
0.641475
1.08027
-0.775693
0.471801
-0.79776
0.374347
-0.508528
0.134182
0.084838
-0.00137253
0.0436585
-0.00152661
-0.928996
0.544176
0.0822652
0.380929
0.0126486
-0.163031
0.150383
-1.47398
0.589326
0.183594
-0.37669
-0.162147
-0.0168469
-0.186293
0.20314
-0.490835
0.186627
-0.97102
0.855135
1.14445
-0.615853
-0.161786
0.14732
0.0144653
-0.115195
0.06602
-0.122904
-0.826779
0.1995
0.627279
-0.114891
0.0978518
-0.046328
0.262104
-0.215776
0.320116
0.194841
0.134196
-0.131889
-0.00230652
-0.22917
0.238626
0.0677967
-0.00172086
0.474511
-0.812911
0.93718
0.0438274
-0.533695
-0.12011
0.849717
-0.0329878
-0.816729
-0.170571
-0.21867
0.389241