/*--------------------------------*- C++ -*----------------------------------*\
| =========                 |                                                 |
| \\      /  F ield         | OpenFOAM: The Open Source CFD Toolbox           |
|  \\    /   O peration     | Version:  2306                                  |
|   \\  /    A nd           | Website:  www.openfoam.com                      |
|    \\/     M anipulation  |                                                 |
\*---------------------------------------------------------------------------*/
FoamFile
{
    version     2.0;
    format      ascii;
    arch        "LSB;label=32;scalar=64";
    class       volScalarField;
    location    "0.9";
    object      p;
}
// * * * * * * * * * * * * * * * * * * * * * * * * * * * * * * * * * * * * * //

dimensions      [0 2 -2 0 0 0 0];

internalField   nonuniform List<scalar> 
13486
(
56.9358
43.6
2.43037
-5.76669
20.0446
-10.2278
9.71664
33.2827
38.9634
18.1247
-192.2
7.64757
60.5323
-11.221
14.662
19.1256
-237.741
-1.35668
11.5151
50.7
-6.45734
59.9529
42.6242
-36.7588
14.8729
-34.1296
-190.275
-22.0328
-0.000378674
-18.3343
-5.55061
9.88779
-43.5937
-13.4195
33.2488
-0.175951
-0.242201
47.8298
-2.96522
38.2291
7.44272
63.1956
0.0860459
15.3326
15.0135
7.42345
-340.972
0.219252
-0.286966
-25.8728
30.6099
-3.35195
3.89848
48.2108
-1.88565
21.0324
0.683137
-3.41931
-41.0288
0.0258846
-134.553
0.0814215
-134.504
-6.07639
-16.5747
-0.252433
-7.12332
56.4233
38.7775
-1.13915
-6.47903
-4.46124
38.402
-117.768
-0.189212
0.854552
-0.224977
14.4167
-394.526
-6.73659
-0.118445
43.3218
-150.719
2.74239
57.2526
9.80274
-18.2426
28.4497
35.8409
21.2331
5.9033
29.0552
54.7809
47.4248
40.8935
0.036054
-179.613
-6.75628
38.0726
-262.482
0.00293575
-9.15806
-6.8108
-3.37909
25.9235
-272.58
36.1777
-3.21459
-395.053
27.781
39.2783
8.33796
48.1065
0.894849
67.2056
39.6548
15.3969
-12.9571
38.8182
-0.575558
-1.59969
-136.192
42.7113
-3.19489
38.0715
-3.26261
27.4164
4.75701
-11.2568
-15.0007
-3.44408
-346.461
-68.1367
-119.603
32.0516
28.4992
59.5114
28.3841
-0.563994
33.9102
-36.7298
3.92845
9.51561
-6.77787
1.00914
-122.096
-9.68413
47.4225
-27.1067
-0.0627437
18.2522
14.4751
0.0587527
45.0587
6.45757
2.24621
22.9571
3.74074
43.2999
0.360392
-21.3754
43.2427
5.18692
62.6461
-3.57853
-19.0063
-4.83869
77.0421
-8.07648
-120.603
-78.3727
6.52172
22.8001
20.1872
0.0916293
-16.8638
-17.3495
-44.4128
36.4615
9.36269
36.3513
0.974403
15.6579
-29.34
2.14346
-21.868
0.0366991
-17.0486
9.33619
42.4364
-0.355391
1.83688
-4.21798
48.3426
-4.86702
-200.882
-14.9859
-21.6867
52.7221
-15.6755
-5.67226
4.15124
47.8431
19.4859
0.497288
-5.02984
-2.54092
40.8816
-4.07741
2.2094
-18.9313
-24.7886
50.0248
36.3305
-10.1523
-10.4749
-19.4489
21.8291
52.1135
-61.2313
-249.591
-27.7016
34.5941
-22.0579
1.35138
56.4844
-17.3855
-9.33372
-8.66323
-15.75
35.8753
-18.4679
-38.2016
64.5656
-7.3547
54.476
-14.6814
1.82959
55.0206
16.2202
-42.3154
22.5313
0.902796
52.2456
-2.60844
42.2496
15.92
-26.2857
-127.703
18.1395
-8.77432
67.6943
37.727
-3.41228
-7.38843
-20.9474
9.42187
-10.2581
2.01459
-41.8255
39.767
-2.47552
14.3921
-18.9797
22.3837
-30.1741
-8.86938
-6.03599
36.5314
-4.04917
36.2905
34.9725
-20.0879
4.96137
56.6258
-25.1086
-7.28667
-6.95533
-3.65596
-7.77737
-7.35904
31.4535
36.3074
-64.2314
-116.705
-275.361
-39.5269
-11.8787
1.56726
36.0354
-7.15676
-0.750133
41.8648
32.0745
-14.0289
-15.6873
-21.5286
4.51811
37.6932
8.96418
4.81324
-1.87235
-8.61745
10.6166
-0.530824
17.4249
4.0354
16.5146
-10.367
-0.224292
-104.054
-5.81955
-9.95059
8.27587
-150.049
28.7514
-0.519697
35.759
40.9213
-9.94279
-0.278725
-1.09729
35.8481
47.9214
63.0365
6.54891
24.5624
31.0249
2.12646
22.9836
28.8119
27.9869
4.41754
51.0607
8.92338
38.6575
70.1063
15.259
19.6656
-2.1347
-9.57673
47.171
22.3777
16.1499
-31.105
0.0458495
25.4109
67.5068
-61.6532
-0.707865
24.7088
2.78883
4.54956
-154.13
37.2269
-0.26289
-118.654
27.4287
-8.75167
-24.349
12.161
3.78289
40.7758
35.029
-19.1465
-0.0341869
-15.2139
-279.745
51.448
27.6412
0.148382
25.7216
-0.585963
-10.774
-8.076
30.7186
35.597
-1.19491
-141.885
-81.2109
35.528
27.1594
59.8111
37.6654
-294.101
-7.60648
-1.77037
19.35
-138.534
-4.12095
49.0776
-21.5763
12.2631
54.9263
54.9329
0.00106143
-6.4898
-9.41911
-166.959
-40.1054
-146.829
4.05872
33.6421
-7.7753
9.67289
-29.0324
47.1791
-43.3358
27.0603
41.3099
18.1697
-31.3819
-24.0497
37.9524
34.905
43.2849
-22.8003
23.0989
-91.1552
16.6975
36.2329
3.66614
67.6298
21.1805
-19.6733
-16.3058
3.65656
36.4173
-201.844
-3.03638
59.3722
34.1761
11.5682
0.700062
19.0846
-28.2876
59.2812
-1.06252
20.8342
55.2699
-257.124
-20.6043
-124.856
-24.1555
-5.88286
45.1882
42.5972
59.4774
-77.9003
-0.520127
-36.2424
20.7024
36.3225
-25.2258
-36.4371
34.4274
-6.3083
-17.327
-64.4556
-111.67
-7.46773
47.7314
-0.0549822
-2.18619
-6.82631
34.0089
0.0825211
73.0008
55.738
38.3087
32.0022
0.0422138
0.077138
69.7569
-6.92413
-0.441886
-19.6625
38.9707
-277.2
3.95195
23.5769
-0.236599
-21.9443
41.8468
-54.6526
-191.592
21.3509
-4.15625
76.2952
21.5316
30.3643
39.8187
-17.1934
3.19582
60.0217
20.2872
48.3538
9.6856
6.11401
-6.3373
-6.56823
0.244784
-298.647
36.8233
39.2233
-9.33513
0.0350307
-11.5578
55.5907
45.4391
-7.37243
39.886
28.0757
-21.4128
23.119
31.0983
-91.6806
58.5922
0.156072
-1.05817
62.3668
27.738
0.00755723
25.1077
-7.126
-5.71158
14.318
26.0739
43.0833
55.1239
-71.9728
18.7444
-74.2258
0.0262222
54.056
6.27381
-23.4454
-7.30146
3.01977
2.64188
31.4798
-15.6602
-35.7981
39.8958
50.4806
-6.82943
39.7234
-125.126
-13.536
-49.7315
10.4377
-48.6817
41.394
3.19339
-121.745
32.9036
45.2536
-41.352
-61.2203
31.104
53.5553
7.94696
57.3129
2.89312
21.7557
4.01333
41.1214
0.984986
52.2372
-164.256
5.43205
38.0272
-10.324
-23.4682
35.995
-237.783
4.88369
43.2621
60.0593
-8.95537
-2.46738
6.44497
1.9466
33.8889
23.3434
15.0832
-150
-3.947
57.0992
2.05469
-1.74214
-31.2478
60.2657
-12.0498
0.865629
33.9268
30.5221
-6.3871
-13.3887
34.3608
2.19375
-44.6772
9.75417
-42.4066
58.2892
38.8729
26.1982
27.0934
-0.514273
-40.2546
65.0174
7.69413
65.2288
-8.71743
36.3126
-0.0692651
-121.416
25.9377
18.0723
68.1502
-20.6031
26.2071
23.8887
-64.7243
17.6345
-1.2918
-19.456
37.3465
-60.1291
-22.2873
-29.0398
-8.99082
-11.3503
39.939
-0.0354873
64.0481
37.8593
0.143014
-11.569
-18.8608
8.34004
-124.227
-13.2342
-283.615
54.1864
0.0223232
0.789079
-49.8358
60.2784
0.102047
4.99288
62.6309
30.3161
-15.7449
-6.92584
26.5541
-1.11065
38.0707
1.18114
-10.3955
9.59805
33.8051
6.75143
30.3132
63.498
0.885076
-12.0787
35.6917
0.166626
-11.8045
26.5754
24.9839
12.5909
-19.0165
3.01296
-1.32554
2.21213
53.8968
7.46643
1.79147
3.04741
4.85311
-5.37835
37.0606
0.7297
36.82
35.8356
51.5371
-1.87273
-33.5288
64.6181
0.466923
-5.90414
39.2031
-29.7369
41.171
0.504002
33.9623
-11.4203
-126.35
-29.2848
-0.00924995
-213.548
16.7805
66.4387
-11.1819
-91.6868
-19.053
37.4928
-5.24575
12.7027
-68.0668
65.4019
-17.4119
19.0649
-26.3741
18.4752
35.7984
11.0843
-72.1221
-5.52951
61.7273
35.001
18.0057
33.7459
5.7193
29.9978
31.1397
18.8494
-113.587
-6.95961
46.1938
8.59423
-3.78496
33.3331
-6.16912
-11.1841
-2.21754
40.0204
38.3071
-9.7805
2.44441
-13.0067
-5.55472
2.05335
-11.2648
4.17861
33.7165
-5.19897
-41.2501
45.1665
-2.83522
-12.7162
-6.2358
-22.6451
-9.45019
-27.6133
-1.71123
-27.3762
38.1732
60.4545
-0.166029
-12.8312
62.7281
58.5908
-8.63811
-16.0168
40.2678
-249.627
1.31479
-2.71731
-3.2482
21.8218
-194.939
11.8822
22.2086
-20.6062
-8.48913
-41.4
-9.45761
33.0205
13.2001
23.9296
-10.4039
30.4321
57.2346
-390.848
-24.0898
43.8406
16.4452
23.2879
-2.75601
-17.9301
-10.5662
-8.8594
37.4799
65.4533
40.9955
-6.90586
-8.59353
36.1639
55.4833
-10.4382
41.4509
36.7913
57.3742
9.33409
-1.60834
1.36557
-9.51902
56.5653
2.74062
2.01368
25.3947
-7.05059
7.57363
-7.70901
-41.8022
33.8816
31.7582
23.0743
14.3575
-316.485
-13.8879
-10.6119
21.7902
-44.6111
-27.6367
0.594532
-38.5423
-118.883
16.5299
-17.9821
-129.767
-216.505
-11.9842
29.5888
-232.325
-16.428
41.5353
-7.45694
60.2749
-9.30936
-128.811
46.389
54.275
-0.112937
-2.17011
11.7395
37.3162
23.1653
-77.2649
-5.89449
-0.59264
-8.12408
33.7266
0.711812
18.859
-1.10643
38.985
-207.851
0.598332
-0.529028
46.458
-31.2361
-174.296
-30.8364
59.6117
-7.34093
-12.405
-257.34
36.7744
-11.8538
-0.95493
7.3518
17.8767
-8.25943
26.6944
-16.528
29.0789
34.2065
44.5532
13.3962
-1.47295
-12.2271
25.909
-18.3021
47.0348
23.3955
-6.95013
-3.39846
-7.93944
-6.74704
-0.481742
41.7965
10.5299
3.51063
35.9874
-2.90051
30.4414
67.5232
-8.22014
-55.8368
22.8945
-48.7585
-2.28389
-8.2615
-6.58209
36.9705
1.00714
0.625278
0.892394
-1.56629
50.2631
-13.586
0.193568
35.4628
-46.945
52.5934
42.2922
51.0586
7.80209
21.8629
10.0322
2.14257
29.4018
36.9628
-8.10986
-10.5836
-218.954
-16.4782
-44.2101
37.3066
-87.8869
-44.514
-38.4393
-8.64046
-0.359331
36.0937
-0.335703
5.93435
-115.949
35.3136
66.9878
-35.8809
-115.082
18.0298
-2.57983
36.2543
0.289618
-2.55537
45.9298
-3.57004
63.6702
25.5537
35.4506
-17.2022
49.0904
1.16291
42.1884
0.147295
-42.6721
-17.7354
-22.7156
24.4728
-11.6728
-2.30547
59.8239
35.5413
38.9671
54.1346
40.1929
46.2806
-10.3778
40.2184
35.2183
37.7192
-9.72257
-17.4506
-25.6075
-37.3347
8.3215
43.7651
-127.891
62.1464
-41.771
1.18418
64.7726
54.1638
-10.3292
-26.9998
38.0328
16.2992
2.9582
36.0456
-132.025
-20.4848
35.3109
53.0152
-2.66931
42.9988
48.4891
-0.00470501
-20.7251
48.377
15.6207
-0.488485
-119.381
2.7049
-40.2196
32.7524
25.0212
-0.406121
-3.99759
-20.2765
8.67448
-1.95461
7.72107
54.7193
-3.33522
72.1809
37.5444
10.8603
42.0727
-16.8471
-77.3337
-10.8457
36.6831
-2.74583
-126.027
-5.69929
14.0706
18.8415
-1.88886
28.8352
-218.636
20.0279
-4.94016
-1.02346
30.3842
10.3394
49.6692
37.0705
37.8467
36.3186
-10.5113
-35.7354
-31.4553
3.03964
-9.7525
-15.1553
29.9793
-6.9066
-1.25668
-0.343974
2.43095
-67.8108
26.459
14.1165
0.49974
-21.031
17.268
-27.251
-30.4824
3.0106
-15.8625
42.8808
24.9483
50.2208
-122.62
31.6728
0.619622
52.8306
-5.79623
16.5157
-3.46779
-9.96451
61.8854
62.6138
30.5203
22.3883
22.7001
35.4474
62.8374
26.6333
-40.5399
-56.1602
5.80606
-39.1162
-315.372
35.8633
36.3118
-10.9315
12.1884
32.9811
34.1031
68.406
-102.642
27.1016
-180.224
-43.407
53.5874
-7.17177
31.6613
-7.50099
6.23959
13.4917
70.8736
-8.27916
-25.4803
14.5249
3.53915
-42.8063
-125.043
-1.6219
40.425
-0.815511
22.419
58.3434
53.0054
-5.39504
-76.1641
-6.06288
1.87375
45.8494
35.5971
53.5314
21.6926
-247.081
56.2736
35.5179
-70.6956
29.899
36.8676
48.6223
-111.408
-7.2144
0.003599
29.3717
61.9238
18.8331
0.170135
-40.2998
68.525
-355.38
-36.728
64.3337
30.6265
-4.15624
29.9966
-6.74467
21.6022
-14.4311
-338.498
-1.9113
-12.1547
-2.52431
-12.0085
-248.111
-214.899
-222.323
15.32
-152.712
-9.11426
26.1559
33.0572
22.4908
-241.07
8.94481
1.13751
-11.4499
71.6456
25.8136
-28.4977
30.7782
-14.8001
-13.6279
32.5768
32.4986
36.0246
72.4533
0.0879537
-7.05947
-36.2424
2.22682
26.5191
38.6954
-19.805
56.9943
22.931
38.5628
-6.70744
-5.96708
1.03273
40.0057
36.3987
41.9716
35.7917
66.1553
66.1075
-14.8586
30.9032
47.7045
-27.6009
53.896
-2.24485
65.1804
53.5846
-3.53215
41.4894
15.0813
29.517
2.22394
36.4192
-35.1303
32.8021
14.4539
26.9003
-10.212
36.2074
-2.25976
7.95623
62.9854
62.8372
25.479
-122.52
7.80226
6.3985
-6.71315
27.412
56.1206
-128.586
37.4841
36.6796
17.6841
39.6059
-27.1642
-7.64665
-0.370133
67.3187
10.6976
-3.7439
42.0924
-9.8593
1.11237
13.8865
5.64571
25.8738
17.7967
-17.5878
21.3867
31.3894
26.1539
29.2131
65.8442
53.4961
48.6106
36.4028
62.2791
18.0208
-2.68019
-2.72888
-47.4395
61.8062
-7.2308
37.4861
34.3084
-15.7293
20.1598
41.337
-24.9931
17.7988
20.7625
73.2624
-142.96
15.7211
-8.32042
44.6796
2.13038
-7.6249
60.9531
52.2837
36.9059
36.5783
-15.8696
18.362
-304.097
65.8612
0.0272153
70.3923
-3.40472
-1.57215
-137.278
22.7421
-119.519
4.19332
-3.91592
9.04205
-19.2346
8.23738
-7.80667
0.0253582
-9.78442
-122.426
-21.6058
-85.0115
-38.092
-4.99231
-7.16657
-117.409
39.8162
40.4918
47.3884
34.4378
14.4047
13.3413
76.0759
36.6105
-222.801
0.148482
-8.59838
26.0924
33.0775
56.9983
-37.4102
-37.3598
32.4192
0.00357109
8.17785
46.2457
-129.361
-25.2776
-290.113
66.7383
-6.51856
26.1905
48.2057
-2.0929
30.0368
-1.61224
-136.878
-101.973
0.398204
22.4028
45.5707
47.2199
-89.2305
-118.767
26.6873
-422.626
-18.4613
-10.9211
5.38299
-13.376
-6.52133
-7.45346
-131.952
-37.0632
58.7713
-6.63034
63.6828
-50.4805
-8.64641
13.6381
-6.71783
54.5433
38.7259
43.8621
-49.5546
-14.6073
-150.749
53.1521
-124.03
24.6156
-1.36313
44.1178
53.9187
-1.62027
36.2086
61.2446
42.117
39.7474
-82.6114
-3.93791
14.814
-28.3625
-3.85901
23.5507
28.9987
2.24721
-200.628
7.47451
0.480292
34.0855
29.3921
-19.4864
64.9331
2.25946
0.00174803
3.26678
34.4881
-15.8849
0.00570238
41.3983
-25.8035
2.51298
-12.8837
41.3004
34.3202
32.7942
-6.60178
33.0616
42.1274
42.9095
-14.5396
1.05438
4.32716
32.5912
-39.0605
-121.384
-12.2295
-59.5851
-6.39226
0.0165462
-3.60041
0.845654
-145.183
-28.1807
-76.2413
0.53526
-14.1941
9.67185
-51.718
38.7807
77.1423
8.77068
-9.60921
13.3186
-0.309773
7.66273
0.272682
-17.4204
-34.0777
3.29898
50.431
0.0341126
60.3691
0.182576
32.8344
31.7477
15.8726
-151.841
24.8749
66.0607
-6.93743
34.2341
34.2111
56.8172
3.48495
52.0744
41.9667
-126.003
44.5542
-156.689
-345.998
53.609
30.454
-76.4633
-1.8755
48.4725
5.89206
-20.6838
0.777075
1.04968
27.0913
17.2934
36.2669
36.2964
31.7475
-74.6508
-22.1561
-13.6396
35.1926
70.6515
-19.1712
-387.817
-142.476
39.4348
3.10748
2.853
18.4632
-0.916237
29.6988
-12.1593
8.02747
56.1073
11.6315
-4.27833
-5.83116
-5.877
-27.7306
-197.633
-36.8493
-27.2447
43.4067
16.9022
-24.4604
58.6781
0.143531
-115.521
-10.5866
-349.856
41.2782
-113.554
8.01532
38.1702
-8.89911
-14.777
-7.01657
-231.129
-8.41716
39.4243
-78.4344
-1.895
-289.602
34.2251
39.8261
-6.32639
47.6354
44.3776
58.3199
59.1892
42.6958
4.44611
66.2913
-311.545
37.3448
9.33133
-59.4189
44.2402
-11.0425
57.0721
14.6009
-50.8287
-177.749
-281.042
38.7289
-12.4006
-13.8268
-4.3819
-34.4979
-2.54621
19.7837
3.1422
28.1665
66.664
-130.7
-34.0956
-27.022
40.7337
26.1195
-23.7498
76.7283
-2.43032
0.490085
21.491
-43.766
33.4627
39.2557
43.6359
45.2692
-1.99598
20.9316
35.9046
6.64295
-26.1032
-0.314913
41.9637
41.7284
53.021
-6.7876
2.46012
21.4163
19.291
2.4327
-50.8172
28.7387
-8.74507
30.772
37.1743
-224.561
60.7199
-23.7641
64.1111
43.8794
-56.9082
0.0882723
-0.0816257
11.889
38.0761
-36.8261
51.7441
33.6804
21.0592
0.820379
6.35874
-13.5807
21.0179
-256.297
24.5656
-8.08245
34.6711
-111.939
0.369567
-13.0976
45.5334
55.2499
15.173
-109.847
14.7547
-5.86789
2.23286
17.8426
-8.46897
-6.97548
63.8861
-25.2846
-6.3916
-33.5929
-318.927
-4.16633
34.9588
-240.761
-11.3361
37.8107
24.4713
39.6046
-6.50732
16.6083
64.1803
-77.0413
34.5669
10.6483
-9.16752
9.49841
7.28029
-14.6626
65.4435
43.6426
-36.2494
62.3923
49.583
45.2184
-424.322
-126.161
26.922
-55.2643
-1.30096
-109.347
-49.3561
-99.7796
29.6905
13.4949
23.4553
25.6561
-4.88856
29.9241
34.581
-306.89
41.1632
20.0262
34.5458
-5.92809
-0.658036
-6.61611
-211.177
-5.81853
-12.9678
33.7329
-59.2101
59.2013
-15.0083
33.3893
25.0053
-0.249326
8.11573
38.3291
14.3412
4.728
34.0406
0.172636
-2.77076
55.8872
42.7379
-24.6861
-82.5181
0.90115
30.8258
-3.94335
18.6196
-83.976
-4.09101
-5.96654
-1.72313
32.5738
33.3195
-3.15924
13.9307
-5.07347
-1.78496
-48.9095
45.1847
-5.35707
36.2984
0.0995918
29.5591
39.5464
18.0843
35.1823
2.72874
-8.03143
-0.440683
-59.6742
-10.7456
-23.4301
-7.23715
-10.7674
27.2546
-6.45825
34.3079
-2.88391
-1.04677
-71.8216
-2.12745
39.174
-111.461
36.5281
8.06001
-33.9016
-0.275839
-6.18903
26.9166
34.995
-1.7482
5.40593
-77.9589
45.7289
1.71338
10.5191
-28.8742
47.1018
17.5718
0.0889248
39.3423
39.3444
45.8167
5.37185
44.8413
-76.9659
0.621203
-7.56695
37.8953
20.8354
8.26284
4.03928
-46.3812
-30.0742
21.1432
2.37404
-35.3439
60.7923
-82.5005
45.4776
26.6278
-13.7275
-2.94268
-0.0349733
-5.62864
-0.329267
3.57308
33.0661
-0.285099
36.024
-75.3195
18.8524
-4.73037
8.85472
-49.641
48.4839
64.4305
40.1085
23.0018
10.0065
21.7352
-201.07
-0.728224
-5.20223
-6.71787
-26.4801
-67.1612
-48.8824
-23.5559
33.626
38.4669
-135.067
8.01602
41.2759
-25.0423
-68.0139
38.733
-3.0154
-149.591
0.330625
-12.5042
0.0426337
60.1785
-4.13434
36.9437
-46.2851
-30.1577
-24.8417
37.0697
9.40873
31.2678
-36.5768
-30.3988
0.230372
6.57247
42.0522
32.9496
3.00117
-6.27728
-14.0018
67.2393
-7.05203
42.9948
48.4214
-6.69898
-3.44199
16.3146
-148.575
-63.2317
30.5454
18.6275
36.0799
-12.3455
39.7277
0.134614
52.8348
7.32295
30.8204
46.9733
28.6481
4.65016
-18.0599
8.1501
-318.879
33.695
13.4158
45.5905
-0.452916
57.9391
4.83777
62.2351
-5.50929
48.476
-9.87054
27.8782
-163.726
33.7397
17.2711
12.6015
54.8096
35.2904
7.38739
-22.3062
20.5475
33.1784
-2.02841
-171.499
27.282
-0.702754
48.7129
-5.14845
59.2327
5.18748
76.5645
58.5853
29.0805
26.9766
-163.74
-1.74299
63.1435
-6.05231
-6.69704
-6.17927
61.8263
15.2312
32.2544
49.7096
-31.4886
40.0087
-11.2922
45.4626
0.836132
43.5112
37.7673
53.6957
-2.76926
-391.825
9.15663
-5.91751
16.7609
9.11751
-3.77587
46.9208
55.1778
0.308948
14.0945
-10.0707
50.6861
30.5417
34.679
19.8322
-7.39696
-79.852
-6.47613
36.8365
-72.3025
-3.68914
-6.51606
27.2997
17.1221
-23.8757
66.2035
-4.40943
59.1273
13.5571
59.0521
-17.0196
7.96257
-0.0634599
1.19498
31.2612
35.0734
-1.37741
-3.69071
-6.58735
-3.65484
55.8134
-16.6862
-4.40439
-7.74844
-4.95668
15.4053
47.077
19.4927
0.435483
0.0431523
35.3913
70.6673
-6.08543
0.123351
37.2317
-0.861529
14.4863
-1.57353
28.5516
-3.70079
-180.369
-3.82703
-8.48717
-8.2166
-20.1896
-89.4513
-20.905
-4.77996
26.6871
39.3853
29.7541
69.0753
-158.858
60.5323
-88.9749
58.7696
-36.407
-34.0727
66.8821
11.9672
-11.843
38.8177
-3.19884
42.3396
-13.5504
-273.549
4.77815
-21.8713
-25.4085
-0.0408861
-7.65769
10.9387
48.2529
-44.0965
12.6447
-77.0356
8.10597
-6.50168
-1.99439
4.9366
-4.06601
-59.4584
45.9105
-1.46936
52.9115
13.2735
-121.939
9.03749
-39.4809
-0.0237546
29.9108
47.0386
67.7683
25.4719
29.9885
18.9426
-129.853
65.5687
71.092
39.7479
-29.2332
-11.8051
-324.118
34.9284
25.4291
13.0318
28.2501
-6.02584
-1.56067
-303.078
54.4207
-4.14194
0.037684
-7.98494
37.0226
2.64161
75.299
70.969
33.4135
-1.78554
10.2387
-83.1552
12.0571
72.2556
3.8366
-0.0557831
28.4405
-0.143597
5.41597
-10.9029
-15.4544
6.58052
1.08136
15.8114
-0.0454411
7.96627
52.9755
14.6683
39.0696
-8.65791
-17.556
64.7244
-74.3621
6.42054
11.5604
12.475
2.26929
-6.12832
8.85153
0.375191
1.79198
75.0495
-147.704
-112.954
-30.3464
-29.9172
6.35406
12.5532
-6.35255
-87.2713
0.0293597
-128.295
-36.3148
-28.2014
3.20122
0.385914
-0.222011
74.7377
-0.708999
9.02429
-8.14445
3.96637
-134.822
-13.3856
51.1426
36.3965
9.26012
-4.39214
35.7313
39.3424
-0.554086
-58.1763
-3.50314
50.5523
-25.1217
32.3242
-2.94955
58.2928
0.756105
-9.62755
-2.89177
39.8172
-19.4682
30.8654
-32.1868
72.227
-6.83181
-13.6991
-227.526
13.9637
-7.0022
-34.9122
-7.09857
3.23359
19.6914
-14.4394
-5.81359
-4.86294
4.47366
-21.9541
-36.1338
29.329
-360.528
32.8818
-7.57044
40.4638
65.5411
36.0982
-144.351
38.7257
3.56831
6.87792
-5.20271
-19.1262
-271.245
-6.50067
-14.6776
19.4882
-4.41845
-30.1112
3.35513
-141.807
17.5389
35.0889
-44.668
-6.19969
-17.9564
0.0157611
-4.45319
22.3086
-80.354
-7.07527
35.8585
-2.95677
24.0535
-38.6873
-190.334
-62.3744
-156.133
72.1896
11.091
-28.3931
7.73256
61.667
64.9286
-10.8022
-11.5814
35.0683
-1.67017
-9.9162
62.6801
20.0661
34.7007
76.3547
-16.3501
13.6544
1.94969
56.0367
37.4064
39.8401
46.252
23.5726
0.512592
1.40732
13.7209
7.07241
-175.168
65.035
-22.1997
-25.3188
-0.174318
-22.1111
18.1601
-8.14031
-12.4152
7.17364
39.754
39.2399
44.2988
-216.923
55.004
63.3536
-111.232
23.2556
-7.19944
-6.86806
6.48052
18.8142
-12.8791
-25.3207
-55.0111
70.531
-170.373
44.1253
37.0211
51.4305
29.5483
29.0324
-5.07461
0.416944
24.4092
-3.49934
-378.852
-70.6758
2.42519
-6.49804
46.299
-13.9287
-0.919023
3.49875
-121.632
-8.47682
-255.949
32.6145
-11.2568
-11.0504
12.1326
-36.2636
12.506
-144.674
-6.94794
39.625
-126.337
64.8886
-0.0932926
67.3758
-0.0407562
-5.35802
5.1849
30.5622
32.3773
-97.934
-6.6539
-12.4421
4.33272
27.036
76.7669
51.5246
12.9386
-23.9999
20.3887
-3.31944
44.3522
-5.61893
18.7472
-7.0653
-7.41308
-139.66
16.4044
0.541638
-124.516
21.8486
23.9428
62.9043
66.7993
-204.668
-266.124
-1.74578
-42.9819
66.3116
12.1789
-20.4666
12.3475
24.3474
-8.02882
0.54981
0.252849
-2.84098
35.7637
-6.88623
12.4325
-27.5448
-33.2084
-89.3852
-14.9487
-86.8644
-81.9898
42.277
-11.914
-8.96948
-11.9949
-0.94724
71.3115
30.0428
32.8685
-12.5919
18.8692
-6.50417
15.6581
7.06279
-6.28928
-143.726
66.2238
38.9126
-5.08132
-129.548
74.2406
-8.27817
-86.8427
-6.6928
20.5076
-7.4938
-7.33699
56.0727
-7.19371
35.1374
11.2414
-6.85215
1.60118
-17.1795
17.3371
-86.3759
-4.13884
8.52992
36.8536
-6.56813
-56.7883
8.27285
-16.0311
-46.3888
-45.199
69.9672
21.6448
-41.5134
19.7547
5.8666
61.3335
21.8385
-160.491
23.7419
46.981
42.8118
-22.3558
31.3625
-3.88718
65.7475
0.399014
36.9054
-71.6687
-21.3538
-0.130827
-7.47788
24.4467
8.83363
-164.512
-7.87423
44.9604
-2.97322
-7.46795
52.6636
26.8798
51.1395
31.9888
-31.738
0.237858
-3.40137
37.7817
0.0810919
47.4001
31.134
64.397
-6.53738
49.6814
21.2242
64.2114
-7.04322
-30.7809
66.4041
-6.77078
30.6971
-191.042
58.1288
63.6005
39.5597
-62.7219
34.5112
49.2252
-21.4819
12.5962
-9.69887
52.5761
-7.30576
-5.38675
-286.095
-305.257
48.1617
20.2716
-409.973
19.5332
63.5692
-23.5434
-10.4447
-336.51
-36.2479
33.6426
-8.53974
33.4843
35.2832
-424.895
71.5129
-3.69654
53.5009
54.8108
0.744756
-0.259448
34.1048
-68.5044
-10.1426
34.0724
28.9795
-19.6264
35.6614
-6.80258
53.4926
39.3294
14.278
4.50197
43.487
-5.63007
20.2215
51.0102
6.79354
0.0821733
48.8772
40.688
-26.7954
-127.306
30.4243
42.7089
65.264
-120.876
68.9672
64.3667
69.5878
-6.19957
47.1608
-56.7569
35.7867
52.2251
48.9258
42.1631
56.3226
75.362
30.8011
-122.936
6.00433
-135.108
74.6281
20.1263
-3.9546
-6.09488
33.6413
55.4101
36.1129
12.3869
-6.07932
55.0174
-106.099
41.2547
-6.73007
12.899
-1.80619
14.9252
24.4358
-21.7932
-18.8065
-7.07746
-15.5047
-5.88841
46.1082
-12.1368
2.53663
34.9188
-137.525
26.2089
-0.0786196
-118.025
-79.5398
-135.731
53.4371
57.083
-7.83905
11.757
48.2219
41.1469
0.443935
-27.7769
41.539
-155.489
52.0394
-100.016
50.4012
21.0346
0.960725
46.5988
24.8565
49.9805
13.1544
13.8041
-19.53
-139.769
-252.192
-5.19581
48.9652
-42.1159
-8.87386
-42.2128
53.5641
49.6492
10.4556
28.8052
54.569
-76.4033
36.1767
-9.56984
-23.2361
35.7958
-9.7752
-196.929
-42.0893
-232.016
-12.3133
-49.2423
-8.36001
-365.994
-130.549
30.929
65.4146
71.6919
62.1208
-40.7617
41.5488
-87.2344
34.5924
53.9632
1.13266
47.9315
-41.6378
12.7349
-21.7444
-7.48767
52.3415
-31.2562
43.3385
-247.738
-14.9264
-271.157
42.6217
42.9018
34.7693
-167.477
35.5424
-9.12618
-399.092
-370.086
11.8646
66.4366
-97.9137
-12.5143
-7.2966
36.3284
33.9234
-3.4155
20.1902
-217.258
55.3198
50.0567
-8.03383
-12.77
54.4143
-10.5053
-133.613
-4.51779
49.079
55.8738
-45.7132
28.489
-9.16047
64.2237
-411.972
-20.3092
-7.64406
60.4785
-5.0682
-17.7113
-3.89159
52.5068
26.8696
51.5997
-8.59894
-87.427
42.2046
73.3967
-135.936
35.5087
-5.78351
-421.25
-5.23894
13.0441
-6.22599
27.8951
-7.04039
21.3812
-6.06082
-26.765
46.9187
57.2502
35.2036
-63.3475
-20.8532
45.1893
-221.481
15.2508
-24.6597
18.1914
-354.766
38.664
44.8995
-6.23137
42.5856
64.1838
-10.0328
32.1454
42.1286
-330.424
20.0793
-20.0798
18.2175
15.4221
26.8239
0.047471
12.2384
-9.15579
-76.1221
54.1101
16.7169
6.37318
-11.6505
-9.75011
37.965
-280.569
69.4143
-143.005
-294.266
-5.60468
47.432
43.7935
51.9561
-192.752
61.8649
-69.585
31.7549
-2.08361
-161.137
32.9067
16.5492
-11.0834
26.127
-96.9121
28.466
-225.885
-10.8719
-0.239448
-85.8556
-107.627
34.4975
62.8558
-16.1949
-67.9159
48.812
-90.3317
57.3023
19.5295
-3.7183
18.8716
36.0418
19.551
-4.83861
8.49099
-5.49595
5.80352
10.5809
-177.544
-8.40388
1.21324
25.319
-6.01353
75.2686
41.3593
36.0072
58.4041
2.21762
40.8932
-41.8369
-259.458
-13.5992
35.4668
74.038
34.7871
-33.5911
53.695
37.0915
37.5
-6.99675
-5.87303
19.0984
69.9652
8.28178
-26.6667
39.2307
55.239
41.3432
37.1333
45.8205
26.4893
-7.53923
-19.6914
41.6199
-120.821
-128.229
36.238
-16.0398
5.02511
14.439
42.0246
43.8519
43.9753
-7.83757
51.3252
52.9391
7.29443
46.2465
39.8773
30.2332
26.7148
27.8672
19.0519
-3.63574
47.6592
46.4194
-2.75518
35.6974
-8.43799
-0.596153
62.1699
47.6283
0.1934
-32.2474
-6.59222
49.6292
28.2072
5.54697
-1.85873
3.38559
-11.1088
5.37996
-6.78349
-11.5102
29.854
-8.83544
-70.9162
-182.707
59.5936
-6.40748
-77.418
-10.7979
62.9411
-7.61946
7.13134
3.43269
-350.987
28.0828
33.0708
24.6937
56.2527
29.3718
-4.01622
-161.077
-23.8273
0.417837
42.499
-2.08289
-62.3222
-419.902
-12.778
-86.0395
-9.33786
-118.489
-8.3009
9.84206
34.7522
50.7196
-11.2792
-7.37965
56.1738
41.2368
-39.9332
-9.19502
-148.439
23.5675
-1.50483
19.8569
29.1729
-2.56733
-8.29037
-9.5823
6.57313
-57.7698
-170.561
2.20976
-29.807
-206.985
-379.313
-17.0598
2.95193
-160.079
18.7456
-69.6015
35.0461
30.8469
9.9985
48.0723
-42.5547
63.7538
-22.5603
-2.83104
-39.5682
37.0474
22.1158
-120.555
-207.572
36.615
44.0332
65.9705
-45.8589
-183.312
-32.0493
-7.43595
0.102265
-174.178
15.2764
-256.077
21.032
-75.9696
30.9091
6.58808
-4.82301
56.8259
33.3636
-31.7805
-1.13856
-56.0073
-128.264
48.0365
71.7614
-77.8885
47.6023
35.0837
-0.0567451
-8.58
46.6409
44.3033
-134.702
-7.1824
-14.4987
-42.205
-37.2464
-252.676
-32.9516
22.2606
-6.21699
40.0612
-140.919
-392.062
32.9624
-33.7991
-300.045
-2.39828
27.0887
-326.046
-22.1078
-418.898
-130.386
-279.163
67.171
-228.221
-11.5043
-78.3491
40.4473
-312.011
-5.66805
-98.4446
-172.567
-20.4298
42.975
-0.0125344
-182.526
32.0778
-0.0369887
-19.0601
-146.018
-212.561
27.6901
31.1829
36.0271
-310.825
57.7175
-14.6932
0.0645702
0.695372
-62.4935
-21.7738
-197.942
-47.3141
6.589
10.9516
-7.18403
-13.1144
-39.5719
35.7632
-113.283
35.325
-126.521
20.3542
-12.4205
-3.95322
-4.19703
77.4441
-2.83423
-358.115
-221.182
-34.1733
35.069
-2.50909
-3.37376
0.666481
-406.625
-35.8233
-132.647
-236.394
42.7411
-343.24
1.01407
-428.648
-6.43081
32.4713
1.09414
17.7507
-19.8331
50.546
-235.916
-27.451
54.4437
14.7252
-271.881
-12.8096
-123.036
-36.1882
-15.994
48.7461
-10.9441
12.9592
-158.741
-103.906
-261.847
-313.788
-95.0172
24.4332
-9.40765
35.9482
11.0584
-89.2861
55.2353
-27.7264
45.5883
56.8776
-366.379
-1.581
39.5638
33.7876
31.2607
-35.6963
-69.1888
-72.4848
35.4325
6.90811
-37.5609
-186.1
22.4525
43.422
-11.428
-0.790798
-2.39207
53.2807
-52.3193
-57.3098
-1.00144
29.5481
-0.696022
-3.98517
57.9236
46.0791
-4.81974
-41.858
48.1922
15.8202
-6.91995
36.3066
-16.0945
-52.8738
-89.2274
-41.3076
44.5465
41.3924
-6.01633
-24.607
-6.93301
-1.82586
41.7679
-41.0995
31.2909
50.8266
54.8115
-10.0993
36.6925
33.9693
43.1883
45.853
-9.13147
45.6376
0.0751205
36.1154
18.7913
39.7274
-19.5767
46.8617
45.1084
31.1123
22.25
-24.301
27.4522
0.813595
-28.9078
52.4786
48.8874
-25.9524
39.7104
-41
-131.555
40.9341
40.0915
-83.2761
-7.58784
-188.107
-35.2763
-38.2769
-8.85791
-85.6678
-14.3166
34.4033
68.7975
49.1237
-12.026
-7.14794
40.7513
15.7322
-5.14506
-52.4114
-19.9412
-54.522
-129.77
-144.882
33.7073
-5.99051
12.6567
0.253164
0.351619
-2.96744
0.752082
6.90949
20.6352
22.9692
-21.7364
21.7228
-115.979
-86.8695
25.8602
17.0244
-4.78461
6.59414
22.7435
-2.8424
11.9282
-22.5617
36.0366
30.6615
60.943
36.1104
-34.7216
-14.8053
-23.8816
-18.444
-1.64781
-0.766342
-8.99825
-27.9267
69.2562
2.55774
-1.55862
56.7641
-6.80389
-29.0335
-11.4777
-21.4511
-236.391
12.8889
-44.181
37.633
-10.3816
-31.5787
-3.30056
-11.7138
-34.6255
-4.81431
-23.6845
26.9779
-6.66961
-8.58445
-48.0795
13.9425
-38.0161
39.8684
58.5753
-17.4442
40.4665
21.849
24.3541
63.6913
-6.35703
19.8775
18.8227
12.6319
55.2926
-14.7702
-7.16429
-4.87523
39.3699
58.6903
-12.3574
-6.79096
-38.982
-32.4293
16.0266
-26.2582
-78.5074
-19.2198
11.7242
-143.109
7.09568
11.2944
30.7106
5.07247
-119.708
-45.6575
-2.14728
-7.98832
62.3732
69.5654
51.7732
71.5704
31.4393
23.8288
44.1372
38.1595
32.6963
-31.0098
38.5129
-14.4622
-127.428
56.06
-9.43917
-37.99
65.9122
-3.37334
-49.9092
16.6531
13.0163
45.1585
-251.633
32.4515
60.1062
-6.36757
-123.365
-62.6199
26.0433
-79.944
49.549
-8.93736
45.1607
35.5099
-8.25137
44.3021
-24.3051
-136.464
-126.929
-17.1166
46.6398
-34.7831
35.1675
-3.15673
-204.787
-3.68762
-4.03689
-42.0757
-22.0726
-286.112
46.6995
3.29703
-279.44
-20.3982
21.4916
8.96709
-31.3613
15.1384
-2.56007
14.9477
-324.898
19.7479
6.37469
25.635
-6.04591
35.0919
22.4188
7.6411
-249.158
72.349
-33.7011
-412.073
35.5739
30.6762
-255.038
-35.2584
-14.5762
24.6385
20.3778
-31.8829
-8.09792
-13.0685
72.4945
-5.63157
-8.22696
-2.31536
-19.6606
27.424
-11.2439
34.3306
21.4289
-87.676
24.0214
-167.068
31.4937
14.1928
38.3539
24.0467
0.0473463
-0.196022
18.8728
40.0734
6.87997
2.12601
-354.235
-23.9941
-20.6198
29.7982
-390.227
18.7908
-340.808
47.0478
-228.989
-13.0389
50.2079
44.8606
15.0915
-7.01379
-143.286
40.9464
-0.730639
46.3736
17.5715
-3.16395
36.7558
10.1745
7.32829
5.0829
-19.0204
-27.3788
23.037
-3.3753
51.4109
10.4286
72.4681
-5.26236
6.91346
45.2706
1.62608
8.69025
39.3856
32.7076
22.8916
-38.0882
-2.6117
35.5231
24.5088
13.5211
-48.7326
-8.33535
-18.2379
-259.611
-21.0432
31.7746
0.542326
27.877
-6.44493
61.4909
45.7176
10.9403
31.2028
10.1803
-289.792
33.2867
27.5737
-1.7166
15.2454
46.3067
41.6207
-3.87144
-49.2136
-69.1561
33.8905
17.4081
-3.18507
39.1285
-49.2747
35.4376
-107.743
36.4519
14.7039
-3.83329
12.8809
43.5358
-5.80854
38.6955
50.0202
5.25343
-14.2804
18.782
1.25322
58.2906
-151.153
52.702
44.1724
-227.425
-20.6892
-0.0299902
-18.9974
-85.0096
-10.2501
34.0813
52.9363
41.0301
54.0872
23.2927
48.8784
12.7938
2.73007
14.3437
0.244158
0.112431
31.0233
0.591693
55.7764
8.55702
-420.886
24.7113
55.5556
58.0439
-128.845
21.6048
-30.0075
-129.212
16.0653
2.87529
-7.88077
16.9199
57.8737
-269.902
-127.537
-61.9966
13.1406
3.89603
2.76109
36.2655
38.2188
-5.08732
-5.77086
-12.6848
-45.4661
33.3306
33.6292
35.5559
22.5194
6.73223
25.3314
2.13225