/*--------------------------------*- C++ -*----------------------------------*\
| =========                 |                                                 |
| \\      /  F ield         | OpenFOAM: The Open Source CFD Toolbox           |
|  \\    /   O peration     | Version:  2306                                  |
|   \\  /    A nd           | Website:  www.openfoam.com                      |
|    \\/     M anipulation  |                                                 |
\*---------------------------------------------------------------------------*/
FoamFile
{
    version     2.0;
    format      ascii;
    arch        "LSB;label=32;scalar=64";
    class       volVectorField;
    location    "0.9";
    object      U;
}
// * * * * * * * * * * * * * * * * * * * * * * * * * * * * * * * * * * * * * //

dimensions      [0 1 -1 0 0 0 0];

internalField   nonuniform List<vector> 
13486
(
(7.01633 -0.860021 2.8245e-20)
(8.44652 1.53906 1.23824e-20)
(11.1853 0.252402 0)
(5.52667 -2.65713 -4.36098e-21)
(11.0504 -2.72689 9.93206e-21)
(11.9053 0.598126 2.00406e-21)
(12.3459 -2.44884 5.98731e-23)
(9.44425 -3.48814 -1.55665e-20)
(9.25738 -1.87394 0)
(9.98824 3.68461 0)
(-2.63482 -8.70356 -7.56471e-20)
(12.5435 -0.330787 0)
(6.23788 -1.86584 -2.84474e-20)
(12.2022 3.60439 3.05515e-21)
(11.7442 -2.02841 4.92724e-21)
(9.89506 3.88417 -6.79406e-21)
(-14.8799 8.99425 8.51917e-20)
(6.84344 -1.82249 -1.691e-21)
(11.8134 -0.0599637 1.14671e-22)
(8.00496 -0.0172643 -2.78616e-20)
(6.11965 -3.36013 -2.02655e-21)
(6.32104 -1.92181 3.66492e-20)
(8.46539 1.41183 -9.91911e-21)
(11.7292 -4.41757 0)
(10.3052 2.7729 1.945e-21)
(11.6992 -4.01719 -6.07446e-21)
(-14.7724 5.24083 7.54325e-20)
(12.0096 -0.610244 1.97326e-20)
(10.0202 0.126222 0)
(10.7695 -1.61884 -1.12416e-20)
(6.0401 -3.14119 -1.46468e-21)
(12.2756 -1.59383 -5.64715e-21)
(14.1013 -2.02508 1.90562e-20)
(10.0086 -0.48406 0)
(9.46517 -3.3328 0)
(9.65428 -0.0268336 4.29133e-23)
(9.59093 0.476778 -2.29615e-22)
(7.61363 -3.47633 1.50257e-20)
(8.73755 0.277348 -4.71117e-22)
(9.4521 -1.0628 1.41558e-20)
(11.3776 -3.95091 0)
(5.38407 -2.50474 -3.37638e-20)
(10.2838 -0.0769983 0)
(10.3302 2.59416 -9.8351e-21)
(10.4037 2.58228 3.95402e-21)
(12.4333 -0.234154 3.42997e-21)
(5.2546 8.78859 2.20999e-19)
(9.96257 0.0955119 -4.03563e-23)
(9.62256 0.469361 1.75877e-22)
(12.8238 -0.141993 1.10295e-20)
(9.96004 0.147683 1.43396e-20)
(8.95689 0.135313 0)
(12.9522 -0.663488 -3.14507e-21)
(7.8651 -2.77339 -2.15519e-20)
(7.02669 -2.3529 0)
(10.9615 -2.78134 -6.56039e-21)
(10.3053 0.571244 -2.80654e-22)
(8.81111 0.11535 -2.01327e-21)
(13.7646 -1.94976 2.1872e-20)
(9.67579 0.782904 0)
(-0.904945 -10.5599 -5.66025e-20)
(9.70058 0.724063 0)
(20.9389 -0.558326 -4.00256e-20)
(6.21593 -3.26362 -2.32827e-23)
(7.92094 -4.41052 0)
(9.66717 0.529848 -1.29656e-22)
(5.26494 -2.67805 -4.35327e-21)
(7.01059 0.441381 9.28016e-21)
(9.30082 -1.99475 -8.25139e-21)
(9.62175 0.088083 3.55011e-22)
(5.25161 -2.41775 5.02662e-21)
(7.77062 -2.27156 -2.09131e-22)
(9.55362 -0.498854 1.0323e-20)
(-0.878324 1.2841 -3.45177e-20)
(9.73357 0.591572 -1.74548e-23)
(10.3169 0.580437 6.61381e-23)
(9.69839 0.542796 3.78228e-23)
(11.7334 -2.13135 -2.03403e-21)
(4.36701 5.30864 -1.38612e-19)
(8.17962 -1.38114 0)
(9.9371 0.0566529 -1.41122e-23)
(8.03889 2.18684 -7.93439e-22)
(23.0722 -1.46276 1.32694e-22)
(11.76 0.452672 -4.18069e-22)
(6.97961 -0.929006 -5.50479e-20)
(7.14564 8.52461 0)
(3.78071 0.20323 -7.72783e-21)
(10.0921 0.157134 -2.15806e-20)
(9.06354 1.24601 -9.99153e-21)
(8.96924 5.24953 -6.92581e-21)
(12.6765 -1.66396 -2.67596e-21)
(10.0074 -3.06645 -8.08267e-21)
(7.29646 -1.47234 7.26543e-21)
(8.20205 0.494166 7.10468e-22)
(8.79612 -2.70427 3.41672e-21)
(10.0278 0.102307 4.44345e-24)
(-13.7887 5.21001 0)
(5.67109 -3.28236 2.20895e-21)
(9.40431 -1.03879 -2.70181e-20)
(-16.2845 10.3336 2.17421e-21)
(10.0716 0.0365305 0)
(12.0975 3.65913 1.0038e-21)
(5.42937 -3.30317 1.39696e-22)
(9.05108 0.0974791 2.3405e-21)
(7.40447 8.67414 0)
(-14.8183 9.47428 2.0182e-21)
(9.66319 0.228195 3.89071e-23)
(8.5929 0.257686 -1.08318e-21)
(4.5279 9.25979 1.68417e-19)
(9.68158 -4.4658 0)
(8.26613 -3.92158 0)
(12.1657 -1.89186 -5.24941e-21)
(7.928 -2.68159 1.85518e-22)
(10.3678 0.344254 3.12226e-23)
(5.23415 -0.122065 0)
(8.08831 -3.84213 -1.30652e-20)
(10.1416 2.89159 0)
(10.1587 -0.479665 0)
(9.36042 -0.462695 0)
(9.774 0.39498 -2.66923e-22)
(7.08203 -1.93235 9.27817e-22)
(-1.32576 -11.3546 0)
(8.62958 -2.42659 0)
(8.64311 0.290492 1.54808e-21)
(8.95463 -3.22676 0)
(9.12021 0.163854 0)
(10.6602 -1.47196 3.10989e-22)
(10.7554 0.637181 2.16501e-21)
(9.72099 -0.170542 -1.75024e-21)
(8.20377 -3.85996 -3.08877e-21)
(9.03425 0.152421 -2.66121e-22)
(6.823 9.37139 -5.72453e-20)
(-1.10103 1.81901 3.36912e-20)
(-0.725815 -2.03352 5.05627e-20)
(9.91506 0.0476912 -2.39868e-21)
(9.57504 2.2783 -1.05913e-20)
(5.01916 3.97572 -7.62874e-21)
(9.34242 -4.20335 0)
(9.66879 0.277987 7.46618e-23)
(9.54506 -2.80905 -5.44575e-21)
(13.6592 -0.857585 -2.05295e-20)
(12.9199 -0.782215 2.59723e-21)
(12.3976 -1.08315 0)
(8.12431 -1.18743 0)
(10.3209 0.0998973 1.26948e-22)
(19.5989 -5.99623 -6.32409e-20)
(13.7609 3.10401 2.27184e-21)
(-3.34701 7.97572 0)
(12.8893 -0.109608 0)
(10.0132 0.107298 0)
(10.0528 -0.0544641 1.92503e-22)
(11.6178 -2.46095 0)
(9.97238 0.0558798 1.47696e-23)
(7.83462 2.02191 -6.73856e-21)
(10.9636 1.57573 0)
(11.5911 0.240472 0)
(9.54259 -4.28225 0)
(2.71113 -1.18083 -1.24121e-21)
(8.31958 -3.27994 3.11199e-20)
(10.1471 1.48119 2.7245e-22)
(12.5992 0.0945499 7.27996e-21)
(8.36762 -3.18317 -4.67504e-20)
(11.2898 -2.05189 1.49483e-21)
(4.89521 -2.40404 1.48649e-20)
(9.00985 0.217068 0)
(12.8066 3.56532 -6.14077e-21)
(11.6364 3.28037 -3.04237e-21)
(1.96065 -0.411511 -3.53669e-20)
(13.6511 3.13899 -5.78852e-21)
(0.225345 -2.10361 1.40781e-20)
(1.38027 4.79454 5.05401e-21)
(10.9975 1.4702 2.22292e-21)
(10.013 0.338069 -1.64494e-20)
(11.3574 -1.21893 4.65703e-22)
(9.86557 0.0460594 3.77857e-24)
(4.27089 -5.8166 0)
(12.5545 5.34477 8.47622e-21)
(14.4185 -1.09274 2.96956e-20)
(9.62639 0.247283 -2.50032e-20)
(12.3814 -0.968704 0)
(9.79023 -1.47982 2.88956e-20)
(10.231 0.366224 5.88267e-23)
(11.6844 -1.15153 -2.55914e-22)
(-2.66599 0.0834947 0)
(12.3217 0.878793 7.0447e-22)
(11.6623 -0.436499 -8.95049e-21)
(10.0927 0.110709 -2.02295e-23)
(10.7206 -1.03534 -3.47013e-21)
(11.0967 -4.03972 0)
(7.49117 -3.62835 -1.76012e-20)
(9.63559 0.349558 0)
(10.8204 0.063314 0)
(8.82124 0.0552597 0)
(8.14521 5.19801 -1.39749e-20)
(8.64925 -0.102121 0)
(-5.21696 -10.5383 -1.53927e-20)
(8.03055 -4.05348 7.30339e-21)
(12.7793 -0.0109743 3.97235e-21)
(6.83943 -3.28973 -6.71195e-21)
(12.6571 3.26695 -2.95177e-21)
(5.90571 -3.15415 1.59692e-21)
(10.9162 0.515777 -6.15225e-23)
(7.57625 -3.58211 -1.74119e-20)
(10.425 -4.31207 3.41426e-21)
(10.1239 1.4176 -3.26208e-22)
(8.84497 -0.0632175 -1.94954e-21)
(6.71477 -2.21891 -9.48794e-22)
(9.03404 -0.110022 2.10193e-20)
(8.67869 0.0484722 0)
(12.0996 0.75119 0)
(11.4763 -0.556505 1.27335e-20)
(10.1914 -4.23391 8.8329e-21)
(8.06192 0.0975371 2.55786e-20)
(9.47461 0.259794 2.2692e-22)
(11.9835 0.792785 -2.31112e-21)
(8.89543 -1.97301 1.27618e-21)
(11.0877 -1.52252 0)
(9.12803 4.79805 1.97285e-20)
(7.65928 -1.58564 0)
(15.9051 3.33972 0)
(-14.349 9.59172 -1.53935e-19)
(12.9964 -0.0334152 0)
(9.45103 -2.78342 1.28036e-20)
(12.6838 0.116495 0)
(13.4389 -0.758764 -1.9377e-22)
(6.39127 -2.88745 1.05309e-20)
(12.6891 1.44418 -4.2818e-22)
(5.68477 -3.77507 1.13052e-21)
(8.9333 -1.23713 2.0547e-22)
(4.31586 0.313372 1.54479e-21)
(9.70818 -1.47765 -9.25108e-21)
(9.51058 -2.98794 7.79461e-21)
(13.6495 -1.12887 2.58673e-20)
(5.22521 -2.40235 1.15438e-20)
(5.53384 -3.39093 0)
(6.18511 -2.94889 1.24753e-21)
(10.322 -0.812514 5.87491e-21)
(10.9723 0.137393 -2.51815e-22)
(6.35098 -2.98914 3.42691e-20)
(11.8605 -0.750038 0)
(13.6754 -2.53281 0)
(10.1113 0.480316 2.53018e-20)
(10.5274 0.220924 0)
(6.16806 -3.01495 1.14482e-20)
(8.48559 0.587108 -8.80565e-22)
(8.93508 0.343635 0)
(12.1 -0.182714 -1.75533e-21)
(11.368 -2.93333 2.0707e-20)
(3.6931 -0.932312 8.91976e-20)
(10.0068 2.61513 0)
(2.85483 -3.77457 -9.84651e-22)
(5.06576 0.0168974 4.12418e-21)
(7.57593 -3.72014 1.6673e-20)
(8.4677 0.240459 0)
(8.52875 -1.07949 1.57049e-21)
(3.91612 -6.92658 1.39902e-21)
(12.2924 -1.53372 4.37666e-21)
(8.84416 -1.97281 -1.61264e-21)
(3.92656 -3.26246 1.29981e-21)
(13.7452 -2.38829 1.42114e-20)
(8.94101 1.1132 0)
(8.52997 0.620256 -4.93245e-23)
(11.8068 -2.04994 -1.14866e-20)
(3.88688 -6.4797 -1.74691e-21)
(10.4845 -3.59484 -1.03818e-20)
(-2.88399 -0.573731 0)
(9.09921 -1.24007 -3.38639e-21)
(5.91879 -3.21097 -2.17821e-21)
(10.1472 0.0163202 -1.2116e-20)
(7.42034 -2.25149 0)
(7.51538 4.82483 9.90115e-21)
(9.55925 0.333873 -6.65469e-21)
(11.0638 -1.62794 0)
(12.8882 -0.405337 2.21114e-21)
(6.55259 -3.01376 1.40807e-20)
(11.2384 -2.74485 -1.15393e-20)
(8.60032 -0.971219 0)
(7.56504 -2.78958 0)
(8.35827 0.11994 -1.23271e-21)
(14.1709 2.474 -3.93169e-21)
(7.45374 -2.86979 3.6059e-21)
(10.3891 -1.06323 -1.02944e-20)
(9.64979 0.387167 1.46997e-20)
(13.2394 -6.60724 -1.70529e-20)
(-2.68986 -9.73557 5.62851e-20)
(-16.8883 6.82747 1.75883e-19)
(14.0173 -0.77707 2.50862e-20)
(9.74683 -0.227776 2.30149e-21)
(13.5717 -0.809388 1.04624e-22)
(9.749 -0.105996 0)
(5.64508 -3.2529 0)
(9.24335 1.03204 2.31285e-22)
(8.01203 -3.79322 1.3149e-20)
(10.0177 0.0682004 -2.35185e-21)
(10.3361 -0.678601 5.49269e-21)
(10.5072 -0.926961 0)
(12.4158 -0.0576514 -9.33577e-21)
(12.8963 -0.181769 -1.58588e-21)
(9.68452 0.378508 -1.35695e-20)
(12.1118 -3.00401 3.99141e-21)
(9.25479 -1.732 -1.92312e-21)
(6.66539 -2.1257 3.5095e-22)
(14.3109 2.55045 3.35073e-21)
(12.1991 -1.55264 5.34524e-21)
(9.61151 0.435374 9.92418e-23)
(9.09045 -4.49323 0)
(0.208675 -0.701587 0)
(11.4475 -0.147679 3.66754e-21)
(5.07914 0.0697856 4.92956e-21)
(9.61357 0.536315 0)
(11.3638 6.9302 -8.52636e-20)
(4.63313 -2.31768 0)
(11.9726 5.43339 -2.43652e-21)
(12.5986 -1.82941 -5.09571e-21)
(11.6419 -13.8386 0)
(9.57804 2.0315 -6.36348e-21)
(9.23543 1.11233 -3.13767e-22)
(9.1761 1.13523 -8.48805e-22)
(9.24966 -0.0720382 -2.30262e-20)
(9.21203 -1.32613 0)
(9.7059 0.537951 2.04578e-22)
(9.09856 0.909413 1.77385e-23)
(9.87529 0.325944 3.12056e-21)
(7.83312 0.789561 -1.32927e-20)
(2.77508 4.40321 1.40371e-20)
(12.729 -1.61293 4.76752e-21)
(10.8011 -1.97987 -2.95921e-20)
(10.3025 -1.01659 0)
(13.0235 0.315279 1.49512e-22)
(10.936 -2.05882 -5.56344e-21)
(9.93743 0.161566 3.12722e-20)
(10.142 -3.10709 0)
(12.7521 -1.85967 -9.85518e-22)
(7.18451 2.21664 0)
(11.9565 -2.53388 -9.73743e-21)
(9.09287 -2.62349 -9.27021e-21)
(3.74863 -1.63082 1.38941e-20)
(11.5027 -2.52538 -8.21572e-21)
(10.1594 0.995091 0)
(8.48472 0.762157 -1.23371e-21)
(9.00217 -1.27589 3.6754e-21)
(8.04116 0.796447 1.257e-20)
(10.9977 -2.07812 2.1323e-20)
(11.6865 -1.18511 9.17942e-21)
(-3.08685 -3.11912 -1.20287e-20)
(9.97909 0.124795 3.34973e-23)
(10.9184 -1.17202 0)
(4.97755 -1.42668 3.28936e-20)
(16.0766 3.3822 0)
(9.15241 1.09638 -4.22419e-23)
(10.7816 -0.628016 1.69157e-20)
(13.0152 0.122612 -1.12089e-21)
(12.8753 -0.392628 1.51153e-21)
(-12.7572 4.54968 -6.60211e-20)
(9.61759 0.345936 1.69872e-20)
(9.76222 -0.0346157 0)
(-1.73761 -0.544047 -2.63386e-20)
(10.7347 -1.51165 -6.20727e-21)
(5.31632 0.470051 -1.64859e-21)
(10.2597 -3.85962 8.37908e-21)
(12.7261 -0.00642698 0)
(13.4439 -1.59119 1.89043e-21)
(8.75982 0.761382 2.62855e-20)
(9.78753 0.288003 2.01421e-20)
(10.769 -1.76457 0)
(9.94995 -0.00274487 5.0598e-24)
(10.5463 -0.853663 -5.51766e-21)
(7.98704 9.24263 2.54275e-20)
(7.66908 0.0632562 3.56893e-21)
(10.6278 -1.26199 5.92052e-21)
(10.3349 -0.0790892 -2.30686e-23)
(10.9008 -1.08118 0)
(13.5785 -0.787719 -1.29257e-22)
(2.02811 -4.03908 1.26042e-21)
(12.0006 1.79864 3.59359e-21)
(9.93326 0.0770932 1.21626e-20)
(8.51374 -0.0585953 0)
(8.92937 1.00086 -8.42777e-22)
(14.4002 -13.5996 0)
(16.0554 5.42164 -1.68969e-20)
(10.2002 -0.0175317 0)
(10.0479 -3.4956 -2.75055e-22)
(6.62974 -0.366234 -7.7577e-21)
(7.33374 3.62267 2.3676e-20)
(7.21323 10.5795 -1.11835e-19)
(8.7868 -0.933182 0)
(11.2117 0.486499 5.00082e-22)
(10.2518 1.15241 -6.23228e-21)
(-5.08935 7.66291 -2.92908e-20)
(6.0756 -3.1255 2.05037e-22)
(8.16228 -0.0415551 -3.8439e-20)
(11.3516 -1.46828 5.81309e-21)
(10.3505 0.94315 3.77444e-21)
(7.10609 -2.09509 0)
(6.92152 1.82067 1.45248e-20)
(9.77474 0.31711 -2.06327e-23)
(4.99104 -2.63001 2.46453e-21)
(2.17439 -3.82937 -4.15097e-21)
(-10.9537 9.95379 -7.00985e-20)
(14.0424 -0.736421 0)
(-8.01233 8.93414 0)
(10.4287 6.03968 0)
(10.2084 -0.390284 0)
(2.56676 -2.71772 -2.50607e-21)
(11.9443 -2.42335 0)
(10.6567 -5.80622 0)
(8.33347 0.609494 5.20496e-21)
(14.3478 -1.05004 -3.05121e-20)
(10.8442 -1.00947 -1.38139e-20)
(8.55824 1.63189 4.2381e-20)
(10.0803 0.278159 -3.06471e-21)
(12.2515 7.93757 0)
(11.8389 -1.35662 0)
(9.47931 0.433099 1.45532e-20)
(10.1034 0.156436 2.4588e-21)
(6.44441 5.01824 0)
(-1.51496 -0.16001 8.44819e-21)
(10.3528 -3.66644 1.16457e-20)
(1.77106 6.74745 0)
(11.7262 -0.765064 8.89871e-21)
(9.92412 0.129375 -1.6596e-20)
(4.5622 -0.93651 -1.20199e-21)
(4.96675 -1.36711 0)
(9.93649 0.913069 1.21629e-20)
(12.6958 0.776084 0)
(10.7012 -0.98999 0)
(10.8214 1.03869 -2.63267e-22)
(9.74891 0.434445 7.67473e-21)
(-14.7894 6.0431 -9.89263e-20)
(11.5323 3.17949 -3.26081e-22)
(6.57707 -1.44229 -1.38963e-20)
(10.038 -0.399691 1.79135e-21)
(10.4251 1.10758 2.85587e-21)
(13.8975 -0.849228 -2.3753e-22)
(10.7783 -3.57877 0)
(11.5941 -2.82458 1.10175e-20)
(6.75485 -0.0373732 0)
(9.20179 1.02297 3.08065e-22)
(11.2204 -1.1804 0)
(7.14884 0.453786 1.97232e-20)
(-4.00896 12.8374 -1.47016e-19)
(11.3864 -1.39144 0)
(-3.84847 2.19047 2.43123e-21)
(11.7659 -1.49477 -1.35141e-20)
(7.97754 3.57669 -3.79367e-21)
(8.61594 -1.2434 3.74134e-20)
(7.19073 3.91165 -1.47651e-20)
(6.57207 -1.42177 -3.95666e-20)
(17.4723 5.55342 0)
(9.62974 0.343143 2.28381e-22)
(-3.45156 -4.1756 -3.28743e-20)
(9.9421 1.04436 0)
(9.18006 1.25933 9.29935e-22)
(12.4946 -0.151517 -2.32823e-21)
(13.8881 5.3307 0)
(9.9783 0.0267603 0)
(2.85841 -1.9082 0)
(4.66517 -5.88961 5.84434e-21)
(12.8487 -7.08686 2.01986e-20)
(17.5976 -5.82334 4.07117e-21)
(11.8446 5.12743 0)
(8.36933 -0.669875 2.51468e-20)
(9.93332 0.108103 -8.90479e-24)
(11.5122 2.96033 1.54736e-21)
(6.89933 -3.4747 4.18604e-21)
(9.69233 0.784482 0)
(10.0155 0.137049 0)
(3.60772 -0.489124 -2.18717e-20)
(6.99139 -2.03751 -9.84407e-21)
(9.45853 -0.779373 0)
(8.98276 -4.20252 -1.27594e-20)
(10.1521 0.0181988 -1.95669e-24)
(9.98654 0.106311 -1.35148e-24)
(4.06077 -1.69842 0)
(9.07591 -0.152538 2.25383e-21)
(9.74292 0.324506 1.52934e-22)
(12.6735 0.811862 8.58049e-21)
(8.97857 -2.6809 0)
(-16.5825 8.37205 -2.68178e-19)
(12.9053 -0.0547234 1.73194e-21)
(10.0655 0.439214 2.67516e-21)
(9.8081 0.192806 9.23505e-23)
(13.0669 3.42202 0)
(8.50885 1.67508 -1.12802e-20)
(15.6024 1.58702 -1.42321e-20)
(-13.5789 10.5925 1.39213e-20)
(9.80363 0.421825 0)
(5.95564 -3.14108 -2.10384e-22)
(2.32729 -0.163623 0)
(10.2435 0.189653 -9.84584e-21)
(10.0618 0.300098 4.78161e-21)
(9.199 0.245627 -2.81868e-21)
(4.0689 -6.18811 0)
(11.8815 0.146072 -7.66213e-22)
(5.5071 2.71453 3.93041e-20)
(10.7107 -3.57336 0)
(8.1148 0.594227 1.6157e-20)
(11.7858 -3.01999 -4.58998e-21)
(10.5829 0.101592 0)
(5.78123 -3.26798 1.05119e-21)
(8.14667 -1.16052 -3.14782e-21)
(10.3131 -0.0556281 0)
(-14.648 8.56495 1.78623e-19)
(9.25046 1.19776 0)
(8.57565 -3.94105 1.28556e-20)
(2.95347 -4.12771 2.52701e-21)
(10.0927 0.108415 1.94095e-23)
(12.1165 0.628282 -4.90678e-21)
(6.81368 1.75902 7.741e-21)
(8.70676 -1.38703 -1.37064e-20)
(8.67859 -0.889588 -1.55162e-21)
(8.64391 -3.86733 1.35942e-22)
(10.5687 -1.23682 5.63719e-21)
(13.1679 3.41324 1.23045e-20)
(10.2404 -4.65712 0)
(9.93169 0.189391 -1.07756e-20)
(1.64332 7.96733 -1.82381e-20)
(6.77936 -0.0806447 0)
(9.7528 0.47831 -6.16512e-24)
(9.209 0.0502061 0)
(5.99853 -1.42565 3.4726e-20)
(9.93213 -3.73747 0)
(9.9626 -0.0541831 -5.45694e-23)
(10.9807 -0.622309 -9.69159e-21)
(5.99874 -3.43587 2.01774e-21)
(4.23523 -2.5142 2.63579e-21)
(12.3877 -0.294892 -7.50732e-23)
(9.01163 -4.32089 1.22662e-20)
(8.59705 -2.42978 1.3781e-20)
(7.27091 -1.49512 0)
(-6.35292 2.14623 -1.84524e-20)
(10.9092 -3.3921 -2.36647e-21)
(-8.36031 1.65352 -2.13537e-20)
(9.97442 0.0968525 1.3188e-23)
(7.10025 -2.63378 0)
(10.8718 0.15558 -3.259e-23)
(-2.1451 -0.640121 0)
(5.0179 -3.29885 1.62643e-22)
(5.87612 -1.34385 1.57143e-21)
(0.579321 0.175323 0)
(9.90446 -2.66029 4.03108e-21)
(7.89123 -4.24331 0)
(13.8852 5.05373 0)
(8.27232 -3.95756 -1.68763e-20)
(7.33781 1.9285 1.1695e-20)
(7.71304 -1.86113 0)
(8.78711 0.928459 -7.13227e-21)
(19.4124 -6.34708 7.57076e-20)
(1.19944 -4.39887 7.56026e-21)
(14.2789 6.51489 0)
(10.4161 0.0445609 0)
(-4.28878 -4.61898 -1.83383e-20)
(9.17589 -0.406336 0)
(11.8786 0.283294 0)
(0.757304 -12.1565 -2.82207e-21)
(9.9248 -1.93814 -1.88718e-20)
(8.41574 -1.95018 1.16649e-20)
(13.3883 -2.84192 2.02173e-21)
(-6.83886 1.13383 3.31376e-20)
(9.87049 0.283676 5.5647e-21)
(7.44184 -1.6319 0)
(11.0649 2.3245 -1.1906e-21)
(6.94179 -0.750392 0)
(11.8822 0.13708 0)
(9.85628 0.713443 0)
(10.7984 0.932486 -1.9788e-22)
(9.04538 -0.0849514 1.06501e-20)
(10.5281 0.216258 -2.97903e-22)
(7.64072 -1.6909 0)
(-13.4079 4.52706 -5.9438e-20)
(10.3332 5.70974 8.05114e-22)
(8.9783 -3.3012 1.3322e-21)
(9.48231 -0.22033 -3.66292e-21)
(11.0399 -2.6928 1.82461e-20)
(10.0712 -0.0204367 -9.65195e-21)
(-2.40197 13.7148 0)
(12.898 -0.237811 0)
(6.76662 4.59025 0)
(6.03741 -2.59988 -2.55385e-20)
(6.82543 -3.73087 -3.01277e-21)
(-1.01063 -2.86106 0)
(11.1544 2.30601 0)
(12.9696 -0.819212 8.44797e-22)
(9.88545 0.0203049 -2.80819e-21)
(9.63388 3.13393 1.01751e-20)
(10.6471 -4.31372 0)
(-10.2089 -1.39507 -2.22521e-20)
(11.455 0.415439 -1.56654e-21)
(6.83562 -1.85028 -2.34163e-20)
(10.9685 0.408265 -6.37172e-22)
(11.5203 2.92041 -2.66946e-22)
(9.57471 -5.78383 7.18311e-21)
(5.95522 -2.56802 4.40274e-20)
(8.66492 -2.74283 5.49357e-21)
(10.3444 0.304016 6.55444e-23)
(9.90448 -0.0325969 -2.78285e-21)
(8.0292 -3.92978 -3.84028e-21)
(8.12743 -1.02498 1.41938e-21)
(10.0531 11.9526 -1.60031e-22)
(8.75557 -4.14612 6.67787e-21)
(12.7053 0.61143 0)
(6.17275 1.30837 4.52125e-21)
(10.4335 0.0394424 -6.19914e-21)
(14.5278 3.55928 7.54982e-21)
(6.69893 -1.63768 -2.13417e-20)
(8.92374 -3.15393 -1.42227e-20)
(10.3173 0.0288819 2.67847e-20)
(11.7845 -0.293292 -1.53925e-20)
(9.01522 -1.37084 1.11378e-21)
(14.168 -0.520341 -1.29881e-20)
(5.73828 -0.652812 -4.64663e-20)
(10.6222 0.0401027 -4.73331e-21)
(5.59898 -0.878562 0)
(5.84504 -3.66921 -4.72763e-21)
(9.93414 0.153969 2.48871e-20)
(9.42811 -0.105699 7.69903e-24)
(0.0181633 2.48051 0)
(9.31459 -4.28005 0)
(10.1763 2.46628 8.4242e-21)
(4.97789 -0.560585 2.8894e-20)
(7.64604 -5.32936 -8.14095e-21)
(10.1798 -3.49763 -7.21985e-21)
(10.8864 -2.0262 1.62302e-20)
(16.223 2.83063 0)
(10.1349 2.52202 4.41746e-21)
(6.78835 -2.02119 -2.84191e-22)
(12.7749 5.03291 8.66478e-21)
(9.78042 -1.32369 -1.63002e-20)
(-5.66101 1.25731 -5.07552e-20)
(10.951 -2.51821 -1.77725e-20)
(11.662 -2.91954 5.88449e-21)
(11.4477 6.2113 0)
(9.69576 -1.28113 -2.48875e-21)
(9.1837 0.141152 2.63609e-21)
(9.95334 0.0395936 -1.90917e-23)
(4.84699 -2.31403 4.09055e-20)
(9.53234 -1.31678 2.45603e-20)
(10.0468 1.37022 -3.26234e-23)
(1.34732 -4.08856 -3.81441e-21)
(10.7618 -0.546123 -6.34814e-21)
(10.5195 0.0988499 4.18289e-21)
(-5.34166 -8.13494 -7.46669e-21)
(12.3414 5.05784 -1.01131e-20)
(-15.9055 9.90096 -1.94079e-19)
(6.50672 -3.08155 -1.35226e-20)
(9.95282 0.0505098 0)
(10.3065 0.546192 -2.50764e-22)
(0.650707 -9.29413 -8.45869e-21)
(6.59943 -0.496147 4.15371e-20)
(10.1794 0.12902 0)
(9.08428 -2.43481 1.2716e-21)
(5.79856 -2.20238 9.97298e-21)
(9.94648 0.184948 -2.3409e-20)
(-0.421284 -2.18695 -5.63049e-21)
(7.5669 -1.8472 -1.03542e-21)
(10.7978 -1.07606 9.46126e-21)
(11.1368 0.419069 -1.13908e-21)
(8.66442 -4.00065 -1.77915e-20)
(10.4633 0.22473 3.23328e-22)
(6.86678 -4.00978 -7.62905e-21)
(10.4089 -0.00927933 5.81643e-21)
(9.99446 -0.253919 -7.65715e-21)
(10.6842 0.555582 -3.1921e-22)
(10.8857 0.0216881 -1.63663e-20)
(5.55505 -2.26045 -1.92702e-20)
(10.3337 0.358771 0)
(4.69912 -4.64102 3.47424e-21)
(10.2641 0.0675371 1.8468e-21)
(5.02524 -0.943499 -8.37153e-22)
(11.8439 0.192415 -3.91347e-21)
(10.5054 -2.14701 -1.00589e-20)
(9.96885 0.0920908 -1.75179e-20)
(10.634 1.85404 2.21914e-21)
(-1.20047 -0.352265 -8.68355e-21)
(12.1344 0.324806 0)
(8.83754 0.871898 4.42901e-22)
(13.1206 0.219585 1.14885e-21)
(7.12253 -2.55265 0)
(10.6673 0.569493 3.08974e-21)
(12.9698 0.459097 9.9541e-22)
(11.6817 0.375738 2.1575e-25)
(12.082 -4.56709 -1.28695e-21)
(8.86232 -0.135855 0)
(9.0182 1.95859 2.01577e-20)
(10.1959 1.05545 2.49699e-22)
(8.57746 -4.04698 1.44817e-20)
(9.8672 -0.888268 0)
(7.27131 1.94681 -3.38951e-20)
(7.15872 -1.86209 8.60392e-22)
(12.5967 8.11345 -1.84852e-20)
(5.78268 -0.713193 4.54595e-20)
(10.3996 0.100474 3.82499e-22)
(3.765 -2.46549 2.09109e-21)
(9.52222 -0.329068 -1.6734e-20)
(11.917 -2.60381 -1.62666e-20)
(8.76966 0.836303 -1.50988e-20)
(10.4245 0.00886614 0)
(9.93121 0.121413 -1.05689e-20)
(-2.50925 -0.325981 1.07871e-20)
(-2.86767 -2.30521 0)
(10.7643 -4.29101 0)
(9.93498 0.0328672 0)
(-15.406 10.8713 0)
(10.206 1.70562 0)
(5.41757 -0.562089 0)
(9.11473 -2.02095 -1.09924e-22)
(16.2454 -5.8679 -2.90309e-20)
(12.8253 1.56471 0)
(8.30754 1.60735 3.01707e-20)
(8.77823 -2.08271 -4.45622e-21)
(10.4645 1.09907 3.02434e-22)
(0.652907 -9.91784 -6.70846e-21)
(5.44539 0.639642 -1.22186e-22)
(-0.672016 -1.22098 5.49352e-21)
(10.9667 0.0597284 -5.85256e-21)
(12.8776 -0.207121 1.49025e-21)
(10.1939 1.71043 -5.84887e-21)
(9.2587 1.15951 -1.99157e-20)
(9.96223 5.30377 -5.15009e-21)
(17.387 4.82981 0)
(6.30897 -3.38183 7.02802e-22)
(6.06488 -1.52516 -3.80213e-20)
(10.314 0.0536228 -3.21186e-20)
(11.041 -3.34864 -1.39409e-20)
(10.329 -0.0891181 2.66835e-21)
(12.854 -3.33374 1.81742e-21)
(10.3369 -1.74127 -2.13153e-21)
(10.0267 -2.63579 -1.40091e-20)
(10.1369 1.01075 6.45983e-21)
(12.6292 8.86406 0)
(8.70942 -0.741765 -1.40932e-21)
(8.50042 0.473701 -4.70711e-21)
(12.0579 -2.27054 0)
(8.529 0.125648 0)
(9.0535 -4.12784 -9.50201e-23)
(3.80874 -2.52734 2.38532e-21)
(9.05003 -2.03206 -6.26778e-21)
(9.19287 0.263696 0)
(9.54715 -0.169668 -2.17099e-20)
(9.16904 1.19846 -3.88636e-21)
(5.22974 -4.05502 1.95569e-21)
(12.5336 0.74652 8.45492e-22)
(0.210184 -1.49175 0)
(6.16165 -3.37246 8.21165e-22)
(12.8665 0.528667 0)
(9.50947 -1.26329 2.67258e-21)
(12.9393 -1.57554 -1.93841e-21)
(10.0871 0.124157 -1.58789e-22)
(11.7103 3.37033 5.43229e-21)
(14.0619 5.7679 -2.02124e-21)
(8.3749 -2.32303 2.85069e-20)
(5.92551 -2.78989 0)
(7.86589 -3.68651 -6.9615e-21)
(7.56844 -2.24796 0)
(13.119 1.53935 -3.63561e-21)
(5.13712 -3.90951 3.52441e-21)
(10.671 -4.26168 1.15717e-20)
(8.73358 0.788293 -5.70324e-22)
(3.59411 -7.98536 -1.17574e-20)
(7.71099 -3.6264 -1.6726e-20)
(6.26894 -1.5795 -2.20863e-20)
(9.6394 0.377523 1.34715e-23)
(8.01014 -3.57006 5.67022e-21)
(5.63692 -2.33735 1.57994e-20)
(6.58479 -1.7952 2.39404e-20)
(6.51084 -3.51577 3.55612e-21)
(8.35048 -4.01052 -3.66116e-21)
(8.83183 -2.74382 1.41258e-20)
(3.85939 11.7049 1.01529e-19)
(10.4725 0.0684509 2.1697e-22)
(6.40088 -1.86313 3.18486e-21)
(11.637 2.06377 4.69558e-22)
(10.8789 -2.86243 0)
(-11.4151 8.35658 -1.5256e-19)
(10.2518 0.0327388 -7.90854e-21)
(9.90128 0.765572 0)
(12.9537 1.42218 0)
(7.46552 -3.04636 -4.37808e-21)
(12.8095 -3.7346 -1.83469e-20)
(11.9429 0.948391 7.76401e-21)
(9.87411 -1.90884 2.48165e-20)
(9.68241 4.98783 5.28438e-21)
(9.31503 -0.0935955 1.7196e-20)
(4.84101 -4.20614 -2.15136e-22)
(9.04115 3.23644 0)
(6.7494 -1.97615 2.28351e-20)
(0.803103 -6.71154 3.8523e-20)
(3.57025 -7.60261 8.52763e-21)
(8.31152 -3.11278 4.80761e-21)
(9.41236 -4.46917 -4.02208e-21)
(10.8132 -0.0222483 8.39148e-21)
(8.68018 0.34328 4.70359e-22)
(10.593 -1.58889 1.19511e-20)
(4.69783 -4.33743 -2.45057e-21)
(11.7333 0.894151 -5.76786e-21)
(9.50114 0.338238 8.50578e-21)
(5.58962 -0.883328 -1.87047e-20)
(9.08948 -0.240093 1.36635e-20)
(9.36404 -1.41894 0)
(12.0468 1.74776 -5.90543e-21)
(9.57353 0.316675 1.88872e-21)
(7.24239 -1.31007 -7.28654e-21)
(10.1024 8.43989 5.12874e-21)
(8.72049 -2.65342 1.0501e-20)
(10.0088 0.0491179 3.70963e-21)
(6.77525 0.935201 -2.66503e-20)
(12.3449 -2.36356 0)
(8.86737 0.709273 -9.94708e-22)
(11.0989 0.424927 8.6493e-22)
(9.37798 -0.344355 0)
(7.08234 0.366661 1.53439e-20)
(12.409 0.811069 0)
(7.69242 10.7729 2.00016e-22)
(11.5478 -0.104495 0)
(8.75795 -0.769563 0)
(12.4763 -0.163211 1.73235e-21)
(11.8712 0.738484 -3.23008e-21)
(14.6064 0.598175 -2.19833e-20)
(9.59197 0.797367 -8.89105e-21)
(7.50415 5.53655 -6.12662e-21)
(10.2225 0.536093 -3.15112e-21)
(10.4458 1.88277 0)
(17.7601 -1.4687 -1.68919e-20)
(12.3698 0.58192 6.29921e-21)
(9.50478 -1.30696 -5.49822e-21)
(10.8666 -2.8401 0)
(14.7196 3.32718 1.12057e-20)
(11.4086 7.93138 1.40381e-21)
(10.5574 0.0710005 3.92609e-22)
(7.34382 -8.27723 0)
(1.40729 -11.9292 3.76624e-20)
(10.1159 1.00094 0)
(10.9115 -1.365 -6.0465e-21)
(3.78414 -0.417585 0)
(21.4858 -1.79846 0)
(8.5868 -2.82882 0)
(9.76358 -3.68796 0)
(-6.64161 -7.32837 -1.48151e-20)
(4.8246 -5.57793 -1.21672e-21)
(9.16411 -0.0612502 -1.59222e-20)
(5.86775 -3.40962 -2.45206e-21)
(6.10656 -2.48762 0)
(5.84498 -3.80994 -2.03385e-21)
(2.64279 0.852773 -8.84782e-20)
(7.76797 -3.5789 0)
(7.1115 -2.35752 -2.46536e-20)
(9.731 0.57851 -1.57833e-23)
(11.469 2.02499 -1.72749e-21)
(11.6422 -4.0922 3.92391e-21)
(9.02032 1.09853 0)
(10.437 -3.47812 0)
(17.2457 0.397409 1.26891e-20)
(8.06114 -0.831645 3.37976e-22)
(9.60176 0.376459 -1.8526e-22)
(7.45657 -2.95488 2.633e-23)
(10.0611 0.0623708 7.76789e-22)
(10.3044 0.424308 8.74828e-24)
(10.099 0.876501 9.22734e-21)
(9.05589 0.92252 4.09365e-22)
(9.07127 -2.51968 0)
(-15.4821 4.56171 0)
(10.485 0.169159 0)
(9.69141 0.0208413 0)
(8.39866 -1.45559 1.01661e-20)
(13.2088 -0.557937 0)
(-2.10102 -10.5115 1.17229e-19)
(9.21177 -5.65647 -4.88837e-22)
(6.41514 -1.85262 -3.62091e-20)
(8.19275 -2.67914 2.86176e-21)
(4.91942 -4.69405 -1.89079e-21)
(2.5531 -14.0671 -8.21957e-20)
(9.77723 0.11043 2.94065e-21)
(3.79717 -4.78444 -2.60844e-21)
(9.19318 0.960682 5.12063e-22)
(12.4622 -0.0997088 0)
(11.4406 -2.07261 0)
(8.28276 -2.40092 0)
(10.4818 -2.29597 5.33061e-21)
(8.19714 -4.23846 0)
(9.15695 3.04983 0)
(9.99741 0.13407 0)
(8.54431 -1.96629 1.09004e-20)
(10.3539 0.848594 -7.58586e-21)
(9.22096 0.08541 0)
(9.35331 -2.01417 -5.90169e-21)
(9.86836 0.964549 -9.84344e-21)
(12.7805 4.82156 -1.85754e-20)
(7.83431 -3.53239 1.51182e-20)
(9.60492 3.6403 1.34282e-22)
(8.17221 -1.39294 -2.70721e-22)
(8.44769 0.198862 1.21152e-21)
(8.76792 -1.13613 -2.99834e-21)
(11.6883 0.734558 4.65358e-21)
(9.64386 0.372618 -3.43143e-22)
(9.02105 0.486093 -1.49933e-20)
(10.33 0.032141 0)
(5.61468 -1.00794 5.319e-22)
(9.60099 0.278038 1.50525e-20)
(7.20949 -2.03391 1.01175e-21)
(10.371 -1.61165 -6.19915e-21)
(5.12298 -0.683946 -3.14296e-20)
(11.7136 0.60051 -8.64914e-22)
(15.7648 1.86988 2.05885e-20)
(10.045 0.25278 0)
(10.3146 -1.61971 1.23976e-20)
(8.98117 0.295863 -4.10314e-22)
(8.7474 -1.1872 5.69762e-21)
(6.2795 -3.29601 -4.77659e-21)
(9.80735 0.139553 8.05954e-21)
(10.3244 0.328227 -7.53109e-23)
(10.0948 0.0845445 -3.23547e-22)
(10.2905 0.191759 0)
(7.06744 -1.758 0)
(7.30481 -3.3887 1.87371e-20)
(0.00309097 -1.78173 6.08158e-21)
(9.91815 -0.010438 2.95644e-23)
(9.86549 0.294833 2.98545e-20)
(10.7428 -3.54251 -3.39403e-20)
(7.2799 1.72336 0)
(9.03334 0.521648 0)
(7.80276 -1.54947 -1.01278e-22)
(12.292 -0.0768145 2.7653e-21)
(9.7234 3.27439 1.32447e-20)
(12.3232 -0.956363 0)
(10.9212 0.0635906 0)
(10.0229 -2.90478 1.98716e-20)
(9.66319 -0.815986 1.30026e-20)
(0.718949 0.005895 -1.35523e-21)
(9.59342 -0.105583 0)
(20.9479 -0.129826 2.56604e-20)
(9.93686 -2.57 -2.31796e-21)
(0.816645 -8.80934 -1.11842e-20)
(9.80012 -0.0459823 -1.7542e-20)
(16.6324 -4.58849 0)
(13.1139 -3.81693 1.44425e-20)
(8.02095 -7.74807 -1.42745e-20)
(1.05528 0.104285 0)
(9.66408 -0.0333623 -3.30946e-22)
(9.53955 0.660489 -9.79462e-21)
(10.0341 0.0380612 -1.95251e-25)
(13.2865 -1.75383 1.37802e-21)
(7.39728 8.61144 2.52985e-20)
(10.6317 0.0539744 0)
(5.07078 -1.52964 -1.92648e-22)
(10.683 -5.17208 2.72255e-20)
(11.7707 -12.8917 -5.50169e-20)
(10.2264 1.61593 6.92607e-21)
(6.08941 -2.7304 1.26767e-21)
(10.0183 -0.00452538 -3.80197e-20)
(9.91185 1.4385 6.91366e-23)
(8.4629 0.515191 9.69268e-22)
(8.40227 -1.80393 0)
(9.00295 0.212203 -2.19789e-21)
(5.41161 -2.3562 1.27713e-20)
(10.9326 -0.639715 -1.85943e-20)
(9.74119 0.188307 -1.3504e-20)
(10.6412 -1.30363 5.48949e-21)
(8.23539 -0.564706 3.66282e-20)
(10.4245 0.0723141 -2.09024e-22)
(8.89503 0.557391 8.58372e-21)
(9.79084 0.341169 6.32522e-23)
(13.4711 -2.91617 -2.32007e-20)
(12.7119 5.36962 -1.43305e-20)
(7.72426 -5.56289 6.34441e-21)
(10.2947 -0.0714943 0)
(6.0081 -2.92751 0)
(5.45847 -2.58026 0)
(6.4179 -1.63645 2.77969e-20)
(9.98925 0.0731031 -2.17317e-20)
(9.15428 1.24761 0)
(7.38266 -1.43241 -2.15746e-20)
(8.93527 1.04477 0)
(8.49841 -1.32329 -1.67127e-20)
(9.15097 -1.34783 -5.76587e-21)
(8.99074 -2.31077 -1.54106e-20)
(10.6831 0.0200557 0)
(9.54116 0.269833 0)
(9.43885 -0.389321 3.33071e-21)
(12.738 1.35949 4.25984e-22)
(12.636 -0.459902 1.02259e-20)
(11.4025 8.83919 -6.23722e-22)
(12.5364 -1.44389 0)
(8.36065 -2.99293 -7.96297e-21)
(-4.88531 -3.40567 0)
(3.24081 4.01817 -1.40944e-20)
(14.1353 5.88024 0)
(10.375 0.321524 1.62634e-22)
(5.77087 -0.506661 1.20611e-20)
(7.30653 -0.39478 1.18936e-20)
(9.66826 -0.10643 -3.21563e-21)
(8.96964 -5.2454 -2.61439e-20)
(9.6392 -0.895898 3.29258e-20)
(10.241 1.72492 -2.5237e-22)
(11.7807 -3.12373 -2.13305e-21)
(9.60957 -2.14898 -7.69039e-21)
(-4.55146 -3.7979 3.88354e-20)
(13.1633 2.27179 0)
(9.90118 0.227946 7.20727e-23)
(7.48788 -1.68405 0)
(8.53529 0.467148 -1.01409e-21)
(8.45588 -3.01401 -4.13689e-21)
(8.3055 -0.403369 -1.20517e-20)
(9.92041 -0.0218127 -5.61791e-24)
(12.6725 0.221216 -9.71106e-21)
(8.29844 0.0734221 2.45749e-20)
(11.7928 -0.540645 -6.14179e-21)
(9.70308 0.482704 0)
(-10.5295 -1.31652 0)
(11.5832 0.491112 5.52285e-22)
(14.4888 0.559463 0)
(9.53184 0.868858 -4.70417e-21)