# Force       
# CofR        : (0.000000e+00 0.000000e+00 0.000000e+00)
#
# Time        	total_x total_y total_z	pressure_x pressure_y pressure_z	viscous_x viscous_y viscous_z
0.05           2.326480e+01 1.950918e+01 1.059757e-17 1.573260e+01 2.199741e+01 1.134106e-17 7.532199e+00 -2.488228e+00 -7.434817e-19
0.1            1.812122e+01 1.563280e+01 8.581368e-18 1.247743e+01 1.763993e+01 9.154610e-18 5.643788e+00 -2.007133e+00 -5.732419e-19
0.15           1.623901e+01 1.499490e+01 8.275639e-18 1.168854e+01 1.666864e+01 8.833887e-18 4.550463e+00 -1.673742e+00 -5.582479e-19
0.2            1.550971e+01 1.616116e+01 8.228512e-18 1.166902e+01 1.759586e+01 8.779839e-18 3.840691e+00 -1.434701e+00 -5.513276e-19
0.25           1.528112e+01 1.769919e+01 8.011803e-18 1.193671e+01 1.895853e+01 8.555011e-18 3.344417e+00 -1.259343e+00 -5.432079e-19
0.3            1.529203e+01 1.920794e+01 7.901342e-18 1.229750e+01 2.033590e+01 8.456482e-18 2.994534e+00 -1.127957e+00 -5.551404e-19
0.35           1.543428e+01 2.075331e+01 7.735561e-18 1.269378e+01 2.176020e+01 8.301577e-18 2.740507e+00 -1.006884e+00 -5.660161e-19
0.4            1.561719e+01 2.230299e+01 7.550409e-18 1.307948e+01 2.318474e+01 8.115631e-18 2.537714e+00 -8.817566e-01 -5.652221e-19
0.45           1.566059e+01 2.349379e+01 7.385977e-18 1.329215e+01 2.424673e+01 7.942236e-18 2.368446e+00 -7.529399e-01 -5.562594e-19
0.5            1.567740e+01 2.450983e+01 7.167808e-18 1.345387e+01 2.514570e+01 7.718058e-18 2.223526e+00 -6.358618e-01 -5.502498e-19
0.55           1.568117e+01 2.541225e+01 6.937870e-18 1.358885e+01 2.595343e+01 7.486482e-18 2.092321e+00 -5.411737e-01 -5.486118e-19
0.6            1.560042e+01 2.604080e+01 6.736128e-18 1.363094e+01 2.651067e+01 7.283667e-18 1.969481e+00 -4.698749e-01 -5.475395e-19
0.65           1.547817e+01 2.653785e+01 6.537268e-18 1.362251e+01 2.695642e+01 7.081636e-18 1.855656e+00 -4.185704e-01 -5.443682e-19
0.7            1.530500e+01 2.681996e+01 6.362206e-18 1.355430e+01 2.720082e+01 6.905085e-18 1.750704e+00 -3.808550e-01 -5.428798e-19
0.75           1.517784e+01 2.709303e+01 6.204490e-18 1.352282e+01 2.744525e+01 6.748204e-18 1.655019e+00 -3.522209e-01 -5.437144e-19
0.8            1.499031e+01 2.716410e+01 6.076913e-18 1.342263e+01 2.749323e+01 6.624939e-18 1.567675e+00 -3.291336e-01 -5.480265e-19
0.85           1.491941e+01 2.739126e+01 5.949918e-18 1.343174e+01 2.770007e+01 6.503960e-18 1.487663e+00 -3.088106e-01 -5.540418e-19
0.9            1.489018e+01 2.766940e+01 5.844734e-18 1.347518e+01 2.795979e+01 6.407530e-18 1.415001e+00 -2.903925e-01 -5.627966e-19
0.95           1.487231e+01 2.791928e+01 5.752758e-18 1.352301e+01 2.819174e+01 6.324023e-18 1.349307e+00 -2.724619e-01 -5.712646e-19
1              1.490413e+01 2.824034e+01 5.684543e-18 1.361452e+01 2.849534e+01 6.266723e-18 1.289606e+00 -2.549970e-01 -5.821795e-19
1.05           1.495084e+01 2.860171e+01 5.626247e-18 1.371464e+01 2.883927e+01 6.219567e-18 1.236193e+00 -2.375633e-01 -5.933205e-19
1.1            1.500929e+01 2.894642e+01 5.573691e-18 1.382138e+01 2.916647e+01 6.177086e-18 1.187909e+00 -2.200549e-01 -6.033952e-19
1.15           1.506716e+01 2.930059e+01 5.537457e-18 1.392309e+01 2.950304e+01 6.149624e-18 1.144072e+00 -2.024441e-01 -6.121679e-19
1.2            1.514345e+01 2.966968e+01 5.509211e-18 1.403924e+01 2.985462e+01 6.127506e-18 1.104207e+00 -1.849360e-01 -6.182945e-19
1.25           1.520664e+01 3.000895e+01 5.488187e-18 1.413889e+01 3.017668e+01 6.110030e-18 1.067746e+00 -1.677258e-01 -6.218430e-19
1.3            1.526719e+01 3.032228e+01 5.473635e-18 1.423281e+01 3.047278e+01 6.096947e-18 1.034380e+00 -1.504959e-01 -6.233119e-19
1.35           1.533929e+01 3.064982e+01 5.470780e-18 1.433617e+01 3.078403e+01 6.094225e-18 1.003115e+00 -1.342028e-01 -6.234456e-19
1.4            1.540866e+01 3.095677e+01 5.456467e-18 1.443523e+01 3.107570e+01 6.076340e-18 9.734353e-01 -1.189241e-01 -6.198729e-19
1.45           1.544564e+01 3.118824e+01 5.452732e-18 1.450084e+01 3.129326e+01 6.067250e-18 9.448049e-01 -1.050202e-01 -6.145180e-19
1.5            1.546947e+01 3.139338e+01 5.460534e-18 1.455209e+01 3.148597e+01 6.069193e-18 9.173826e-01 -9.259345e-02 -6.086591e-19
1.55           1.552386e+01 3.164773e+01 5.470251e-18 1.463232e+01 3.172806e+01 6.072465e-18 8.915348e-01 -8.033120e-02 -6.022144e-19
1.6            1.554936e+01 3.183853e+01 5.476740e-18 1.468252e+01 3.190764e+01 6.071131e-18 8.668386e-01 -6.910910e-02 -5.943912e-19
1.65           1.557762e+01 3.202466e+01 5.487243e-18 1.473438e+01 3.208343e+01 6.073920e-18 8.432415e-01 -5.876786e-02 -5.866772e-19
1.7            1.560856e+01 3.220502e+01 5.495553e-18 1.478807e+01 3.225499e+01 6.072873e-18 8.204955e-01 -4.996925e-02 -5.773198e-19
1.75           1.564181e+01 3.238193e+01 5.507047e-18 1.484298e+01 3.242369e+01 6.074689e-18 7.988240e-01 -4.176346e-02 -5.676421e-19
1.8            1.567662e+01 3.254894e+01 5.516611e-18 1.489838e+01 3.258315e+01 6.074102e-18 7.782358e-01 -3.420750e-02 -5.574919e-19
1.85           1.572410e+01 3.273544e+01 5.521354e-18 1.496590e+01 3.276334e+01 6.068721e-18 7.582033e-01 -2.789873e-02 -5.473668e-19
1.9            1.574695e+01 3.286533e+01 5.528932e-18 1.500754e+01 3.288659e+01 6.066302e-18 7.394129e-01 -2.125895e-02 -5.373698e-19
1.95           1.580229e+01 3.304983e+01 5.533821e-18 1.508097e+01 3.306496e+01 6.061793e-18 7.213191e-01 -1.513143e-02 -5.279717e-19
2              1.584174e+01 3.320363e+01 5.541591e-18 1.513786e+01 3.321348e+01 6.060739e-18 7.038814e-01 -9.858156e-03 -5.191481e-19
2.05           1.589624e+01 3.338409e+01 5.547531e-18 1.520892e+01 3.338855e+01 6.057549e-18 6.873252e-01 -4.459514e-03 -5.100181e-19
2.1            1.594006e+01 3.354620e+01 5.557647e-18 1.526860e+01 3.354522e+01 6.058874e-18 6.714578e-01 9.724719e-04 -5.012265e-19
2.15           1.599817e+01 3.373580e+01 5.567646e-18 1.534204e+01 3.372940e+01 6.059740e-18 6.561302e-01 6.403707e-03 -4.920939e-19
2.2            1.604206e+01 3.389716e+01 5.579356e-18 1.540079e+01 3.388532e+01 6.062149e-18 6.412756e-01 1.183409e-02 -4.827930e-19
2.25           1.610121e+01 3.408964e+01 5.595377e-18 1.547394e+01 3.407170e+01 6.069296e-18 6.272723e-01 1.794445e-02 -4.739192e-19
2.3            1.615448e+01 3.427203e+01 5.609491e-18 1.554125e+01 3.424884e+01 6.074657e-18 6.132235e-01 2.318773e-02 -4.651659e-19
2.35           1.621037e+01 3.445609e+01 5.623167e-18 1.561058e+01 3.442741e+01 6.079332e-18 5.997933e-01 2.868564e-02 -4.561652e-19
2.4            1.627148e+01 3.465487e+01 5.642860e-18 1.568483e+01 3.462084e+01 6.090590e-18 5.866486e-01 3.403530e-02 -4.477296e-19
2.45           1.632572e+01 3.483184e+01 5.653885e-18 1.575140e+01 3.479174e+01 6.093471e-18 5.743224e-01 4.010060e-02 -4.395866e-19
2.5            1.639411e+01 3.504284e+01 5.667886e-18 1.583191e+01 3.499736e+01 6.100053e-18 5.622006e-01 4.547630e-02 -4.321672e-19
2.55           1.644240e+01 3.521329e+01 5.681286e-18 1.589187e+01 3.516253e+01 6.106785e-18 5.505328e-01 5.076218e-02 -4.254988e-19
2.6            1.651213e+01 3.542491e+01 5.695075e-18 1.597291e+01 3.536910e+01 6.114025e-18 5.392138e-01 5.581417e-02 -4.189501e-19
2.65           1.657347e+01 3.561624e+01 5.703093e-18 1.604494e+01 3.555513e+01 6.115968e-18 5.285319e-01 6.111235e-02 -4.128749e-19
2.7            1.663721e+01 3.581157e+01 5.705327e-18 1.611906e+01 3.574558e+01 6.112955e-18 5.181568e-01 6.598820e-02 -4.076271e-19
2.75           1.668689e+01 3.597693e+01 5.712895e-18 1.617892e+01 3.590678e+01 6.116246e-18 5.079754e-01 7.014882e-02 -4.033502e-19
2.8            1.675244e+01 3.617422e+01 5.713886e-18 1.625406e+01 3.609987e+01 6.113209e-18 4.983759e-01 7.434879e-02 -3.993228e-19
2.85           1.681907e+01 3.637379e+01 5.708201e-18 1.632994e+01 3.629545e+01 6.103888e-18 4.891296e-01 7.833087e-02 -3.956864e-19
2.9            1.687689e+01 3.655872e+01 5.704603e-18 1.639676e+01 3.647686e+01 6.097924e-18 4.801269e-01 8.185964e-02 -3.933211e-19
2.95           1.694024e+01 3.674967e+01 5.694420e-18 1.646873e+01 3.666427e+01 6.085336e-18 4.715142e-01 8.539159e-02 -3.909160e-19
3              1.700391e+01 3.693752e+01 5.680708e-18 1.654059e+01 3.684854e+01 6.069640e-18 4.633154e-01 8.898258e-02 -3.889312e-19
3.05           1.707255e+01 3.713089e+01 5.659129e-18 1.661735e+01 3.703914e+01 6.046889e-18 4.552027e-01 9.174948e-02 -3.877599e-19
3.1            1.715160e+01 3.734220e+01 5.632055e-18 1.670402e+01 3.724743e+01 6.018500e-18 4.475788e-01 9.476495e-02 -3.864455e-19
3.15           1.723385e+01 3.755608e+01 5.601872e-18 1.679344e+01 3.745791e+01 5.986929e-18 4.404054e-01 9.816929e-02 -3.850563e-19
3.2            1.729833e+01 3.773184e+01 5.566269e-18 1.686537e+01 3.763123e+01 5.950613e-18 4.329551e-01 1.006127e-01 -3.843442e-19
3.25           1.737720e+01 3.792673e+01 5.522831e-18 1.695159e+01 3.782368e+01 5.906153e-18 4.256173e-01 1.030473e-01 -3.833223e-19
3.3            1.746562e+01 3.814111e+01 5.476480e-18 1.704713e+01 3.803543e+01 5.858345e-18 4.184808e-01 1.056799e-01 -3.818652e-19
3.35           1.755011e+01 3.833769e+01 5.423658e-18 1.713860e+01 3.822922e+01 5.803498e-18 4.115085e-01 1.084693e-01 -3.798399e-19
3.4            1.762898e+01 3.852602e+01 5.369874e-18 1.722457e+01 3.841508e+01 5.747442e-18 4.044066e-01 1.109401e-01 -3.775676e-19
3.45           1.770971e+01 3.871261e+01 5.312869e-18 1.731249e+01 3.859932e+01 5.687899e-18 3.972175e-01 1.132938e-01 -3.750304e-19
3.5            1.778941e+01 3.890153e+01 5.257478e-18 1.739932e+01 3.878567e+01 5.629800e-18 3.900921e-01 1.158663e-01 -3.723221e-19
3.55           1.786968e+01 3.908889e+01 5.200684e-18 1.748663e+01 3.897006e+01 5.570219e-18 3.830502e-01 1.188258e-01 -3.695348e-19
3.6            1.796158e+01 3.930113e+01 5.141287e-18 1.758575e+01 3.917986e+01 5.507831e-18 3.758296e-01 1.212719e-01 -3.665441e-19
3.65           1.804706e+01 3.950843e+01 5.088924e-18 1.767850e+01 3.938469e+01 5.453039e-18 3.685537e-01 1.237375e-01 -3.641149e-19
3.7            1.811631e+01 3.968485e+01 5.037959e-18 1.775509e+01 3.955862e+01 5.400167e-18 3.612236e-01 1.262225e-01 -3.622084e-19
3.75           1.819856e+01 3.988863e+01 4.987796e-18 1.784459e+01 3.975982e+01 5.348269e-18 3.539669e-01 1.288105e-01 -3.604733e-19
3.8            1.827925e+01 4.009085e+01 4.940848e-18 1.793233e+01 3.995926e+01 5.299996e-18 3.469182e-01 1.315882e-01 -3.591484e-19
3.85           1.836163e+01 4.029949e+01 4.893592e-18 1.802186e+01 4.016537e+01 5.252669e-18 3.397716e-01 1.341182e-01 -3.590766e-19
3.9            1.843591e+01 4.049030e+01 4.847952e-18 1.810327e+01 4.035373e+01 5.207147e-18 3.326359e-01 1.365707e-01 -3.591947e-19
3.95           1.851795e+01 4.069889e+01 4.803776e-18 1.819218e+01 4.055979e+01 5.163909e-18 3.257720e-01 1.391009e-01 -3.601335e-19
4              1.858653e+01 4.088003e+01 4.760283e-18 1.826746e+01 4.073851e+01 5.121663e-18 3.190626e-01 1.415150e-01 -3.613795e-19
4.05           1.867635e+01 4.109854e+01 4.713432e-18 1.836364e+01 4.095437e+01 5.076057e-18 3.127115e-01 1.441667e-01 -3.626247e-19
4.1            1.875328e+01 4.129219e+01 4.669559e-18 1.844668e+01 4.114533e+01 5.033716e-18 3.065963e-01 1.468607e-01 -3.641567e-19
4.15           1.883280e+01 4.149047e+01 4.626414e-18 1.853198e+01 4.134056e+01 4.993144e-18 3.008157e-01 1.499089e-01 -3.667298e-19
4.2            1.891072e+01 4.167982e+01 4.582678e-18 1.861610e+01 4.152817e+01 4.952142e-18 2.946235e-01 1.516432e-01 -3.694639e-19
4.25           1.899184e+01 4.187531e+01 4.542422e-18 1.870311e+01 4.172187e+01 4.914910e-18 2.887253e-01 1.534398e-01 -3.724881e-19
4.3            1.906351e+01 4.205174e+01 4.504702e-18 1.878049e+01 4.189635e+01 4.880459e-18 2.830185e-01 1.553949e-01 -3.757571e-19
4.35           1.914479e+01 4.224767e+01 4.470996e-18 1.886729e+01 4.209013e+01 4.848666e-18 2.774969e-01 1.575376e-01 -3.776706e-19
4.4            1.920878e+01 4.240868e+01 4.441013e-18 1.893697e+01 4.224951e+01 4.821122e-18 2.718111e-01 1.591762e-01 -3.801090e-19
4.45           1.928144e+01 4.258435e+01 4.410523e-18 1.901520e+01 4.242356e+01 4.792967e-18 2.662377e-01 1.607901e-01 -3.824442e-19
4.5            1.935025e+01 4.275157e+01 4.385627e-18 1.908940e+01 4.258914e+01 4.770630e-18 2.608497e-01 1.624287e-01 -3.850031e-19
4.55           1.942169e+01 4.292186e+01 4.361138e-18 1.916587e+01 4.275739e+01 4.748383e-18 2.558247e-01 1.644710e-01 -3.872445e-19
4.6            1.948267e+01 4.307229e+01 4.340192e-18 1.923214e+01 4.290671e+01 4.729714e-18 2.505297e-01 1.655847e-01 -3.895223e-19
4.65           1.954154e+01 4.321370e+01 4.319357e-18 1.929590e+01 4.304657e+01 4.711192e-18 2.456420e-01 1.671308e-01 -3.918348e-19
4.7            1.959613e+01 4.334672e+01 4.303618e-18 1.935503e+01 4.317785e+01 4.697850e-18 2.410951e-01 1.688657e-01 -3.942313e-19
4.75           1.965227e+01 4.347767e+01 4.285741e-18 1.941563e+01 4.330742e+01 4.682281e-18 2.366395e-01 1.702478e-01 -3.965391e-19
4.8            1.971440e+01 4.362037e+01 4.270933e-18 1.948202e+01 4.344889e+01 4.669708e-18 2.323828e-01 1.714706e-01 -3.987744e-19
4.85           1.976899e+01 4.373889e+01 4.256724e-18 1.954045e+01 4.356614e+01 4.657386e-18 2.285409e-01 1.727501e-01 -4.006619e-19
4.9            1.982425e+01 4.386304e+01 4.244797e-18 1.959919e+01 4.368884e+01 4.647731e-18 2.250582e-01 1.742035e-01 -4.029347e-19
4.95           1.987521e+01 4.397481e+01 4.235923e-18 1.965367e+01 4.379985e+01 4.640830e-18 2.215412e-01 1.749669e-01 -4.049069e-19
5              1.991345e+01 4.405760e+01 4.227481e-18 1.969513e+01 4.388188e+01 4.634547e-18 2.183195e-01 1.757111e-01 -4.070659e-19
5.05           1.996724e+01 4.416820e+01 4.218782e-18 1.975182e+01 4.399185e+01 4.628284e-18 2.154184e-01 1.763445e-01 -4.095017e-19
5.1            2.001811e+01 4.427267e+01 4.212924e-18 1.980529e+01 4.409572e+01 4.625045e-18 2.128230e-01 1.769508e-01 -4.121212e-19
5.15           2.007019e+01 4.437578e+01 4.206967e-18 1.985964e+01 4.419824e+01 4.621683e-18 2.105514e-01 1.775401e-01 -4.147161e-19
5.2            2.011378e+01 4.446177e+01 4.204439e-18 1.990547e+01 4.428415e+01 4.621870e-18 2.083064e-01 1.776167e-01 -4.174314e-19
5.25           2.016906e+01 4.456873e+01 4.202240e-18 1.996271e+01 4.439087e+01 4.622178e-18 2.063516e-01 1.778583e-01 -4.199377e-19
5.3            2.021190e+01 4.464725e+01 4.200578e-18 2.000719e+01 4.446906e+01 4.622767e-18 2.047116e-01 1.781906e-01 -4.221890e-19
5.35           2.026509e+01 4.474504e+01 4.198174e-18 2.006182e+01 4.456662e+01 4.622272e-18 2.032732e-01 1.784218e-01 -4.240981e-19
5.4            2.032169e+01 4.484346e+01 4.194054e-18 2.011987e+01 4.466523e+01 4.620366e-18 2.018150e-01 1.782369e-01 -4.263118e-19
5.45           2.037362e+01 4.493084e+01 4.189581e-18 2.017295e+01 4.475265e+01 4.617817e-18 2.006759e-01 1.781914e-01 -4.282356e-19
5.5            2.041834e+01 4.500300e+01 4.187594e-18 2.021858e+01 4.482464e+01 4.617178e-18 1.997651e-01 1.783627e-01 -4.295838e-19
5.55           2.049789e+01 4.513812e+01 4.181294e-18 2.029905e+01 4.496014e+01 4.612629e-18 1.988433e-01 1.779806e-01 -4.313347e-19
5.6            2.056591e+01 4.524781e+01 4.174074e-18 2.036775e+01 4.507013e+01 4.607207e-18 1.981582e-01 1.776795e-01 -4.331321e-19
5.65           2.062262e+01 4.533031e+01 4.167929e-18 2.042481e+01 4.515277e+01 4.602589e-18 1.978092e-01 1.775470e-01 -4.346596e-19
5.7            2.069812e+01 4.545085e+01 4.160928e-18 2.050037e+01 4.527318e+01 4.596822e-18 1.977487e-01 1.776636e-01 -4.358946e-19
5.75           2.075283e+01 4.552794e+01 4.156209e-18 2.055528e+01 4.535081e+01 4.592892e-18 1.975494e-01 1.771364e-01 -4.366834e-19
5.8            2.082671e+01 4.564066e+01 4.149505e-18 2.062911e+01 4.546395e+01 4.586754e-18 1.976071e-01 1.767083e-01 -4.372484e-19
5.85           2.088906e+01 4.572235e+01 4.139538e-18 2.069111e+01 4.554605e+01 4.576640e-18 1.979516e-01 1.762909e-01 -4.371013e-19
5.9            2.095180e+01 4.580970e+01 4.133951e-18 2.075324e+01 4.563375e+01 4.570700e-18 1.985607e-01 1.759504e-01 -4.367491e-19
5.95           2.102856e+01 4.591786e+01 4.125681e-18 2.082903e+01 4.574193e+01 4.562022e-18 1.995258e-01 1.759288e-01 -4.363413e-19
6              2.109198e+01 4.600086e+01 4.121805e-18 2.089165e+01 4.582578e+01 4.556850e-18 2.003380e-01 1.750830e-01 -4.350443e-19
6.05           2.115329e+01 4.608104e+01 4.117161e-18 2.095197e+01 4.590680e+01 4.550707e-18 2.013254e-01 1.742453e-01 -4.335463e-19
6.1            2.122897e+01 4.618368e+01 4.111264e-18 2.102643e+01 4.601021e+01 4.543201e-18 2.025409e-01 1.734757e-01 -4.319374e-19
6.15           2.130039e+01 4.627951e+01 4.107078e-18 2.109619e+01 4.610667e+01 4.537191e-18 2.041998e-01 1.728333e-01 -4.301138e-19
6.2            2.137165e+01 4.636834e+01 4.105047e-18 2.116566e+01 4.619644e+01 4.533237e-18 2.059901e-01 1.719011e-01 -4.281907e-19
6.25           2.144135e+01 4.645768e+01 4.103988e-18 2.123325e+01 4.628666e+01 4.530330e-18 2.081016e-01 1.710202e-01 -4.263420e-19
6.3            2.151343e+01 4.654773e+01 4.104668e-18 2.130292e+01 4.637743e+01 4.529119e-18 2.105062e-01 1.702986e-01 -4.244511e-19
6.35           2.159109e+01 4.664721e+01 4.099941e-18 2.137784e+01 4.647774e+01 4.522430e-18 2.132486e-01 1.694758e-01 -4.224896e-19
6.4            2.166952e+01 4.674417e+01 4.096564e-18 2.145331e+01 4.657574e+01 4.517246e-18 2.162108e-01 1.684291e-01 -4.206820e-19
6.45           2.173002e+01 4.680173e+01 4.093941e-18 2.151040e+01 4.663435e+01 4.512583e-18 2.196208e-01 1.673720e-01 -4.186417e-19
6.5            2.179239e+01 4.686209e+01 4.090886e-18 2.156901e+01 4.669579e+01 4.507526e-18 2.233774e-01 1.663015e-01 -4.166401e-19
6.55           2.186369e+01 4.693590e+01 4.087348e-18 2.163614e+01 4.677065e+01 4.501853e-18 2.275486e-01 1.652487e-01 -4.145045e-19
6.6            2.192908e+01 4.699188e+01 4.084545e-18 2.169693e+01 4.682773e+01 4.496665e-18 2.321541e-01 1.641529e-01 -4.121195e-19
6.65           2.198532e+01 4.703093e+01 4.080691e-18 2.174846e+01 4.686831e+01 4.490652e-18 2.368657e-01 1.626214e-01 -4.099611e-19
6.7            2.204287e+01 4.706909e+01 4.077201e-18 2.180080e+01 4.690805e+01 4.484896e-18 2.420630e-01 1.610436e-01 -4.076953e-19
6.75           2.209542e+01 4.709355e+01 4.073937e-18 2.184765e+01 4.693407e+01 4.479385e-18 2.477673e-01 1.594716e-01 -4.054474e-19
6.8            2.214008e+01 4.709867e+01 4.071779e-18 2.188604e+01 4.694090e+01 4.474907e-18 2.540406e-01 1.577755e-01 -4.031285e-19
6.85           2.218291e+01 4.709264e+01 4.069448e-18 2.192222e+01 4.693705e+01 4.470133e-18 2.606949e-01 1.555825e-01 -4.006850e-19
6.9            2.222602e+01 4.709068e+01 4.068409e-18 2.195811e+01 4.693735e+01 4.466802e-18 2.679128e-01 1.533366e-01 -3.983930e-19
6.95           2.224585e+01 4.704033e+01 4.070703e-18 2.197022e+01 4.688929e+01 4.466750e-18 2.756220e-01 1.510368e-01 -3.960466e-19
7              2.227532e+01 4.700033e+01 4.071864e-18 2.199141e+01 4.685177e+01 4.465631e-18 2.839170e-01 1.485517e-01 -3.937672e-19
7.05           2.230017e+01 4.695053e+01 4.074117e-18 2.200754e+01 4.680496e+01 4.465609e-18 2.926239e-01 1.455689e-01 -3.914923e-19
7.1            2.231488e+01 4.687474e+01 4.078877e-18 2.201293e+01 4.673229e+01 4.468088e-18 3.019469e-01 1.424596e-01 -3.892115e-19
7.15           2.231964e+01 4.677623e+01 4.084355e-18 2.200778e+01 4.663702e+01 4.471375e-18 3.118560e-01 1.392100e-01 -3.870197e-19
7.2            2.232746e+01 4.667791e+01 4.090114e-18 2.200506e+01 4.654211e+01 4.475021e-18 3.224057e-01 1.358029e-01 -3.849076e-19
7.25           2.233026e+01 4.656704e+01 4.095253e-18 2.199701e+01 4.643541e+01 4.477915e-18 3.332553e-01 1.316281e-01 -3.826616e-19
7.3            2.232393e+01 4.643106e+01 4.101954e-18 2.197925e+01 4.630383e+01 4.482373e-18 3.446855e-01 1.272315e-01 -3.804195e-19
7.35           2.230840e+01 4.627607e+01 4.108872e-18 2.195176e+01 4.615342e+01 4.487118e-18 3.566364e-01 1.226470e-01 -3.782464e-19
7.4            2.228978e+01 4.610328e+01 4.112172e-18 2.192061e+01 4.598540e+01 4.488016e-18 3.691679e-01 1.178784e-01 -3.758445e-19
7.45           2.226597e+01 4.591664e+01 4.117932e-18 2.188374e+01 4.580372e+01 4.491507e-18 3.822394e-01 1.129142e-01 -3.735752e-19
7.5            2.223110e+01 4.570447e+01 4.122196e-18 2.183561e+01 4.559743e+01 4.493451e-18 3.954826e-01 1.070388e-01 -3.712547e-19
7.55           2.218377e+01 4.545627e+01 4.124436e-18 2.177451e+01 4.535531e+01 4.493125e-18 4.092540e-01 1.009578e-01 -3.686896e-19
7.6            2.213753e+01 4.521083e+01 4.125023e-18 2.171402e+01 4.511605e+01 4.491222e-18 4.235141e-01 9.478048e-02 -3.661998e-19
7.65           2.208055e+01 4.493736e+01 4.124926e-18 2.164253e+01 4.484912e+01 4.488450e-18 4.380156e-01 8.824398e-02 -3.635235e-19
7.7            2.200302e+01 4.461403e+01 4.123107e-18 2.155022e+01 4.453270e+01 4.483836e-18 4.527956e-01 8.132779e-02 -3.607287e-19
7.75           2.193049e+01 4.429431e+01 4.119568e-18 2.146247e+01 4.422011e+01 4.477555e-18 4.680170e-01 7.420306e-02 -3.579869e-19
7.8            2.184310e+01 4.393699e+01 4.112861e-18 2.135948e+01 4.387015e+01 4.467900e-18 4.836168e-01 6.683944e-02 -3.550386e-19
7.85           2.175904e+01 4.358050e+01 4.103303e-18 2.125950e+01 4.352127e+01 4.455240e-18 4.995363e-01 5.923467e-02 -3.519375e-19
7.9            2.164972e+01 4.316181e+01 4.090838e-18 2.113383e+01 4.311048e+01 4.439594e-18 5.158940e-01 5.132691e-02 -3.487565e-19
7.95           2.154355e+01 4.274306e+01 4.075523e-18 2.101087e+01 4.269996e+01 4.420866e-18 5.326772e-01 4.309447e-02 -3.453431e-19
8              2.142117e+01 4.228399e+01 4.056600e-18 2.087133e+01 4.224936e+01 4.398452e-18 5.498423e-01 3.463293e-02 -3.418515e-19
8.05           2.129282e+01 4.179665e+01 4.034139e-18 2.072530e+01 4.177099e+01 4.372143e-18 5.675280e-01 2.565631e-02 -3.380038e-19
8.1            2.115520e+01 4.128193e+01 4.008530e-18 2.056955e+01 4.126564e+01 4.342605e-18 5.856497e-01 1.629043e-02 -3.340748e-19
8.15           2.099678e+01 4.071447e+01 3.978881e-18 2.039273e+01 4.070787e+01 4.308661e-18 6.040507e-01 6.593342e-03 -3.297799e-19
8.2            2.084018e+01 4.013665e+01 3.944239e-18 2.021703e+01 4.014025e+01 4.269489e-18 6.231544e-01 -3.608936e-03 -3.252494e-19
8.25           2.066781e+01 3.951586e+01 3.903815e-18 2.002493e+01 3.953015e+01 4.224370e-18 6.428844e-01 -1.428883e-02 -3.205553e-19
8.3            2.049240e+01 3.886926e+01 3.859953e-18 1.982894e+01 3.889476e+01 4.175729e-18 6.634599e-01 -2.549809e-02 -3.157758e-19
8.35           2.029846e+01 3.817282e+01 3.811127e-18 1.961352e+01 3.821009e+01 4.121977e-18 6.849414e-01 -3.726947e-02 -3.108502e-19
8.4            2.010533e+01 3.745287e+01 3.758437e-18 1.939796e+01 3.750297e+01 4.064119e-18 7.073650e-01 -5.010196e-02 -3.056825e-19
8.45           1.988635e+01 3.666447e+01 3.704193e-18 1.915553e+01 3.672879e+01 4.004182e-18 7.308187e-01 -6.432367e-02 -2.999888e-19
8.5            1.967484e+01 3.587205e+01 3.648294e-18 1.891919e+01 3.595150e+01 3.942783e-18 7.556513e-01 -7.945364e-02 -2.944890e-19
8.55           1.945681e+01 3.503973e+01 3.591071e-18 1.867463e+01 3.513530e+01 3.880078e-18 7.821725e-01 -9.556862e-02 -2.890072e-19
8.6            1.922777e+01 3.416615e+01 3.532518e-18 1.841709e+01 3.427880e+01 3.816309e-18 8.106774e-01 -1.126514e-01 -2.837910e-19
8.65           1.899932e+01 3.326475e+01 3.475163e-18 1.815836e+01 3.339607e+01 3.753959e-18 8.409571e-01 -1.313273e-01 -2.787958e-19
8.7            1.876545e+01 3.232589e+01 3.420425e-18 1.789197e+01 3.247711e+01 3.694559e-18 8.734727e-01 -1.512181e-01 -2.741345e-19
8.75           1.853844e+01 3.137220e+01 3.365571e-18 1.762989e+01 3.154434e+01 3.635517e-18 9.085520e-01 -1.721420e-01 -2.699456e-19
8.8            1.831290e+01 3.040593e+01 3.316197e-18 1.736688e+01 3.060012e+01 3.582605e-18 9.460186e-01 -1.941872e-01 -2.664084e-19
8.85           1.811428e+01 2.946031e+01 3.272781e-18 1.712832e+01 2.967796e+01 3.536622e-18 9.859625e-01 -2.176536e-01 -2.638409e-19
8.9            1.790892e+01 2.847177e+01 3.230408e-18 1.688035e+01 2.871387e+01 3.492035e-18 1.028562e+00 -2.420981e-01 -2.616269e-19
8.95           1.771696e+01 2.749878e+01 3.201010e-18 1.664307e+01 2.776612e+01 3.461244e-18 1.073886e+00 -2.673406e-01 -2.602339e-19
9              1.753984e+01 2.651557e+01 3.172612e-18 1.641768e+01 2.680922e+01 3.431688e-18 1.122155e+00 -2.936552e-01 -2.590761e-19
9.05           1.739129e+01 2.557713e+01 3.147382e-18 1.621854e+01 2.589761e+01 3.405680e-18 1.172747e+00 -3.204817e-01 -2.582979e-19
9.1            1.726106e+01 2.464574e+01 3.122467e-18 1.603515e+01 2.499331e+01 3.380241e-18 1.225916e+00 -3.475714e-01 -2.577748e-19
9.15           1.716197e+01 2.376769e+01 3.113397e-18 1.588124e+01 2.414341e+01 3.371307e-18 1.280721e+00 -3.757199e-01 -2.579097e-19
9.2            1.709365e+01 2.293632e+01 3.095520e-18 1.575635e+01 2.334126e+01 3.353585e-18 1.337301e+00 -4.049361e-01 -2.580654e-19
9.25           1.705392e+01 2.216278e+01 3.099386e-18 1.565850e+01 2.259706e+01 3.358019e-18 1.395417e+00 -4.342830e-01 -2.586331e-19
9.3            1.704354e+01 2.143791e+01 3.094444e-18 1.558879e+01 2.190187e+01 3.353352e-18 1.454757e+00 -4.639643e-01 -2.589081e-19
9.35           1.707901e+01 2.079982e+01 3.099708e-18 1.556334e+01 2.129372e+01 3.359891e-18 1.515662e+00 -4.938951e-01 -2.601832e-19
9.4            1.713870e+01 2.022467e+01 3.107011e-18 1.556114e+01 2.074876e+01 3.368679e-18 1.577561e+00 -5.240984e-01 -2.616684e-19
9.45           1.724939e+01 1.976144e+01 3.116011e-18 1.561027e+01 2.031733e+01 3.379058e-18 1.639120e+00 -5.558907e-01 -2.630463e-19
9.5            1.739053e+01 1.937034e+01 3.126228e-18 1.568901e+01 1.995830e+01 3.391016e-18 1.701519e+00 -5.879574e-01 -2.647879e-19
9.55           1.756409e+01 1.907335e+01 3.132554e-18 1.579992e+01 1.969429e+01 3.399718e-18 1.764171e+00 -6.209478e-01 -2.671640e-19
9.6            1.777190e+01 1.885934e+01 3.144267e-18 1.594559e+01 1.951322e+01 3.413005e-18 1.826315e+00 -6.538755e-01 -2.687374e-19
9.65           1.801210e+01 1.874851e+01 3.150685e-18 1.612366e+01 1.943570e+01 3.421128e-18 1.888444e+00 -6.871857e-01 -2.704432e-19
9.7            1.825325e+01 1.866298e+01 3.153438e-18 1.630362e+01 1.938301e+01 3.424769e-18 1.949633e+00 -7.200263e-01 -2.713302e-19
9.75           1.854486e+01 1.871842e+01 3.152060e-18 1.653491e+01 1.947035e+01 3.424046e-18 2.009951e+00 -7.519267e-01 -2.719865e-19
9.8            1.885630e+01 1.886041e+01 3.146392e-18 1.678764e+01 1.964332e+01 3.418467e-18 2.068657e+00 -7.829042e-01 -2.720752e-19
9.85           1.917158e+01 1.905203e+01 3.139766e-18 1.704629e+01 1.986468e+01 3.410814e-18 2.125288e+00 -8.126490e-01 -2.710482e-19
9.9            1.950718e+01 1.933425e+01 3.123964e-18 1.732760e+01 2.017536e+01 3.393326e-18 2.179586e+00 -8.411075e-01 -2.693624e-19
9.95           1.982953e+01 1.963552e+01 3.105989e-18 1.759804e+01 2.050375e+01 3.372552e-18 2.231484e+00 -8.682318e-01 -2.665628e-19
10             2.015694e+01 1.997728e+01 3.081850e-18 1.787577e+01 2.087142e+01 3.344839e-18 2.281163e+00 -8.941407e-01 -2.629898e-19
10.05          2.047485e+01 2.036894e+01 3.044738e-18 1.814678e+01 2.128764e+01 3.303440e-18 2.328068e+00 -9.187042e-01 -2.587014e-19
10.1           2.078758e+01 2.079311e+01 3.008702e-18 1.841559e+01 2.173509e+01 3.262987e-18 2.371996e+00 -9.419834e-01 -2.542845e-19
10.15          2.111205e+01 2.128686e+01 2.967323e-18 1.869909e+01 2.225067e+01 3.217525e-18 2.412959e+00 -9.638176e-01 -2.502019e-19
10.2           2.140248e+01 2.175291e+01 2.917531e-18 1.895166e+01 2.273705e+01 3.163717e-18 2.450822e+00 -9.841350e-01 -2.461858e-19
10.25          2.169259e+01 2.227467e+01 2.867189e-18 1.920681e+01 2.327734e+01 3.109514e-18 2.485780e+00 -1.002674e+00 -2.423248e-19
10.3           2.193510e+01 2.271671e+01 2.816078e-18 1.941727e+01 2.373615e+01 3.053729e-18 2.517823e+00 -1.019440e+00 -2.376513e-19
10.35          2.216520e+01 2.317939e+01 2.762503e-18 1.961830e+01 2.421382e+01 2.995033e-18 2.546898e+00 -1.034428e+00 -2.325298e-19
10.4           2.237499e+01 2.363629e+01 2.706378e-18 1.980212e+01 2.468392e+01 2.933980e-18 2.572869e+00 -1.047635e+00 -2.276014e-19
10.45          2.254282e+01 2.403160e+01 2.647960e-18 1.994673e+01 2.509053e+01 2.870818e-18 2.596097e+00 -1.058924e+00 -2.228581e-19
10.5           2.272253e+01 2.446904e+01 2.586923e-18 2.010552e+01 2.553760e+01 2.805503e-18 2.617011e+00 -1.068559e+00 -2.185797e-19
10.55          2.286381e+01 2.484805e+01 2.529446e-18 2.022814e+01 2.592473e+01 2.743807e-18 2.635670e+00 -1.076678e+00 -2.143613e-19
10.6           2.295526e+01 2.513206e+01 2.468261e-18 2.030303e+01 2.621550e+01 2.678026e-18 2.652230e+00 -1.083441e+00 -2.097641e-19
10.65          2.302482e+01 2.537925e+01 2.407417e-18 2.035785e+01 2.646821e+01 2.612321e-18 2.666970e+00 -1.088959e+00 -2.049042e-19
10.7           2.306248e+01 2.558280e+01 2.344234e-18 2.038286e+01 2.667599e+01 2.544167e-18 2.679621e+00 -1.093188e+00 -1.999333e-19
10.75          2.306513e+01 2.571496e+01 2.285483e-18 2.037452e+01 2.681141e+01 2.480605e-18 2.690607e+00 -1.096455e+00 -1.951219e-19
10.8           2.303775e+01 2.579960e+01 2.224272e-18 2.033861e+01 2.689907e+01 2.414045e-18 2.699139e+00 -1.099467e+00 -1.897738e-19
10.85          2.299021e+01 2.584128e+01 2.162837e-18 2.028411e+01 2.694270e+01 2.347992e-18 2.706101e+00 -1.101423e+00 -1.851556e-19
10.9           2.295953e+01 2.592106e+01 2.105335e-18 2.024787e+01 2.702344e+01 2.286706e-18 2.711655e+00 -1.102387e+00 -1.813709e-19
10.95          2.286791e+01 2.587889e+01 2.048058e-18 2.015206e+01 2.698130e+01 2.225811e-18 2.715851e+00 -1.102403e+00 -1.777522e-19
11             2.276261e+01 2.582373e+01 1.982186e-18 2.004436e+01 2.692607e+01 2.157015e-18 2.718248e+00 -1.102337e+00 -1.748294e-19
11.05          2.264942e+01 2.574971e+01 1.921825e-18 1.993051e+01 2.685135e+01 2.094318e-18 2.718913e+00 -1.101630e+00 -1.724927e-19
11.1           2.251103e+01 2.563316e+01 1.864439e-18 1.979299e+01 2.673332e+01 2.035043e-18 2.718040e+00 -1.100158e+00 -1.706040e-19
11.15          2.236697e+01 2.551295e+01 1.809723e-18 1.965113e+01 2.661097e+01 1.979034e-18 2.715843e+00 -1.098027e+00 -1.693112e-19