# Moment      
# CofR        : (0.000000e+00 0.000000e+00 0.000000e+00)
#
# Time        	total_x total_y total_z	pressure_x pressure_y pressure_z	viscous_x viscous_y viscous_z
0.05           -9.754591e+00 1.163240e+01 -4.223230e+00 -1.099870e+01 7.866301e+00 4.390255e+01 1.244114e+00 3.766100e+00 -4.812578e+01
0.1            -7.816398e+00 9.060610e+00 -1.333943e+01 -8.819965e+00 6.238716e+00 2.446575e+01 1.003566e+00 2.821894e+00 -3.780518e+01
0.15           -7.497449e+00 8.119503e+00 -9.459096e+00 -8.334320e+00 5.844271e+00 2.186855e+01 8.368708e-01 2.275232e+00 -3.132764e+01
0.2            -8.080579e+00 7.754855e+00 4.969266e+00 -8.797929e+00 5.834510e+00 3.192047e+01 7.173505e-01 1.920345e+00 -2.695120e+01
0.25           -8.849594e+00 7.640561e+00 1.990379e+01 -9.479266e+00 5.968353e+00 4.369662e+01 6.296716e-01 1.672208e+00 -2.379283e+01
0.3            -9.603970e+00 7.646017e+00 3.323281e+01 -1.016795e+01 6.148749e+00 5.469842e+01 5.639787e-01 1.497267e+00 -2.146561e+01
0.35           -1.037666e+01 7.717142e+00 4.643464e+01 -1.088010e+01 6.346889e+00 6.595393e+01 5.034418e-01 1.370253e+00 -1.951929e+01
0.4            -1.115149e+01 7.808595e+00 5.934779e+01 -1.159237e+01 6.539738e+00 7.700960e+01 4.408783e-01 1.268857e+00 -1.766180e+01
0.45           -1.174689e+01 7.830296e+00 6.963445e+01 -1.212336e+01 6.646073e+00 8.549026e+01 3.764699e-01 1.184223e+00 -1.585581e+01
0.5            -1.225492e+01 7.838700e+00 7.807753e+01 -1.257285e+01 6.726937e+00 9.230907e+01 3.179309e-01 1.111763e+00 -1.423155e+01
0.55           -1.270613e+01 7.840587e+00 8.558855e+01 -1.297671e+01 6.794426e+00 9.846646e+01 2.705868e-01 1.046160e+00 -1.287791e+01
0.6            -1.302040e+01 7.800210e+00 9.086931e+01 -1.325534e+01 6.815469e+00 1.026648e+02 2.349374e-01 9.847407e-01 -1.179546e+01
0.65           -1.326893e+01 7.739083e+00 9.501681e+01 -1.347821e+01 6.811255e+00 1.059641e+02 2.092852e-01 9.278280e-01 -1.094731e+01
0.7            -1.340998e+01 7.652501e+00 9.746544e+01 -1.360041e+01 6.777149e+00 1.077355e+02 1.904275e-01 8.753522e-01 -1.027004e+01
0.75           -1.354652e+01 7.588919e+00 9.968434e+01 -1.372263e+01 6.761409e+00 1.093964e+02 1.761104e-01 8.275093e-01 -9.712103e+00
0.8            -1.358205e+01 7.495154e+00 1.005657e+02 -1.374662e+01 6.711316e+00 1.098024e+02 1.645668e-01 7.838375e-01 -9.236631e+00
0.85           -1.369563e+01 7.459704e+00 1.022797e+02 -1.385004e+01 6.715872e+00 1.110900e+02 1.544053e-01 7.438314e-01 -8.810306e+00
0.9            -1.383470e+01 7.445090e+00 1.043281e+02 -1.397989e+01 6.737590e+00 1.127475e+02 1.451963e-01 7.075004e-01 -8.419339e+00
0.95           -1.395964e+01 7.436157e+00 1.061505e+02 -1.409587e+01 6.761504e+00 1.142009e+02 1.362310e-01 6.746535e-01 -8.050403e+00
1              -1.412017e+01 7.452065e+00 1.084184e+02 -1.424767e+01 6.807262e+00 1.161170e+02 1.274985e-01 6.448030e-01 -7.698607e+00
1.05           -1.430085e+01 7.475418e+00 1.109134e+02 -1.441963e+01 6.857322e+00 1.182798e+02 1.187816e-01 6.180965e-01 -7.366426e+00
1.1            -1.447321e+01 7.504646e+00 1.132939e+02 -1.458324e+01 6.910692e+00 1.203413e+02 1.100274e-01 5.939545e-01 -7.047389e+00
1.15           -1.465030e+01 7.533581e+00 1.157355e+02 -1.475152e+01 6.961545e+00 1.224761e+02 1.012221e-01 5.720361e-01 -6.740613e+00
1.2            -1.483484e+01 7.571724e+00 1.182502e+02 -1.492731e+01 7.019621e+00 1.246966e+02 9.246798e-02 5.521033e-01 -6.446337e+00
1.25           -1.500448e+01 7.603320e+00 1.205361e+02 -1.508834e+01 7.069447e+00 1.267022e+02 8.386292e-02 5.338729e-01 -6.166133e+00
1.3            -1.516114e+01 7.633595e+00 1.226582e+02 -1.523639e+01 7.116406e+00 1.285559e+02 7.524796e-02 5.171899e-01 -5.897715e+00
1.35           -1.532491e+01 7.669643e+00 1.247473e+02 -1.539201e+01 7.168085e+00 1.303915e+02 6.710141e-02 5.015573e-01 -5.644251e+00
1.4            -1.547839e+01 7.704332e+00 1.267398e+02 -1.553785e+01 7.217614e+00 1.321439e+02 5.946206e-02 4.867177e-01 -5.404048e+00
1.45           -1.559412e+01 7.722821e+00 1.281878e+02 -1.564663e+01 7.250418e+00 1.333664e+02 5.251008e-02 4.724024e-01 -5.178524e+00
1.5            -1.569669e+01 7.734737e+00 1.295336e+02 -1.574299e+01 7.276046e+00 1.345032e+02 4.629673e-02 4.586913e-01 -4.969566e+00
1.55           -1.582386e+01 7.761928e+00 1.310540e+02 -1.586403e+01 7.316161e+00 1.358242e+02 4.016560e-02 4.457674e-01 -4.770225e+00
1.6            -1.591926e+01 7.774680e+00 1.323026e+02 -1.595382e+01 7.341261e+00 1.368872e+02 3.455455e-02 4.334193e-01 -4.584591e+00
1.65           -1.601233e+01 7.788811e+00 1.334013e+02 -1.604171e+01 7.367190e+00 1.378130e+02 2.938393e-02 4.216208e-01 -4.411696e+00
1.7            -1.610251e+01 7.804280e+00 1.344590e+02 -1.612750e+01 7.394033e+00 1.387121e+02 2.498463e-02 4.102478e-01 -4.253132e+00
1.75           -1.619096e+01 7.820903e+00 1.355114e+02 -1.621185e+01 7.421491e+00 1.396164e+02 2.088173e-02 3.994120e-01 -4.104960e+00
1.8            -1.627447e+01 7.838310e+00 1.364504e+02 -1.629158e+01 7.449192e+00 1.404167e+02 1.710375e-02 3.891179e-01 -3.966294e+00
1.85           -1.636772e+01 7.862052e+00 1.375018e+02 -1.638167e+01 7.482950e+00 1.413404e+02 1.394937e-02 3.791017e-01 -3.838575e+00
1.9            -1.643267e+01 7.873477e+00 1.382178e+02 -1.644330e+01 7.503771e+00 1.419327e+02 1.062947e-02 3.697065e-01 -3.714899e+00
1.95           -1.652492e+01 7.901147e+00 1.392819e+02 -1.653248e+01 7.540487e+00 1.428799e+02 7.565713e-03 3.606595e-01 -3.597995e+00
2              -1.660181e+01 7.920870e+00 1.401857e+02 -1.660674e+01 7.568929e+00 1.436750e+02 4.929078e-03 3.519407e-01 -3.489258e+00
2.05           -1.669205e+01 7.948122e+00 1.412144e+02 -1.669428e+01 7.604459e+00 1.445978e+02 2.229757e-03 3.436626e-01 -3.383462e+00
2.1            -1.677310e+01 7.970031e+00 1.421822e+02 -1.677261e+01 7.634302e+00 1.454627e+02 -4.862359e-04 3.357289e-01 -3.280490e+00
2.15           -1.686790e+01 7.999086e+00 1.433030e+02 -1.686470e+01 7.671021e+00 1.464821e+02 -3.201853e-03 3.280651e-01 -3.179150e+00
2.2            -1.694858e+01 8.021031e+00 1.442659e+02 -1.694266e+01 7.700393e+00 1.473457e+02 -5.917047e-03 3.206378e-01 -3.079768e+00
2.25           -1.704482e+01 8.050605e+00 1.454399e+02 -1.703585e+01 7.736969e+00 1.484192e+02 -8.972226e-03 3.136361e-01 -2.979326e+00
2.3            -1.713601e+01 8.077238e+00 1.465611e+02 -1.712442e+01 7.770626e+00 1.494448e+02 -1.159386e-02 3.066118e-01 -2.883685e+00
2.35           -1.722805e+01 8.105187e+00 1.477480e+02 -1.721370e+01 7.805290e+00 1.505363e+02 -1.434282e-02 2.998966e-01 -2.788318e+00
2.4            -1.732744e+01 8.135738e+00 1.489416e+02 -1.731042e+01 7.842413e+00 1.516368e+02 -1.701765e-02 2.933243e-01 -2.695143e+00
2.45           -1.741592e+01 8.162859e+00 1.501180e+02 -1.739587e+01 7.875698e+00 1.527183e+02 -2.005030e-02 2.871612e-01 -2.600310e+00
2.5            -1.752142e+01 8.197053e+00 1.514598e+02 -1.749868e+01 7.915953e+00 1.539705e+02 -2.273815e-02 2.811003e-01 -2.510674e+00
2.55           -1.760664e+01 8.221202e+00 1.525725e+02 -1.758126e+01 7.945935e+00 1.549950e+02 -2.538109e-02 2.752664e-01 -2.422475e+00
2.6            -1.771246e+01 8.256063e+00 1.539209e+02 -1.768455e+01 7.986456e+00 1.562584e+02 -2.790709e-02 2.696069e-01 -2.337469e+00
2.65           -1.780812e+01 8.286737e+00 1.551526e+02 -1.777756e+01 8.022471e+00 1.574060e+02 -3.055618e-02 2.642659e-01 -2.253394e+00
2.7            -1.790578e+01 8.318607e+00 1.564355e+02 -1.787279e+01 8.059529e+00 1.586090e+02 -3.299410e-02 2.590784e-01 -2.173506e+00
2.75           -1.798847e+01 8.343447e+00 1.575572e+02 -1.795339e+01 8.089460e+00 1.596559e+02 -3.507441e-02 2.539877e-01 -2.098719e+00
2.8            -1.808711e+01 8.376218e+00 1.588494e+02 -1.804994e+01 8.127030e+00 1.608755e+02 -3.717440e-02 2.491879e-01 -2.026146e+00
2.85           -1.818689e+01 8.409537e+00 1.601647e+02 -1.814773e+01 8.164972e+00 1.621218e+02 -3.916543e-02 2.445648e-01 -1.957074e+00
2.9            -1.827936e+01 8.438446e+00 1.613662e+02 -1.823843e+01 8.198382e+00 1.632578e+02 -4.092982e-02 2.400635e-01 -1.891608e+00
2.95           -1.837483e+01 8.470122e+00 1.626453e+02 -1.833214e+01 8.234365e+00 1.644738e+02 -4.269580e-02 2.357571e-01 -1.828500e+00
3              -1.846876e+01 8.501953e+00 1.638871e+02 -1.842427e+01 8.270295e+00 1.656538e+02 -4.449129e-02 2.316577e-01 -1.766651e+00
3.05           -1.856545e+01 8.536276e+00 1.651626e+02 -1.851957e+01 8.308675e+00 1.668735e+02 -4.587474e-02 2.276014e-01 -1.710916e+00
3.1            -1.867110e+01 8.575800e+00 1.665223e+02 -1.862372e+01 8.352010e+00 1.681779e+02 -4.738247e-02 2.237894e-01 -1.655650e+00
3.15           -1.877804e+01 8.616924e+00 1.678955e+02 -1.872895e+01 8.396721e+00 1.694962e+02 -4.908465e-02 2.202027e-01 -1.600664e+00
3.2            -1.886592e+01 8.649165e+00 1.690385e+02 -1.881561e+01 8.432687e+00 1.705892e+02 -5.030635e-02 2.164776e-01 -1.550762e+00
3.25           -1.896336e+01 8.688601e+00 1.703104e+02 -1.891184e+01 8.475793e+00 1.718120e+02 -5.152363e-02 2.128086e-01 -1.501567e+00
3.3            -1.907055e+01 8.732808e+00 1.716474e+02 -1.901771e+01 8.523567e+00 1.730994e+02 -5.283996e-02 2.092404e-01 -1.451968e+00
3.35           -1.916884e+01 8.775057e+00 1.729266e+02 -1.911461e+01 8.569302e+00 1.743289e+02 -5.423466e-02 2.057542e-01 -1.402344e+00
3.4            -1.926301e+01 8.814489e+00 1.741336e+02 -1.920754e+01 8.612286e+00 1.754875e+02 -5.547006e-02 2.022033e-01 -1.353839e+00
3.45           -1.935631e+01 8.854856e+00 1.753481e+02 -1.929966e+01 8.656247e+00 1.766542e+02 -5.664688e-02 1.986087e-01 -1.306010e+00
3.5            -1.945077e+01 8.894707e+00 1.766184e+02 -1.939283e+01 8.699661e+00 1.778756e+02 -5.793317e-02 1.950460e-01 -1.257210e+00
3.55           -1.954444e+01 8.934840e+00 1.778818e+02 -1.948503e+01 8.743315e+00 1.790879e+02 -5.941291e-02 1.915251e-01 -1.206140e+00
3.6            -1.965056e+01 8.980790e+00 1.793015e+02 -1.958993e+01 8.792875e+00 1.804592e+02 -6.063595e-02 1.879148e-01 -1.157636e+00
3.65           -1.975421e+01 9.023529e+00 1.806964e+02 -1.969235e+01 8.839252e+00 1.818052e+02 -6.186875e-02 1.842768e-01 -1.108850e+00
3.7            -1.984242e+01 9.058157e+00 1.819472e+02 -1.977931e+01 8.877545e+00 1.830070e+02 -6.311126e-02 1.806118e-01 -1.059817e+00
3.75           -1.994431e+01 9.099281e+00 1.833636e+02 -1.987991e+01 8.922297e+00 1.843740e+02 -6.440526e-02 1.769834e-01 -1.010397e+00
3.8            -2.004542e+01 9.139626e+00 1.847957e+02 -1.997963e+01 8.966167e+00 1.857565e+02 -6.579410e-02 1.734591e-01 -9.608114e-01
3.85           -2.014974e+01 9.180816e+00 1.862769e+02 -2.008268e+01 9.010930e+00 1.871887e+02 -6.705910e-02 1.698858e-01 -9.117867e-01
3.9            -2.024515e+01 9.217954e+00 1.876499e+02 -2.017687e+01 9.051636e+00 1.885137e+02 -6.828537e-02 1.663180e-01 -8.638232e-01
3.95           -2.034945e+01 9.258975e+00 1.891533e+02 -2.027990e+01 9.096089e+00 1.899694e+02 -6.955046e-02 1.628860e-01 -8.160412e-01
4              -2.044001e+01 9.293263e+00 1.905030e+02 -2.036926e+01 9.133732e+00 1.912732e+02 -7.075748e-02 1.595313e-01 -7.702780e-01
4.05           -2.054927e+01 9.338174e+00 1.920811e+02 -2.047719e+01 9.181818e+00 1.928051e+02 -7.208337e-02 1.563557e-01 -7.240012e-01
4.1            -2.064610e+01 9.376638e+00 1.935054e+02 -2.057267e+01 9.223340e+00 1.941841e+02 -7.343035e-02 1.532982e-01 -6.786922e-01
4.15           -2.074524e+01 9.416399e+00 1.949632e+02 -2.067028e+01 9.265992e+00 1.955953e+02 -7.495443e-02 1.504078e-01 -6.321678e-01
4.2            -2.083991e+01 9.455362e+00 1.964053e+02 -2.076409e+01 9.308050e+00 1.969982e+02 -7.582160e-02 1.473117e-01 -5.928174e-01
4.25           -2.093766e+01 9.495918e+00 1.978857e+02 -2.086094e+01 9.351555e+00 1.984401e+02 -7.671990e-02 1.443627e-01 -5.543346e-01
4.3            -2.102587e+01 9.531753e+00 1.992671e+02 -2.094817e+01 9.390244e+00 1.997823e+02 -7.769746e-02 1.415093e-01 -5.152205e-01
4.35           -2.112384e+01 9.572395e+00 2.007619e+02 -2.104507e+01 9.433646e+00 2.012378e+02 -7.876879e-02 1.387484e-01 -4.759415e-01
4.4            -2.120434e+01 9.604390e+00 2.020575e+02 -2.112475e+01 9.468484e+00 2.024964e+02 -7.958812e-02 1.359056e-01 -4.389800e-01
4.45           -2.129218e+01 9.640719e+00 2.034494e+02 -2.121178e+01 9.507600e+00 2.038524e+02 -8.039503e-02 1.331189e-01 -4.029959e-01
4.5            -2.137579e+01 9.675127e+00 2.048120e+02 -2.129457e+01 9.544702e+00 2.051796e+02 -8.121436e-02 1.304248e-01 -3.676220e-01
4.55           -2.146093e+01 9.710846e+00 2.062103e+02 -2.137870e+01 9.582934e+00 2.065410e+02 -8.223548e-02 1.279123e-01 -3.307062e-01
4.6            -2.153615e+01 9.741334e+00 2.074682e+02 -2.145335e+01 9.616069e+00 2.077676e+02 -8.279237e-02 1.252649e-01 -2.993776e-01
4.65           -2.160685e+01 9.770772e+00 2.087095e+02 -2.152328e+01 9.647951e+00 2.089761e+02 -8.356541e-02 1.228210e-01 -2.666055e-01
4.7            -2.167336e+01 9.798064e+00 2.098891e+02 -2.158893e+01 9.677517e+00 2.101233e+02 -8.443283e-02 1.205476e-01 -2.342031e-01
4.75           -2.173883e+01 9.826137e+00 2.111011e+02 -2.165371e+01 9.707817e+00 2.113058e+02 -8.512389e-02 1.183198e-01 -2.046663e-01
4.8            -2.181018e+01 9.857199e+00 2.123681e+02 -2.172445e+01 9.741008e+00 2.125452e+02 -8.573528e-02 1.161914e-01 -1.771220e-01
4.85           -2.186945e+01 9.884495e+00 2.135470e+02 -2.178307e+01 9.770225e+00 2.136977e+02 -8.637504e-02 1.142704e-01 -1.506799e-01
4.9            -2.193152e+01 9.912123e+00 2.147445e+02 -2.184442e+01 9.799594e+00 2.148692e+02 -8.710176e-02 1.125291e-01 -1.246701e-01
4.95           -2.198741e+01 9.937604e+00 2.158741e+02 -2.189992e+01 9.826833e+00 2.159772e+02 -8.748347e-02 1.107706e-01 -1.031053e-01
5              -2.202880e+01 9.956726e+00 2.168589e+02 -2.194094e+01 9.847566e+00 2.169413e+02 -8.785553e-02 1.091598e-01 -8.239365e-02
5.05           -2.208410e+01 9.983621e+00 2.180143e+02 -2.199593e+01 9.875911e+00 2.180781e+02 -8.817227e-02 1.077092e-01 -6.379666e-02
5.1            -2.213634e+01 1.000906e+01 2.191344e+02 -2.204786e+01 9.902645e+00 2.191811e+02 -8.847541e-02 1.064115e-01 -4.665719e-02
5.15           -2.218789e+01 1.003510e+01 2.202761e+02 -2.209912e+01 9.929821e+00 2.203067e+02 -8.877004e-02 1.052757e-01 -3.056000e-02
5.2            -2.223088e+01 1.005689e+01 2.213049e+02 -2.214208e+01 9.952735e+00 2.213239e+02 -8.880837e-02 1.041532e-01 -1.901079e-02
5.25           -2.228436e+01 1.008453e+01 2.224501e+02 -2.219544e+01 9.981355e+00 2.224572e+02 -8.892913e-02 1.031758e-01 -7.130072e-03
5.3            -2.232362e+01 1.010595e+01 2.234535e+02 -2.223453e+01 1.000360e+01 2.234494e+02 -8.909532e-02 1.023558e-01 4.107557e-03
5.35           -2.237252e+01 1.013255e+01 2.245662e+02 -2.228331e+01 1.003091e+01 2.245522e+02 -8.921088e-02 1.016366e-01 1.396701e-02
5.4            -2.242173e+01 1.016084e+01 2.257023e+02 -2.233261e+01 1.005994e+01 2.256812e+02 -8.911846e-02 1.009075e-01 2.107080e-02
5.45           -2.246542e+01 1.018681e+01 2.267434e+02 -2.237632e+01 1.008647e+01 2.267154e+02 -8.909570e-02 1.003380e-01 2.792228e-02
5.5            -2.250150e+01 1.020917e+01 2.277127e+02 -2.241232e+01 1.010929e+01 2.276773e+02 -8.918136e-02 9.988255e-02 3.538133e-02
5.55           -2.256906e+01 1.024895e+01 2.290429e+02 -2.248007e+01 1.014952e+01 2.290040e+02 -8.899031e-02 9.942167e-02 3.895656e-02
5.6            -2.262391e+01 1.028296e+01 2.302433e+02 -2.253507e+01 1.018388e+01 2.302012e+02 -8.883977e-02 9.907910e-02 4.201163e-02
5.65           -2.266516e+01 1.031131e+01 2.312821e+02 -2.257638e+01 1.021241e+01 2.312369e+02 -8.877352e-02 9.890461e-02 4.520515e-02
5.7            -2.272542e+01 1.034906e+01 2.325097e+02 -2.263659e+01 1.025019e+01 2.324600e+02 -8.883181e-02 9.887436e-02 4.967985e-02
5.75           -2.276397e+01 1.037641e+01 2.335049e+02 -2.267540e+01 1.027764e+01 2.334555e+02 -8.856820e-02 9.877469e-02 4.942731e-02
5.8            -2.282033e+01 1.041336e+01 2.346982e+02 -2.273198e+01 1.031455e+01 2.346494e+02 -8.835414e-02 9.880353e-02 4.889357e-02
5.85           -2.286117e+01 1.044453e+01 2.357377e+02 -2.277303e+01 1.034555e+01 2.356902e+02 -8.814545e-02 9.897579e-02 4.754026e-02
5.9            -2.290485e+01 1.047590e+01 2.367956e+02 -2.281688e+01 1.037662e+01 2.367497e+02 -8.797518e-02 9.928036e-02 4.584430e-02
5.95           -2.295893e+01 1.051428e+01 2.380068e+02 -2.287096e+01 1.041452e+01 2.379613e+02 -8.796439e-02 9.976290e-02 4.551639e-02
6              -2.300043e+01 1.054599e+01 2.390262e+02 -2.291289e+01 1.044582e+01 2.389865e+02 -8.754150e-02 1.001690e-01 3.971843e-02
6.05           -2.304052e+01 1.057665e+01 2.400190e+02 -2.295340e+01 1.047598e+01 2.399856e+02 -8.712265e-02 1.006627e-01 3.340751e-02
6.1            -2.309184e+01 1.061448e+01 2.411842e+02 -2.300510e+01 1.051321e+01 2.411573e+02 -8.673783e-02 1.012705e-01 2.681377e-02
6.15           -2.313975e+01 1.065020e+01 2.422790e+02 -2.305334e+01 1.054810e+01 2.422594e+02 -8.641667e-02 1.020999e-01 1.959260e-02
6.2            -2.318417e+01 1.068582e+01 2.433527e+02 -2.309822e+01 1.058283e+01 2.433428e+02 -8.595053e-02 1.029950e-01 9.863683e-03
6.25           -2.322884e+01 1.072068e+01 2.443964e+02 -2.314333e+01 1.061663e+01 2.443970e+02 -8.551011e-02 1.040508e-01 -5.802986e-04
6.3            -2.327386e+01 1.075672e+01 2.454538e+02 -2.318872e+01 1.065146e+01 2.454647e+02 -8.514928e-02 1.052531e-01 -1.084615e-02
6.35           -2.332361e+01 1.079554e+01 2.465668e+02 -2.323887e+01 1.068892e+01 2.465897e+02 -8.473790e-02 1.066243e-01 -2.295985e-02
6.4            -2.337209e+01 1.083476e+01 2.476600e+02 -2.328787e+01 1.072666e+01 2.476975e+02 -8.421455e-02 1.081054e-01 -3.748970e-02
6.45           -2.340086e+01 1.086501e+01 2.484969e+02 -2.331718e+01 1.075520e+01 2.485505e+02 -8.368598e-02 1.098104e-01 -5.352762e-02
6.5            -2.343105e+01 1.089619e+01 2.493340e+02 -2.334790e+01 1.078451e+01 2.494048e+02 -8.315073e-02 1.116887e-01 -7.084491e-02
6.55           -2.346795e+01 1.093185e+01 2.502657e+02 -2.338533e+01 1.081807e+01 2.503552e+02 -8.262437e-02 1.137743e-01 -8.944427e-02
6.6            -2.349594e+01 1.096454e+01 2.510660e+02 -2.341387e+01 1.084846e+01 2.511757e+02 -8.207644e-02 1.160771e-01 -1.097053e-01
6.65           -2.351547e+01 1.099266e+01 2.517429e+02 -2.343416e+01 1.087423e+01 2.518765e+02 -8.131069e-02 1.184329e-01 -1.335711e-01
6.7            -2.353455e+01 1.102143e+01 2.524224e+02 -2.345403e+01 1.090040e+01 2.525818e+02 -8.052180e-02 1.210315e-01 -1.594114e-01
6.75           -2.354677e+01 1.104771e+01 2.530140e+02 -2.346704e+01 1.092382e+01 2.532008e+02 -7.973578e-02 1.238836e-01 -1.868820e-01
6.8            -2.354934e+01 1.107004e+01 2.534738e+02 -2.347045e+01 1.094302e+01 2.536910e+02 -7.888776e-02 1.270203e-01 -2.171889e-01
6.85           -2.354632e+01 1.109146e+01 2.538554e+02 -2.346853e+01 1.096111e+01 2.541080e+02 -7.779125e-02 1.303475e-01 -2.526562e-01
6.9            -2.354534e+01 1.111301e+01 2.542501e+02 -2.346867e+01 1.097906e+01 2.545406e+02 -7.666829e-02 1.339564e-01 -2.905301e-01
6.95           -2.352017e+01 1.112292e+01 2.543277e+02 -2.344465e+01 1.098511e+01 2.546584e+02 -7.551838e-02 1.378110e-01 -3.307006e-01
7              -2.350016e+01 1.113766e+01 2.544804e+02 -2.342589e+01 1.099570e+01 2.548549e+02 -7.427587e-02 1.419585e-01 -3.744534e-01
7.05           -2.347526e+01 1.115008e+01 2.545731e+02 -2.340248e+01 1.100377e+01 2.549968e+02 -7.278446e-02 1.463120e-01 -4.237098e-01
7.1            -2.343737e+01 1.115744e+01 2.544721e+02 -2.336614e+01 1.100647e+01 2.549484e+02 -7.122978e-02 1.509734e-01 -4.763034e-01
7.15           -2.338812e+01 1.115982e+01 2.542324e+02 -2.331851e+01 1.100389e+01 2.547647e+02 -6.960501e-02 1.559280e-01 -5.323066e-01
7.2            -2.333896e+01 1.116373e+01 2.539835e+02 -2.327106e+01 1.100253e+01 2.545755e+02 -6.790147e-02 1.612029e-01 -5.920426e-01
7.25           -2.328352e+01 1.116513e+01 2.536479e+02 -2.321770e+01 1.099850e+01 2.543071e+02 -6.581405e-02 1.666276e-01 -6.592338e-01
7.3            -2.321553e+01 1.116197e+01 2.531363e+02 -2.315191e+01 1.098962e+01 2.538669e+02 -6.361575e-02 1.723428e-01 -7.305252e-01
7.35           -2.313803e+01 1.115420e+01 2.524907e+02 -2.307671e+01 1.097588e+01 2.532962e+02 -6.132348e-02 1.783182e-01 -8.054798e-01
7.4            -2.305164e+01 1.114489e+01 2.517197e+02 -2.299270e+01 1.096031e+01 2.526039e+02 -5.893921e-02 1.845840e-01 -8.842241e-01
7.45           -2.295832e+01 1.113299e+01 2.508470e+02 -2.290186e+01 1.094187e+01 2.518138e+02 -5.645711e-02 1.911197e-01 -9.667553e-01
7.5            -2.285223e+01 1.111555e+01 2.497829e+02 -2.279871e+01 1.091781e+01 2.508402e+02 -5.351940e-02 1.977413e-01 -1.057296e+00
7.55           -2.272813e+01 1.109188e+01 2.484727e+02 -2.267765e+01 1.088726e+01 2.496241e+02 -5.047888e-02 2.046270e-01 -1.151440e+00
7.6            -2.260541e+01 1.106876e+01 2.471693e+02 -2.255802e+01 1.085701e+01 2.484176e+02 -4.739024e-02 2.117571e-01 -1.248326e+00
7.65           -2.246868e+01 1.104027e+01 2.456498e+02 -2.242456e+01 1.082127e+01 2.469991e+02 -4.412199e-02 2.190078e-01 -1.349277e+00
7.7            -2.230701e+01 1.100151e+01 2.437908e+02 -2.226635e+01 1.077511e+01 2.452453e+02 -4.066390e-02 2.263978e-01 -1.454561e+00
7.75           -2.214716e+01 1.096525e+01 2.419340e+02 -2.211005e+01 1.073124e+01 2.434973e+02 -3.710153e-02 2.340085e-01 -1.563244e+00
7.8            -2.196849e+01 1.092155e+01 2.398038e+02 -2.193507e+01 1.067974e+01 2.414791e+02 -3.341972e-02 2.418084e-01 -1.675384e+00
7.85           -2.179025e+01 1.087952e+01 2.376331e+02 -2.176063e+01 1.062975e+01 2.394240e+02 -2.961734e-02 2.497682e-01 -1.790854e+00
7.9            -2.158091e+01 1.082486e+01 2.350691e+02 -2.155524e+01 1.056691e+01 2.369796e+02 -2.566346e-02 2.579470e-01 -1.910493e+00
7.95           -2.137153e+01 1.077178e+01 2.324409e+02 -2.134998e+01 1.050544e+01 2.344753e+02 -2.154724e-02 2.663386e-01 -2.034385e+00
8              -2.114200e+01 1.071059e+01 2.295253e+02 -2.112468e+01 1.043566e+01 2.316876e+02 -1.731647e-02 2.749211e-01 -2.162252e+00
8.05           -2.089832e+01 1.064641e+01 2.264068e+02 -2.088549e+01 1.036265e+01 2.287034e+02 -1.282816e-02 2.837640e-01 -2.296583e+00
8.1            -2.064096e+01 1.057760e+01 2.230327e+02 -2.063282e+01 1.028478e+01 2.254686e+02 -8.145213e-03 2.928249e-01 -2.435889e+00
8.15           -2.035723e+01 1.049839e+01 2.193110e+02 -2.035394e+01 1.019636e+01 2.218901e+02 -3.296671e-03 3.020253e-01 -2.579144e+00
8.2            -2.006832e+01 1.042009e+01 2.154478e+02 -2.007013e+01 1.010851e+01 2.181772e+02 1.804468e-03 3.115772e-01 -2.729401e+00
8.25           -1.975793e+01 1.033391e+01 2.113074e+02 -1.976508e+01 1.001246e+01 2.141936e+02 7.144414e-03 3.214422e-01 -2.886200e+00
8.3            -1.943463e+01 1.024620e+01 2.069448e+02 -1.944738e+01 9.914470e+00 2.099954e+02 1.274904e-02 3.317300e-01 -3.050609e+00
8.35           -1.908641e+01 1.014923e+01 2.021880e+02 -1.910505e+01 9.806759e+00 2.054113e+02 1.863474e-02 3.424707e-01 -3.223239e+00
8.4            -1.872644e+01 1.005266e+01 1.972471e+02 -1.875149e+01 9.698981e+00 2.006557e+02 2.505098e-02 3.536825e-01 -3.408582e+00
8.45           -1.833223e+01 9.943174e+00 1.918126e+02 -1.836439e+01 9.577764e+00 1.954224e+02 3.216184e-02 3.654094e-01 -3.609754e+00
8.5            -1.793602e+01 9.837419e+00 1.862779e+02 -1.797575e+01 9.459593e+00 1.901017e+02 3.972682e-02 3.778257e-01 -3.823779e+00
8.55           -1.751987e+01 9.728403e+00 1.804581e+02 -1.756765e+01 9.337317e+00 1.845103e+02 4.778431e-02 3.910863e-01 -4.052207e+00
8.6            -1.708307e+01 9.613883e+00 1.743161e+02 -1.713940e+01 9.208545e+00 1.786127e+02 5.632570e-02 4.053387e-01 -4.296614e+00
8.65           -1.663237e+01 9.499659e+00 1.679381e+02 -1.669804e+01 9.079180e+00 1.724991e+02 6.566366e-02 4.204785e-01 -4.560933e+00
8.7            -1.616295e+01 9.382723e+00 1.613009e+02 -1.623856e+01 8.945986e+00 1.661442e+02 7.560903e-02 4.367364e-01 -4.843265e+00
8.75           -1.568610e+01 9.269219e+00 1.545125e+02 -1.577217e+01 8.814943e+00 1.596551e+02 8.607102e-02 4.542760e-01 -5.142612e+00
8.8            -1.520297e+01 9.156449e+00 1.476038e+02 -1.530006e+01 8.683440e+00 1.530633e+02 9.709360e-02 4.730093e-01 -5.459499e+00
8.85           -1.473015e+01 9.057141e+00 1.407831e+02 -1.483898e+01 8.564160e+00 1.465796e+02 1.088268e-01 4.929813e-01 -5.796571e+00
8.9            -1.423589e+01 8.954458e+00 1.336951e+02 -1.435694e+01 8.440177e+00 1.398453e+02 1.210490e-01 5.142812e-01 -6.150262e+00
8.95           -1.374939e+01 8.858480e+00 1.267137e+02 -1.388306e+01 8.321537e+00 1.332332e+02 1.336703e-01 5.369428e-01 -6.519508e+00
9              -1.325778e+01 8.769919e+00 1.196206e+02 -1.340461e+01 8.208842e+00 1.265264e+02 1.468276e-01 5.610773e-01 -6.905749e+00
9.05           -1.278857e+01 8.695645e+00 1.128351e+02 -1.294881e+01 8.109272e+00 1.201378e+02 1.602409e-01 5.863734e-01 -7.302697e+00
9.1            -1.232287e+01 8.630531e+00 1.060672e+02 -1.249665e+01 8.017573e+00 1.137758e+02 1.737857e-01 6.129578e-01 -7.708599e+00
9.15           -1.188384e+01 8.580983e+00 9.973781e+01 -1.207170e+01 7.940622e+00 1.078673e+02 1.878599e-01 6.403603e-01 -8.129465e+00
9.2            -1.146816e+01 8.546827e+00 9.371724e+01 -1.167063e+01 7.878177e+00 1.022823e+02 2.024680e-01 6.686505e-01 -8.565040e+00
9.25           -1.108139e+01 8.526960e+00 8.812710e+01 -1.129853e+01 7.829251e+00 9.713212e+01 2.171415e-01 6.977084e-01 -9.005024e+00
9.3            -1.071895e+01 8.521771e+00 8.292939e+01 -1.095094e+01 7.794393e+00 9.238173e+01 2.319822e-01 7.273785e-01 -9.452340e+00
9.35           -1.039991e+01 8.539503e+00 7.834711e+01 -1.064686e+01 7.781672e+00 8.825371e+01 2.469475e-01 7.578310e-01 -9.906603e+00
9.4            -1.011233e+01 8.569352e+00 7.431109e+01 -1.037438e+01 7.780572e+00 8.467673e+01 2.620492e-01 7.887804e-01 -1.036564e+01
9.45           -9.880721e+00 8.624697e+00 7.105336e+01 -1.015867e+01 7.805137e+00 8.189314e+01 2.779453e-01 8.195600e-01 -1.083978e+01
9.5            -9.685169e+00 8.695264e+00 6.839132e+01 -9.979148e+00 7.844505e+00 7.971068e+01 2.939787e-01 8.507595e-01 -1.131936e+01
9.55           -9.536673e+00 8.782047e+00 6.638720e+01 -9.847146e+00 7.899961e+00 7.819593e+01 3.104739e-01 8.820853e-01 -1.180873e+01
9.6            -9.429672e+00 8.885951e+00 6.506192e+01 -9.756609e+00 7.972794e+00 7.735820e+01 3.269378e-01 9.131573e-01 -1.229628e+01
9.65           -9.374257e+00 9.006051e+00 6.445924e+01 -9.717850e+00 8.061829e+00 7.724698e+01 3.435928e-01 9.442218e-01 -1.278774e+01
9.7            -9.331492e+00 9.126624e+00 6.414102e+01 -9.691505e+00 8.151808e+00 7.741309e+01 3.600131e-01 9.748166e-01 -1.327207e+01
9.75           -9.359211e+00 9.272432e+00 6.482273e+01 -9.735174e+00 8.267457e+00 7.856861e+01 3.759634e-01 1.004976e+00 -1.374588e+01
9.8            -9.430206e+00 9.428148e+00 6.613763e+01 -9.821658e+00 8.393820e+00 8.034424e+01 3.914521e-01 1.034329e+00 -1.420661e+01
9.85           -9.526017e+00 9.585791e+00 6.788598e+01 -9.932342e+00 8.523146e+00 8.253616e+01 4.063245e-01 1.062644e+00 -1.465018e+01
9.9            -9.667127e+00 9.753591e+00 7.022475e+01 -1.008768e+01 8.663798e+00 8.529908e+01 4.205538e-01 1.089793e+00 -1.507432e+01
9.95           -9.817761e+00 9.914763e+00 7.282745e+01 -1.025188e+01 8.799020e+00 8.830653e+01 4.341159e-01 1.115742e+00 -1.547909e+01
10             -9.988641e+00 1.007847e+01 7.570143e+01 -1.043571e+01 8.937887e+00 9.156758e+01 4.470703e-01 1.140582e+00 -1.586616e+01
10.05          -1.018447e+01 1.023743e+01 7.889353e+01 -1.064382e+01 9.073391e+00 9.512643e+01 4.593521e-01 1.164034e+00 -1.623290e+01
10.1           -1.039655e+01 1.039379e+01 8.236945e+01 -1.086755e+01 9.207793e+00 9.894878e+01 4.709917e-01 1.185998e+00 -1.657933e+01
10.15          -1.064343e+01 1.055602e+01 8.639095e+01 -1.112534e+01 9.349545e+00 1.032949e+02 4.819088e-01 1.206480e+00 -1.690393e+01
10.2           -1.087646e+01 1.070124e+01 9.020420e+01 -1.136852e+01 9.475828e+00 1.074098e+02 4.920675e-01 1.225411e+00 -1.720558e+01
10.25          -1.113733e+01 1.084629e+01 9.437656e+01 -1.163867e+01 9.603403e+00 1.118586e+02 5.013369e-01 1.242890e+00 -1.748208e+01
10.3           -1.135835e+01 1.096755e+01 9.804216e+01 -1.186807e+01 9.708637e+00 1.157754e+02 5.097201e-01 1.258912e+00 -1.773325e+01
10.35          -1.158970e+01 1.108260e+01 1.018550e+02 -1.210691e+01 9.809149e+00 1.198137e+02 5.172139e-01 1.273449e+00 -1.795872e+01
10.4           -1.181814e+01 1.118750e+01 1.055917e+02 -1.234196e+01 9.901061e+00 1.237498e+02 5.238176e-01 1.286435e+00 -1.815809e+01
10.45          -1.201580e+01 1.127141e+01 1.089108e+02 -1.254526e+01 9.973363e+00 1.272424e+02 5.294622e-01 1.298049e+00 -1.833159e+01
10.5           -1.223452e+01 1.136126e+01 1.124996e+02 -1.276880e+01 1.005276e+01 1.309821e+02 5.342793e-01 1.308505e+00 -1.848257e+01
10.55          -1.242403e+01 1.143191e+01 1.156768e+02 -1.296236e+01 1.011407e+01 1.342892e+02 5.383388e-01 1.317835e+00 -1.861237e+01
10.6           -1.256603e+01 1.147763e+01 1.181481e+02 -1.310775e+01 1.015152e+01 1.368710e+02 5.417204e-01 1.326115e+00 -1.872297e+01
10.65          -1.268963e+01 1.151241e+01 1.203753e+02 -1.323411e+01 1.017892e+01 1.391915e+02 5.444794e-01 1.333485e+00 -1.881617e+01
10.7           -1.279140e+01 1.153124e+01 1.222665e+02 -1.333800e+01 1.019143e+01 1.411576e+02 5.465940e-01 1.339811e+00 -1.889103e+01
10.75          -1.285748e+01 1.153256e+01 1.236198e+02 -1.340571e+01 1.018726e+01 1.425717e+02 5.482275e-01 1.345304e+00 -1.895184e+01
10.8           -1.289980e+01 1.151887e+01 1.246117e+02 -1.344954e+01 1.016931e+01 1.436158e+02 5.497334e-01 1.349569e+00 -1.900411e+01
10.85          -1.292064e+01 1.149510e+01 1.252472e+02 -1.347135e+01 1.014205e+01 1.442887e+02 5.507113e-01 1.353050e+00 -1.904153e+01
10.9           -1.296053e+01 1.147976e+01 1.261299e+02 -1.351172e+01 1.012394e+01 1.451950e+02 5.511935e-01 1.355828e+00 -1.906508e+01
10.95          -1.293945e+01 1.143396e+01 1.261050e+02 -1.349065e+01 1.007603e+01 1.451803e+02 5.512016e-01 1.357925e+00 -1.907530e+01
11             -1.291187e+01 1.138131e+01 1.259702e+02 -1.346304e+01 1.002218e+01 1.450504e+02 5.511685e-01 1.359124e+00 -1.908012e+01