/*--------------------------------*- C++ -*----------------------------------*\
| =========                 |                                                 |
| \\      /  F ield         | OpenFOAM: The Open Source CFD Toolbox           |
|  \\    /   O peration     | Version:  2306                                  |
|   \\  /    A nd           | Website:  www.openfoam.com                      |
|    \\/     M anipulation  |                                                 |
\*---------------------------------------------------------------------------*/
FoamFile
{
    version     2.0;
    format      ascii;
    arch        "LSB;label=32;scalar=64";
    class       volScalarField;
    location    "2.4";
    object      p;
}
// * * * * * * * * * * * * * * * * * * * * * * * * * * * * * * * * * * * * * //

dimensions      [0 2 -2 0 0 0 0];

internalField   nonuniform List<scalar> 
13486
(
24.5029
22.9438
-1.29059
-66.3722
-17.2252
-1.98006
-27.3415
-4.27693
5.84592
15.1363
-34.3727
-1.29014
25.6217
1.61113
-15.6156
15.5121
-32.7856
-5.4582
-1.39175
21.8296
-73.4035
25.0756
22.4737
-50.1213
12.7119
-51.5534
-48.1421
-22.5042
-0.126677
-29.6518
-73.4891
-7.41091
-26.7924
-16.37
-4.09533
-0.100444
-2.53774
11.6234
-1.75756
7.96724
-41.3498
27.5759
-0.454349
12.531
12.4189
-1.21361
-124.889
-0.0316753
-2.43002
-15.7423
15.2322
-2.78028
-0.803081
12.7745
-13.9228
-15.8446
-9.76287
-2.58564
-27.4205
-3.17925
-33.6263
-3.68755
-50.1075
-73.6037
-259.679
-2.8856
-65.8301
27.3085
5.40071
-1.7742
-65.1979
-9.76183
10.7764
-56.9602
-3.69351
-6.47235
-3.5652
-16.8533
-106.524
-4.2458
-0.0257031
24.087
-51.6857
-1.19248
24.4714
14.4291
1.56237
14.7476
18.3631
18.2086
-3.0227
-8.11413
21.4762
22.2922
5.5244
0.00518305
-46.6932
-66.0114
7.99265
-35.2619
0.0547278
2.42018
-68.7495
-2.56861
20.3276
-40.2971
15.6059
-1.69929
-115.064
-12.1799
1.79429
-13.0059
12.7596
-4.78706
34.0094
2.8401
13.2662
-15.2023
11.049
-2.09952
-5.48341
-34.9853
7.82237
-1.7938
1.62383
-2.61117
-1.95624
5.80938
-12.4226
-264.733
-2.62708
-130.684
-67.3975
-37.4779
15.4488
17.3778
36.4424
-11.351
-2.00541
-2.26059
-22.6959
-0.920653
-3.45033
-4.06499
-1.4389
-15.2968
-1.44879
34.9229
-16.297
-0.00141176
11.3814
-21.3247
-0.0240387
24.9288
7.41136
-1.31226
-18.3925
-77.6821
7.10508
-1.88248
-11.1345
7.11954
-2.45149
27.0893
-2.77595
-2.4395
4.02931
42.2814
-1.79317
-37.5447
-72.704
7.40826
13.1755
-4.68576
-0.0960453
-85.5728
1.02199
-23.3707
15.398
-3.19298
5.23851
-4.05038
-4.8911
-44.354
-1.06705
-22.0917
0.0117481
-22.8506
-40.5702
5.55005
-2.37099
-1.63625
-2.83106
30.7825
-3.39541
-38.2368
-262.775
-11.7607
16.6585
-0.955495
-76.6113
5.56627
11.6001
-24.1594
-2.91898
-3.68762
-18.598
14.5187
-2.80124
-1.09564
-22.0399
-95.1394
21.4934
15.5891
-1.94156
-24.9175
-28.6027
18.3642
18.6805
-26.2829
-35.3363
-16.3849
-1.35811
-11.715
-0.248124
20.8252
-4.84347
-106.521
-12.1883
1.51836
5.03488
-80.5638
-23.4575
28.8781
-75.6282
18.6533
-19.3367
-1.57712
19.185
-2.69639
-28.3936
13.0844
-2.41511
16.1372
-1.19723
18.7442
-1.42044
-45.2428
-39.516
13.6196
-56.4568
34.5691
1.00985
-1.82537
-6.47078
-80.8862
-6.56392
-24.6773
-68.4196
-28.5668
20.3797
-1.23833
-14.9965
-79.6205
-17.953
-44.7565
-12.3429
-80.4831
10.6571
2.63079
24.6224
15.747
-28.6785
-0.930464
20.934
-42.7464
-6.60981
-74.9883
-1.77145
-0.292059
-74.347
2.93609
16.24
-26.921
-39.0886
-47.3376
-21.6456
-13.1767
-0.208763
10.9971
-74.8041
-1.78551
4.9249
15.2173
-18.4996
-21.3349
-11.7794
-0.804868
16.1705
-37.163
-1.02453
-19.2561
-0.837629
-7.7736
-1.99752
-25.6212
-85.815
-1.35641
1.26506
-2.47735
-25.8571
-66.0306
4.23425
-11.5986
1.8561
17.6505
-1.93221
18.5259
14.9342
-14.5417
-2.70966
-1.72725
15.3566
22.8585
38.5409
-3.40595
-7.46534
2.45724
-0.614955
-9.18403
14.8652
-9.6174
-2.28692
28.0751
-28.0682
3.53963
34.724
-20.6264
12.559
-1.14471
-13.2529
22.707
-10.2742
-5.19259
-44.6678
-0.0724649
-1.6507
32.2925
-27.1812
-1.71778
-0.0780353
-0.56394
-0.879008
-47.3132
16.0197
-0.768417
-46.3652
-1.85115
1.07953
-83.4443
-1.29002
-1.40672
19.6392
15.8571
-29.7794
-0.00350897
-20.6123
-144.965
22.3317
-1.26007
-0.563947
-1.18315
-0.0378443
-53.6286
0.708538
14.9823
15.2639
-1.36194
5.39579
-30.8846
9.90589
-11.6125
27.9025
25.0863
-140.681
-7.21734
2.49651
12.3951
-59.3934
-68.2054
20.6909
-27.473
9.38242
20.3178
29.6098
-2.04522
-65.8137
-53.3168
-52.8864
-22.5302
-57.9566
11.0276
6.71656
-75.3743
-26.2475
2.48012
21.9803
-23.435
-0.103069
22.2892
11.4131
-2.07682
-26.4764
16.3943
15.2425
28.7626
-43.5354
-17.1883
-98.741
-2.79125
15.4618
-13.6935
32.5305
13.2304
-7.35106
-22.5205
5.67601
16.4513
-46.3815
4.89021
25.1335
6.91553
9.14851
0.00330368
-22.1924
-38.2156
28.2736
-1.69232
-4.34593
26.7671
-117.043
-27.5719
-34.8529
-27.4625
0.00166969
13.6127
27.9342
25.4566
-29.5644
-2.11703
-45.0239
12.9911
18.789
-16.079
-7.06092
15.4627
-48.0646
-92.8183
-24.8014
-17.7099
5.0581
17.3737
-0.114416
5.0173
-69.8993
17.2212
0.00157722
38.5744
21.1424
9.12151
-6.23329
-0.0565607
-0.0606973
34.3152
-7.5871
-1.95175
-7.83366
3.68872
-48.0459
-0.702599
13.5373
-1.07746
-4.28373
22.5434
-23.4935
-46.7499
12.6615
-66.7312
41.7799
12.721
15.2281
16.7298
-80.6747
-1.01049
34.2242
-20.7095
22.448
-35.0135
6.60057
-82.541
-3.2666
-0.622755
-45.1561
18.9669
2.23621
-58.4575
-0.0512815
-2.83413
29.6152
13.5193
-7.17693
3.00261
-0.773913
-3.59464
-18.0412
15.1027
-87.9121
27.5904
-2.96551
-1.7631
27.7281
-11.4189
-0.208322
0.264727
-88.1796
-52.5781
-1.61709
-14.1183
8.29808
21.5449
-44.0101
-22.6523
-45.1278
-0.0821803
18.7349
6.12085
-44.6683
-68.3209
-9.42312
-78.2197
-4.12931
-260.701
-7.13187
3.08493
27.5553
-2.80762
19.6836
-18.1512
-51.676
-10.2564
8.60176
-45.0131
13.4435
-1.01776
-35.5853
-0.194463
11.4498
-30.4611
-43.7049
15.3675
19.9929
8.95864
25.0625
-1.23159
13.0253
5.7299
15.1804
-1.66324
18.6243
-46.0016
11.5822
1.45138
-12.014
-44.6826
14.8311
-115.863
-0.894761
28.0774
24.5251
-144.272
-49.8353
8.33051
-0.337155
7.58729
17.0793
-29.9616
-44.0075
1.2722
22.5647
4.44166
5.32268
-121.207
24.7876
-84.3679
-3.7526
15.4567
-7.50823
-3.54213
4.42134
-3.74453
-0.749063
1.06391
8.16941
-14.6698
23.8932
2.66447
1.33579
2.14733
1.43353
-21.1485
31.4873
7.01834
31.1199
-102.871
12.1766
-0.195925
-51.0126
-14.7999
13.3543
34.0986
-180.665
-12.6036
-8.50596
-29.4757
13.4198
-11.5689
-0.387038
6.58179
-43.9046
-40.4383
-42.0545
5.4346
-18.2988
16.5324
-0.0584685
28.3691
7.13525
-1.84557
-51.3299
-21.1853
7.26602
-38.9184
2.57645
-40.3747
18.2458
-0.0189347
-10.3443
-51.9693
27.8949
-0.0445574
0.727663
27.1847
15.0611
-44.5911
-2.11817
-0.645576
2.81385
0.823884
-2.30141
-160.285
8.0684
7.63451
6.92917
4.64538
27.947
-3.41885
-91.9113
14.8109
-12.798
-3.22835
-6.41376
13.7647
10.3085
-43.9705
-1.04477
-1.34687
-0.497494
18.6677
7.05478
-0.59891
-1.29183
-45.9203
-4.34183
20.864
-2.68361
-0.4277
6.94972
27.7021
-2.16687
-4.03122
31.0076
-0.292391
-49.4253
11.8281
-35.1028
19.8689
-1.48908
15.4281
-80.4878
-38.8173
-72.559
-0.056266
-39.0184
11.9406
32.7143
-28.455
-17.4245
-5.74206
21.2071
1.49918
9.71499
-46.0565
33.9751
-44.4679
-0.776412
-16.6903
12.5994
18.1782
13.6022
-23.2671
-73.3108
27.1085
15.5014
-23.3632
7.73996
-48.9086
-0.994712
-4.33313
12.2856
-32.4525
-6.14786
21.2708
-22.4638
-2.09941
-4.76195
-53.7622
-29.742
-2.11052
13.8729
19.6977
-91.2797
-0.999238
-43.6211
-73.4978
-0.749754
-18.319
-1.96277
15.4027
3.97075
-8.00705
10.5738
-51.2731
-249.438
-13.2534
-7.73119
-86.2222
-75.6039
-1.40282
-74.1955
0.586547
25.9669
-2.07327
-250.444
27.2421
24.1187
-133.281
-252.913
4.80946
-140.408
-1.82654
0.518951
3.33605
-15.8212
-42.1168
9.22178
13.1914
-6.79259
-123.939
-35.2182
-1.19757
0.278221
14.3443
0.518767
-83.4737
20.0843
22.618
-41.1241
-71.7608
7.90142
-28.8273
1.09893
-1.65125
-27.5353
-82.6413
-0.891508
15.8766
31.4569
13.4871
1.76203
0.405211
15.3933
22.2731
3.68523
6.16834
13.5423
29.3408
-22.6972
-1.48866
4.15007
-10.3622
27.5922
-0.960129
12.1098
1.30561
-6.06145
-1.15944
-0.466522
-19.0985
17.0412
24.0829
13.4353
11.0421
-56.2394
-4.36149
-16.3644
-15.7514
-15.9142
-0.383061
-1.62534
-91.5614
-34.2065
11.2109
-26.5101
-39.87
-61.333
-101.12
-8.97131
-44.9873
-98.6063
15.419
-91.5286
24.8201
-114.798
-42.6481
10.1228
19.2628
-4.44053
3.72514
-36.6074
18.46
-16.4069
-32.728
-2.78405
-2.06916
-117.018
15.4599
-11.5472
12.1139
-1.67671
4.06572
-50.8911
-2.09661
-0.722516
14.1496
-20.661
-35.4774
-141.097
24.7398
0.966022
-100
-24.7473
13.3576
-76.2216
-1.82216
-1.0702
-13.1843
2.88719
-6.78464
-266.567
19.6635
15.4256
10.9134
9.93795
-1.68107
-32.3045
14.675
-0.0328407
10.8334
17.3541
-4.1215
-1.62527
-8.31025
0.0592465
-1.98097
18.5384
8.5405
-13.7816
15.7892
-10.1002
-0.300943
33.4515
-0.670915
-24.3217
13.1222
1.48959
-2.0292
-9.5351
-70.6908
13.235
-3.12525
-0.321531
-1.66563
1.81905
14.1887
-42.8868
-0.0350184
15.8067
2.03934
28.0911
19.1861
17.8428
-1.09856
16.7682
-3.26711
-1.21247
-7.43619
8.27564
-81.6568
-11.7231
-73.9756
-47.2671
-52.6434
11.7945
-18.6066
-32.7957
-96.2466
-79.2997
-0.995743
16.9568
-0.333051
-2.74993
-33.2136
15.2211
31.7295
2.29489
-4.82294
12.4574
-48.2418
12.5219
-1.9838
-1.27602
12.5977
-3.29907
28.0819
0.672631
15.4116
-25.102
18.9086
-1.85313
19.4415
-3.19872
-30.086
1.09359
-184.628
0.478185
2.43051
-77.1494
25.3895
15.261
20.1706
20.9154
20.2915
14.2514
-16.4437
5.65015
15.3507
15.5784
-10.4506
-5.17332
-19.966
-4.18768
-4.02388
7.91703
-35.8009
39.0334
-8.35113
-2.86021
31.5358
23.4228
-11.6974
-171.292
8.86775
11.8282
-50.1426
2.47384
-32.216
-5.28587
15.37
19.3348
-1.39102
7.13416
18.7646
-0.0100111
-10.3012
20.4534
-2.18651
-2.21819
-44.0638
-1.2328
-18.6655
16.9823
20.607
-2.53462
-59.1315
-39.0068
-5.17719
-2.10133
-1.11051
26.7784
-2.46143
37.135
12.1132
-1.23948
14.9223
-43.9452
-35.6719
-75.9027
13.3828
-1.5065
-30.7979
-77.7974
10.163
13.5812
-1.16762
-10.5631
-147.804
-12.6882
1.75191
-1.48265
2.26166
-3.03373
16.4348
16.2826
19.5507
7.22687
-11.0387
-28.0415
-19.9934
-1.05021
-153.609
4.1108
1.78286
-91.1547
-1.7122
-2.53455
1.6733
-47.7839
1.33718
12.5108
-1.87183
-41.9436
-4.59493
-15.011
-36.5677
-0.54838
2.35797
7.1428
13.788
14.1792
-36.1621
15.163
-1.96143
21.6993
6.10282
11.2513
3.38685
-0.685212
27.8894
35.306
4.56409
-18.409
13.8723
1.70555
28.1546
-9.04845
-26.052
-46.9328
-0.974039
-5.99531
-71.8978
15.1816
11.3654
2.69817
-33.6077
-5.00522
7.43511
33.3273
-15.8143
15.1356
-58.0203
-2.72514
26.2182
-7.80973
-1.40362
-118.162
13.5553
-1.53182
35.9927
0.151156
-20.3597
10.3776
-0.657763
-44.7664
-32.7277
-1.22234
19.8423
-0.822601
-17.1565
24.2298
22.055
-4.0728
-27.7348
-0.24067
5.99114
9.54453
10.2189
18.5389
-0.0425177
-16.4518
21.1444
-0.513887
-30.5808
-5.71792
18.6328
13.4145
-5.14192
-78.7025
0.0386023
15.0962
26.2992
-1.02873
1.40837
-19.4961
33.6232
-36.8545
-21.8834
28.7265
15.1067
2.17275
0.043821
-66.5949
-10.9603
-68.9098
-33.5512
-1.41796
-72.0805
1.82782
-31.8836
-134.89
-35.8354
-52.2083
-48.5749
-53.7444
-54.1398
24.756
16.9636
-19.081
-148.692
-6.32969
5.74827
-12.6814
36.7532
-10.5512
-17.8943
15.1666
-35.8044
-72.3862
-5.14679
-5.7734
11.4446
38.1564
-0.0744438
-7.46661
-55.8444
-1.03228
-8.81575
1.52812
-5.203
21.3993
16.7195
16.6292
-84.7259
-2.42311
-1.78743
5.18724
15.3387
5.31715
16.7605
34.2366
30.5173
-35.9969
15.1846
20.5261
-17.9967
18.0479
-2.09322
29.7136
17.6749
1.74736
19.5252
11.3643
-5.50706
-1.68718
19.2615
-26.5115
3.76681
-20.1797
-11.9935
-2.27783
12.5549
-2.18979
-3.62309
27.6196
27.2706
-6.80454
-36.8182
-0.996945
-48.523
-6.39362
16.7931
21.6901
-35.6797
15.7899
4.07435
-2.69137
5.23933
-56.4436
-118.42
-2.35573
37.1442
-16.4802
-0.449945
22.1029
-2.54882
-7.32643
10.1217
-0.946391
14.5699
-26.2041
-24.1736
-0.0777807
-4.55336
-10.2661
-6.70554
32.1289
23.1561
12.3989
33.9214
26.5619
-12.5462
-2.26206
-16.7304
-10.4378
27.5902
-98.4345
8.85609
1.80192
-46.2609
-12.033
14.5619
-170.345
-2.4076
15.5482
38.5639
-47.1666
-2.35869
2.58325
8.23237
-1.39574
-78.984
26.5029
17.1946
4.61828
13.2912
-46.6206
-23.6508
-49.4278
30.3686
-4.46437
35.6461
-62.7717
1.78068
-86.6924
-18.7721
-40.2093
-1.55132
-1.97627
7.57804
1.58845
7.58
-76.5995
-0.00630198
-161.066
-34.0519
-21.4085
-33.8791
0.866948
-4.91522
-67.6047
-38.39
3.65865
4.5301
28.9909
15.4022
-4.87258
-1.52026
43.2208
8.36953
-52.7979
-0.126922
-0.0728152
14.8304
4.24144
21.4043
-19.5918
-20.0427
-5.86789
-0.022877
-1.07699
23.557
-37.2423
-45.6688
-57.2671
31.0839
-64.3742
1.23954
17.7995
-63.1363
-2.78755
-1.78067
-44.8683
-47.6643
-1.91047
13.6899
11.1136
17.3634
-34.3159
-32.9961
-12.7872
-85.186
-35.7689
-11.9827
-2.49183
-112.538
1.02788
-70.6723
-48.4678
-43.8039
23.9384
-73.4982
30.8274
-43.8962
-27.8648
-7.73119
3.09378
19.7836
1.56387
24.1251
1.88053
-62.4435
-40.4831
17.2449
-31.4191
13.8952
-1.4667
25.6745
20.9505
-1.44649
13.2533
27.5356
8.11961
13.8565
-22.0557
-58.0518
-5.14992
-34.7393
-1.78846
-12.2035
-10.2509
-1.37049
-41.1902
-1.12391
-3.54694
-2.96985
-8.77653
-22.2454
29.5587
-1.14329
-0.119102
-0.589135
15.428
-238.764
-0.137687
8.6082
-6.47495
-1.14802
-3.60206
4.6166
15.41
15.3468
0.741136
16.8071
19.0213
10.6467
-31.2525
-2.80026
7.026
2.29619
-19.1334
-118.821
-103.581
-26.0503
-67.6423
0.0952466
-2.03495
-6.28728
-27.3018
-15.9359
-44.5037
-2.76287
-125.834
8.38351
-44.2915
16.9899
42.6
9.1643
-155.057
10.5898
4.56262
-1.03038
-0.360033
-34.9012
-109.549
-1.12752
17.0653
-0.110955
26.3906
-0.306596
15.3118
-3.29718
-4.43068
-104.217
-16.237
36.1562
-67.8789
15.476
15.6989
21.2821
-1.36398
17.1042
5.33968
-77.4916
8.17627
-49.2771
-54.9444
17.8269
15.1873
-32.4786
7.47343
20.8363
-43.8206
-219.414
-6.54905
-1.80408
16.9228
11.172
18.9829
0.21539
4.7432
-34.2465
-21.39
-34.6391
18.918
35.3874
-38.8357
-29.4496
-105.77
2.35401
-1.099
-1.17765
-23.1829
-14.244
-2.72234
-68.658
-9.5067
35.3835
9.13593
-4.38044
-77.7853
-57.7053
-44.1429
-57.4319
-41.4273
-46.6852
22.2597
11.005
-24.7274
32.8674
-0.109812
-39.63
-173.233
-55.5779
8.18165
-30.9228
7.65512
5.18198
0.572954
-30.7859
-53.1054
-53.4933
-99.2803
19.7565
-44.5435
-2.00086
-49.2437
15.7392
14.2863
-64.4198
18.0297
12.951
23.511
27.577
8.48818
-0.791174
37.1652
-63.8529
2.38791
-34.8449
-51.3543
22.8814
-94.7138
29.3492
10.5356
-21.606
-142.52
-142.466
18.7188
-112.85
-235.299
-1.87096
-4.52149
-3.87453
12.2691
4.77026
-4.91176
31.059
-38.4922
-48.7962
0.775083
3.92259
16.4683
-67.5978
42.4969
-2.1159
-3.515
15.9286
-16.3559
15.4062
6.72031
12.1033
8.84268
-0.0503895
-11.0194
7.34734
-0.952694
-78.8113
-0.493315
7.0522
14.9872
17.9102
-71.6899
-1.27417
-20.3402
11.9127
-0.930724
-53.2356
15.7509
-145.822
15.1665
17.0088
-33.1392
25.3148
-184.028
35.4687
10.0785
-50.0995
-0.0217466
-3.22662
14.3229
18.5369
-64.4273
18.0472
17.1416
-19.0761
-1.35486
-0.909593
0.307331
-19.8244
-44.8831
-12.7277
-96.2558
15.7327
-115.975
-66.6355
-33.6001
20.8769
19.4515
15.8246
-117.446
10.6768
-4.14449
-1.22462
11.3221
-87.2158
-76.7883
30.2768
-5.85896
-15.9672
-26.3608
-54.6698
-82.7916
15.5274
-40.971
-17.1609
18.659
-7.08449
15.5083
-47.5303
-2.44791
33.1203
-38.1534
18.7795
-5.60461
-72.3105
7.56456
-1.05417
3.9076
33.2649
11.1459
2.38754
34.2444
16.5804
21.895
-91.3737
-123.88
-13.151
-23.8993
-74.9532
-22.9953
-19.8537
-25.5684
-0.467848
-1.49966
-11.8405
-7.1714
-69.7751
-8.40155
20.0172
-22.8706
4.17502
12.4163
15.3517
-3.98651
-1.11688
-65.0156
-63.4648
-50.1143
-19.7849
19.8851
-48.7727
23.6842
-45.2503
15.4068
-14.1477
-2.553
-35.8019
10.9407
11.4763
5.98103
2.82115
8.13133
-11.397
20.2273
24.9255
-71.9465
-16.3514
-59.8581
16.2986
2.4207
-23.8285
-32.1055
1.18442
-6.00182
-0.596447
4.04847
-4.72402
1.83479
11.4315
1.94394
-1.94038
-69.1367
22.8901
-57.8594
12.6695
0.0699509
15.2054
11.9438
11.8426
4.30314
-57.7123
-78.5672
-2.0749
-66.5116
-93.179
-181.209
2.02965
-96.3482
15.233
-0.00223114
15.424
-63.6002
-16.3242
-34.4679
-2.06183
11.7252
-48.3497
7.99219
-1.17234
-115.732
-60.3272
-59.5518
1.36257
15.7477
-1.92449
-0.896512
-36.2999
9.35829
-40.9413
-6.12494
-44.2941
17.9427
-1.81457
-0.954523
14.8431
7.23106
14.4129
16.2107
25.2014
-35.6623
-2.4896
-74.3939
0.712593
12.5551
-1.21305
-43.4985
-56.4114
-53.5148
-10.3023
-1.67414
-56.5964
36.1499
-23.9064
12.2544
-0.0349548
-248.883
-2.49355
-2.39883
-2.08242
3.65726
-0.659311
16.6261
-2.23335
15.5489
-37.2366
-24.6155
-78.6013
-13.3788
-50.8943
12.286
32.5862
15.8859
-17.5585
-37.9834
15.7685
-50.4067
-41.4208
0.45921
-6.02092
-91.2587
-48.2533
-62.0927
-24.5464
2.68009
1.92686
-31.5389
-0.988667
18.0332
-18.0939
-28.6321
18.5166
-2.40688
-39.9379
-1.23479
-3.95432
-0.114823
34.5167
0.281427
2.20545
-18.4248
-11.865
-18.276
5.89861
-12.3494
-2.09286
-9.59724
-22.0222
-2.29748
-27.5624
19.7186
4.48725
5.33745
-66.7869
-17.6048
33.76
-75.8014
11.6879
12.2991
5.14125
-3.29237
-2.00232
-115.603
-11.2822
16.0054
13.2813
8.0711
-90.3724
18.4526
3.93551
26.1268
-22.2705
16.583
19.875
15.7624
-1.03051
-43.1401
7.41088
-54.8546
-4.10576
10.439
14.5049
3.00088
23.2806
-0.83468
26.6972
2.38518
13.3835
-0.477948
0.428789
12.2436
15.5712
-4.28994
11
32.8227
16.666
-1.81166
-21.1432
-1.41304
15.3744
-2.05662
-49.1325
1.78494
-1.58242
19.2666
-61.1744
24.6075
6.26649
43.2715
28.864
-9.3257
-12.9052
8.79891
2.48012
29.8554
-1.58423
0.0309042
-4.58572
36.9984
12.2839
1.7727
31.4392
-13.2076
14.3239
-15.9789
11.5545
-9.47391
7.94804
10.5951
17.7816
-2.66788
-105.567
-1.07883
-55.0264
-5.16856
-39.5041
-0.363408
27.0488
22.2709
-1.07717
-28.6902
-10.5662
14.7443
3.48469
4.04892
12.1015
-53.9782
-70.7815
-74.3418
16.948
-35.0316
-50.285
9.17309
-5.28841
-2.00381
-20.361
33.9426
-101.744
23.6282
-31.0836
34.8317
-38.1153
-8.27109
-2.83494
-1.85098
4.67915
15.499
-0.256396
-44.9635
3.21856
-54.2054
20.1751
-2.21078
1.12605
-92.7508
-33.808
-29.6697
11.8784
-17.6794
-2.24525
-4.85474
15.8575
35.616
-55.8791
-1.53284
4.20181
-34.2405
10.2309
-1.35818
-10.4015
-40.0271
-142.332
7.52262
-144.24
-12.2113
-0.500365
-22.2548
-215.553
3.56808
14.565
12.4081
15.0034
33.5848
-30.414
36.179
-41.5499
33.7654
-68.5926
-15.6686
31.426
9.74163
-189.565
2.05586
-2.58543
6.29365
-81.8996
-43.6636
-0.821581
-25.3319
-34.4285
-0.112043
-8.08754
8.8737
12.1904
-74.8143
9.34753
-35.9287
-4.52161
-97.7453
-2.01948
0.31359
-78.2559
-26.2022
28.8049
-1.66866
31.1164
-1.65336
-48.4209
9.37562
-12.3141
-3.08368
14.9256
16.6014
36.6972
14.4481
18.0231
-17.163
-37.2171
35.4712
35.9459
18.6414
-10.4358
-83.0769
-53.1313
4.57618
-9.8524
-7.24723
21.0802
-80.2019
-1.89075
-11.5688
32.0836
3.37919
3.55597
-80.4408
1.87464
13.4565
41.1988
38.3604
6.23577
7.95233
-16.8756
-38.9908
12.2899
38.979
-40.9109
-2.97018
-6.60882
-0.102534
-1.05625
-2.64474
-6.39929
-0.927256
-0.285463
-1.21425
-2.79682
7.92491
20.1792
-31.0869
12.5311
-86.2245
-7.91135
29.1948
-20.9763
-5.80993
-33.8795
10.1974
9.50954
-60.2831
-37.161
-2.00913
-0.456954
41.8136
-95.3943
-28.46
-131.51
-4.91562
-43.5172
-33.265
-63.2703
-24.5897
-1.03499
-52.2765
-11.0481
-32.2083
9.61396
-1.91498
3.0454
41.0676
4.22787
-1.21986
-12.1594
5.10149
-31.6901
-21.2466
26.89
13.6889
-1.05766
-27.1069
10.3187
13.8542
-35.7486
-49.057
0.093836
26.937
-20.3973
15.2609
1.79411
25.0342
-0.200922
-92.4113
3.49399
16.2483
-20.5976
16.1545
-13.05
37.4244
-67.6723
-4.42536
-40.6783
12.7306
-66.6525
-18.0686
-69.7525
-0.804069
-23.0362
-96.7623
-85.8175
-4.217
-1.64428
-93.9429
-11.5614
3.9455
-55.5219
1.94209
-72.1291
16.1568
34.4722
0.784559
-29.2434
4.27683
-1.36369
-5.58471
-5.06343
-8.97515
-38.9957
-0.190348
-42.9653
-23.3504
2.00965
-3.2186
-73.9332
5.89739
-0.982951
15.295
-4.19464
-61.3317
-4.34981
-2.20808
-32.6159
-6.0054
-21.7312
-63.1681
20.1573
-64.3472
-16.9734
-25.3749
13.8151
-48.0127
-27.0311
42.4298
-7.43441
-24.9262
12.1135
33.9928
29.3358
-103.519
-16.1217
15.3963
-1.87033
-0.418629
33.7931
-2.15012
-2.94536
43.4393
-1.77638
-30.6846
4.57663
26.5336
16.4768
4.62304
26.3644
13.6109
-7.87192
-1.81621
10.2304
-1.3334
-65.002
32.3194
2.65371
-3.82212
-2.4673
-71.0952
-6.90667
-83.6503
-20.0832
-1.86506
6.79011
18.1288
8.74366
-47.6617
28.4007
30.9039
-25.1471
-0.287824
-4.51708
-0.00816224
-7.0823
12.4578
-86.265
-18.2084
-7.33564
35.9609
-47.9285
10.8978
13.1003
15.4819
-6.60324
2.41377
-37.9727
-5.82693
-16.2731
-2.52723
-38.4985
-31.4801
-1.23418
-68.0276
16.0665
-101.768
-2.00261
6.50384
-31.8268
-79.7367
-52.2802
6.75255
-15.1186
0.885096
9.1801
-94.2416
-6.12465
-30.4914
-3.59601
15.1803
-43.6758
34.8276
-1.98733
38.0963
-0.0382224
0.577327
-0.998049
15.3736
1.25696
-55.9602
-5.20122
0.0488151
-0.88325
-5.0569
44.3742
15.5226
-16.6662
-20.5681
-10.4117
-9.14813
8.66942
-38.2882
12.6649
-77.8644
-75.116
-34.313
-28.074
-7.5137
-33.1523
12.7104
-0.420631
29.1456
35.8849
-49.5003
-39.7361
0.0665157
-16.3637
30.8639
-41.0973
-1.37983
9.26836
13.7815
-105.682
-40.0185
-0.0205236
-2.71839
-0.994205
-90.367
-31.1324
2.153
-12.9515
-43.8913
-1.99787
-44.1185
-38.2749
8.56246
-114.298
-89.8875
-27.6479
-6.70277
37.0268
-8.90337
15.601
-80.9504
-5.82101
-0.20589
-13.4365
7.23086
-65.2799
-134.509
30.558
14.7418
1.42809
-51.7848
39.7649
-76.9411
-101.47
-75.8558
-15.0735
-67.0981
-90.7407
25.9457
0.731857
2.66237
8.94092
-68.0402
-13.0624
0.242423
-1.13488
-47.7935
1.77766
8.95408
7.87365
-59.3918
-77.8274
-44.4991
-36.7248
-17.839
-18.2344
37.5585
13.1687
-57.4783
-16.7162
6.20973
27.8249
-9.33664
-132.113
-13.2343
21.2434
6.03499
-27.4029
16.2602
-46.8863
30.0632
-7.14161
18.1428
-46.5482
-25.3496
-2.61148
-79.0236
-14.6987
8.10033
-123.918
-65.2844
12.8842
-44.7948
-0.997138
22.3303
14.2923
21.3595
15.191
-22.1654
-0.459693
2.08362
5.48948
0.0122468
13.196
-6.845
30.3628
-67.2206
20.4537
-20.5476
33.957
-67.1346
-11.7591
32.9428
-68.9765
-8.08547
-49.1267
22.5453
32.2973
15.9693
-20.3229
15.3567
16.8168
-79.6671
11.4606
-107.843
19.3299
-71.6673
-72.3655
-42.2446
-47.6503
16.2647
-20.0467
-61.4969
-4.68044
31.6911
-2.83244
0.907696
-54.7371
-16.6683
-4.59596
-11.8862
15.5391
5.60525
-65.5038
38.4987
-3.22558
27.1367
19.0927
-2.85453
-0.875673
0.701997
-29.5352
-18.8561
-1.44386
-4.29853
-4.55291
5.38477
-72.0862
34.1804
19.0873
-7.48056
-50.5308
6.91379
-79.9329
14.1764
15.8175
-0.924407
-1.75379
15.3321
8.05597
-17.1087
-37.6796
-7.3692
9.55895
29.9809
-74.9674
33.5531
38.2883
34.8451
-53.7544
15.8103
-44.2357
15.2586
16.2502
21.8189
9.50295
21.5543
40.8131
16.2144
-95.7837
-43.4976
-129.167
40.7158
-3.76921
-50.7801
-61.395
19.3407
28.8264
10.2267
-7.40076
-4.65071
25.7626
-30.1813
6.84536
-63.4076
9.58241
-1.96326
-30.9115
-1.45839
-43.4494
-46.9131
-99.6793
-31.5759
-9.56417
15.2588
-0.297796
-0.582995
5.8382
4.96212
-13.9654
-2.35782
-1.91077
-46.8229
-113.901
20.0791
26.6741
-75.5204
16.1352
19.5827
26.1142
-0.908639
-133.105
9.37568
-67.0776
22.1034
-9.0553
21.1515
14.3821
4.27943
20.7382
1.09524
17.4516
-6.60075
10.2095
-20.912
-29.3105
10.3161
-0.695438
16.8976
-86.2427
-110.314
-77.066
31.1483
15.9632
10.1902
-3.5921
24.8187
-34.0078
5.63882
1.8964
-21.649
5.85239
-100.25
-50.3905
-16.7623
-62.0954
-18.5789
-57.9084
1.94197
-48.6211
-40.7276
0.853012
32.2708
37.0652
28.908
-87.6937
7.0674
-43.8926
6.01734
27.7211
5.2925
16.4117
-75.777
-5.61386
-22.4323
-0.16522
19.3847
-5.81164
9.99342
-52.9929
-2.74938
-67.4683
16.9256
10.018
15.3021
-45.0602
6.08813
-91.2174
-64.5015
-66.9999
-6.7704
31.2106
-50.1358
-65.1306
-65.1932
11.6988
15.6549
-3.22853
12.2391
-51.658
25.5589
29.728
-110.808
-1.99273
21.6384
-111.4
-28.4814
1.4726
20.2774
23.1316
-46.3113
-9.84326
2.01235
31.7592
-44.234
-218.384
-0.643109
26.701
1.03124
-20.0201
-57.1932
17.6965
14.2688
18.7932
-1.17109
-41.2358
9.83693
39.4481
-25.7291
-2.01725
0.739917
-66.7766
1.21778
-4.66924
-55.8808
-10.8517
-68.7473
12.6559
-83.5129
-39.3144
15.883
21.7698
6.27045
-27.603
-195.715
8.89917
-52.6154
-21.7021
-19.3195
-4.6628
-25.2777
20.9799
9.50533
1.02214
6.04775
28.831
-140.606
-5.29763
16.3192
-62.4579
13.2537
-7.31346
-6.32316
-26.1693
15.0254
-0.104981
-5.1873
-10.155
-20.1823
18.4068
-24.3115
-2.65825
-127.776
-21.1827
15.4673
-51.8018
34.4794
-48.2264
-108.004
-64.8644
20.7818
9.7196
16.0875
-144.776
26.4682
-26.954
-6.7341
0.23506
-4.7986
16.3066
-4.14932
-11.4486
-5.76459
-107.067
14.7181
-42.3861
-110.009
-0.0925254
-17.3229
-11.5277
-0.774034
28.8677
-0.0867426
-45.0158
15.5242
-28.3463
22.9897
-22.8014
1.78661
16.4407
16.6561
-4.18428
-66.4794
-41.8457
0.616257
7.70592
9.80887
5.49803
-70.2782
-4.74352
-15.3986
6.11916
41.7748
7.25465
14.7656
22.9413
5.91457
17.8623
-66.8079
-142.102
-116.207
15.1767
40.583
6.41788
-12.7562
18.9807
-0.240957
1.08972
0.639868
1.27093
-1.88387
34.6795
-55.7075
-36.0401
28.9985
19.5952
4.6166
8.90683
15.3587
1.50165
-76.885
-93.4423
9.73165
-39.787
-30.3608
13.4347
-113.066
-51.0656
-28.4321
6.24736
7.45776
9.84143
2.43353
16.38
17.1662
-7.56039
11.02
7.15015
23.1949
18.5585
-11.6853
-5.20367
-3.32138
19.375
10.2133
-1.05214
-0.242369
1.94901
-2.37359
28.6898
12.5587
-0.143574
-46.4195
2.82235
13.5684
-8.00667
10.3924
-1.95532
-0.8446
-193.666
-0.916538
-50.9181
-2.9269
-9.22832
-97.1309
-21.6089
-46.5066
24.1453
-55.8622
-60.9541
-58.3205
30.029
-112.778
-3.37954
6.78938
-55.6085
18.9173
15.6577
-11.6666
20.6927
3.03093
1.51688
-137.636
-47.9852
-0.50128
21.8481
1.35636
-45.115
-48.5803
-213.804
-83.4398
-60.562
-39.3955
-9.75994
8.48465
15.4738
14.6255
-177.852
1.25915
21.285
13.9649
-43.536
3.85554
-133.755
-7.71141
-0.0151562
-1.56628
14.7642
-42.156
-137.698
-168.737
8.14679
-52.2037
-133.16
-1.18648
-135.339
-70.9232
-60.2736
-53.3103
-1.166
-132.644
-4.20786
-45.7337
16.4906
15.437
-12.8329
21.3579
-61.3489
28.3382
-38.7918
2.22394
-14.8554
9.23996
-0.856747
-38.0221
-142.889
17.0763
21.9764
30.6669
-45.1943
-78.8483
-77.8141
-8.45894
-0.117358
-49.1205
-25.7433
-45.717
-1.09367
-43.5747
-7.84897
-39.9918
-4.81658
25.7872
3.09675
-3.74417
-1.68657
-24.4336
-95.808
26.6289
36.6415
-51.5954
11.5123
9.41735
-0.0692561
-74.9099
20.4333
21.7273
-37.7268
-106.843
-110.721
-66.8572
-12.9768
-54.6098
-8.76096
15.7
-4.88999
19.2843
-41.8332
-53.4606
16.3392
-10.5086
-45.6061
3.35359
18.2951
-51.3827
-6.61867
-55.375
-49.3054
-41.8314
31.5525
-148.285
-1.60798
-42.4768
13.4962
-74.1828
-44.3847
-28.0782
-23.1278
-20.7903
10.9996
-0.346926
-48.5285
5.32285
-0.0336078
-190.908
1.44364
-48.079
-7.81252
-1.58396
15.079
-131.9
22.0844
-221.863
-0.077106
-2.6774
-26.0935
-85.2079
-49.003
-44.8446
-2.90296
8.97631
0.905212
-0.969568
-24.7666
3.04167
-31.9105
15.6959
6.98245
12.2144
-20.266
-62.5431
-2.27623
46.2348
-68.5125
-59.7695
-96.1078
-31.0477
15.2646
-0.277443
0.776957
-13.4529
-43.4508
-45.241
-40.6203
-52.3249
6.12978
-24.2184
4.08251
-56.024
-0.230111
5.68517
-2.41212
-18.9505
-9.55926
15.2508
-53.1406
-125.522
18.6249
-7.91059
-58.3762
-1.34083
0.502457
-25.54
-4.32487
15.9385
-101.606
10.886
-65.3424
-8.13099
-13.3335
-9.50884
-94.4738
-15.2512
-125.253
14.2798
10.4262
-14.8522
42.794
-80.0352
21.465
21.2878
-58.0454
5.95493
13.0524
15.4577
-6.3917
-81.6614
-22.5688
-19.9418
15.0879
7.12135
-32.3767
8.12063
-12.7813
21.8404
-0.277475
-13.1016
3.1557
18.4313
-21.7023
-24.5061
-2.01631
14.9177
7.65923
-7.51202
22.4106
19.8721
0.621374
-92.1827
14.9798
11.3281
1.34983
-1.11602
-53.2891
-35.7193
-15.3143
-85.1755
21.3166
5.4208
-6.5433
-20.2628
-0.0738921
-49.5053
8.2221
-91.7211
-7.71408
15.7448
19.0939
-168.56
13.0986
-1.06669
6.71755
9.57671
1.12832
10.2719
-0.0839044
16.4727
15.1418
15.73
-44.5788
18.753
14.8208
15.1285
14.8225
-158.651
-6.11856
-2.58092
-25.7563
16.6119
29.0094
-127.379
30.6655
-74.2058
-30.331
9.27772
13.4666
-25.6745
-0.892284
-71.1948
-111.477
-6.06249
-85.0643
-23.6053
-1.07255
4.36986
37.8169
12.9806
-214.125
-78.2958
6.76722
10.5608
-75.1677
-41.179
-217.455
-22.2637
-38.8167
-26.9801
15.5056
2.3077
9.62712
-3.82272
-3.47374
-15.3446
-0.986395
-2.88082
-14.1769
18.4202
-36.1301
-20.6578
-35.0366
-38.2047
-0.503587
11.3925
-4.68759
-32.2197
15.5082
-2.58602
10.6573
-24.7873
14.2911
3.81577
26.1476
15.0687
-95.6299
-2.185
-21.3498
-220.029
-1.96584
-2.11475
-26.7229
-134.861
38.2393
-1.40255
-35.9965
21.6878
-61.0042
-6.19114
-89.9376
-45.454
-144.723
-29.9276
-18.2023
2.32171
-53.1753
-112.39
2.48955
-188.529
-18.7969
-69.769
0.462187
15.0276
-66.3147
-78.7413
-19.9932
-4.14242
-27.4459
14.6392
23.0153
-241.98
15.0789
-8.44165
13.6344
29.9172
-53.5789
13.0457
-1.52833
9.22239
19.5845
1.36343
-8.69961
-75.7907
13.1147
23.0856
-125.803
0.832274
-37.244
-31.0662
11.4849
-144.131
-31.0206
-243.077
10.5566
-66.4977
-0.946832
-5.65616
15.9123
-0.867046
-83.3128
1.96912
-1.60591
-66.5432
26.785
34.195
16.5959
39.3565
18.2071
27.7368
7.61341
1.30033
21.4865
-60.3562
8.91381
-2.78737
-41.3052
23.7791
-10.3452
-24.1311
33.1383
2.48341
-51.722
11.2006
9.61098
19.7824
-73.1795
16.4565
32.8192
-57.6037
-32.0048
-27.2074
0.878564
-43.68
14.3671
-1.31288
20.986
15.2875
-73.7193
13.2147
-14.6877
-123.388
-103.414
-105.235
11.1507
-32.3501
15.5098
-2.89823
-51.3715
-1.76833
-27.0691
-7.5483
-204.681
-140.305
13.0411
5.60576
-37.6716
-3.71614
15.2337
-1.07435
-113.685
11.8743
-0.30345
10.6491
-54.3496
15.1035
7.27127
-14.9272
-5.15018
9.66728
-0.494955
7.869
-69.5487
38.3378
-17.8607
-65.7058
10.0288
4.02775
-51.3394
-24.6024
-41.9354
-11.1059
-9.72194
-29.3652
-1.02428
-4.12793
40.646
2.88434
-67.2647
-1.70229
-21.4133
-8.98746
-17.0015
6.18418
15.5406
-45.3746
0.0402055
-76.7092
-7.053
-1.61362
5.78172
14.1376
-0.092696
-0.120386
-10.8613
14.9743
-7.97562
-1.29981
-68.0658
-3.62407
-10.4404
17.9476
-69.6115
-6.89671
-126.973
10.8569
-53.0509
-2.30501
17.3553
13.9823
14.6419
-48.4021
-126.193
15.4884
-31.6638
18.9503
11.3178
2.12495
13.6933
-5.0112
7.67022
-1.11294
-25.4831
-60.3933
15.2782
-60.939
18.8661
-1.22011
40.6651
0.539514
6.79399
15.5053
3.98448
-1.16024
14.5849
-2.1639
-2.0122
-33.9256
-1.66811
7.43103
-1.1697
-15.7403
-74.7083
-12.9043
-51.2804
-53.7415
-30.5702
15.5007
-2.59405
14.6836
2.69265
32.8903
28.1729
9.23446
-0.890614
8.85317
-76.2966
19.2777
1.56715
3.51526
-4.21183
17.2708
10.3853
-1.29151
-61.4808
-32.099
1.71552
-11.7432
3.69302
15.5723
-58.3282
0.886964
-48.4584
8.94896
10.4623
-0.800212
9.79167
12.6672
-5.19171
6.80105
14.959
-0.889749
-45.6723
14.8609
-0.195888
25.2392