/*--------------------------------*- C++ -*----------------------------------*\
| =========                 |                                                 |
| \\      /  F ield         | OpenFOAM: The Open Source CFD Toolbox           |
|  \\    /   O peration     | Version:  2306                                  |
|   \\  /    A nd           | Website:  www.openfoam.com                      |
|    \\/     M anipulation  |                                                 |
\*---------------------------------------------------------------------------*/
FoamFile
{
    version     2.0;
    format      ascii;
    arch        "LSB;label=32;scalar=64";
    class       surfaceScalarField;
    location    "2.4";
    object      phi;
}
// * * * * * * * * * * * * * * * * * * * * * * * * * * * * * * * * * * * * * //

dimensions      [0 3 -1 0 0 0 0];

oriented        oriented;

internalField   nonuniform List<scalar> 
20045
(
1.03582
-1.14948
0.113662
-2.16416
0.8238
1.34036
0.624818
4.16677
-4.79158
-0.671972
0.890197
-0.218225
-1.83155
1.63282
0.198727
-1.2408
4.4105
-3.1697
-1.90084
0.473108
1.42774
0.0929082
0.93895
-1.03186
1.01404
0.833376
-1.84742
-1.55494
-0.241528
1.79646
-0.45669
-0.440029
0.896718
4.26535
-2.03945
-2.22591
0.747055
-0.754379
0.00732382
-2.43419
2.12299
0.311194
-0.396699
1.93364
-1.53694
-2.09039
0.535452
-0.366759
0.50315
-0.136391
-0.145723
-0.300534
0.446256
-3.30987
4.85506
-1.54519
-1.50849
0.0570646
1.45143
-1.26331
1.02925
0.234062
0.253502
0.493553
-0.332996
-1.83116
3.42353
0.341419
-3.76495
1.61875
0.377222
-1.99598
-0.739404
4.16294
0.465452
-0.34856
-0.116892
-2.59392
5.34446
-2.75054
3.00173
0.797895
-3.79963
-5.94531
3.58491
2.36039
-0.113138
1.30147
-1.18833
2.55131
-1.97961
-0.5717
-0.889474
2.92983
-2.04035
5.91313
-3.24187
-2.67126
-1.19938
1.29229
3.99973
-1.96509
-2.03464
2.00248
0.763579
-2.76606
-0.130485
0.803817
-0.673332
-4.22847
2.19942
2.02905
1.21833
1.09152
-2.30985
0.0143506
1.02352
-1.03787
0.369274
-0.504905
0.135631
4.87114
-4.86653
-0.00461342
2.90321
-1.0481
-1.85511
1.31954
1.58367
1.91583
2.34952
-0.209673
-0.520388
0.730061
2.64916
0.680667
-3.32983
2.94371
-0.941231
0.526133
3.71399
-4.24012
2.64159
-4.38867
1.74709
3.81848
-2.58513
-1.23335
-2.18512
-1.52481
3.70992
-0.201946
-0.617324
0.819269
0.423152
-0.965586
0.542434
-1.39768
-0.43387
0.97142
3.54322
-4.51464
3.1093
0.607561
-3.71686
2.68759
-3.57706
3.2753
-2.75415
-0.52115
-0.817774
-0.338273
1.15605
0.672825
2.60247
1.67752
-3.90344
2.22592
-0.865595
-0.397713
-0.230604
1.29188
-1.06127
2.12117
0.896377
-3.01754
0.237157
-0.834299
0.597142
-1.3495
0.266584
1.08291
1.7634
-0.74936
3.25625
-3.31145
0.0552043
0.682485
-0.445328
0.741423
-0.318271
-0.527077
-2.11524
2.64232
1.22074
-0.76343
-0.45731
2.23134
0.169734
-2.40107
3.76842
-2.797
-0.598796
2.83013
1.08036
-1.47706
1.24429
0.0625484
-1.30684
-0.137648
-2.35657
2.49422
1.96763
2.13339
-4.10103
1.75278
-1.42667
-0.326112
3.21163
-1.53411
-5.08094
0.73956
4.34138
0.0193741
1.01644
-1.00172
1.20514
-0.203424
0.79568
-2.25901
1.46333
-3.20505
0.0922817
3.11277
1.99976
0.399777
-2.39954
-1.62347
1.44815
0.175315
-2.57386
-0.252672
2.82653
1.56381
-0.345955
-1.21785
0.838884
-1.2143
0.375412
-0.387069
-1.5912
1.97827
1.2193
-1.32551
0.106217
3.03377
0.414477
-3.44825
0.1604
0.305052
-0.020113
0.799699
-0.779585
2.49246
-1.27413
-0.569078
0.615682
-0.046604
2.75661
1.24312
-0.855542
-1.57865
0.989072
-1.00918
-0.939138
4.04844
-0.0307231
-0.970994
-0.662435
0.0933576
0.825266
2.45617
-3.28143
2.05347
-3.92302
1.86955
1.03462
-1.00672
0.857652
0.149066
-0.592372
0.739929
-0.147557
2.12534
-1.83209
-0.293248
-1.03212
0.830177
2.71053
-5.71744
3.00691
-0.396444
0.681255
-0.284811
0.107855
-0.710161
0.602306
2.2241
-0.60535
4.1507
1.76243
-2.38907
1.86199
2.07493
-3.19249
1.11756
0.410909
-0.556632
-1.13173
0.313958
-1.62615
1.29803
0.328114
-2.175
0.230059
-1.24165
1.01159
2.48466
1.33382
2.15522
-2.89734
0.742118
3.14339
0.387157
-3.53055
-5.24885
3.7839
1.46495
-1.05621
-1.48105
2.53725
3.94036
-1.4557
0.179299
-0.699687
1.00713
0.097831
-1.10496
0.153607
-0.0652179
-0.0883892
2.30225
1.57786
-3.88012
2.39407
-2.24662
-0.14745
-0.76128
0.25746
0.50382
-0.716497
-0.290221
3.55424
-1.47931
-1.38165
1.42869
-0.0470411
2.21457
-4.47535
2.26078
0.595367
-2.78048
1.95572
0.918496
-2.87422
2.83398
-2.97163
4.56553
-0.545359
-4.02017
1.33321
-2.78764
1.45442
3.7557
-2.16444
-1.59125
-0.342999
0.746322
-0.403323
-0.332423
4.43485
-4.10243
4.14674
-1.145
-3.29214
0.0914596
3.20068
-1.99878
1.53334
0.465435
3.70906
-1.74143
0.593645
1.15914
-2.47417
3.03104
-0.556874
-3.46291
4.08773
0.0358477
-0.890364
0.854516
-0.777678
0.140517
0.637161
-0.0839144
-0.76478
0.848695
2.53417
0.464085
-2.99825
5.53269
-2.75697
-2.77572
-0.923848
0.839934
1.42013
-2.37963
0.959501
0.45616
-0.086886
-3.52427
-1.74198
2.62361
-0.88163
-2.58099
1.86052
0.720471
-0.0441873
-0.147177
0.191365
1.9586
1.7971
0.100524
0.0530828
-0.429719
1.43685
-2.75821
0.284045
-2.95461
3.70589
-0.751281
-2.67809
2.91704
-0.238953
-2.02324
-1.71725
3.74049
0.375583
1.15618
-1.53177
1.70668
-1.73911
0.032428
3.88642
-0.101945
-3.78447
-0.0121344
-2.97997
2.99211
-1.41022
3.36594
0.755899
-2.23205
1.47615
-2.68925
5.39979
-3.10543
2.13231
0.973123
-0.284647
0.325456
-0.040809
2.09637
-4.87249
2.77613
-4.25291
1.659
-2.13191
-2.04243
5.31346
-3.34713
-1.96634
-1.27179
1.28614
0.699474
-0.747577
0.0481037
-2.16766
-0.820027
2.98768
-3.96146
5.56334
-1.60188
3.93048
-3.10998
-0.820499
0.228891
-0.923263
0.694372
-1.53357
-1.86298
3.39654
0.338597
-0.795287
-1.72906
0.672854
-2.99072
-0.910783
3.9015
0.490882
0.118882
-0.609763
0.591002
-2.33298
-1.25422
1.14108
3.39042
-0.247033
-0.671677
0.541192
-0.795502
0.972846
-0.177344
-1.06405
3.59822
-3.67501
2.14144
-0.925455
0.312381
0.613074
-2.83577
0.568145
2.26762
1.0394
2.89108
5.13912
-3.04276
3.5454
-5.77909
2.23369
4.49347
-6.63561
2.14214
0.166318
-1.67481
-1.99489
2.82015
2.54125
-3.78205
3.19269
-4.97126
1.77857
-6.30259
3.28418
3.01841
-0.123532
-1.49994
0.75477
0.583099
-1.33787
2.94526
-1.06616
-1.8791
0.248923
-3.08576
2.75334
-1.03853
-0.343125
2.54197
3.99996
-3.19626
-0.803703
-0.0407787
-0.554845
0.595624
2.57278
0.544152
-3.11693
-0.957166
-0.997375
1.95454
-1.64713
3.95632
-2.30919
-1.94652
2.7422
2.31084
-1.55494
-0.556513
1.55006
-0.993543
3.77503
-1.56047
0.481221
-0.0446255
-0.436595
-0.857793
-0.363213
1.22101
-0.566173
0.59119
-0.0250179
5.25838
-3.33865
-1.91973
1.1089
-5.07037
-0.62963
0.0634572
-3.31931
1.00553
2.31378
4.99842
-2.06859
0.952083
-3.90669
6.27665
-2.66115
-3.61551
-0.0744686
0.56535
3.67068
-2.22378
-1.44689
-2.43266
0.489678
1.94298
-3.82574
3.81629
0.00944724
2.82408
-4.92068
2.0966
0.196519
0.292863
-0.489382
-1.85023
2.43739
-0.587163
0.192005
0.739357
-0.931362
-0.625219
0.228775
-0.717036
0.124664
-2.17704
-1.74598
1.40549
-3.93012
2.52463
-1.7559
1.4689
0.286998
1.61445
0.93686
4.68355
-1.49086
-1.21692
0.439242
2.25391
2.74451
-2.01577
0.133123
1.88265
1.81022
1.86046
1.57764
0.356002
-1.65413
-0.101774
-1.16649
-0.166749
1.33324
0.0323901
-0.317037
-4.13077
2.48365
0.98483
-1.63524
0.650407
-3.65377
3.52575
0.128022
-1.1943
1.14888
0.0454223
-0.724694
-0.476082
1.20078
3.01066
-3.33919
0.328526
-3.47451
-2.82809
4.78927
-3.02717
-1.7621
-0.445004
0.404226
5.22438
-2.4003
-2.54632
3.95181
-3.02673
2.31747
0.709251
3.81423
-1.21657
-2.59766
4.20295
-1.4553
-2.74766
-0.809114
-2.21761
3.3641
-2.0204
-1.3437
-0.721546
3.18615
-2.46461
0.0381415
-2.68
2.64186
0.397304
0.721682
-1.11899
-0.28911
0.275384
0.0137261
4.94157
-4.26711
-0.674458
-3.02539
-2.22346
2.60348
1.39649
-3.32995
-0.323823
0.33521
-1.193
1.48227
-3.13845
1.65619
0.0127183
0.686755
-2.1442
4.44645
2.08655
3.17183
5.78201
-3.59081
-2.1912
-4.22142
3.31063
2.65083
-4.51336
1.86254
-2.47417
-0.233791
2.70796
-1.21124
-0.587926
1.79916
2.14857
-0.728439
-0.625789
-0.299667
2.03851
-0.290462
-1.68915
-2.11787
3.22593
-1.10806
-0.954486
0.158984
-0.881631
0.325118
0.448519
-4.27426
1.12193
-3.06845
0.776051
-0.832388
1.04111
-0.208718
0.0475336
-0.719506
-1.87927
1.40672
0.472558
1.4151
0.710235
1.44867
-0.390657
-1.05801
1.89817
0.495894
-1.61844
3.1007
2.28471
-0.284948
-0.863174
-1.97259
5.18202
-4.3821
-0.799925
2.88474
-3.52866
1.83106
1.69759
3.14124
-3.47626
0.335018
-1.79377
1.4067
-0.559117
-0.202164
-0.525894
-2.04797
1.26293
-2.19646
0.933524
1.65892
1.70518
2.50449
-4.27283
1.76834
1.05318
-2.17821
1.12503
-3.90812
0.703073
0.105542
1.45827
-2.0092
2.90273
-0.893524
-0.937465
1.22735
-0.289883
-1.84443
-0.0564098
-0.485155
-0.950079
1.43523
0.425252
0.00762479
-0.432877
-1.19364
-0.805136
1.45308
1.80869
-3.26176
3.41074
-1.60052
1.05125
-1.79724
0.00347131
1.92857
-0.875397
-2.58417
-0.521259
0.901306
-0.779019
-0.122287
3.69147
-1.0423
-1.94166
3.0219
-1.08023
-0.49698
0.574715
-0.0777351
2.85239
0.0928661
-1.74643
-1.39202
-2.05372
3.66256
-1.60884
2.26535
-4.23613
1.97078
2.23538
2.55389
-0.22579
0.012355
0.213435
0.430106
-2.90427
2.38791
-3.56311
1.1752
0.408706
0.812033
-0.38149
2.53671
-1.64123
2.76316
-1.83483
6.3283
0.803161
-4.11303
-3.02669
1.67363
1.35305
2.57409
-0.472413
-2.10168
3.75187
-0.741211
-2.66112
-2.00948
-1.71201
2.44336
0.211032
-0.0410049
-0.170027
1.28471
-1.22765
-2.91996
2.53847
3.8138
1.05734
-3.15083
1.20917
3.90265
-1.29917
-1.04731
0.921509
0.125802
0.112545
-2.44726
2.33472
-3.60227
0.651174
2.9511
3.36205
-3.36205
-1.78695
3.38901
-1.60206
1.29136
0.157303
2.47513
-1.21638
-1.25875
-3.76812
3.92869
-0.160568
1.37801
-0.120476
-1.25754
1.08845
-0.422184
-0.666268
0.475725
-1.20042
0.390331
1.70168
-4.24801
-3.29076
3.84351
-0.552751
-1.15294
2.60602
-0.954004
-0.0729779
1.02698
0.407293
-1.15921
0.751915
-1.50588
1.67219
5.55246
-4.14889
-1.40357
-0.348506
-2.03797
2.38648
-0.958883
1.04344
-0.0845532
0.550957
-1.10912
0.558158
-3.24862
1.35104
1.89758
0.611276
0.278921
-1.01857
-0.0287435
-0.188717
0.897144
-0.708427
2.55153
2.39005
-0.829276
-0.124729
-0.218618
-1.04976
1.26838
-2.03235
3.22443
-1.19208
0.0283392
0.71691
-0.74525
1.5847
-1.11159
2.2982
-0.89221
-1.40599
0.10369
-1.69489
0.78004
3.10638
1.77954
1.12192
-2.90146
1.87858
-1.60145
-0.277127
-4.05189
0.75975
-1.50206
0.62269
0.87937
1.62184
3.03203
-4.65387
-2.5507
2.31691
0.276694
-3.62302
3.34632
-0.530976
0.759867
-0.271386
0.300191
-0.0288055
0.152159
-1.31865
-0.621235
1.30584
-0.684606
-2.62038
-0.698927
2.44403
0.915924
-0.380694
-0.535231
-0.523588
0.0266082
0.619149
-2.78747
2.16832
1.05359
2.03999
-3.09358
1.72266
-2.789
3.40519
-0.616191
-2.9048
2.18326
0.00853275
-0.357093
-1.51257
-1.06842
-1.06088
0.26949
0.79139
-3.48126
1.44891
2.61791
-2.96641
1.64566
2.25699
-1.31521
1.25287
0.0623367
0.51345
-4.25501
3.74156
0.646885
-1.10646
0.459575
1.36471
-3.11114
-2.47616
-0.201929
-1.2946
-0.0548995
1.01249
-0.357375
-0.655114
2.07795
0.273577
-0.19715
-0.0764268
4.43764
-2.8158
-1.88702
3.287
-1.39998
1.07958
0.725072
-1.80465
-1.40323
0.872257
-0.895361
-0.165519
1.8395
0.635629
-0.998717
-2.19377
0.655586
0.245721
2.42784
1.68202
0.602694
-3.59164
4.11778
0.511735
-1.76575
1.25402
-0.371203
-3.29411
3.66531
-0.41367
0.505787
-0.092117
-1.50571
1.88129
-2.11678
2.15492
2.90297
-1.56976
-1.6132
-0.266071
0.0142334
-1.67461
1.66038
1.60383
-3.62707
-0.48486
-1.80108
2.28594
-0.348848
0.976823
-0.627974
-2.56322
0.135232
2.42799
3.49233
-2.81166
-0.0601929
0.383643
-0.323451
-0.888316
-0.0705668
0.720938
1.45999
-2.18092
0.599883
-0.724562
0.124679
2.38473
1.29895
-3.68369
-1.20413
4.2379
0.420381
0.00487138
-1.43299
-2.47555
3.90854
1.31069
2.24355
3.73733
-2.68374
-1.42555
0.940399
0.181304
-0.470414
-1.72306
4.37389
0.488913
-3.04344
2.55453
3.15202
-0.509985
-2.64204
-1.90375
2.71603
-0.812277
1.54559
-1.7839
-1.60788
3.39177
-0.561811
0.829739
-0.267928
-1.1197
-1.95606
3.07577
-0.680488
1.08778
0.167408
-0.211595
2.04309
-3.1628
-2.78586
-0.885328
3.67119
-0.19076
-1.96987
2.16063
-0.497944
5.11905
-5.29889
0.179835
0.847085
-0.532846
-0.314239
-0.0541618
-1.26105
1.01503
0.963239
-1.34712
0.135887
-3.16958
4.01982
-0.850235
-0.477039
1.46187
0.534297
2.29968
-3.80661
-1.05992
0.790407
-0.0760153
-0.714391
2.11662
-0.4346
-0.841422
0.919474
-0.078052
1.06137
-0.86936
-4.7006
2.56869
3.6154
0.7951
-0.452724
1.00368
-0.811466
1.89105
4.10931
-2.40762
-0.857803
0.0163817
-0.478453
-2.44151
0.719858
0.98251
-0.946662
-3.69106
0.0887866
-1.05095
0.866532
-0.219647
-2.774
1.82572
0.948276
2.71384
0.542404
0.775768
-0.260072
-0.515695
1.19655
-1.06383
-0.132717
-3.11371
1.14863
-4.08672
2.033
1.804
-1.16563
-0.638371
0.0443408
0.486324
-0.530665
4.11172
0.00497092
-4.11669
0.815916
0.063612
-0.879528
-0.569965
-1.05618
0.927016
-0.0881321
-0.206261
0.135114
0.0711473
1.60528
-0.162898
-1.44238
-0.119118
-0.0871429
3.00437
-2.5899
-0.1271
-0.572069
0.699169
-4.08357
0.913985
0.0540706
-0.150939
1.14001
0.379708
0.536216
-0.303439
-0.913481
0.931609
0.705954
-1.63756
0.253282
-0.483886
1.67516
-1.16343
0.892624
-0.78477
0.319159
-1.25662
1.81856
1.01187
-2.83043
2.18476
-0.213044
-1.97172
-1.9807
-0.806938
-1.04648
0.297684
0.748792
1.51727
-1.56303
0.0457585
4.31009
-0.0971588
-4.21293
-0.894576
0.433846
0.46073
-1.99895
2.68302
-0.684068
2.35585
2.40165
-4.7575
0.916949
-1.25522
-1.15437
1.76579
-0.611418
0.859731
0.397857
-1.25759
-4.22735
2.98831
1.23904
0.0799964
0.0551174
-3.39403
0.608173
1.2387
-0.764909
-0.473791
1.86867
-2.38276
0.514084
-0.364515
-0.784962
0.641898
4.47716
3.28419
-0.57228
-2.71191
-3.32548
0.536477
1.33588
-2.19905
3.55884
-5.31703
1.75819
-0.404168
1.15894
-0.0653908
-1.44239
1.22377
-0.6401
0.870159
-0.893698
-3.66343
4.55713
3.09298
2.13139
-2.92333
3.11465
-0.191324
0.352647
0.659842
-2.27798
-0.927508
-0.478265
0.531458
-0.0531929
0.0409412
1.59667
-1.63761
-0.378484
1.30938
-0.930894
-0.282324
2.151
-2.9046
-0.31911
3.22371
-3.16999
-0.951535
4.12153
1.81599
-1.39966
-0.416329
-1.01918
0.0886747
0.930503
0.223825
0.194575
-0.4184
-3.885
0.219824
3.66517
0.106643
0.762232
-0.868875
3.0974
-3.50739
0.409989
-1.99743
-1.22441
4.07835
-2.85394
0.0357136
-0.513978
-0.259043
-4.59508
4.85413
2.62954
-5.3188
-3.78014
3.30118
0.478954
0.721773
-0.12189
3.04013
-2.50583
-0.198029
-0.900268
1.0983
-0.051562
0.725031
-0.673469
-0.603797
3.35087
-2.74707
2.65012
-1.21963
-1.43049
4.0099
-3.8451
-0.164799
3.00054
-1.05838
-1.94216
0.176222
-0.915614
0.739392
-1.1762
-0.065451
-3.99002
3.50497
0.485056
0.206695
-4.19672
-0.89767
1.48885
-0.591179
-2.18929
-2.07782
0.773837
-0.658181
-0.115656
-3.19381
-0.889753
-0.733075
0.491213
0.241862
-1.75897
0.801801
-3.76783
3.59869
0.169139
-0.728976
0.0749377
-0.838367
0.885414
-0.0694986
-2.33175
0.481519
0.560374
-0.662491
0.102117
1.34139
0.336185
-1.67757
1.51654
-0.138527
-0.915271
2.76199
0.0904013
1.38929
-0.555271
-0.0417271
0.596998
-0.313316
2.02
-2.48048
1.62606
0.854414
0.229273
-0.149277
5.20432
-2.11133
3.48455
-2.9711
-0.877964
-0.57843
1.45639
2.45528
-4.49626
2.04098
2.2405
-2.43126
3.60611
-1.66177
-1.94434
-0.0236846
-2.109
-0.371481
-2.04138
3.57779
-1.53641
-0.124967
-1.34714
4.89253
-4.15903
0.965216
0.962765
-0.565462
-0.332393
0.127971
0.60939
-0.0181993
-1.90257
-1.81658
6.16652
-2.3981
-1.45085
0.863841
0.587006
0.236959
0.851494
-2.50832
-1.86347
4.37179
1.0071
1.14147
-0.00736414
-0.562648
0.570012
3.29276
-0.327527
0.249451
0.0780763
2.75255
-0.933987
-1.37129
-3.91731
0.626557
-0.882106
0.0539267
0.828179
2.53484
3.74182
-0.714359
-0.84711
1.56147
3.85639
0.153508
2.41282
-3.38489
0.972075
-3.23752
-0.0562781
3.2938
-3.23773
4.14575
-0.908013
0.541851
-0.0123159
-0.529535
-2.45158
5.08112
-0.0869271
-1.70669
1.79362
0.170954
-3.09428
1.66877
-0.623726
-1.04504
-3.75121
4.92305
-1.17184
-0.879791
2.16954
-1.28975
4.64165
-2.05148
-2.59017
0.00517292
-2.33503
2.32986
0.266459
0.0337322
-1.93981
4.29567
1.49504
-3.28199
4.13721
-1.87186
-0.727516
0.600416
-3.40878
0.171258
4.48461
-1.98012
0.0664187
-5.14736
1.07558
-0.0520601
1.74753
2.13394
-3.88148
2.17187
-0.534912
-1.63696
1.72444
-3.51533
1.7909
-0.713255
0.0380885
0.675166
-0.774536
-1.93837
2.7129
1.39002
-1.07086
-0.157214
-0.31143
0.468644
0.414589
1.05397
-1.46856
0.309826
0.464011
-3.81841
4.52286
-0.704456
-0.534547
0.120878
1.80044
0.819473
-2.61991
1.48167
2.95315
-4.43482
0.656186
1.91791
-0.110336
4.67587
-0.0436692
3.15425
-3.11058
0.0531664
-0.0248272
0.724901
-0.376047
-0.348855
5.97825
-3.44321
-2.53504
1.71141
1.8947
0.6693
-0.230695
-0.438606
-1.09486
3.15939
-2.06452
0.0363523
0.637477
-0.67383
3.53705
-5.19488
1.65783
-1.20947
-1.67486
2.88432
3.28257
-0.709794
1.12178
1.05009
-1.50677
0.466519
1.04025
1.14222
-3.1802
0.757585
-1.37142
0.613835
0.739798
-0.263425
-0.476373
0.0991905
0.167268
-0.264206
3.12547
-2.86126
-0.756459
4.47045
3.0304
-2.47781
-0.552582
2.53628
-2.1365
-1.97228
0.634962
1.33732
0.64934
-1.86572
1.1871
-0.736065
-0.45103
0.239875
0.535893
0.603262
2.89938
-3.50264
0.935431
0.66985
0.499725
-3.66972
-1.86363
0.507226
1.35641
-1.34999
-0.881983
2.23197
1.91805
-0.98644
-3.33349
2.18056
1.05137
-0.800108
-0.251258
-1.72656
3.93137
-2.20481
-1.70466
1.80835
-1.87175
1.96908
-0.0973263
-2.19214
3.91434
-1.7222
-0.0782554
0.846887
-0.768631
-0.719628
0.763969
-1.4342
-2.18227
3.66378
-1.48151
-2.18056
2.7487
1.96489
-2.05653
0.0916414
0.223653
1.36553
-1.58919
-4.82535
3.09088
1.73447
0.139214
-0.151872
0.0126577
0.3215
2.69996
-3.30376
4.32027
-1.86499
-1.16808
-1.8586
-2.82473
2.78106
1.90196
-0.0414422
1.46649
0.399088
-1.86558
-1.32467
1.21574
0.108926
-1.57066
1.13227
0.438384
-1.10195
-0.199388
1.30134
1.21555
1.04833
-2.26388
-2.8543
-1.05644
3.91074
-1.17557
1.39923
2.90437
3.07388
-3.63057
2.10987
1.5207
-1.91961
0.806846
1.11276
0.026674
0.7023
-0.90875
0.20645
-1.93794
-2.17952
1.07757
0.534487
0.787403
-0.611181
-1.35671
1.39766
1.84783
-3.32888
0.0951733
1.12412
0.116918
0.317603
-0.434521
-2.92817
-2.1229
5.05107
-1.02615
-0.480622
-1.93699
-0.39268
2.32967
0.406067
0.815619
-1.22169
0.107489
4.41052
-2.82637
-1.58415
0.713688
2.5705
0.428266
-2.16695
-0.176931
2.34388
-2.56202
3.64556
-1.08354
-2.16017
-1.01261
3.17278
-1.81678
0.662407
-1.51236
-0.45992
4.30145
-1.89331
-2.40814
1.24044
0.0415361
-1.28197
1.43275
0.251621
-1.68437
-0.652784
0.759427
-1.17821
0.365578
0.812635
-0.450702
-0.108567
-0.815281
-0.0463316
2.51931
1.78214
-1.373
3.57242
-1.62526
5.21017
1.41307
-0.172638
-3.32432
1.16415
2.88022
-2.45011
-0.423249
-2.51352
0.514573
0.339562
-1.23723
2.79773
-2.68519
3.27726
-0.136017
-0.769148
-0.445149
-0.913833
-0.321857
1.23569
-1.17133
-0.15418
2.97856
0.539472
-3.51803
0.0427619
-0.981019
0.938257
-0.28705
1.90485
-3.63599
1.73114
3.36608
-0.268679
-4.37347
4.94009
-0.566618
0.827457
-0.560873
-4.02994
-0.795415
-1.11186
3.60699
-0.102026
2.38275
4.26047
-1.55333
-2.70714
-2.49767
-0.120229
2.6179
0.926152
1.88037
-2.80652
-2.76564
0.202418
-0.669707
-0.44224
1.11195
-1.86938
2.35829
0.545909
1.97912
-2.52503
-0.946045
-0.366035
1.31208
-3.75554
0.48771
3.26783
2.02337
2.2969
-0.991611
2.19638
0.804161
-1.04072
-0.461341
3.6197
-4.16506
2.04137
-0.59392
-1.44745
1.24824
-0.331287
2.64131
0.157999
-2.79931
3.50028
-5.12554
-0.125257
0.321776
-1.32387
2.64537
-1.3215
-4.95973
4.70069
-0.11024
1.12568
-1.01544
-0.295546
0.213363
0.0821827
-1.69046
0.184746
-1.02191
2.35779
0.498991
1.30501
-0.586549
0.622263
-2.211
1.21362
0.772714
-0.479851
-0.757821
0.722583
0.0352375
0.774974
-0.883643
0.108668
-1.94355
2.11329
0.52375
-2.46074
-0.143678
-1.12812
0.00802077
2.20645
-2.21447
1.23587
-1.40262
0.732977
-3.08312
2.35014
-0.641532
3.14368
-2.50215
1.01536
-3.13323
-2.97606
-0.0860059
-3.69413
2.5227
3.64381
-2.896
-0.437497
-1.86951
-1.65915
-1.60293
0.652846
-0.137936
-0.396673
0.534609
5.57396
-3.03912
3.10135
-0.71344
-0.920074
-0.583479
1.50355
-4.58312
2.19286
2.39026
-1.17237
0.73234
-3.4343
2.20989
0.61411
-0.360609
-0.727782
-1.68053
1.5936
0.608626
-0.912465
0.303839
-0.489786
3.46835
-1.18442
1.17822
0.00619781
3.19577
-4.8956
2.18425
2.71134
0.706753
0.937708
-1.64446
1.91655
-0.439654
-1.47689
-2.03882
1.15903
-0.437185
-0.0237703
1.45652
3.52567
-3.89687
1.57126
-0.711528
-1.53456
2.67678
-3.48259
2.47167
1.01092
3.4356
-5.27346
1.83786
-2.70994
2.89944
-0.189495
1.59165
-1.90497
0.0459964
0.837661
0.978331
1.24277
-3.59934
1.63719
-4.6574
2.96466
1.69274
0.876075
-3.37375
2.22721
-0.12065
-2.31201
0.464989
1.28808
4.05648
-1.3829
-2.67357
0.440889
0.948297
-2.29829
0.596727
-3.69102
3.57079
-3.06566
1.28176
1.83651
-2.36623
1.16156
1.20467
-3.51205
2.0134
1.49866
-0.70108
0.469953
-0.818801
-3.87336
2.73407
1.13928
2.68047
-5.13205
-3.82301
0.00460185
5.21908
-1.66024
0.300714
0.231478
-0.532192
-0.0950828
-0.582845
0.677928
-0.188313
1.69958
2.06159
-1.28448
-1.08175
0.612527
0.777489
0.82939
1.39347
-2.22286
1.46053
-0.877432
-0.116667
-4.10698
4.22365
-1.25273
1.42146
-2.83168
-2.79883
-1.9118
4.71063
0.924477
-1.27043
-2.62852
0.797694
1.83082
0.428613
-0.359044
-0.0695696
3.78229
-4.67599
1.09414
-2.41801
3.33804
1.76279
-5.10083
-1.20354
-0.247307
-3.17828
0.9086
2.26968
-3.03559
1.82612
0.945011
-3.50703
0.59555
1.44582
0.21422
0.214393
-0.100482
3.2525
-2.30878
2.937
-0.628213
3.33866
0.0130479
-3.3517
-2.26188
-0.0620695
-0.770319
0.181687
3.18036
0.453306
0.121409
1.01372
1.85063
-0.55927
1.93553
-0.749091
-0.821568
-3.52943
-0.238398
-3.10543
0.99352
-3.2173
0.642354
0.741694
-1.38405
3.38593
0.165147
-3.55107
-0.409039
0.396723
-1.31888
-2.76784
-2.97936
-0.4969
-1.76493
5.26522
-1.27658
1.76352
-0.486938
-4.14929
1.22112
-1.09146
1.92085
-1.15475
-1.61925
-1.97344
-1.13576
1.16818
-0.706857
2.04824
4.16198
-0.554984
2.13473
-0.668758
-1.46597
0.401381
1.14867
0.97179
3.89886
-3.62216
-0.0508824
-0.856647
1.23206
-1.85925
1.99237
-1.73154
-2.35872
0.837602
0.636856
-1.47446
-3.4228
0.0607546
-0.503949
2.95924
-2.45529
-0.0458976
-4.32757
-2.59765
3.1418
5.43885
-2.55637
-2.88248
-0.44849
1.07118
2.81723
-1.42082
-1.39641
0.988297
-1.09686
0.2429
0.482002
-0.608833
0.000567196
0.608266
-0.375293
1.84178
-2.3943
5.07477
-0.0963137
-0.561868
-1.04346
-0.314272
1.35773
-0.265604
4.0479
4.31465
-1.19396
-3.12069
-1.45127
2.17221
1.57868
1.5807
-1.58456
-0.279077
2.01999
-0.770672
-1.24931
-0.397305
0.213272
0.184033
0.58925
-3.02438
2.43513
-3.54414
0.564784
0.834533
-2.21881
3.21233
-0.0399666
1.02826
0.481378
-1.75796
-3.56012
1.84811
-3.95462
1.19765
-1.7109
0.205024
-1.47327
-2.13315
3.60643
-3.0138
-0.171913
-0.266545
0.438458
3.78529
-3.04573
2.98195
-2.0558
0.523864
2.02942
-2.55328
0.711112
-1.38082
-1.7766
-1.35453
3.13112
1.06435
-1.53419
0.469839
-3.02818
5.18804
-2.15986
2.7723
-1.90035
-0.871958
2.79856
0.0973186
-2.89588
-2.04053
-2.85507
-1.20567
-0.0889263
1.62718
2.31318
-0.0624095
0.358002
-0.295593
-2.5449
-0.633385
2.63793
2.21712
-2.03743
2.45501
-0.417577
-0.414781
0.664232
-0.629839
1.18971
-0.559873
-0.00626149
-1.17816
-0.404281
-3.46908
-3.5918
0.943416
0.107949
0.39641
-1.65063
0.284425
2.75863
-3.04306
-1.89216
-0.439593
1.74048
1.67026
0.262675
-0.979172
-0.0692875
-0.290142
0.35943
0.204815
-1.31498
1.11017
0.196072
0.952807
1.51951
3.14973
-1.49081
3.10786
-1.6864
-0.406422
-0.953476
1.3599
2.82545
0.360703
0.0600874
-2.54275
1.76821
2.4212
-2.6868
-1.50779
-2.74849
4.25628
-2.27093
-2.31219
-4.26211
4.31323
-0.0511169
0.882314
-1.30521
0.983351
2.07856
1.07118
-0.829573
1.83576
-1.00619
-1.06888
-2.24257
-1.16321
-1.87235
3.03556
1.97021
-0.963107
1.37964
-0.622051
2.1358
-3.45467
1.6959
-1.31868
-1.77124
3.35134
-1.5801
2.17614
1.69821
1.16447
-2.86268
4.18861
-2.33848
-1.85012
-2.77334
-2.37453
4.04526
-1.67073
0.797852
1.33688
-1.07896
1.03899
1.61158
3.03007
-0.793901
0.698818
0.119301
0.154276
3.59717
-2.01931
1.84602
3.72795
-1.52002
0.795559
0.724459
0.75538
-1.63334
2.79504
-0.153732
0.913095
-0.612381
-2.4858
-0.482166
2.96797
0.68607
-0.1178
-0.56827
0.543414
0.303671
0.502877
-3.74061
-1.05191
1.20407
2.55513
-2.27639
-0.278732
0.640276
1.37971
-0.544214
0.284141
0.991401
0.806237
-1.79764
-1.34242
4.03
-0.507578
-2.02335
4.14843
-2.12509
-0.986644
1.40123
0.413311
-1.35936
4.08054
-2.03651
-1.29343
0.646822
1.26973
1.13185
-1.27553
-0.669895
0.591639
-1.06844
-0.515136
-0.00845208
1.22812
-0.595048
3.04477
-2.44972
-1.00797
0.81925
-1.25582
0.355555
-1.21582
0.0101433
-4.022
2.58901
0.943451
0.822339
-1.72146
2.28713
-0.56567
0.86322
0.341921
3.01063
1.66244
-4.67307
-0.365313
-0.0792655
0.444579
0.760403
-2.64743
3.75819
1.68066
2.91489
-2.63047
-4.09759
-0.23899
-0.154405
0.253695
1.71235
1.43318
1.33866
-2.77184
1.43877
-0.202901
-0.124224
-1.18403
-0.335992
-1.92748
-1.48201
2.13135
1.8161
1.47091
2.05134
-2.1055
0.0541559
0.701279
0.021304
-0.24237
0.91481
-0.139835
2.82535
0.744371
-3.56972
0.917173
-0.308547
-0.820597
0.491456
0.329141
-1.26847
-0.0327778
1.30125
1.15637
2.10462
-3.26099
0.773953
1.1441
2.5443
-0.0785755
-0.953547
1.49748
0.353155
0.170443
-0.712536
0.542093
-3.91242
1.86998
3.12505
-2.44767
-0.677373
0.0613296
-0.533688
0.472359
3.11268
-3.37689
2.24032
-0.270108
1.46083
1.52112
-0.46449
-0.0506456
0.0571503
0.608982
-0.666132
-1.92382
-0.453664
3.99603
-2.05246
-1.94356
1.40682
-0.0621419
-1.34468
1.5744
-2.58447
1.01007
-0.223024
1.84453
0.0840451
-1.5832
5.20833
-3.62513
0.526653
-0.469502
-1.89009
1.32624
-0.148012
3.50309
-0.0161045
-3.48698
-1.75929
-0.517346
0.634264
-0.416888
0.186193
0.742226
1.90314
-1.75191
1.37343
0.0678679
-0.279211
-0.462119
0.431396
-1.4499
1.97376
0.0381556
0.944354
-0.110292
-0.8506
2.46505
-0.178162
2.2295
-0.89209
-0.427722
-0.802439
1.79384
-0.478267
3.26257
-2.7843
-2.94441
-0.449622
-2.94594
5.13915
-2.19321
0.130514
1.19572
1.14481
-0.205862
-0.0588192
-0.882984
0.941803
-3.03865
1.00214
0.416632
-0.476824
2.19409
-4.7024
1.77568
-4.25123
-3.29875
3.64017
-1.78161
1.84461
-1.03837
0.0373675
-2.21165
2.8009
-0.00682358
-0.548022
0.475654
-1.87532
-0.401681
-2.17329
2.57498
-1.64267
2.3986
5.64776
-3.77312
-1.87464
-0.765323
0.297284
0.831319
0.0732054
-0.904524
-2.91225
0.603464
0.664509
0.0752892
-0.0322952
-0.447796
0.480092
2.35696
-5.3029
0.348349
1.59582
0.149566
-1.74539
-3.67839
3.20013
0.538482
0.131342
-0.669825
1.49991
-3.68219
-0.49012
-0.014788
0.504908
0.701554
-0.163071
-0.0414896
2.60145
-1.94526
2.12459
1.78356
-1.00961
-3.99332
1.19449
-2.38386
1.96395
0.419905
2.5852
-4.09299
-1.8168
-1.05132
2.86811
0.0814872
1.45186
-1.05701
0.936531
4.02259
-0.618865
-3.40373
-0.0101584
-3.51928
2.55953
0.239034
1.41151
1.40572
-0.542812
-0.0198358
0.532354
-0.9165
-1.27996
0.131686
-0.110325
-0.0213609
0.0282329
-3.46164
3.4334
-0.32425
1.21106
-0.886806
1.93375
-4.12227
2.18852
-0.31355
-1.93307
-0.126084
-0.0654643
2.37627
-1.25086
-0.664451
1.91531
-1.28589
-1.33449
1.57276
-0.935902
0.727994
0.52576
-1.25375
0.0551638
-1.77663
-2.93981
-0.432321
-0.158935
0.591256
0.672072
0.768741
-1.44081
1.39579
-2.91849
1.5227
0.141319
-1.97248
0.646589
-4.3978
-2.2246
-3.15653
5.38113
-3.39232
0.149235
3.24308
-4.30133
-2.82929
0.119349
-1.06529
1.07033
-0.00503545
-5.11206
-1.20703
4.03238
1.36442
-0.658465
0.3556
-1.15804
-0.53543
1.67953
0.521821
0.323645
-1.3671
0.0637439
-0.567266
0.503522
-0.509054
0.166055
-0.379009
0.440339
-1.0413
1.74806
-3.70094
2.11822
1.58272
0.0460495
-0.671838
1.91636
0.698531
-0.0124609
1.12193
-1.9515
-1.72023
-0.908289
-1.93598
0.638315
1.29766
-0.310888
0.95996
-0.649072
-1.50571
1.71053
-0.294684
2.56231
4.19542
0.11923
1.81222
-3.09811
1.51496
-1.9923
0.477341
0.386092
-0.00244831
0.0694073
-0.0570522
-3.57553
2.10226
0.146656
1.26017
0.0467547
-0.702854
0.656099
-5.63597
2.17306
0.915789
-1.279
-0.668875
-0.0788224
-0.751662
0.830484
-1.98944
0.738579
-3.69648
3.2922
5.64718
-2.30914
-0.896178
0.824488
0.0716904
0.885914
-0.961929
-0.522415
-2.3516
0.643101
1.7085
-0.502371
0.423105
-0.238996
1.25772
-1.01872
1.46866
0.771654
0.505608
0.612342
-1.11795
-0.979651
1.01781
0.938268
-0.529561
1.73464
-3.40872
3.6082
0.24819
-2.01096
-0.248049
3.33034
-0.108901
-3.22144
-0.280761
-0.915672
1.19643
1.75047
-3.65304
-2.84951
2.21078
0.638734
-0.259618
0.132994
0.126624
-3.78558
3.85446
-0.0688791
-1.54654
2.27952
1.97794
0.67218
3.81322
-1.43079
-2.38244
0.214764
0.515713
-0.730477
-0.41005
-1.12932
-0.0468788
-1.07717
-0.0521481
0.142436
-1.1182
0.975766
-0.330705
3.34649
-3.01579
-2.91144
1.02838
1.88306
0.92619
3.18553
0.0948136
0.142064
-0.236877
2.00691
0.852007
-2.85892
0.172454
-0.31039
-1.47138
3.28954
-1.81816
-2.96212
0.476317
2.30439
0.947208
-2.76401
-0.00907642
-0.427533
0.43661
3.78024
-1.15276
-2.62748
1.59094
0.788068
-3.84481
2.02822
3.75292
-3.86959
-1.77086
0.366699
1.40417
-0.26473
0.535286
0.419256
-0.954542
-0.167882
-0.920098
1.08798
-0.0362462
0.444532
-0.408286
0.89847
-0.901573
0.00310366
-1.9857
4.1215
-1.0342
1.04844
0.713526
-0.952522
1.21115
-1.94068
0.729523
-2.00075
-1.48184
0.353545
-0.12972
-0.0464199
0.0138104
0.0326095
3.52316
-1.76358
-1.75958
0.334258
2.22087
-0.843414
-0.481255
-1.99945
0.324834
1.61608
1.6171
-3.23319
-0.121238
0.0335028
0.0877352
-0.047171
1.24372
1.0715
-1.43531
0.363802
5.23326
-2.83608
-2.39718
-4.65215
0.988726
0.967931
-5.53702
0.960088
4.57693
1.09065
-2.73188
-1.05968
0.908744
-0.00090982
0.0703171
-1.01338
3.35315
-2.33977
0.511396
0.102714
0.440536
0.58871
-0.821703
0.725389
-0.575998
1.00984
-4.41237
3.51258
0.89979
2.2834
-1.47295
-0.810456
1.47473
-1.27866
0.839065
0.204371
-0.814572
0.667016
-0.148254
-1.27842
1.22387
-2.4435
-4.62488
3.04168
0.251593
-0.0570173
0.481058
0.220495
-0.127511
-0.132107
3.01346
-3.08808
0.0746207
3.39989
-1.6617
0.718462
0.943236
0.356793
-1.21344
-1.52613
-3.15701
-0.84153
0.723729
-0.577957
-0.959291
1.53725
-2.80831
0.62775
0.551388
1.3258
-1.87718
-0.0637383
1.12809
-0.779129
-1.71389
4.66704
0.0384368
-2.63609
0.825693
-1.81949
0.993799
-0.92959
1.19226
-2.2801
-3.35587
-0.162813
-0.132732
2.21994
-3.44765
1.51165
1.936
-0.0942682
-1.10511
0.124094
-1.25309
1.129
-3.72424
-2.05485
-0.548373
0.533585
3.26758
1.87154
1.15793
2.53354
-2.47825
-1.75788
3.18881
-0.198178
-2.99063
4.1754
-2.32757
4.09749
-3.02309
-1.07439
1.0908
0.663904
-1.7547
-1.86216
2.65508
-0.792922
-5.57877