/*--------------------------------*- C++ -*----------------------------------*\
| =========                 |                                                 |
| \\      /  F ield         | OpenFOAM: The Open Source CFD Toolbox           |
|  \\    /   O peration     | Version:  2306                                  |
|   \\  /    A nd           | Website:  www.openfoam.com                      |
|    \\/     M anipulation  |                                                 |
\*---------------------------------------------------------------------------*/
FoamFile
{
    version     2.0;
    format      ascii;
    arch        "LSB;label=32;scalar=64";
    class       volVectorField;
    location    "9.1";
    object      U;
}
// * * * * * * * * * * * * * * * * * * * * * * * * * * * * * * * * * * * * * //

dimensions      [0 1 -1 0 0 0 0];

internalField   nonuniform List<vector> 
13486
(
(4.62458 -0.944976 1.86922e-20)
(5.16727 0.467809 9.72449e-21)
(6.26085 -0.157973 0)
(-6.19012 2.80133 -1.74957e-20)
(6.99571 -1.80087 1.29468e-20)
(7.00313 0.299973 -3.31027e-21)
(7.27415 -1.77402 -4.23862e-22)
(6.10113 -2.29298 -1.34417e-20)
(5.99927 -1.40871 0)
(5.89227 1.60646 0)
(-1.63528 2.08881 -9.34049e-21)
(7.97014 0.517808 0)
(4.26158 -1.51392 -1.82068e-20)
(7.01548 1.61601 -4.33152e-21)
(7.42191 -1.65249 9.38624e-21)
(5.80718 1.67409 -8.95786e-21)
(0.830081 -0.653193 4.83065e-21)
(2.654 -10.9061 -2.43567e-20)
(6.96647 0.179343 2.48917e-22)
(5.07937 -0.472162 -1.98601e-20)
(-5.20427 1.33285 -7.56652e-21)
(4.30193 -1.54095 2.34554e-20)
(5.23768 0.473328 -7.79005e-21)
(7.98829 -2.47389 0)
(6.12146 1.3039 3.3828e-21)
(7.92718 -2.29236 2.64688e-22)
(-0.250527 0.359886 7.04628e-21)
(7.09142 -0.274343 -1.05903e-20)
(9.36888 0.00946467 0)
(6.55119 -0.865978 8.17912e-21)
(-1.75075 -3.03936 -6.00598e-21)
(8.47301 -1.60257 -1.3931e-20)
(8.2868 -0.684039 -1.65047e-21)
(6.09581 -0.182803 0)
(6.14001 -2.22656 0)
(0.353474 0.654057 -8.90158e-21)
(6.56385 -3.14625 1.43589e-20)
(4.94632 -2.33448 1.06934e-20)
(12.1422 2.73291 2.17758e-22)
(6.08693 -0.922679 1.19794e-20)
(7.40239 -2.39295 0)
(3.55172 -1.73278 -2.09886e-20)
(8.03787 0.051257 0)
(6.09438 1.11256 -1.59878e-20)
(6.1345 1.11391 6.57685e-21)
(7.90742 0.496355 1.00687e-20)
(0.240833 1.02268 5.08804e-21)
(9.93344 -0.935641 1.63948e-21)
(6.501 -2.95083 -1.10305e-20)
(7.44789 -0.0471642 -4.94002e-21)
(5.98048 0.0953058 1.41608e-20)
(9.85177 -0.699504 0)
(8.86433 1.01132 -1.43042e-20)
(5.16424 -1.98511 -1.54126e-20)
(0.904958 -11.252 0)
(6.97077 -1.8411 -7.99849e-21)
(5.91288 -1.54245 -5.48567e-21)
(9.98902 0.203615 9.66509e-21)
(8.23065 -0.645683 -2.83162e-21)
(5.804 -3.56794 0)
(-1.28229 1.73375 -1.10739e-20)
(5.57331 -3.2325 0)
(9.16267 0.876263 -9.14213e-22)
(-5.1877 1.40039 -7.38026e-23)
(6.78298 -4.62896 0)
(6.53809 -3.33358 6.79835e-21)
(-6.69184 3.1336 -1.74077e-20)
(4.57984 -0.22972 6.22077e-21)
(6.00858 -1.47281 -6.74973e-21)
(3.53717 -0.102961 -6.56912e-21)
(-6.082 3.12849 2.00997e-20)
(1.79003 -11.5163 -1.85975e-21)
(6.02869 -0.522613 8.81579e-21)
(-2.08594 -0.389534 -4.7862e-21)
(6.21326 -3.13587 1.34009e-21)
(6.41933 -1.61456 1.23915e-21)
(6.01692 -3.03067 -4.55627e-21)
(7.37484 -1.68907 -3.73565e-21)
(-0.0483198 1.75769 -3.3241e-21)
(2.57434 2.3691 0)
(-2.61708 4.42571 4.62128e-21)
(5.03183 0.69214 -6.19667e-22)
(10.0646 1.13476 -1.41608e-22)
(6.80493 -0.0451938 -2.93381e-21)
(4.61424 -0.98043 -3.64253e-20)
(4.53615 3.92035 0)
(3.67994 5.72624 2.30514e-21)
(5.98476 0.138663 -2.21474e-20)
(5.63012 0.411168 -8.86147e-21)
(5.39805 2.25465 -1.11703e-20)
(9.82212 -1.03313 -7.72744e-21)
(6.45586 -2.03192 -7.81944e-21)
(4.79296 -1.23513 4.92099e-21)
(5.15951 -0.0655206 5.225e-22)
(5.73145 -1.90551 2.67216e-21)
(9.32053 1.19881 -2.06236e-21)
(-0.376858 0.741023 0)
(-5.84672 3.52334 1.03893e-20)
(6.10831 -0.902771 -2.2901e-20)
(0.656014 -0.488464 -1.00955e-22)
(0.258598 1.79157 0)
(6.94855 1.62969 -1.75972e-21)
(-5.49084 3.22453 4.50648e-22)
(10.1905 -0.331139 -1.12886e-20)
(4.07565 3.68705 0)
(0.362457 -0.240011 -7.12281e-23)
(5.88234 0.101985 2.20194e-23)
(11.3221 3.92286 -6.14411e-22)
(0.303384 1.52281 3.87077e-21)
(6.03725 -2.7701 0)
(4.81796 -2.27676 0)
(7.7636 -2.50406 -1.70998e-20)
(5.18793 -1.93702 5.67535e-23)
(6.96255 -1.20002 4.23504e-22)
(3.6749 -0.562392 0)
(4.70901 -2.25156 -1.03391e-20)
(6.04923 1.38756 0)
(6.5092 -0.0838724 0)
(6.01454 -0.513391 0)
(6.56484 -2.66363 8.74333e-21)
(3.54336 -10.2579 1.83516e-20)
(-1.70977 1.97603 0)
(5.65073 -1.76066 0)
(10.583 3.32304 -2.2061e-21)
(5.8369 -2.16088 0)
(9.8891 -1.00103 0)
(6.86601 -1.05277 3.27694e-22)
(6.43914 0.210598 9.5643e-21)
(6.32033 -0.0864719 2.80654e-21)
(6.23631 -4.68732 -1.19147e-21)
(9.89518 -1.07114 1.31115e-21)
(-0.100663 0.80492 -1.20401e-21)
(3.92967 -0.785037 6.81e-21)
(-0.847003 0.410378 6.60786e-21)
(5.99285 0.0471158 -2.2756e-21)
(5.71105 0.940736 -1.10497e-20)
(2.60293 1.26187 -4.99746e-21)
(6.02898 -2.7504 0)
(6.24651 -2.64875 -2.88035e-21)
(6.19696 -1.94131 -4.73441e-21)
(7.92432 -0.238269 3.81185e-21)
(9.07861 1.06973 1.21093e-20)
(8.71285 -0.430299 0)
(2.7057 2.55392 0)
(7.51064 0.0519302 1.59563e-21)
(11.8313 -0.0726864 -5.82271e-21)
(5.64665 2.58175 -4.63908e-21)
(-0.397863 2.66387 0)
(7.62441 -0.0380781 0)
(9.37187 -0.18806 0)
(6.01095 0.0604008 2.76221e-22)
(7.2321 -1.73249 0)
(0.163103 1.71416 -4.83642e-21)
(4.97436 0.663862 -5.18675e-21)
(6.43166 0.728603 0)
(7.13092 -0.178582 0)
(5.73183 -2.58026 0)
(-2.01131 0.466868 -8.55616e-21)
(5.44248 -2.22613 2.34137e-20)
(3.91261 -1.59339 9.70142e-21)
(7.20457 0.0532766 -4.57455e-21)
(5.46482 -2.17847 -3.53218e-20)
(8.63368 -3.56733 4.27449e-21)
(3.21665 -1.61199 9.31234e-21)
(9.83892 -0.490441 0)
(7.28247 1.59519 4.46383e-21)
(6.81064 1.4972 1.1525e-20)
(2.00359 -0.691222 -2.05935e-20)
(5.53091 2.47994 1.2103e-20)
(-0.827339 0.363218 1.77673e-21)
(0.02872 0.991717 2.40827e-22)
(6.42882 0.66595 7.0372e-21)
(5.99736 0.240061 -1.98886e-20)
(7.43299 -0.903212 6.41733e-22)
(-4.62375 2.05895 -2.5739e-21)
(0.243486 1.25473 0)
(6.9917 2.42973 -7.90012e-21)
(8.29211 -0.137062 -3.86399e-21)
(5.89333 0.071962 -2.18322e-20)
(8.66879 -0.288236 0)
(6.23028 -1.08744 2.52373e-20)
(7.24694 -1.15525 8.46545e-22)
(7.84715 -0.803221 -8.43362e-23)
(-3.3863 1.88751 0)
(6.28757 0.594015 7.2858e-21)
(6.73922 -0.230265 4.87192e-21)
(7.92094 -1.01205 -6.88575e-23)
(6.605 -0.528367 2.92451e-21)
(7.3154 -2.36831 0)
(4.34011 -2.08881 -1.33713e-20)
(6.42678 -2.81407 0)
(6.74583 -0.225902 0)
(9.22832 1.77036 0)
(4.92982 1.91965 -1.07518e-20)
(7.7783 1.78549 0)
(-1.8821 2.25821 -2.5903e-21)
(6.59876 -4.74349 2.33633e-21)
(6.96579 0.00659802 -2.41751e-21)
(4.2116 -2.08921 -4.58069e-21)
(7.20783 1.47413 3.55032e-21)
(-1.70289 -3.40296 6.85449e-21)
(6.44945 0.244794 -3.03403e-22)
(4.83456 -2.33399 -1.23913e-20)
(6.16519 -2.59095 4.08277e-21)
(3.75277 -1.65935 -1.16974e-20)
(8.30721 1.64944 7.96575e-21)
(1.08001 -10.6949 -4.41103e-21)
(5.776 -0.316637 1.70187e-20)
(8.97777 1.5124 0)
(6.39596 0.427439 0)
(6.80202 -0.295651 -9.16841e-21)
(7.26883 -2.87761 -2.47907e-22)
(5.1143 -0.396576 1.8252e-20)
(5.87884 0.11113 3.34328e-23)
(7.00453 0.37962 3.81748e-21)
(4.5517 -1.47338 -2.34948e-21)
(6.6956 -0.752707 0)
(5.50269 2.16569 2.58959e-20)
(5.01458 -1.29796 0)
(8.62693 1.32847 0)
(0.855105 -0.597486 -9.19045e-21)
(7.50476 -0.00766287 0)
(6.15814 -1.92302 1.11488e-20)
(7.83004 0.0769762 0)
(8.85569 2.05749 -2.76361e-21)
(4.32327 -2.04231 6.90795e-21)
(7.29591 0.689973 3.6278e-22)
(1.35878 -2.96356 5.19592e-21)
(5.25256 0.280755 -1.55977e-22)
(3.6129 5.83588 -1.92303e-22)
(6.25536 -1.06713 -8.09938e-21)
(6.27079 0.521682 -5.80096e-21)
(8.08145 -0.322257 -4.87373e-21)
(3.54927 -1.7261 7.12376e-21)
(-4.52971 2.08083 0)
(3.93805 -1.93246 8.36981e-22)
(6.53658 -0.342422 -6.28287e-21)
(6.77651 -0.220952 -2.25708e-21)
(3.85967 -1.86332 2.28362e-20)
(7.71029 -0.378179 0)
(8.3161 -0.840928 0)
(5.99017 0.20058 3.07037e-20)
(7.36646 -0.720893 0)
(3.67452 -1.82738 7.79964e-21)
(9.70847 4.92321 -9.08835e-21)
(5.51743 -0.0203765 0)
(7.57538 0.0343179 -2.9349e-21)
(7.36135 -1.67187 -5.52303e-21)
(-0.36432 -0.356743 9.98195e-21)
(6.01196 1.05521 0)
(-4.25489 3.29356 -3.89177e-21)
(3.59441 -0.487034 2.51933e-21)
(4.29279 -2.10495 1.3485e-20)
(9.76463 4.35842 0)
(4.54394 1.30406 -5.01587e-21)
(-0.159294 0.998647 2.00248e-21)
(8.61178 -1.47278 1.16712e-20)
(4.70044 -1.84993 2.96889e-21)
(-1.23945 1.30759 8.95929e-21)
(8.26917 -0.84898 -1.16481e-21)
(5.43038 0.38361 0)
(9.94704 3.85879 2.02848e-21)
(7.41453 -1.64018 -2.14453e-20)
(0.095205 1.20322 -2.50022e-21)
(6.75075 -2.30996 -1.13388e-20)
(-3.37405 1.98844 0)
(5.76337 0.327388 8.61244e-21)
(-2.72266 -1.80582 -8.93962e-21)
(6.27912 -0.0581486 -1.07036e-20)
(7.34123 2.93854 0)
(4.72869 1.97459 8.80985e-21)
(5.89794 0.141211 -5.9582e-21)
(6.7632 -0.922372 0)
(8.06346 0.991058 8.73948e-21)
(4.37968 -2.09042 9.25773e-21)
(7.17727 -1.84141 3.05754e-21)
(4.53135 1.86713 0)
(3.16911 -8.4147 0)
(8.09906 4.75652 3.02711e-21)
(6.02305 2.70495 8.64159e-21)
(3.09057 -8.31769 2.64118e-21)
(6.603 -0.780971 -9.92683e-21)
(5.81918 0.134328 1.28068e-20)
(10.0323 -2.66756 -3.3647e-21)
(-2.24539 2.21288 1.28005e-20)
(-0.205554 0.686066 1.05011e-20)
(8.10026 -0.10397 -4.48346e-21)
(5.72998 0.0418443 -3.69051e-21)
(8.8915 2.04921 4.02116e-21)
(6.12077 -0.0614898 0)
(-5.19965 1.8177 0)
(2.95632 -5.88864 2.56777e-21)
(4.70156 -2.25033 9.97571e-21)
(5.99846 0.0625997 -2.22186e-21)
(6.21676 -0.246147 -6.67867e-21)
(6.54436 -0.431868 0)
(7.21454 -0.0967776 5.86094e-21)
(7.85693 0.94663 -7.71419e-21)
(5.79302 0.0725359 -1.1689e-20)
(7.34825 -1.68466 9.52287e-21)
(8.71283 -3.69319 -5.54134e-21)
(1.05308 -10.3208 -6.90049e-22)
(5.93299 2.6168 -7.3642e-21)
(8.37852 -1.50167 1.327e-20)
(6.54282 -2.59551 -2.99742e-21)
(5.35871 -2.55402 0)
(3.16366 1.08233 0)
(7.12782 -0.0337737 5.61662e-21)
(3.14883 5.88063 -1.73248e-21)
(6.31233 -2.82148 0)
(6.51165 4.21347 -8.10823e-21)
(-6.62333 2.66625 0)
(6.70736 2.3989 4.7652e-21)
(8.18597 -2.33363 -1.68838e-20)
(4.50057 -0.939041 0)
(5.70005 0.836987 -6.82694e-21)
(3.32956 -5.83883 -3.05104e-21)
(5.63091 0.394241 -7.46562e-22)
(5.77212 -0.298137 -1.87773e-20)
(5.50494 0.117844 0)
(6.41782 -3.19919 -1.22454e-20)
(5.48548 -6.57191 -5.80163e-22)
(5.92075 0.106654 2.76213e-21)
(5.10313 0.0425078 -9.83011e-21)
(2.75784 1.17749 9.21012e-21)
(9.76279 -1.27042 1.5137e-20)
(6.94828 -1.42181 -3.41244e-20)
(6.63816 -0.774921 0)
(7.11441 1.17069 3.12709e-23)
(7.01997 -1.46643 -6.92575e-21)
(5.98568 0.0886167 3.20215e-20)
(6.52729 -2.04071 0)
(10.3087 -1.17297 -3.2578e-21)
(4.59683 0.646339 0)
(7.06812 -1.8131 -2.68877e-20)
(5.92145 -1.80933 -7.61195e-21)
(2.82877 -1.35057 8.29151e-21)
(7.18536 -1.70391 -1.33858e-20)
(6.03785 0.486717 0)
(8.72855 3.15875 -2.46449e-20)
(4.72397 0.138772 -8.33537e-21)
(5.1388 0.0608091 9.29574e-21)
(7.04926 -1.49301 2.60768e-20)
(7.8235 -0.833008 1.51058e-20)
(-3.57291 2.69825 -9.42479e-21)
(9.33946 0.182336 7.8145e-22)
(7.06232 -0.811037 0)
(3.57028 -1.34222 1.99874e-20)
(8.63868 1.31108 0)
(3.78211 -6.37563 -3.00873e-22)
(6.99698 -0.424391 1.96306e-20)
(7.50405 1.23556 -9.03252e-21)
(8.0991 0.974429 7.30071e-21)
(-0.768644 0.980939 -8.60147e-21)
(5.81157 0.0786396 1.45886e-20)
(2.4111 -1.38468 0)
(-1.26106 -0.25092 -4.70134e-21)
(6.87765 -1.04956 -6.63576e-21)
(3.72022 6.17741 8.33249e-22)
(6.81406 -2.7086 -1.19857e-21)
(7.88756 0.155828 0)
(10.3466 -0.53481 9.07191e-21)
(5.4844 0.213571 2.13923e-20)
(5.88877 0.15621 1.80935e-20)
(6.67482 -1.02462 0)
(0.585386 5.04751 -1.15719e-21)
(6.33597 -0.37436 5.90082e-21)
(-0.084288 0.123838 8.72601e-22)
(5.02617 -0.449389 2.52314e-21)
(6.87454 -0.938704 6.32929e-21)
(7.9533 -0.10703 -6.29491e-22)
(7.03615 -0.76793 0)
(8.55404 2.32735 -9.47559e-21)
(-4.02518 2.90888 3.4582e-21)
(6.94021 0.83834 -6.90942e-21)
(5.99428 0.0927557 1.18539e-20)
(4.68701 0.00977914 0)
(6.3887 -4.12752 -3.00881e-20)
(6.24037 -1.50613 0)
(9.34865 2.22914 -9.31294e-22)
(6.32289 -0.0933425 0)
(6.51124 -2.25922 -8.81571e-23)
(4.36885 -0.678284 -5.01219e-21)
(4.73033 1.72174 2.03567e-20)
(0.39822 0.100488 -2.41439e-21)
(5.43428 1.27211 0)
(6.74536 0.144217 -1.02415e-20)
(6.05046 0.511885 -8.59139e-21)
(0.904276 -0.388946 -2.94277e-21)
(-3.05518 -1.31024 4.24513e-22)
(5.19639 -0.450349 -2.79263e-20)
(6.88506 -0.861836 -2.99257e-21)
(6.21501 0.474198 7.06831e-21)
(4.73373 -1.59902 0)
(4.42451 0.409884 9.93253e-21)
(6.38761 -2.81015 8.70199e-21)
(-6.73351 2.91024 1.01747e-20)
(-4.16913 3.01689 -1.22278e-20)
(0.738375 -0.372413 -5.45478e-21)
(8.0173 -0.110411 0)
(0.840301 -0.361456 0)
(5.99777 2.6707 0)
(6.50426 -0.3473 0)
(3.05783 -0.713758 1.66873e-21)
(7.12849 -1.92469 0)
(5.46166 5.15218 0)
(5.18556 -0.0130661 3.89385e-21)
(8.27605 -0.148216 3.97013e-21)
(6.94928 -0.722212 -1.50497e-20)
(5.25082 0.590472 3.42084e-20)
(6.00828 0.088002 -4.39408e-21)
(6.673 4.03944 0)
(7.1594 -0.738268 0)
(5.77664 0.0826186 1.242e-20)
(5.96135 0.0704204 2.20898e-21)
(3.99376 1.93709 0)
(-3.4779 1.90295 1.01437e-20)
(6.71996 -2.33127 1.27189e-20)
(-1.45505 0.430428 0)
(7.76314 -0.384232 1.38585e-20)
(5.89459 0.101618 -1.45648e-20)
(2.19594 -4.84646 -8.40242e-21)
(3.55309 -1.30393 0)
(6.01447 0.523334 1.5287e-20)
(7.33243 0.347203 0)
(6.46121 -0.472687 0)
(6.50989 0.444223 -1.39953e-21)
(5.80125 0.148008 6.72812e-21)
(-0.0407463 0.383614 -9.22486e-21)
(6.74199 1.46257 3.67356e-21)
(4.40981 -1.29987 -9.03594e-21)
(6.40443 -0.314766 1.64812e-21)
(6.24067 0.498573 5.71771e-21)
(8.52432 2.36658 2.52297e-20)
(6.94037 -2.24605 0)
(7.33927 -1.49777 -3.031e-21)
(4.39009 -0.515761 0)
(3.27506 -5.92959 6.75944e-21)
(7.39995 -0.881656 0)
(4.62931 -0.207644 1.34355e-20)
(-0.586694 0.154312 -6.16748e-21)
(6.86157 -0.698297 0)
(-1.00085 0.584559 2.97063e-22)
(7.14193 -0.794209 5.57877e-21)
(1.3061 4.06817 4.05378e-21)
(5.56843 -1.04084 2.82202e-20)
(4.37095 1.59571 -1.23673e-20)
(4.39549 -1.27138 -2.54734e-20)
(9.58378 2.13669 0)
(6.39153 -2.72941 -8.32894e-21)
(-3.39208 2.62648 -2.22402e-20)
(6.0169 0.530888 0)
(5.59451 0.441962 8.17937e-22)
(7.52293 -0.0602013 1.0358e-21)
(7.6493 2.41571 0)
(5.99835 0.0289715 0)
(-4.49525 2.61717 0)
(1.37814 0.581714 9.58559e-21)
(10.2097 -3.33617 3.98513e-21)
(10.7785 -0.343702 6.28874e-22)
(6.66673 2.27513 0)
(5.37182 -0.773532 1.85304e-20)
(-3.49435 3.31988 9.17888e-21)
(6.71745 1.34606 -9.04326e-21)
(-5.89036 2.40701 1.36438e-20)
(5.74652 0.359334 0)
(8.72962 -0.71896 0)
(2.88274 -0.713332 -1.29209e-20)
(4.66845 -1.58008 -6.54332e-21)
(6.07373 -0.746778 0)
(5.16289 -2.43468 -1.12512e-20)
(0.478732 0.237351 4.70648e-21)
(7.32857 1.69785 4.31874e-21)
(3.11118 -1.45988 0)
(6.46827 0.378737 -7.2651e-21)
(6.4972 -2.68744 -8.65949e-21)
(7.34032 0.342646 -6.33939e-21)
(5.87808 -1.86801 0)
(-0.107837 0.7128 -1.58482e-20)
(7.72523 1.1223 8.42476e-21)
(5.99235 0.287007 3.05503e-21)
(3.47465 -1.26123 -7.56685e-21)
(7.40858 1.52187 0)
(5.21871 0.568964 -9.14179e-21)
(8.44399 0.867143 1.27523e-21)
(0.667013 -0.482255 1.23488e-21)
(6.00167 0.155789 0)
(-2.49539 -0.885906 -4.35604e-22)
(2.16204 -0.572366 0)
(5.99005 0.153069 -1.23552e-20)
(5.9685 0.194691 4.72248e-21)
(5.70973 -0.0374118 -2.40346e-21)
(0.16979 1.47358 0)
(6.25266 -0.122929 -4.64304e-21)
(3.76041 0.758578 2.58742e-20)
(6.86215 -2.27294 0)
(5.12752 -0.061139 1.18213e-20)
(7.27646 -1.80362 -1.09592e-20)
(6.62864 0.0485884 0)
(-2.04027 -1.75549 4.89985e-21)
(3.06132 2.84097 9.82132e-21)
(7.9538 -0.0489225 0)
(-0.399164 0.625273 9.31905e-21)
(5.57909 0.383399 0)
(5.54355 -2.54519 1.01352e-20)
(-3.70805 3.24147 7.14738e-21)
(7.92186 -1.15151 9.23943e-23)
(7.04485 0.30652 6.46373e-21)
(4.4065 0.368697 5.2217e-21)
(5.57509 -1.12444 -1.0433e-20)
(5.10505 1.60933 4.72258e-21)
(5.58382 -2.51809 4.22031e-23)
(6.85019 -0.926281 5.94667e-21)
(7.40493 1.50914 -8.18439e-21)
(6.29072 -2.83915 0)
(5.99711 0.0729396 -1.05128e-20)
(1.45104 0.520578 -3.73015e-21)
(4.44891 -0.534867 0)
(6.40507 -2.77415 2.67012e-21)
(3.37308 0.0338062 0)
(4.12938 -1.33483 2.19255e-20)
(6.4082 -2.42932 0)
(0.878101 0.323959 1.58169e-20)
(7.1738 -0.379004 -1.12436e-20)
(-1.08711 -2.27675 9.56591e-21)
(-5.44404 3.21728 1.30835e-20)
(7.77167 0.0976809 -1.33168e-22)
(5.19689 -2.49875 1.20548e-20)
(5.62218 -1.75601 1.04772e-20)
(4.77904 -1.25325 0)
(-2.01173 1.32061 -5.68731e-21)
(6.99843 -2.15645 -2.57078e-21)
(-2.29425 1.70105 -6.61581e-21)
(10.9017 1.08429 -9.81719e-22)
(4.72219 -1.89798 0)
(6.66161 0.0150255 -1.0384e-22)
(-3.35958 1.89118 0)
(-5.19055 3.35209 3.63525e-22)
(1.96603 -5.34039 1.11724e-20)
(-1.06129 0.886752 0)
(6.38083 -1.83002 3.69179e-21)
(7.35074 -5.56411 0)
(7.67186 2.3167 0)
(5.18173 -2.46138 -1.32961e-20)
(4.66839 0.524183 8.3598e-21)
(1.03258 2.05954 0)
(5.49176 0.283403 -5.9099e-21)
(10.9352 0.297215 6.76563e-21)
(-3.81239 2.73724 1.50729e-20)
(7.84572 3.2487 0)
(6.37702 -0.0155763 0)
(-3.2429 2.51495 -9.53116e-21)
(5.82468 -0.534897 0)
(6.74762 0.0974398 0)
(-1.21583 1.61904 -2.32638e-22)
(6.41957 -1.42704 -1.74008e-20)
(5.51849 -1.49593 8.77354e-21)
(8.24634 -1.05349 -1.53871e-22)
(-2.41365 1.68214 1.22123e-20)
(5.95848 0.160201 5.37392e-21)
(4.89542 -1.32423 0)
(6.39377 1.07471 -3.23847e-21)
(4.59512 -0.886956 0)
(5.7975 -0.0925407 0)
(6.00455 0.337192 0)
(6.49981 0.428793 -1.15513e-21)
(5.74014 -0.29718 8.59062e-21)
(7.91497 -0.601271 -2.41531e-21)
(5.00457 -1.35331 0)
(-0.593851 0.57241 -6.86939e-21)
(5.96688 2.51354 6.46953e-21)
(5.82792 -2.1853 1.08624e-21)
(5.8204 0.209173 6.79357e-21)
(6.95612 -1.58888 -7.2087e-21)
(6.09033 0.070749 -8.50777e-21)
(-0.536948 0.166929 0)
(7.88485 0.971962 0)
(4.39865 1.83201 0)
(4.17601 -1.90217 -1.63053e-20)
(5.41 -6.66469 -8.19719e-21)
(-0.16003 0.497936 0)
(6.43638 1.06667 0)
(9.48948 1.59007 8.62302e-21)
(5.95262 -0.0794818 -2.6149e-21)
(5.73292 1.39619 1.21315e-20)
(6.28553 -2.58988 0)
(-3.00231 2.72987 -3.01704e-21)
(6.83931 0.151708 6.23507e-21)
(4.57699 -1.48865 -1.53906e-20)
(6.51068 0.183967 -7.84328e-21)
(6.71354 1.34914 1.12128e-20)
(8.49493 -3.95684 2.55249e-21)
(4.11726 -1.87337 2.80308e-20)
(5.06976 -2.91694 -4.81169e-21)
(7.19169 -1.05153 9.05054e-22)
(5.99067 0.0307555 -2.56079e-21)
(4.66012 -2.25619 -3.61562e-21)
(3.12791 3.12657 -4.26753e-21)
(4.84213 4.98959 -6.19089e-21)
(5.0617 -2.41108 5.67017e-21)
(6.93874 1.09117 0)
(3.8173 5.02751 -1.00706e-21)
(6.4568 -0.0105166 -1.49483e-20)
(8.07187 1.51063 -1.36608e-21)
(4.49259 -1.39131 -1.38822e-20)
(5.7934 -2.12044 -1.13345e-20)
(6.52956 -0.0570913 2.94855e-20)
(8.40447 -0.250213 -1.69451e-20)
(8.45897 5.6331 7.22622e-22)
(8.02888 -0.00159865 2.43799e-21)
(3.90432 -0.824552 -2.88622e-20)
(6.58063 -0.0151032 -1.335e-20)
(3.8685 -1.00126 0)
(0.589956 -2.31556 -2.21428e-20)
(6.50811 0.0264941 2.19244e-20)
(0.811444 0.270488 -2.67208e-21)
(-1.83744 -0.770246 0)
(5.60648 -2.59058 0)
(6.0542 0.991614 1.19671e-20)
(3.56346 -0.800798 1.75715e-20)
(7.8704 -4.73504 -7.15668e-21)
(6.54342 -2.24865 -7.1256e-21)
(6.96669 -1.45246 1.87575e-20)
(8.70561 1.1983 0)
(6.05755 1.06201 6.83456e-21)
(1.82581 -10.7477 -8.1088e-22)
(7.1332 2.29773 -7.23949e-21)
(6.17311 -1.01152 -1.38983e-20)
(-2.49147 1.73467 -1.97479e-20)
(6.87661 -1.57433 7.18255e-21)
(7.61439 -1.63726 -8.00367e-22)
(6.51214 2.76799 0)
(5.80315 -0.332073 3.88803e-21)
(5.71596 -0.0438594 2.1759e-21)
(-3.06572 2.09564 6.88622e-22)
(3.26192 -1.61533 2.53546e-20)
(6.1108 -1.01974 2.08914e-20)
(3.25551 -2.11853 -4.3077e-21)
(-3.96774 2.81368 -9.10908e-21)
(6.43237 -0.247017 4.42617e-21)
(6.5218 0.0777885 1.19918e-20)
(-2.23725 2.15384 -1.62367e-21)
(6.90919 2.27117 1.43705e-20)
(0.207611 0.0750935 -1.01256e-20)
(3.95934 -1.93047 -9.0724e-21)
(-3.47756 3.28649 0)
(6.18127 -1.49559 -4.70463e-21)
(-1.47003 1.6211 -4.95247e-21)
(4.34926 -0.756382 2.68709e-20)
(9.1072 -0.902113 0)
(9.28469 -3.36823 2.69223e-21)
(3.99755 -1.68811 6.24231e-21)
(5.97546 0.112103 -2.30826e-20)
(-4.4821 2.7604 -1.00091e-20)
(1.99529 2.59926 1.62889e-21)
(6.9729 -0.769844 1.03724e-20)
(6.63463 0.144 1.55695e-20)
(5.59842 -2.57156 -1.43799e-20)
(7.46488 -0.783258 3.31592e-21)
(5.92582 -6.02756 -1.97964e-20)
(6.41485 -0.00421605 1.40317e-20)
(6.3601 -0.271345 -7.09002e-21)
(6.34482 0.274125 -8.25596e-23)
(7.50898 -0.0303369 -1.63965e-20)
(3.89725 -1.74643 -1.20254e-20)
(7.02539 -0.957183 0)
(0.0618777 1.18284 1.04417e-20)
(6.3576 0.072638 1.63974e-21)
(2.72314 -3.72216 -1.38008e-20)
(7.29824 0.0337783 6.12711e-21)
(6.79827 -1.46886 -1.06181e-20)
(5.99771 0.0548759 -1.96517e-20)
(6.23634 0.76002 4.17198e-21)
(-3.35208 1.94142 -1.04264e-20)
(6.83116 0.0129841 0)
(6.49528 -3.45061 1.54341e-20)
(7.3276 1.36588 9.25781e-21)
(4.74553 -1.85806 0)
(6.3391 0.228752 9.73721e-21)
(6.96467 1.22152 1.22065e-20)
(6.48374 -0.0646504 1.37845e-24)
(7.75372 -2.68967 -4.16593e-21)
(7.65283 1.14289 0)
(5.39727 0.750617 1.76212e-20)
(4.74987 -1.83932 6.03288e-21)
(4.99966 -2.36379 1.16946e-20)
(6.27138 -0.716539 0)
(4.65333 0.481469 -2.41937e-20)
(5.21911 -9.24659 2.31166e-20)
(7.1477 3.52136 5.63621e-21)
(3.93659 -0.869083 2.82136e-20)
(8.8559 -0.268649 2.60842e-21)
(-5.32707 3.16341 1.00457e-20)
(5.95241 -0.456234 -1.39709e-20)
(7.5314 -1.19149 4.05283e-21)
(5.45208 0.196201 -1.22164e-20)
(7.00351 0.178432 0)
(5.98108 0.0742353 -9.65565e-21)
(-0.00182613 -0.0428369 -7.22476e-21)
(-1.73875 0.464725 0)
(7.38089 -2.79123 0)
(-4.01652 4.61782 0)
(0.721854 -0.630341 0)
(6.12436 0.744092 0)
(3.75579 -0.799096 0)
(5.30792 -1.10504 -2.21475e-22)
(10.5669 -0.99389 -2.98821e-21)
(7.35487 0.733248 0)
(5.37684 0.681756 2.58675e-20)
(3.18782 2.82364 -7.43356e-20)
(6.19771 0.516933 1.13289e-22)
(-1.43457 1.55405 -2.53506e-21)
(3.77394 -0.183295 -3.35723e-23)
(-3.99059 2.27529 8.95674e-21)
(6.25967 0.0394802 -8.65929e-21)
(7.38589 -0.0691131 -6.21234e-22)
(6.06349 0.723744 -8.347e-21)
(5.65414 0.368174 -1.74389e-20)
(5.83214 2.2826 -1.1384e-20)
(9.34666 2.30498 0)
(-4.57908 1.1276 1.07053e-21)
(4.1658 -1.37792 -2.40185e-20)
(6.01915 0.0412519 -2.89916e-20)
(7.0149 -2.12754 -1.80725e-20)
(7.06172 -0.0714429 2.46964e-21)
(7.96592 -1.68384 8.02347e-21)
(6.66564 -1.19455 -2.14542e-21)
(6.4229 -1.79438 -1.30413e-20)
(6.05451 0.46816 8.90492e-21)
(7.95398 4.89168 0)
(5.43105 1.97056 4.57909e-21)
(5.25341 -0.0689043 -3.66728e-21)
(7.12065 -2.03744 0)
(8.8151 3.79239 0)
(5.83752 -2.67867 -4.84324e-23)
(-5.54246 3.39688 1.09683e-20)
(5.07976 -1.29005 9.90626e-21)
(10.2335 -1.82864 0)
(5.84083 -0.338277 -1.79566e-20)
(5.50402 0.385411 -3.28214e-21)
(-0.529445 0.622287 6.93224e-21)
(6.45917 0.64488 7.09374e-21)
(-4.19762 2.42875 0)
(-5.1063 1.12199 2.21729e-21)
(6.58912 0.973663 0)
(5.37076 -0.340247 -4.78434e-21)
(10.2925 -0.529357 -7.59587e-21)
(5.99052 0.0801641 -1.0758e-23)
(6.81785 1.51561 -2.03619e-20)
(7.74146 2.83692 -5.37763e-22)
(5.4782 -1.7024 2.13554e-20)
(-0.657287 -5.66395 0)
(6.07049 -5.65454 -3.42042e-21)
(-2.05403 -5.33221 0)
(7.48001 0.704015 2.00587e-21)
(-1.74966 1.44698 1.50965e-20)
(7.47601 -2.79084 -6.92459e-22)
(8.78994 -1.13416 -1.63931e-20)
(0.0176166 0.964286 -1.1866e-20)
(4.47219 -2.09169 -1.35067e-20)
(4.28478 -1.39014 -1.41641e-20)
(6.19216 -2.84505 -2.94951e-21)
(6.26507 -5.24037 2.86596e-21)
(3.94225 -1.76392 9.84489e-21)
(4.45031 -1.47188 1.55725e-20)
(4.91514 -6.95876 1.27635e-20)
(7.19324 -4.47178 -9.46888e-22)
(5.76663 -1.91799 1.12309e-20)
(-0.349209 0.12147 3.6883e-21)
(7.66454 -0.0881916 1.99605e-21)
(1.52238 0.964511 6.38241e-20)
(6.78066 0.949593 -5.40222e-21)
(6.91082 -1.87946 0)
(0.775836 -0.45775 -1.09682e-20)
(6.25653 -0.0132255 -1.59072e-20)
(5.98976 0.342769 0)
(7.41718 0.650951 0)
(4.73061 -6.81078 -3.95175e-21)
(8.34988 -1.57992 5.38186e-22)
(6.99873 0.454048 -1.43618e-20)
(6.40042 -1.39031 2.28412e-20)
(5.81576 2.25532 1.00472e-20)
(5.43901 -0.0852339 2.03087e-20)
(-1.22595 1.66112 4.88454e-23)
(5.40762 1.4004 0)
(4.5485 -1.55725 1.50077e-20)
(0.280166 2.98983 1.76406e-21)
(0.30363 0.842748 9.10599e-21)
(5.43666 -2.14406 3.61608e-21)
(5.62247 -2.55911 -4.80959e-21)
(6.20925 -0.0563402 1.04642e-20)
(11.3588 2.94763 1.70716e-21)
(6.48239 -0.87996 -8.89425e-21)
(-1.19802 2.05701 -8.95637e-21)
(6.97205 0.445911 1.08443e-20)
(5.82493 0.0659432 7.30284e-21)
(3.8506 -0.980384 -1.15898e-20)
(5.81073 -0.458218 1.10679e-20)
(8.85171 6.46833 0)
(6.97935 0.82473 1.21034e-20)
(5.90554 0.0868414 1.64772e-21)
(4.75623 -1.16086 -4.86414e-21)
(5.62319 4.21865 -5.18211e-21)
(5.69286 -1.88353 8.1139e-21)
(5.99996 0.011675 3.2504e-21)
(4.42464 0.00710047 -1.77733e-20)
(7.29936 -1.87872 0)
(9.21328 -3.42946 -2.13085e-20)
(6.55035 0.197166 1.06106e-20)
(7.28472 0.200905 0)
(4.54471 -0.258992 1.01607e-20)
(6.55989 0.66969 0)
(4.90125 4.15685 2.0721e-20)
(8.05259 -0.157767 0)
(5.78413 1.51095 0)
(7.83399 0.45852 4.98472e-21)
(6.90521 0.341361 8.30036e-21)
(8.05378 0.356395 3.68856e-21)
(5.76692 0.324764 -8.21498e-21)
(4.75419 2.46449 -6.24213e-21)
(5.9959 0.272281 -3.81563e-21)
(6.19109 0.759316 0)
(3.16487 2.06682 -1.71133e-22)
(7.13521 0.290843 -7.39378e-21)
(5.64964 -0.20484 1.04093e-20)
(6.90211 -1.85739 0)
(8.16337 1.46171 -1.43011e-21)
(6.29498 4.01406 -9.65416e-22)
(8.1912 0.0418399 7.95725e-21)
(6.04621 -3.897 0)
(-0.590207 1.33768 9.01265e-21)
(6.11801 0.457937 0)
(6.57426 -0.706751 4.51561e-21)
(-0.361995 -0.155587 0)
(7.63549 1.61679 0)
(4.64856 -3.00965 0)
(6.29449 -2.4091 0)
(-2.02212 2.5004 -1.47514e-21)
(1.42182 0.30042 -2.24003e-21)
(5.71581 -0.303894 -1.28481e-20)
(-1.19955 -2.04553 -1.17481e-20)
(4.1703 -1.82472 0)
(2.34166 -3.30477 -8.98016e-21)
(-0.606788 -0.341579 -9.90042e-21)
(5.01326 -2.3732 0)
(4.74965 -1.75713 -1.65787e-20)
(6.20273 -3.21259 1.60221e-21)
(6.74734 0.904801 1.4287e-20)
(7.53583 -2.51208 6.37399e-21)
(5.6191 0.318746 0)
(6.74039 -2.21924 0)
(9.04782 0.624486 2.18197e-23)
(3.84011 3.58974 -1.13947e-21)
(6.8855 -2.70907 6.27393e-21)
(5.1297 -6.70533 2.16357e-21)
(5.9978 0.0246416 7.15367e-22)
(6.50398 -1.52637 2.31352e-23)
(6.0588 0.469009 1.27437e-20)
(6.93621 -6.34662 9.87226e-21)
(5.91091 -1.76974 0)
(-1.57413 1.67121 0)
(7.36771 -0.673889 0)
(0.5771 -0.169047 0)
(5.46482 -1.19113 7.51072e-21)
(7.69577 -0.195383 0)
(-1.64142 2.09869 1.89361e-20)
(7.97314 -4.17417 -7.88739e-23)
(4.35958 -1.5075 -2.33235e-20)
(4.05795 1.46214 3.6465e-20)
(1.43091 0.582354 -5.57821e-21)
(-0.106193 2.0922 -9.61089e-21)
(6.46471 0.0765689 2.57338e-21)
(-1.55413 2.61213 -6.87606e-21)
(5.58423 -6.95378 8.91363e-21)
(8.00217 0.424979 0)
(7.28957 -1.52615 0)
(4.51174 8.11462 0)
(6.77712 -1.53742 5.70125e-21)
(6.65132 -4.74404 0)
(5.49872 1.35598 0)
(6.00325 0.0301694 0)
(5.57002 -1.48731 8.29495e-21)
(6.20629 0.485667 -1.41223e-20)
(3.7766 0.263696 0)
(5.75606 -1.30091 8.13359e-21)
(5.92775 0.492808 -1.08758e-20)
(7.10858 2.1732 1.51666e-20)
(5.10465 -2.37024 1.08649e-20)
(5.66782 1.53983 3.61627e-23)
(2.22307 1.91959 6.86455e-22)
(10.1879 4.66354 -2.97513e-21)
(5.04021 0.870944 8.91617e-21)
(6.90288 0.373823 -1.1287e-20)
(6.80823 -2.55619 1.46523e-20)
(5.54556 0.023741 -1.20459e-20)
(6.3397 -9.72094e-05 0)
(2.42279 -4.36067 1.05385e-20)
(5.88075 0.134023 1.33227e-20)
(1.90473 -11.0278 1.31699e-20)
(6.64156 -1.1336 -6.21866e-21)
(3.6406 -0.861962 -1.91131e-20)
(6.92434 0.299911 1.92329e-21)
(8.46791 0.854436 -1.84481e-21)
(5.99816 0.246491 0)
(5.105 5.0785 -2.45814e-21)
(10.992 -1.89969 1.96101e-21)
(4.61228 0.93703 -1.50962e-20)
(-5.71408 2.31561 -1.55662e-20)
(6.01742 -0.00310301 7.02669e-21)
(7.19051 -0.802864 -9.9148e-22)
(8.57501 -0.171998 -1.9279e-21)
(7.69373 -0.664757 0)
(10.0334 -3.50757 0)
(4.74186 -2.27967 1.2995e-20)
(-4.55907 2.75051 1.08113e-20)
(-1.37542 5.50168 7.15237e-22)
(5.87708 0.124424 2.64816e-20)
(4.86597 4.7095 7.04103e-21)
(4.60964 0.382835 0)
(5.4869 0.061342 0)
(5.1027 -1.28656 -4.72661e-23)
(7.43369 0.363649 7.69247e-21)
(5.78809 1.43525 1.75047e-20)
(8.5466 -0.379735 0)
(5.90787 -0.174997 0)
(6.47458 -1.96354 1.90546e-20)
(6.1793 -0.663947 1.12389e-20)
(0.918531 6.16579 2.7487e-21)
(6.01049 -0.0762052 0)
(8.83304 1.35957 5.40085e-22)
(5.74853 -1.88938 1.75712e-21)
(-1.4776 1.8001 -6.58344e-21)
(6.05655 -0.171167 -1.51128e-20)
(9.92755 -0.676019 0)
(8.39396 -1.53619 -4.99381e-22)
(6.86394 -3.80094 -8.01654e-21)
(-1.06522 3.68975 0)
(3.15137 -1.3392 2.27589e-20)
(5.75689 0.213969 -8.56872e-21)
(0.431679 0.0363491 2.33649e-23)
(10.3329 -1.45042 4.5854e-21)
(6.14163 5.87913 2.54082e-21)
(6.42301 0.0626226 0)
(3.6082 -1.39736 -6.99913e-23)
(5.64995 5.32047 -6.25615e-21)
(6.47955 -2.50483 -1.74555e-20)
(6.09207 0.722712 9.88418e-21)
(-0.241042 -6.55879 4.5462e-21)
(5.93977 0.013046 -3.34995e-20)
(3.39988 -2.05168 2.57864e-21)
(10.9433 4.9831 1.00039e-20)
(5.48055 -1.39653 0)
(7.24847 -1.75278 1.31089e-20)
(3.8829 -1.81016 7.95643e-21)
(7.02853 -0.369329 -2.09854e-20)
(5.91798 0.0976662 -1.20638e-20)
(6.46902 -0.688825 -4.49726e-21)
(5.26609 -0.732797 2.65131e-20)
(7.46117 -0.0704359 -2.32126e-21)
(5.4739 0.0793554 6.89299e-21)
(6.09973 -2.93928 7.91935e-21)
(8.35566 -1.08368 1.88659e-21)
(7.00313 2.4333 1.14387e-20)
(7.66564 -4.47962 5.63035e-21)
(6.38375 -0.089605 0)
(4.45497 7.11383 0)
(3.49418 0.200606 0)
(4.35325 -1.40765 1.78563e-20)
(6.04268 0.0598872 -1.92961e-20)
(5.46065 0.417366 0)
(4.86345 -1.20793 -1.46766e-20)
(5.43336 0.351531 0)
(5.49144 -1.0989 -1.25076e-20)
(4.94384 -0.150763 1.09995e-20)
(5.85235 -1.67112 -1.2397e-20)
(6.53287 0.0607395 0)
(5.83657 0.0323446 0)
(6.2941 0.185023 -6.92311e-21)
(7.30101 0.618065 -3.60916e-22)
(7.19529 -0.184138 -4.21309e-21)
(6.61342 4.1962 -3.67971e-22)
(9.0931 -0.929379 0)
(5.4606 -2.08731 -6.06311e-21)
(-1.00379 0.823255 0)
(2.98609 1.80075 -9.87106e-21)
(7.80408 2.78668 0)
(7.36507 -0.790152 1.97256e-21)
(3.92676 -0.750908 7.48784e-21)
(4.84563 -0.672678 8.13091e-21)
(5.70845 0.105883 6.54218e-21)
(7.82027 -4.24007 -8.75155e-21)
(6.09485 -0.752055 2.81078e-20)
(6.13347 0.747821 -1.07407e-22)
(7.22759 -1.54318 -9.71516e-21)
(6.19286 -1.5214 -6.66257e-21)
(-1.07679 0.436699 4.83779e-21)
(7.39931 1.01208 0)
(5.93464 0.111368 1.68897e-23)
(4.93034 -1.36612 0)
(10.9474 4.05247 -5.62144e-21)
(5.51608 -2.08503 -3.23312e-21)
(5.28523 -0.650954 -8.70983e-21)
(0.636727 4.57602 1.2846e-21)
(7.45374 0.0594927 6.10226e-21)
(5.23016 -0.377072 1.78823e-20)
(7.86465 -0.170531 -9.86226e-21)