/*--------------------------------*- C++ -*----------------------------------*\
| =========                 |                                                 |
| \\      /  F ield         | OpenFOAM: The Open Source CFD Toolbox           |
|  \\    /   O peration     | Version:  2306                                  |
|   \\  /    A nd           | Website:  www.openfoam.com                      |
|    \\/     M anipulation  |                                                 |
\*---------------------------------------------------------------------------*/
FoamFile
{
    version     2.0;
    format      ascii;
    arch        "LSB;label=32;scalar=64";
    class       volVectorField;
    location    "1.9";
    object      U;
}
// * * * * * * * * * * * * * * * * * * * * * * * * * * * * * * * * * * * * * //

dimensions      [0 1 -1 0 0 0 0];

internalField   nonuniform List<vector> 
13486
(
(5.57249 -0.636231 1.8287e-20)
(6.60443 1.24446 8.32771e-21)
(10.5912 0.169784 0)
(-5.69951 1.69141 -2.29992e-20)
(8.78717 -1.98852 5.90766e-21)
(9.81704 0.73597 6.55229e-22)
(9.86289 -1.6314 1.02011e-22)
(7.46483 -2.69663 -9.78104e-21)
(7.46128 -1.46098 0)
(7.88391 3.0567 0)
(-4.47002 12.8612 -5.43589e-20)
(9.94816 -0.364491 0)
(4.906 -1.41342 -1.83442e-20)
(9.5992 3.09852 1.10961e-21)
(9.34196 -1.39932 2.96874e-21)
(7.73835 3.18907 -4.97108e-21)
(6.22725 -1.03626 2.3847e-20)
(3.00552 -1.97886 2.93452e-21)
(8.97798 -0.165288 8.06403e-23)
(6.1575 -0.108712 -1.82172e-20)
(-4.65707 -1.01901 -7.79818e-21)
(4.98353 -1.4651 2.36326e-20)
(6.63697 1.19579 -6.67109e-21)
(15.2027 -4.83376 0)
(8.19866 2.46922 1.56247e-21)
(14.4815 -4.67568 -1.18124e-20)
(0.757889 -0.0280312 2.76825e-20)
(11.3107 -0.606652 1.90503e-20)
(7.95568 0.361637 0)
(10.7103 -2.05283 -1.40196e-20)
(-3.47344 -3.44262 -4.42566e-21)
(9.63482 -1.03497 -3.94108e-21)
(13.8548 -0.0478053 1.6984e-20)
(9.28972 -0.65743 0)
(7.45087 -2.56545 0)
(7.289 0.0281993 6.4361e-23)
(6.45197 0.677991 -1.61061e-21)
(5.89028 -2.71872 9.57071e-21)
(6.82681 -0.730127 -6.60935e-22)
(7.66815 -0.830209 9.13638e-21)
(9.17603 -3.11363 0)
(4.13522 -1.93053 -2.17237e-20)
(8.5006 0.0488114 0)
(8.19408 2.1578 -7.89459e-21)
(8.25254 2.16858 3.20727e-21)
(9.90406 -0.353691 2.61233e-21)
(-0.252047 4.68975 5.15715e-20)
(7.89708 0.360299 -3.9099e-24)
(6.5358 0.689299 1.22229e-21)
(11.3648 0.285204 7.47088e-21)
(7.94 0.132383 1.00457e-20)
(7.01795 -0.257185 0)
(10.0897 -0.693694 -3.68824e-21)
(6.12244 -2.18482 -1.37864e-20)
(3.29629 -2.69368 0)
(8.70676 -2.0309 -3.96158e-21)
(9.07203 2.11177 6.80063e-22)
(7.04655 -0.403731 -2.69637e-21)
(13.7529 0.0331214 1.97769e-20)
(5.53688 1.17083 0)
(-5.38316 12.3602 -7.88437e-20)
(5.56348 1.26082 0)
(13.4428 5.88708 -9.08895e-21)
(-4.60199 -0.767182 -7.89917e-23)
(6.8173 -10.2829 0)
(6.35146 0.802045 -8.41049e-22)
(-6.30293 1.98332 -2.65819e-20)
(5.56071 0.391478 6.07361e-21)
(7.47945 -1.56606 -5.27619e-21)
(6.8629 0.0900297 6.80235e-22)
(-6.70431 2.34382 3.06934e-20)
(3.29981 -2.51161 9.49074e-23)
(7.63445 -0.44553 6.77104e-21)
(-3.31274 -3.04391 -2.19725e-20)
(6.31107 1.22794 -2.02722e-22)
(9.17912 1.99371 -1.37372e-22)
(6.44028 1.19802 5.3699e-22)
(9.34522 -1.46587 -1.20882e-21)
(-1.62081 8.56411 -2.74323e-20)
(7.10094 -2.17092 0)
(7.72403 0.102236 -1.52293e-23)
(6.46279 1.72925 -5.35453e-22)
(7.89496 5.30113 3.68734e-21)
(10.7201 0.0855678 -6.95921e-23)
(5.52045 -0.630487 -3.56276e-20)
(5.7686 7.01999 0)
(6.04936 -1.07469 -8.85475e-22)
(7.9553 0.221456 -1.52959e-20)
(7.39745 0.877004 -6.8482e-21)
(7.11774 4.25745 -5.1536e-21)
(9.74573 -1.01327 -2.30048e-21)
(7.88706 -2.30289 -5.01884e-21)
(5.70095 -1.00529 4.69498e-21)
(6.48346 0.47124 4.7008e-22)
(6.88076 -2.08296 2.17871e-21)
(7.84171 0.326061 -3.27085e-24)
(0.152096 1.65409 0)
(-8.8187 1.84013 1.98549e-20)
(7.69361 -0.811696 -1.74374e-20)
(6.75838 -0.463301 6.84394e-23)
(7.73105 0.037371 0)
(9.54949 3.13362 3.18426e-22)
(-8.96282 1.21123 1.59704e-21)
(6.95763 -0.35102 3.16549e-21)
(5.30914 6.80088 0)
(5.55548 0.950075 4.32348e-22)
(7.81112 0.195658 4.73503e-23)
(6.8417 -0.828789 -1.47767e-21)
(-0.747544 6.71903 3.49009e-20)
(7.55532 -3.46193 0)
(6.24409 -2.94919 0)
(9.60528 -1.22215 -3.46153e-21)
(6.18842 -2.13874 1.19932e-22)
(8.95439 1.13761 -8.16522e-24)
(4.01091 -0.0339232 0)
(6.12608 -2.907 -8.31192e-21)
(8.10734 2.63701 0)
(9.57724 -0.620651 0)
(7.61952 -0.422403 0)
(6.82411 0.640408 -6.71938e-22)
(3.38817 -1.95303 -1.31187e-21)
(-7.41182 12.1455 0)
(6.80002 -1.89764 0)
(6.80387 -0.724548 2.11762e-21)
(7.04662 -2.42502 0)
(7.03953 -0.23452 0)
(8.47374 -1.02609 1.9743e-22)
(8.65139 0.433706 2.75098e-21)
(8.67651 -0.416347 -1.88609e-21)
(7.47411 -8.32831 -1.03207e-20)
(6.94115 -0.175794 -3.32704e-22)
(-1.42516 4.95359 -1.27409e-20)
(2.89823 -2.67632 4.02682e-20)
(-2.56732 0.818511 2.93526e-20)
(7.96876 0.0637718 -1.66123e-21)
(7.57042 1.83298 -7.48481e-21)
(3.76834 3.38212 -4.93541e-21)
(7.41814 -3.34118 0)
(6.82307 0.600007 1.8946e-22)
(7.5661 -2.16229 -3.435e-21)
(12.6163 0.483367 -1.59677e-20)
(10.1515 -0.755732 3.09164e-21)
(9.71405 -0.799754 0)
(7.06526 -2.03372 0)
(9.18353 0.031005 2.13806e-23)
(10.8168 4.73559 -4.61237e-20)
(8.64386 -0.148495 1.45042e-22)
(-3.62671 6.99835 0)
(11.4833 0.374602 0)
(7.98077 0.345863 0)
(8.04759 0.0507938 1.47547e-22)
(9.30279 -1.68615 0)
(7.75795 0.0873094 1.59386e-23)
(6.22364 1.64434 -4.51867e-21)
(8.72385 1.429 0)
(10.8178 0.153897 0)
(7.3774 -3.30169 0)
(-1.18608 0.664701 1.21353e-21)
(6.50488 -2.50214 1.98225e-20)
(8.11782 -3.45675 -1.08145e-20)
(10.9161 0.163801 4.2698e-21)
(6.5336 -2.4241 -2.97676e-20)
(10.084 -0.921061 1.59368e-21)
(3.77658 -1.84948 9.57002e-21)
(7.11161 -0.298383 0)
(10.0178 3.12511 -2.66461e-21)
(9.29812 2.90308 -1.25374e-22)
(1.41351 -0.194766 -2.26097e-20)
(8.50443 0.0333039 -2.13337e-22)
(-2.71696 0.771885 7.79785e-21)
(1.51163 -5.61199 -2.61694e-21)
(8.66559 1.30096 2.35035e-21)
(7.86506 0.349809 -1.2081e-20)
(9.06272 -0.814367 2.99721e-22)
(7.74404 0.191749 -2.16459e-23)
(-8.9143 -3.18377 0)
(9.66341 4.42253 3.93395e-21)
(13.1701 1.08068 2.07362e-20)
(7.82541 0.1594 -1.67555e-20)
(9.75715 -0.756708 0)
(7.75146 -1.05428 1.85486e-20)
(9.00017 1.04133 1.95577e-24)
(9.35978 -0.808485 -1.24916e-22)
(-11.3815 6.40928 0)
(10.5297 -0.263499 2.50934e-22)
(10.7875 -0.455521 -8.63251e-21)
(8.201 0.340404 -1.41775e-23)
(10.2752 -1.39371 -3.88598e-21)
(9.0079 -3.1319 0)
(5.63893 -2.71274 -1.11769e-20)
(6.69805 0.711041 0)
(10.0561 0.257103 0)
(7.21886 -0.625388 0)
(5.27714 3.43218 -9.31347e-21)
(7.29819 -0.734443 0)
(-6.7343 13.3277 -1.55681e-20)
(7.24028 -9.4794 2.305e-20)
(11.1613 0.0821286 2.43605e-21)
(5.26146 -2.57268 -4.29507e-21)
(9.92695 2.95507 -1.13804e-21)
(-3.23288 -3.3431 4.24071e-21)
(8.69587 0.49868 -8.15006e-23)
(5.8555 -2.78975 -1.10905e-20)
(8.06227 -3.35139 1.95214e-21)
(8.57394 -3.52176 1.31876e-20)
(7.44463 -0.722627 -2.27806e-21)
(1.9957 -2.54817 7.85328e-22)
(7.37302 -0.116453 1.38033e-20)
(7.14365 -0.63672 0)
(10.5095 -0.182577 0)
(10.9937 -0.808822 1.30159e-20)
(12.6469 -6.531 2.25486e-20)
(6.25047 -0.0366105 1.67299e-20)
(7.61958 0.229103 6.43893e-23)
(9.79222 0.933517 -7.55623e-22)
(8.15045 -3.02727 1.64187e-21)
(11.0003 -1.82398 0)
(7.23571 3.98212 1.41626e-20)
(5.88209 -1.15407 0)
(11.839 3.19654 0)
(6.16378 0.261415 -4.54472e-20)
(11.5007 0.503395 0)
(7.52174 -2.13627 8.06884e-21)
(10.9659 0.24832 0)
(10.1755 -0.737501 -6.19445e-22)
(4.97526 -2.26218 6.76527e-21)
(10.3076 1.66735 -1.81644e-22)
(-4.23398 -6.39401 6.08587e-21)
(8.01849 -2.03214 2.6191e-22)
(6.34569 -1.33362 -1.77033e-22)
(7.79273 -1.07506 -5.94507e-21)
(7.09131 -1.88125 6.13792e-21)
(12.8569 0.376155 1.99976e-20)
(4.01967 -1.85449 7.42928e-21)
(-7.31297 -1.26437 0)
(4.83176 -2.33563 7.99587e-22)
(9.7896 -1.09268 6.61301e-21)
(10.1642 0.199944 2.73823e-23)
(4.8612 -2.31258 2.19818e-20)
(9.33606 -0.485381 0)
(14.1467 -0.436891 0)
(8.05686 0.271007 1.8616e-20)
(9.24879 0.726383 0)
(4.69067 -2.31143 7.30729e-21)
(6.58116 -0.872528 -1.34193e-21)
(7.13521 0.347501 0)
(9.70697 -0.119003 -1.22255e-21)
(12.6557 -3.43217 3.22299e-20)
(0.0902951 -2.81138 3.83665e-20)
(8.04578 2.07159 0)
(-12.679 3.8512 -1.36531e-20)
(3.89628 0.0771946 2.6593e-21)
(5.6967 -2.78851 1.06143e-20)
(6.81108 -0.846729 0)
(7.60431 -1.83785 1.63527e-21)
(-8.34792 -3.30267 1.30992e-20)
(9.61704 -1.05029 3.25611e-21)
(8.04236 -3.07664 -2.07475e-21)
(-1.00684 -0.234015 -1.27073e-21)
(14.0601 -0.403442 1.52581e-20)
(7.0043 0.978402 0)
(6.54622 -0.884234 5.63962e-24)
(9.34977 -1.41308 -6.92538e-21)
(-9.83681 -1.74336 -1.63558e-20)
(8.39488 -2.76287 -6.27875e-21)
(-11.4626 7.08049 0)
(8.11342 -1.99396 -3.95456e-21)
(-4.3819 -2.78814 -7.57763e-21)
(8.12837 -0.0117247 -7.86691e-21)
(4.541 -1.56285 0)
(5.91449 3.88153 6.71005e-21)
(7.75532 0.206934 -4.52996e-21)
(10.9415 -1.97837 0)
(10.109 -0.557492 2.04084e-21)
(5.11141 -2.3727 9.03752e-21)
(12.0357 -3.38721 -1.80558e-20)
(7.62292 -1.69565 0)
(4.22456 -4.82308 0)
(6.87408 -0.903789 -1.59745e-21)
(9.07999 -0.469738 -2.79071e-22)
(4.32389 -5.14736 4.2381e-21)
(8.2843 -0.787558 -6.6285e-21)
(7.69949 0.300919 9.96484e-21)
(17.7048 -2.20551 -3.84855e-20)
(-9.02484 11.4481 8.78875e-20)
(1.9715 -1.09269 4.33811e-20)
(12.5832 0.848735 1.65271e-20)
(8.69461 -0.490625 2.48014e-21)
(11.2283 -0.722955 7.94636e-22)
(8.01402 -0.0307764 0)
(-7.18413 -0.431735 0)
(5.67127 -0.877305 1.75022e-21)
(6.06931 -2.87503 8.34912e-21)
(7.98452 0.0824937 -1.61931e-21)
(9.67124 -1.03178 6.09127e-21)
(10.0237 -1.24631 0)
(10.444 -0.0247818 -5.7009e-21)
(10.1523 -0.476798 -1.53664e-21)
(7.63445 0.294677 -9.14098e-21)
(9.736 -2.20123 1.71198e-21)
(7.77517 -0.579726 -1.87925e-21)
(2.21367 -2.58069 2.15141e-22)
(9.24417 -0.320845 2.37822e-22)
(9.58205 -1.05159 3.769e-21)
(6.66754 0.486241 2.96261e-22)
(7.01116 -3.39446 0)
(1.25427 -0.609781 0)
(8.80929 -0.175739 2.46526e-21)
(6.2846 -1.10956 9.10329e-22)
(6.60415 0.730199 0)
(8.54891 5.75838 -4.7552e-20)
(-4.80148 1.73843 0)
(9.24749 4.35695 -8.92867e-22)
(9.88959 -1.21355 -3.52204e-21)
(7.53156 6.88324 0)
(7.51701 1.61158 -4.52314e-21)
(5.3018 -0.97335 -2.65251e-21)
(7.37016 0.85764 -5.84161e-22)
(7.35546 -0.0931589 -1.51964e-20)
(8.3454 -1.99195 0)
(6.44473 0.857394 1.51181e-21)
(6.03165 -0.635939 -5.98522e-23)
(7.85989 0.182495 2.10876e-21)
(6.43603 0.69906 -8.79899e-21)
(2.31721 3.34295 9.14302e-21)
(9.88773 -0.982912 4.54794e-21)
(8.63876 -1.43933 -1.8428e-20)
(8.39575 -0.774961 0)
(10.3769 -0.420288 6.52543e-23)
(8.76421 -1.47141 -3.43158e-21)
(8.01171 0.111029 2.21388e-20)
(7.96926 -2.31722 0)
(9.48446 -1.04314 -1.10173e-21)
(5.64177 1.65713 0)
(9.6171 -1.65909 -4.35252e-21)
(7.20684 -1.97204 -5.89678e-21)
(2.9244 -1.27824 8.94792e-21)
(9.2334 -1.75906 -4.73866e-21)
(8.08386 0.804202 0)
(6.46814 -0.908562 -2.20297e-21)
(8.21764 -1.97523 4.34524e-21)
(6.55986 0.656099 8.32064e-21)
(8.81575 -1.50391 1.31949e-20)
(9.34561 -0.786883 6.04828e-21)
(-12.5589 7.54263 -4.94361e-20)
(7.88681 0.347373 1.34961e-23)
(8.76594 -0.790851 0)
(3.75876 -1.10644 2.11791e-20)
(11.7433 3.17759 0)
(5.69348 -0.892626 1.0738e-22)
(8.77534 -0.431653 1.09206e-20)
(10.2817 -0.431326 -1.36684e-21)
(10.1148 -0.560167 1.53164e-21)
(-0.924351 2.96227 -3.29397e-20)
(7.7239 0.294252 1.14264e-20)
(7.4344 0.109597 0)
(-3.19697 -3.68988 -2.20166e-20)
(8.4915 -1.03929 -3.93454e-21)
(6.5581 -1.4145 -5.50135e-22)
(11.8558 -5.98322 1.80329e-20)
(10.3615 -0.155341 0)
(10.1911 -1.01268 3.05658e-21)
(7.0746 0.678758 1.77143e-20)
(7.8349 0.244513 1.37216e-20)
(10.7704 -2.1748 0)
(7.77448 0.0535255 1.41232e-24)
(9.95575 -1.15973 -6.21088e-21)
(-1.54721 2.32589 8.20741e-21)
(6.12741 -0.0433041 2.32772e-21)
(8.53583 -0.904375 3.75281e-21)
(8.70494 0.0268795 -1.55952e-23)
(8.69767 -0.74443 0)
(10.0634 -0.673618 -1.81887e-21)
(-12.7275 4.73047 1.56181e-20)
(9.60189 1.79207 9.1086e-22)
(8.02869 0.140422 8.41262e-21)
(6.50184 0.0260467 0)
(6.13834 -0.854858 -2.72791e-21)
(8.17323 7.84935 0)
(12.9993 3.82552 -1.02484e-20)
(8.18878 -0.0653668 0)
(7.96464 -2.66104 -1.87877e-22)
(5.11208 -0.30235 -5.0331e-21)
(6.06089 3.27607 1.61262e-20)
(-1.13998 2.23746 -2.66242e-20)
(7.76712 -1.71169 0)
(9.16914 0.332967 -1.30597e-21)
(8.06304 0.86456 -4.78711e-21)
(6.8098 -3.83545 -1.64656e-20)
(-2.67609 -1.92617 4.62365e-22)
(6.3799 -0.13841 -2.51976e-20)
(11.1595 -1.73339 6.7607e-21)
(8.24512 0.843918 3.16764e-21)
(5.6161 -1.65249 0)
(5.3459 1.36131 9.55552e-21)
(6.96614 0.667293 -4.97178e-22)
(-5.53539 1.87294 1.36899e-20)
(-13.3429 4.37867 -5.26288e-20)
(8.48913 -3.49094 -3.2439e-20)
(12.6338 0.868339 0)
(8.15506 -3.87878 0)
(8.21191 4.86361 0)
(8.17388 -0.336934 0)
(2.33532 -2.09508 -2.01035e-21)
(9.57735 -1.54988 0)
(5.9342 -0.960979 0)
(6.54156 0.514614 3.45066e-21)
(13.1155 1.07609 -2.13065e-20)
(8.62567 -0.730823 -8.84714e-21)
(6.74063 1.3436 2.86218e-20)
(8.00401 0.181429 -2.3825e-21)
(9.45356 6.83356 0)
(11.5781 -1.20598 0)
(7.63185 0.299763 9.7635e-21)
(7.90592 0.0559768 1.67434e-21)
(4.80445 3.82044 0)
(-11.7172 6.16519 4.68906e-20)
(8.28819 -2.81721 7.04305e-21)
(-2.31273 -8.61492 0)
(9.33166 -0.494259 5.91657e-21)
(7.93184 0.218485 -1.11857e-20)
(0.954551 0.00271235 -1.52388e-21)
(3.74363 -1.06104 0)
(7.99492 0.87188 9.05859e-21)
(10.4979 1.04289 0)
(10.2267 -1.31995 0)
(8.8445 0.886337 -3.76317e-22)
(7.75868 0.324006 5.20968e-21)
(1.695 0.31338 -3.62201e-20)
(9.22601 2.8578 3.38958e-22)
(5.15904 -1.06649 -8.97383e-21)
(8.09931 -0.304793 1.15408e-21)
(8.34008 0.929734 2.44661e-21)
(11.0553 -0.705053 4.48242e-21)
(8.63006 -2.76 0)
(12.6257 -2.79006 1.52773e-20)
(5.18995 -0.0714923 0)
(5.88214 -0.808434 1.46736e-21)
(9.0173 -0.834181 0)
(5.64749 0.365255 1.29369e-20)
(0.842817 -0.341138 -5.03286e-20)
(11.2475 -1.62637 0)
(0.383287 1.60625 1.39039e-21)
(11.6872 -1.41087 -1.47813e-20)
(6.9721 -0.993832 -1.27113e-21)
(6.93221 -0.987797 2.42044e-20)
(5.63434 3.1767 -9.94079e-21)
(5.13573 -1.02978 -2.5563e-20)
(13.2633 4.09391 0)
(6.73426 0.599927 6.81305e-22)
(-12.5266 8.36653 -1.24025e-19)
(8.03723 0.908567 0)
(7.32371 0.981265 6.40003e-22)
(11.06 0.152816 -1.62138e-21)
(10.6427 4.48169 0)
(8.03484 0.028506 0)
(-11.1526 4.92475 0)
(-7.38633 -4.76625 5.46106e-20)
(15.7871 -2.90469 4.55848e-20)
(11.6268 4.09083 1.747e-21)
(9.18393 4.15936 0)
(6.61639 -0.49709 1.63854e-20)
(7.7141 0.179794 3.95566e-23)
(9.17865 2.61129 -4.92981e-22)
(-4.78488 0.340155 1.54833e-20)
(7.63834 0.716475 0)
(7.9331 0.356986 0)
(2.80581 -0.269552 -1.40533e-20)
(5.53126 -1.59822 -6.34454e-21)
(7.62101 -0.642795 0)
(6.79725 -3.1865 -8.00734e-21)
(7.93542 0.0536765 -2.76108e-23)
(7.85087 0.274228 5.34002e-24)
(3.16665 -1.33664 0)
(7.82038 -0.357237 2.55893e-21)
(6.92813 0.612091 5.00961e-22)
(10.5797 1.02677 4.21766e-21)
(7.12213 -2.05889 0)
(3.30587 -2.52382 -6.50837e-20)
(10.196 -0.465131 1.67817e-21)
(7.97543 0.424566 1.92362e-21)
(7.2118 0.164979 2.18668e-22)
(10.237 3.04953 0)
(6.74531 1.3727 -7.60862e-21)
(11.9366 2.81901 -6.07594e-21)
(8.40804 -2.87365 5.77429e-21)
(8.04959 0.204363 0)
(-2.75557 -1.7769 -4.74439e-22)
(1.75782 -0.0527305 0)
(8.07863 0.202456 -7.39074e-21)
(7.97167 0.270409 3.35008e-21)
(7.43833 0.210612 -1.92724e-21)
(-9.70634 -3.52478 0)
(10.4795 -0.025585 -3.89089e-22)
(4.26712 2.13864 2.56671e-20)
(8.57737 -2.74495 0)
(6.39342 0.501756 1.06421e-20)
(9.54135 -2.23567 -1.96726e-21)
(8.82386 0.0951954 0)
(-4.40599 -3.83558 4.37024e-21)
(7.04089 -1.94457 -2.87733e-21)
(8.76573 0.0628874 0)
(4.43929 0.87545 4.30438e-20)
(7.28443 0.90361 0)
(6.71508 -3.04862 8.15316e-21)
(-12.4162 3.02755 3.04621e-20)
(8.18478 0.370683 1.28725e-23)
(9.9226 0.782944 -1.88908e-21)
(5.2652 1.33239 5.08149e-21)
(6.94022 -1.11219 -8.86903e-21)
(7.76527 -1.55964 -1.72718e-21)
(6.73636 -2.98415 8.73383e-23)
(8.51057 -0.90412 3.59386e-21)
(10.2358 3.06882 5.46105e-21)
(7.95938 -3.58647 0)
(7.96262 0.0886387 -7.45555e-21)
(-1.66476 -5.16674 -1.87015e-20)
(5.32639 -0.129893 0)
(7.0757 0.956341 -1.24699e-22)
(6.88541 0.0840381 0)
(4.70597 -1.11284 2.24089e-20)
(7.88871 -2.9143 0)
(7.63097 0.0319887 -1.35654e-22)
(8.90986 -0.385934 -6.25409e-21)
(-3.9619 -4.4911 7.91508e-21)
(-10.76 4.73249 4.06536e-20)
(10.1342 -0.0715153 -5.02674e-23)
(6.85037 -3.27987 7.54688e-21)
(6.76784 -1.89002 8.81748e-21)
(5.65033 -1.02217 0)
(-6.69843 5.06662 -2.22845e-20)
(8.68606 -2.58714 -1.42486e-21)
(-7.78122 6.87698 -2.73281e-20)
(7.85555 0.329937 8.79827e-25)
(5.51582 -2.07947 0)
(8.83756 0.064195 -3.36405e-23)
(-11.5245 6.67218 0)
(-9.18166 1.05698 2.03356e-21)
(1.85497 -0.58765 1.90316e-21)
(-1.66873 1.80869 0)
(7.90083 -2.04621 2.53449e-21)
(7.30469 -10.4602 0)
(10.5867 4.3065 0)
(6.40147 -3.03342 -1.07096e-20)
(5.75322 1.39794 7.7656e-21)
(6.46471 -2.40329 0)
(7.16461 0.774497 -4.83301e-21)
(10.0646 5.48322 4.97253e-20)
(-13.0471 5.42812 7.71633e-20)
(10.8944 5.60146 0)
(8.3791 0.00798993 0)
(-12.1872 9.13078 -5.52433e-20)
(7.35167 -0.388451 0)
(10.5568 -0.0266756 0)
(-6.85536 11.5567 -3.26273e-21)
(7.97028 -1.5407 -1.19802e-20)
(6.65766 -1.54139 7.50536e-21)
(14.3426 -0.967537 2.27927e-21)
(-8.47732 6.84057 4.99092e-20)
(7.95364 0.204011 3.85956e-21)
(5.76372 -1.17422 0)
(8.65102 2.08896 -1.15117e-21)
(5.54915 -0.57506 0)
(10.2378 0.0748161 0)
(7.95891 0.475416 0)
(8.84103 0.858933 -3.01037e-22)
(7.41548 -0.0616973 7.01826e-21)
(9.10967 0.512705 -3.80347e-23)
(5.85895 -1.24246 0)
(-0.470936 1.70282 -2.70553e-20)
(8.13362 4.61541 1.13954e-21)
(7.05717 -2.47218 8.43559e-22)
(8.66119 -0.558492 -4.0632e-21)
(11.7887 -3.20288 2.75571e-20)
(8.14168 0.0789415 -6.47016e-21)
(1.07611 -1.00257 0)
(10.1246 -0.488214 0)
(5.47523 3.77903 0)
(4.65215 -1.98274 -1.64407e-20)
(0.817651 -7.96843 -8.93808e-21)
(-1.15942 -1.1624 0)
(8.74642 2.08983 0)
(10.6414 -0.89246 2.19339e-21)
(7.84338 -0.0423638 -1.82092e-21)
(7.60133 2.70543 7.40781e-21)
(8.25124 -3.37404 0)
(-8.14718 10.9703 -1.31868e-20)
(9.35487 0.340718 4.12912e-23)
(5.40089 -1.41537 -1.51002e-20)
(8.8254 0.390512 -1.57575e-21)
(9.15433 2.65441 1.50542e-21)
(13.6126 -9.50608 3.08017e-20)
(4.59582 -1.95667 2.83408e-20)
(7.84681 -4.58414 9.23891e-21)
(9.08971 1.02245 -1.19618e-23)
(7.99344 0.0490654 -1.90261e-21)
(6.11556 -2.97093 -2.41523e-21)
(7.10979 -1.84655 1.24775e-21)
(6.59198 9.03065 5.26041e-22)
(6.62828 -3.14243 4.19036e-21)
(10.2132 -0.333912 0)
(6.16874 -1.13348 5.09121e-23)
(8.4798 0.0286213 -5.81502e-21)
(11.2246 3.25394 3.56978e-21)
(5.2838 -1.22932 -1.37713e-20)
(6.98153 -2.36347 -9.03012e-21)
(8.15891 -0.144115 1.73009e-20)
(10.121 -0.314544 -9.9426e-21)
(5.87452 -0.517154 -7.07385e-22)
(12.5453 1.1139 -8.72887e-21)
(4.37248 -0.428687 -3.00063e-20)
(8.82554 0.03961 -4.62664e-21)
(4.31167 -0.67368 0)
(-4.03322 -5.19786 -2.61359e-20)
(8.30111 0.0821655 1.6528e-20)
(6.9982 0.013686 1.50274e-23)
(-4.12597 -5.34739 0)
(7.19831 -3.30127 0)
(8.14667 1.93509 6.47964e-21)
(3.82176 -0.388979 1.86245e-20)
(6.45635 -12.0194 -4.75721e-20)
(8.06974 -2.6472 -4.45098e-21)
(8.69634 -1.46425 1.01018e-20)
(11.9123 3.20515 0)
(8.12888 2.08312 3.48987e-21)
(2.58664 -2.18329 -1.26564e-22)
(9.86949 4.26485 4.02396e-21)
(7.69605 -0.925802 -1.04905e-20)
(-8.04377 6.03061 -8.17517e-20)
(11.4087 -3.20427 -2.62509e-20)
(13.0524 -3.07915 8.83075e-21)
(8.97337 4.94528 0)
(8.90375 -1.91767 -3.00736e-21)
(7.47526 0.223435 1.75964e-21)
(7.70385 0.153726 -2.08238e-23)
(3.73713 -1.78488 2.63123e-20)
(7.67825 -0.946266 1.58072e-20)
(6.10423 -3.02328 5.64286e-21)
(-13.3826 4.83218 -4.31199e-20)
(10.1645 -0.768408 -6.55123e-21)
(8.5796 0.141253 4.13068e-21)
(-8.1178 11.9121 -1.06831e-20)
(9.53645 4.17408 -4.13884e-21)
(5.77804 0.215071 -4.67691e-20)
(4.98425 -2.39115 -8.66032e-21)
(7.77301 0.100439 0)
(9.06924 1.79514 2.68366e-22)
(-10.8208 6.50853 -4.42054e-20)
(5.0705 -0.388319 2.69188e-20)
(8.37962 0.318246 0)
(8.96568 -0.735689 1.87192e-21)
(4.42297 -1.6504 6.42349e-21)
(7.97071 0.145967 -1.63769e-20)
(-12.2763 6.61502 -4.72168e-20)
(6.38777 -2.27596 -6.72055e-22)
(8.67587 -0.758517 6.05994e-21)
(9.05325 0.3619 1.79919e-21)
(6.80053 -3.0961 -1.12656e-20)
(9.24676 0.692153 1.09859e-23)
(0.826487 -8.97882 -3.33186e-20)
(8.60428 0.027138 5.45153e-21)
(8.05201 -0.241621 -5.0009e-21)
(8.50462 0.516875 -1.51631e-22)
(9.20689 -0.0575051 -1.0633e-20)
(4.2333 -1.71964 -1.24061e-20)
(9.08147 0.936255 0)
(-7.59713 -4.3927 3.18668e-20)
(8.29624 0.076369 1.24394e-21)
(2.91099 -0.341193 -1.79408e-21)
(10.0373 0.232178 -1.40876e-21)
(8.47423 -1.5399 -6.29522e-21)
(8.03737 0.0689348 -1.26169e-20)
(8.3537 1.46172 1.88127e-21)
(-11.2208 6.40816 -4.81987e-20)
(10.6082 -0.0160253 0)
(6.26333 -0.779888 1.4044e-21)
(10.3124 -0.439535 1.40093e-21)
(5.57269 -2.04146 0)
(8.52756 0.420202 3.25726e-21)
(10.3222 -0.398143 1.37237e-21)
(10.5719 0.0250001 4.9083e-26)
(9.62391 -3.52404 -3.07905e-22)
(7.56173 -0.710076 0)
(7.06681 1.61102 1.38562e-20)
(9.07741 1.81635 -9.98048e-21)
(6.49014 -3.0558 9.15967e-21)
(7.79563 -0.666303 0)
(5.68777 1.39118 -2.24993e-20)
(3.78179 -1.57857 -1.43344e-21)
(9.95549 6.0587 -1.08142e-20)
(4.42831 -0.491491 2.93545e-20)
(8.78528 0.0511505 1.16761e-22)
(-11.3259 5.07496 3.41948e-20)
(7.5373 -0.343093 -1.09219e-20)
(12.877 -2.10904 -2.0869e-20)
(6.9954 0.667572 -1.02005e-20)
(8.74123 0.036971 0)
(7.96187 0.111443 -7.22766e-21)
(-1.53354 -0.487603 9.25369e-21)
(-2.13358 -0.502001 0)
(13.3776 -6.09744 0)
(7.71025 0.157856 0)
(7.85167 -2.02126 0)
(8.1927 1.35806 0)
(4.13562 -0.388504 0)
(8.46466 -3.10033 -2.2959e-22)
(14.4909 2.42525 -3.01733e-20)
(10.4222 1.77492 0)
(7.15625 1.52657 2.06112e-20)
(4.6214 -1.79109 1.12731e-21)
(8.30355 0.928908 2.03722e-22)
(-10.1158 8.5138 -2.13419e-20)
(4.22087 0.496043 -7.35142e-23)
(-12.0682 6.56782 4.04225e-20)
(8.40785 0.0120835 -3.95173e-21)
(11.3357 0.261687 1.06424e-21)
(8.09808 1.34307 -4.50081e-21)
(7.47604 0.796095 -1.36375e-20)
(7.87554 4.32631 -4.10952e-21)
(13.1947 4.31809 0)
(-3.91352 -1.13874 1.70107e-21)
(4.77432 -1.18405 -2.45357e-20)
(8.07439 0.0373349 -2.18498e-20)
(8.79341 -2.55767 -8.1202e-21)
(8.77656 -0.0472634 1.72454e-21)
(10.3303 -2.47141 1.01327e-22)
(8.21648 -1.22935 -1.35164e-21)
(7.94378 -2.00878 -8.78677e-21)
(8.06225 0.789412 4.96184e-21)
(8.4246 6.06903 0)
(7.66613 -1.3734 -1.57479e-21)
(6.66604 0.384159 -3.14901e-21)
(9.59277 -1.44135 0)
(6.9596 -0.811039 0)
(7.14811 -3.24732 -7.94096e-23)
(-10.7369 4.0655 3.55397e-20)
(8.3542 -3.14251 -8.60098e-21)
(6.72697 -0.152895 0)
(7.47337 -0.159596 -1.43372e-20)
(7.15634 0.952861 -2.64812e-21)
(-7.63405 -3.86788 1.59167e-20)
(10.5254 -0.251732 4.56654e-22)
(-12.2411 6.59638 0)
(-4.14224 -0.806812 2.54403e-21)
(10.4134 -0.354964 0)
(8.80768 -1.9683 3.22317e-21)
(9.75699 -1.01139 -2.37259e-21)
(8.0514 0.076477 -2.8203e-23)
(9.3654 2.96316 2.52091e-22)
(10.7206 5.07028 -1.1016e-21)
(6.53802 -1.82202 1.82927e-20)
(-0.756004 -3.30485 0)
(5.9594 -8.27178 -1.91809e-20)
(5.2997 -2.98926 0)
(10.6521 1.78962 -1.68427e-21)
(-7.80973 -3.2575 2.69492e-20)
(13.5762 -5.99953 2.58687e-20)
(6.3817 -0.776906 -1.33099e-21)
(-8.23023 -2.20027 -9.71197e-20)
(5.8512 -2.73932 -1.05791e-20)
(4.96253 -1.21112 -1.42645e-20)
(6.921 0.669901 1.80783e-22)
(6.67002 -7.57627 1.56937e-20)
(4.31353 -1.7603 1.01711e-20)
(5.20817 -1.36715 1.54481e-20)
(0.930241 -7.88389 1.11921e-20)
(7.81248 -8.50606 -1.09226e-20)
(6.94048 -2.11186 8.9943e-21)
(-0.523186 0.107123 3.26909e-20)
(9.43881 0.217438 -1.7555e-24)
(4.88605 -1.97599 -8.91789e-22)
(9.32649 1.92521 -5.71387e-22)
(8.61493 -2.09295 0)
(6.94218 -2.06594 -5.96505e-20)
(8.29406 -0.0156582 -6.91681e-21)
(8.01978 0.537478 0)
(10.5281 1.6667 0)
(4.74179 -6.05563 -6.79721e-21)
(14.6499 -2.3422 -2.51447e-20)
(9.79152 1.0865 2.16304e-21)
(7.97538 -1.50501 1.57493e-20)
(7.73471 4.13652 4.12483e-21)
(7.09479 -0.0819764 1.11474e-20)
(-9.34618 -2.51209 -1.58794e-21)
(7.06191 2.72882 0)
(5.34661 -1.53468 1.47263e-20)
(-2.02537 12.7779 9.46597e-21)
(-9.73234 -0.796639 7.29706e-20)
(6.49464 -2.37461 3.06366e-21)
(7.30193 -3.38509 -2.29966e-21)
(8.26023 -0.0908838 5.56255e-21)
(6.69239 -0.71468 7.12388e-22)
(10.4449 -2.05684 1.46162e-20)
(-9.36663 -3.03905 -2.22596e-20)
(9.60626 1.0266 -1.58107e-21)
(7.68825 0.265918 5.71802e-21)
(4.2834 -0.651325 -1.20756e-20)
(7.38174 -0.297884 8.9633e-21)
(4.74181 -0.50646 0)
(9.60369 1.79467 -1.30269e-21)
(7.81814 0.17516 1.26419e-21)
(5.64557 -0.867502 -4.7089e-21)
(7.92515 7.24656 3.43307e-21)
(6.85421 -2.06933 6.69686e-21)
(8.09303 0.0152865 2.47324e-21)
(5.25985 0.76658 -1.74484e-20)
(9.748 -1.50759 0)
(6.33753 -0.641303 -2.4416e-21)
(8.87417 0.443507 2.13382e-21)
(8.5938 -0.562786 0)
(5.47807 0.347226 1.00338e-20)
(10.4944 -0.231424 0)
(6.7232 7.49948 3.06416e-22)
(9.76058 -0.215682 0)
(7.68466 -1.52605 0)
(10.0473 -0.238556 1.3331e-21)
(9.62197 0.806385 -5.75731e-22)
(12.0631 1.77542 -1.15732e-20)
(7.61611 0.629551 -6.16521e-21)
(5.96603 4.63294 -4.07072e-21)
(7.84448 0.360981 -2.32713e-21)
(8.29 1.40221 0)
(1.10283 9.00271 -3.37053e-21)
(10.1322 0.798112 2.5934e-21)
(8.64187 -1.91479 -6.57399e-21)
(8.63343 -2.0867 0)
(11.3254 3.22397 5.28992e-21)
(8.74102 6.91257 7.39354e-22)
(9.24904 0.105789 7.64636e-23)
(4.75617 -7.72263 0)
(-4.97482 11.1473 7.06167e-20)
(8.14005 0.785957 0)
(10.6126 -1.71504 -7.23933e-21)
(-0.218839 -1.86246 0)
(5.56428 6.69945 0)
(7.66227 -5.15955 0)
(7.7365 -2.88515 0)
(-6.05611 12.8054 -7.45389e-21)
(-6.30898 -5.44305 -1.12314e-20)
(7.31712 -0.0449215 -1.04911e-20)
(-4.78366 -4.03785 -1.13028e-20)
(4.68414 -1.8771 0)
(-3.41109 -6.58762 -1.07621e-20)
(-0.402755 -2.47347 -3.8052e-20)
(6.00694 -2.78775 0)
(5.61036 -1.91118 -1.58484e-20)
(6.28201 1.38213 -2.31855e-22)
(9.29911 1.84115 1.29233e-21)
(9.30548 -3.18345 2.03262e-21)
(7.388 0.754447 0)
(8.30421 -2.64431 0)
(13.1938 3.81099 4.51642e-21)
(7.1102 -1.6624 3.30211e-22)
(6.69273 0.477736 -5.78528e-22)
(4.5453 -5.56171 3.28445e-22)
(7.95038 0.0096357 5.34056e-22)
(9.02278 1.75714 1.30793e-23)
(8.02026 0.75615 7.08476e-21)
(6.02043 -0.669781 1.27809e-21)
(7.23512 -1.94185 0)
(-2.35863 3.95308 0)
(9.16679 0.578874 0)
(7.19063 0.104843 0)
(6.75211 -1.17819 6.57026e-21)
(12.0353 0.186539 0)
(-6.13394 12.5966 1.21336e-19)
(12.7386 -11.7321 -2.11293e-21)
(5.06879 -1.41653 -2.3353e-20)
(4.86315 -1.72323 -6.53272e-22)
(-8.32614 -5.2542 -1.81907e-20)
(-2.51845 13.3788 -5.64078e-20)
(8.30456 0.0936642 1.96197e-21)
(-10.1305 -1.29824 -2.74507e-20)
(5.81255 -0.69551 2.1654e-21)
(10.0674 -0.191223 0)
(9.13242 -1.44415 0)
(5.63915 -1.54011 0)
(8.46551 -1.62569 3.32938e-21)
(8.22307 -9.85922 0)
(7.19807 2.62847 0)
(8.08647 0.0344918 0)
(6.76049 -1.52723 7.01754e-21)
(8.38793 0.852119 -6.36799e-21)
(6.72786 0.0682695 0)
(8.80568 -3.15382 -8.20333e-21)
(7.85187 0.810922 -7.05472e-21)
(9.82887 4.03018 -8.58342e-21)
(6.057 -2.75279 9.63473e-21)
(7.46721 2.98239 4.06776e-23)
(7.00827 -2.215 -2.30394e-22)
(6.87617 -0.90389 1.56998e-21)
(7.7852 -1.88174 -3.30682e-21)
(9.502 0.865423 9.15104e-22)
(6.78467 0.531097 -1.16969e-21)
(7.15204 0.387347 -9.99621e-21)
(8.50317 0.0406707 0)
(3.78521 -0.354671 1.30628e-21)
(7.73734 0.261712 1.01664e-20)
(3.09489 -2.19561 -1.39689e-21)
(8.14871 -1.16083 -3.95054e-21)
(3.93752 -0.481572 -2.02588e-20)
(9.63367 0.70715 -1.87173e-22)
(11.8992 2.83726 8.7896e-21)
(8.02243 0.353778 0)
(5.95427 -0.828007 9.90753e-23)
(6.76696 -0.189989 -6.40664e-22)
(7.85692 -1.94147 6.62133e-21)
(-5.11867 -0.249527 -1.76649e-20)
(7.95892 0.0684741 5.35761e-21)
(9.18369 0.915465 7.50712e-24)
(8.64672 0.0543157 -9.77533e-23)
(9.04517 0.531539 0)
(4.33511 -1.19891 0)
(5.66607 -2.66873 1.1961e-20)
(-12.2981 6.26254 5.10039e-20)
(7.77917 0.0898892 -3.89171e-24)
(7.8305 0.26277 2.02696e-20)
(6.10638 -0.88322 -7.87446e-23)
(5.67925 1.21867 0)
(7.05107 0.46578 0)
(5.99903 -1.14888 -7.41019e-23)
(9.87348 -0.136494 1.94951e-21)
(7.70024 2.78171 9.78948e-21)
(9.67414 -0.698638 0)
(9.82755 0.109531 0)
(7.95001 -2.22113 1.2359e-20)
(7.78613 -0.554069 8.43414e-21)
(0.404119 1.81473 -6.6819e-22)
(8.22109 -0.33784 0)
(1.4365 5.28818 3.59007e-21)
(9.88536 -4.05942 -3.72748e-21)
(-11.4661 5.57149 -5.13146e-20)
(7.83848 -0.0241657 -1.1499e-20)
(18.6649 2.27282 0)
(15.3088 -1.77303 1.9998e-20)
(7.61811 -8.47228 -8.42055e-20)
(0.803534 1.59174 0)
(7.15524 0.151631 -7.27018e-22)
(7.58259 0.483121 -6.66581e-21)
(7.70441 0.0570004 -2.68956e-25)
(10.1131 -1.02062 1.36604e-21)
(6.03247 6.39922 1.38127e-20)
(8.5386 0.0605021 0)
(3.81489 -1.19096 -1.23954e-22)
(5.74348 -0.788145 -1.34445e-22)
(9.41852 5.30208 -1.01368e-19)
(8.13425 1.34564 5.3297e-21)
(-0.350817 -2.99653 1.07064e-21)
(7.97269 0.074553 -2.52837e-20)
(5.7363 -3.56833 -3.14823e-21)
(6.62513 -0.912922 1.4771e-21)
(6.62737 -1.40382 0)
(6.9713 0.00857127 -2.96514e-21)
(4.16836 -1.8042 8.22265e-21)
(8.84686 -0.370167 -1.19979e-20)
(7.88129 0.174938 -9.17653e-21)
(10.347 -1.69497 6.42952e-21)
(6.45407 -0.427775 2.38793e-20)
(9.34033 0.163868 9.05258e-24)
(6.97422 0.515139 5.76004e-21)
(6.98989 1.00307 -4.99833e-22)
(14.4116 -0.964064 -2.50472e-20)
(9.76207 4.48524 -6.83873e-21)
(7.3177 -11.5425 3.70207e-20)
(8.0465 -0.149315 0)
(5.89612 -1.38423 0)
(4.88327 -1.84578 0)
(5.06487 -1.24372 1.79503e-20)
(8.12591 0.0672094 -1.46249e-20)
(7.11623 1.01158 0)
(5.72621 -0.988444 -1.39381e-20)
(7.07215 0.93652 0)
(6.87162 -1.06864 -1.08035e-20)
(8.52237 -1.95765 -7.06304e-21)
(7.17908 -1.79864 -9.8098e-21)
(8.67262 0.0508182 0)
(7.66181 0.194113 0)
(8.59174 -0.606932 3.63868e-21)
(10.3132 1.51801 1.80711e-22)
(11.3335 -0.138927 8.32897e-21)
(9.28763 7.21302 -6.71224e-22)
(9.67506 -0.928504 0)
(6.54797 -2.29948 -5.07147e-21)
(-1.02171 0.462392 0)
(2.82243 3.38813 -9.09337e-21)
(10.8163 4.97065 0)
(9.14012 0.826262 -1.12899e-23)
(4.41558 -0.332126 7.78805e-21)
(5.93725 -0.323365 7.72157e-21)
(8.09512 -0.361724 -3.65338e-21)
(11.6144 -10.9174 -1.05706e-19)
(7.67633 -0.648094 2.1338e-20)
(8.17662 1.3657 -2.13747e-22)
(9.55765 -2.51256 -7.92249e-23)
(7.70994 -1.65164 -4.88955e-21)
(0.0754821 1.50639 2.31992e-20)
(10.39 2.29859 0)
(7.89496 0.18469 3.51837e-23)
(5.83184 -1.25269 0)
(6.64984 -0.785657 -1.54708e-21)
(6.62896 -2.30274 -2.62944e-21)
(6.49081 -0.322471 -7.84534e-21)
(7.71096 0.0646113 -1.56804e-24)
(10.7813 0.302462 -5.6957e-21)
(6.45737 -0.0446688 1.61179e-20)
(9.46211 -0.379438 -4.09234e-21)
(6.72321 0.615917 0)
(-8.66507 10.0579 0)
(10.6667 0.0755107 9.19339e-23)