/*--------------------------------*- C++ -*----------------------------------*\
| =========                 |                                                 |
| \\      /  F ield         | OpenFOAM: The Open Source CFD Toolbox           |
|  \\    /   O peration     | Version:  2306                                  |
|   \\  /    A nd           | Website:  www.openfoam.com                      |
|    \\/     M anipulation  |                                                 |
\*---------------------------------------------------------------------------*/
FoamFile
{
    version     2.0;
    format      ascii;
    arch        "LSB;label=32;scalar=64";
    class       volScalarField;
    location    "8";
    object      p;
}
// * * * * * * * * * * * * * * * * * * * * * * * * * * * * * * * * * * * * * //

dimensions      [0 2 -2 0 0 0 0];

internalField   nonuniform List<scalar> 
13486
(
18.8514
19.4422
9.66201
-60.8375
-4.50639
10.9912
-13.3961
3.08474
9.44278
17.6834
-21.4623
9.25189
19.1242
12.7874
-3.58243
17.941
-6.88314
-12.0763
8.55104
18.001
-88.0791
18.8543
19.2888
0.800101
16.4778
2.59086
-7.14621
4.64419
9.7208
5.33528
-119.605
1.8506
-1.92716
5.93775
3.25273
16.525
-0.553622
11.9024
5.99656
10.9642
-22.1966
19.8991
2.5757
16.2822
16.278
9.37945
-16.729
5.81734
-0.915857
5.99587
16.2987
7.92923
9.69097
12.6478
-16.7874
-3.44995
3.74434
7.02679
-0.779651
2.42416
-23.3229
3.45095
-10.5098
-88.4795
-6.67988
1.45788
-55.8399
20.6312
9.19117
10.1223
-52.6778
-14.9565
12.7782
-3.10204
2.00679
4.19896
-1.93175
-4.42747
-17.8869
-23.8658
9.03363
20.2023
-13.5493
9.81171
18.8112
22.1798
7.71532
16.2602
17.5206
19.5282
4.94868
0.995773
17.3003
18.598
8.85061
1.11932
-7.1931
-49.1823
11.0477
-6.79225
9.79731
13.0378
-54.0187
8.38379
23.4881
-7.4996
15.9823
5.60435
-18.1987
-2.04549
6.57142
-4.86807
12.6441
3.29583
23.4221
6.92464
16.8009
6.75605
12.8837
-4.76889
-8.24631
-21.4361
10.1635
5.78516
6.56933
8.17179
5.84097
13.5889
7.06608
2.38821
8.67756
-15.4671
1.49143
-3.16884
16.2705
17.7807
27.8356
-1.5889
-5.07459
4.55957
1.84796
9.80912
6.38805
-19.878
3.70662
-35.8629
11.5674
28.3304
5.68843
5.64134
15.4378
-7.62342
8.41722
20.542
14.2812
9.51582
-6.26362
-38.4852
9.55482
7.3732
7.71652
9.56576
1.01367
19.6059
7.83281
11.4735
13.522
27.5458
11.4281
-3.00787
1.18405
14.2574
15.9233
4.66824
7.31464
-45.6216
12.9895
0.237469
15.8491
6.69018
9.42763
3.11732
4.85222
1.8073
10.5598
4.69171
0.414666
5.03635
-22.5791
8.63837
-3.71789
8.58781
5.98691
23.9093
5.11454
-19.4653
-1.72675
7.68107
14.7198
11.7153
-122.8
13.5182
11.8537
-9.96355
7.23712
4.83908
-27.0441
14.7802
6.44562
10.4956
5.03698
14.0786
17.8932
16.0253
10.9271
-11.6396
5.08624
19.4672
15.9268
5.39402
-7.27803
5.59993
5.08432
7.59094
10.8951
16.6445
10.1095
-137.428
-2.69685
7.90557
9.36653
-56.8041
1.32703
20.6103
-87.7727
15.6179
5.288
8.253
15.9458
6.72974
-2.12519
15.896
3.33501
14.3563
6.32888
17.1141
7.804
5.48995
-4.35883
16.6079
-10.2272
23.7783
5.7887
5.35335
-6.79587
-36.1631
2.48538
-14.3944
-39.851
-2.25957
18.3133
6.60892
-3.23925
-39.246
-5.54919
1.47336
-1.64752
-121.513
13.0986
2.71141
21.8472
16.1917
4.87322
9.84402
16.7496
5.22806
-4.24923
-29.3055
4.95858
11.7282
-29.066
8.5828
16.2945
-22.2106
-16.6514
-5.3329
2.08167
6.68119
11.0558
13.2647
-88.8703
6.23252
8.28579
16.2145
5.50075
5.09059
7.60968
10.2583
16.1424
-19.0453
1.07949
-36.2306
11.6044
1.71026
1.55727
-11.4232
-54.4628
7.6157
6.76444
-0.0374359
2.617
-58.8638
14.2771
-4.04644
-36.6446
17.9157
5.6647
17.6327
15.048
-0.687369
-0.990387
6.63908
15.8889
18.913
27.3775
4.8685
2.20155
8.35754
10.8563
1.13198
16.2817
0.0463932
4.78293
21.7807
-14.295
7.87504
23.3484
-7.05681
15.9013
6.92758
-0.719976
18.9232
0.359007
4.72439
-1.43005
4.75466
6.25756
22.304
5.26105
6.02829
7.47106
10.7698
10.1703
-7.06873
16.09
17.3057
-3.35851
5.88938
6.05482
12.1955
8.43639
6.82664
17.7944
16.2187
5.02731
2.56553
5.17089
-10.9479
18.2213
6.1429
2.14509
6.52467
11.3016
-6.65412
12.0922
16.216
15.955
6.27449
-37.7456
4.41106
12.6421
-1.46881
20.5682
21.9452
-13.1356
-3.26971
12.4315
15.8375
-8.68461
-81.9083
17.5116
4.5516
14.8481
16.5476
22.2455
-15.725
-60.8403
-5.87609
-9.30656
1.58861
-9.06849
17.4464
10.8176
-49.9794
-11.8158
11.6751
18.4972
0.499365
7.13435
19.3047
15.465
13.717
4.06335
16.2519
15.9277
23.6481
3.04633
-5.1347
-0.276779
6.64207
15.903
-22.4541
22.4505
16.0621
9.09199
5.14417
13.5986
16.3999
-7.17722
13.8048
18.9544
10.9638
14.7739
11.4839
-8.10929
3.21828
20.849
6.88317
4.78278
20.4283
-14.446
4.74281
-4.16601
4.12173
8.94353
13.616
23.1283
19.1337
4.15677
-3.35044
-2.29481
15.9996
17.7388
5.95576
9.89727
16.1633
-1.69925
-43.3647
-23.4629
-35.2919
14.5336
15.663
7.44382
13.8281
-73.524
17.0691
6.42286
25.6151
16.9644
11.6907
1.51996
16.8425
0.541958
23.2048
3.50777
-9.022
8.77758
7.92735
-4.78806
10.3351
16.0395
8.59861
10.7089
19.3988
4.15263
-9.00079
15.8022
-85.7922
27.3305
15.838
16.321
16.1934
-37.5396
10.5452
24.705
-7.35492
18.6084
-17.2073
13.9095
-125.359
-14.8595
2.42554
-7.57546
17.783
6.68752
-12.6487
2.98847
10.6577
22.1656
13.5974
-1.75009
7.13782
6.38981
10.9604
-6.01121
16.2328
0.817383
20.5214
-12.8403
9.98468
20.1758
-1.42378
14.3237
7.70064
-138.612
-9.20275
7.72073
-3.40635
10.4351
17.2954
-3.91426
-8.67682
-4.10384
5.41404
15.6774
13.4514
2.82485
-51.823
-20.1245
-40.2238
3.56506
-12.6602
10.0331
7.16235
21.5058
-45.7576
17.8846
-37.8494
-4.49387
8.91777
14.5947
-4.09349
14.0649
10.4089
-23.954
6.24912
12.2066
-2.39727
-2.85096
16.3301
16.5505
14.9813
19.1345
10.0263
15.9098
13.5736
15.108
3.74681
15.8834
-7.10152
17.3869
6.46205
6.56962
6.24587
15.605
-12.9633
10.0078
22.8494
18.4892
-92.7078
-35.4232
14.8319
10.2871
11.4219
18.2271
-14.3136
-9.31996
11.9994
17.6886
13.1123
13.9291
4.5088
18.606
-0.15084
2.71564
16.1741
0.691246
-12.829
20.4217
3.16506
10.825
10.6075
14.4289
7.7663
18.3541
7.15957
7.95497
8.92558
11.7247
2.26528
22.1464
14.0111
21.8748
-140.579
13.935
17.9318
-3.62458
-3.74677
16.4987
23.38
-19.4447
-2.00844
1.54033
5.12055
16.5837
-20.2078
12.4552
10.1894
-2.58545
5.78266
3.7244
15.031
2.71765
16.0856
9.53139
20.3508
10.4611
6.68675
-4.13661
5.37189
14.0741
-16.4662
13.4951
-6.93135
15.4825
1.93583
2.98117
-17.7066
20.5234
1.15584
3.29391
19.814
16.2692
3.29951
-43.3986
6.80946
12.5467
5.91738
3.51047
-84.2204
14.3604
11.3644
13.9994
9.94216
20.1571
2.98936
-78.7545
15.5905
-18.5685
10.4856
2.70831
16.033
15.2747
3.75283
10.5409
6.46542
10.9345
15.652
14.0253
10.985
10.1186
-26.0875
4.63916
18.8731
5.93597
5.08102
10.6725
21.3932
-1.29746
11.9366
21.894
1.85791
-3.92039
13.2769
2.52633
17.841
3.84229
16.1478
-55.0237
-3.48597
7.69477
7.48864
-7.99717
15.7989
22.7246
-3.68018
-30.8714
9.81435
19.0326
-1.36945
14.9608
-19.4783
23.653
3.9919
8.00134
5.63771
16.0092
17.4448
18.0847
3.95244
-83.0244
19.8626
16.164
-9.05782
11.559
-27.0664
6.11227
3.50242
15.7405
-1.85227
-0.0772711
18.1314
-11.2008
4.91945
2.56032
-10.5244
-7.25165
9.29602
14.4505
18.0477
-100.088
10.4954
4.60149
-81.0647
10.7731
2.0955
6.23363
16.1543
13.5425
9.62129
11.6681
-71.053
-11.4187
-24.0066
9.05989
-92.9069
10.5451
7.09398
-30.2871
5.82409
19.3298
-12.7432
-6.06822
19.8145
18.4302
-100.497
9.83185
8.50728
-12.2771
4.13237
-4.47877
12.9997
-3.56694
-8.49118
14.8793
15.9655
9.45074
-28.5623
-2.83577
11.2553
6.55056
18.1301
8.15064
-76.8625
19.3154
17.681
-20.8362
-29.8653
10.0182
-13.588
8.96972
6.28311
5.05227
-69.0188
11.3502
16.0034
22.0716
14.1127
11.672
11.9542
15.8948
17.7051
18.5177
9.23503
14.7435
21.7402
-11.3459
7.08028
13.019
5.08326
20.7702
10.4963
20.7562
8.59148
-1.73207
9.28203
11.4699
4.06851
16.983
22.1078
16.0237
15.5148
-19.8448
10.1022
1.4052
-3.73019
7.3894
15.1286
3.63343
-27.7652
-25.2671
15.4196
5.0984
-4.38273
-16.4501
2.31528
0.140271
-16.7122
-57.8078
15.2112
-137.353
18.6578
-136.653
-4.55523
11.0779
15.9844
-0.644307
13.1353
-19.1402
17.4499
-4.29805
-4.83204
-7.12901
2.04213
-26.5709
16.1729
3.38232
15.6975
6.36426
8.1999
-7.51637
3.46253
17.1592
13.7971
3.69572
-22.4846
1.76577
18.7
0.444442
-81.0925
-26.7032
14.6329
-42.1306
5.7233
9.48403
-1.56959
2.36763
2.40525
-1.94906
19.2171
16.1656
12.0136
15.0493
10.1283
1.42964
16.4523
12.5681
11.471
18.4166
-29.9103
5.44281
-5.59892
11.6514
-1.99832
17.0507
14.595
-17.4077
16.1272
-14.1727
6.47763
23.0446
11.4181
4.29367
15.8931
11.0027
8.56145
-4.48433
-77.2165
14.5375
2.45291
1.94811
3.64804
4.32641
13.2901
3.78422
3.68122
16.1115
11.5752
21.5652
17.3774
15.5435
9.28207
18.1238
6.66737
9.62348
1.49697
11.367
-53.561
7.29784
-13.1473
6.12783
-16.2873
13.5808
-26.0221
-4.74945
-24.2036
-53.019
10.3939
16.7222
22.5396
4.44581
-3.27277
15.9062
22.0258
11.478
-38.0909
15.9707
-63.4766
14.1769
7.0527
5.88902
12.8753
7.92517
20.2058
7.84642
15.9382
4.90673
16.4654
4.09648
17.5163
-14.7378
-2.64677
13.1315
-16.7956
7.56308
2.97892
-39.2073
19.0414
15.9386
18.2561
17.0521
18.2131
13.9631
0.234896
9.11177
15.9958
15.8122
5.09545
9.92376
4.70539
13.5655
5.17597
10.0507
-4.43457
27.3266
9.45238
3.08499
22.2056
18.5619
7.30353
8.3361
11.6141
15.7698
-27.0867
7.63767
-5.64444
10.1324
15.9336
16.1934
6.37236
9.63034
16.403
3.85801
8.08661
17.4232
7.3005
-2.05104
-8.24779
9.87556
4.11212
17.0511
21.2127
4.39657
-81.4837
5.69011
3.91101
9.73533
9.40689
20.5121
8.5325
24.6913
13.751
8.7827
14.8711
2.30119
1.34273
-44.55
14.6378
6.56256
-2.29879
-121.79
15.0741
16.526
7.04531
-1.14088
-7.10785
-1.23421
4.8349
6.9781
8.27997
6.96283
14.8443
16.2539
18.0199
10.774
7.58086
0.575982
3.88998
10.352
-95.5022
18.4075
8.03426
-139.423
9.43416
3.46196
2.38899
-21.5732
8.25498
16.4153
8.78474
6.47399
5.14503
6.01607
2.41418
10.7213
3.86137
9.66031
16.05
13.2755
-3.97505
16.2201
3.81597
17.6925
15.4744
15.4378
4.46504
11.533
20.3273
25.0748
9.67982
-5.98594
16.2664
7.22343
20.3808
0.728842
-0.633421
-17.5843
9.84184
11.2576
-17.7452
15.8672
13.4751
2.39831
-16.6787
2.34349
11.2217
22.836
-35.3353
16.6005
-9.91419
21.286
20.2718
2.22017
5.57033
-85.6299
22.0924
8.14164
24.1844
9.31953
4.75266
15.1426
10.5303
-3.03798
-4.10153
-5.49503
17.9237
8.92332
-4.77942
18.5453
17.9115
4.47815
5.16504
8.91796
13.9266
10.7765
12.7849
15.6306
8.16533
-27.6914
16.8875
5.47966
-0.539328
2.67179
17.5616
12.9967
-38.7482
-53.2611
1.22859
16.3596
19.3523
7.82994
4.12821
3.65486
22.9995
-21.3155
2.30863
20.4926
16.2571
10.9131
6.84401
-60.7895
-0.0303525
8.14034
-21.1048
7.10957
-37.3897
12.1823
-2.18527
-12.7716
-7.63855
-23.5465
-34.0138
-9.21294
-8.24553
24.6949
17.0656
-6.60674
-8.88618
2.38713
13.8744
6.76934
24.5709
-0.261388
4.95499
16.3032
3.90035
-34.5281
2.52374
1.93868
13.5428
25.3994
1.57446
3.17569
1.35405
10.5076
0.894222
6.33765
10.0976
16.9666
18.0811
16.2905
-132.428
-9.18503
5.35586
8.83357
15.8394
8.45107
16.64
23.7568
21.4095
5.01912
16.2928
17.5623
5.14605
15.3265
8.73826
21.026
15.165
12.1746
17.657
15.6358
2.95335
9.2604
17.9799
0.990456
8.97333
-6.76973
-1.63966
10.8305
14.1451
9.69191
5.64744
20.03
19.7602
2.57663
-3.50346
9.31462
-27.847
3.1499
17.5857
17.2632
-4.90501
15.9212
8.61676
6.56386
8.93932
-14.4038
-84.5948
6.19938
25.4855
-5.17607
8.94164
19.0611
10.6337
2.78826
15.0874
9.87942
16.3979
-11.5909
5.13463
8.22256
3.32183
-0.0478027
1.99322
22.4377
18.4844
12.28
28.9036
19.5414
-1.12463
8.54809
-28.6622
8.89735
20.1415
-139.934
11.6774
7.39344
0.350095
-0.787263
14.7633
12.4463
6.7803
17.5224
25.541
-6.93957
7.10602
11.4642
10.0692
9.56655
-99.3921
19.5984
14.9451
8.93176
14.5956
6.63375
-10.201
-9.62926
21.3298
-8.68456
24.0472
-38.9962
5.11443
-5.76145
-6.45094
-3.00572
5.73395
4.4427
14.1377
7.0454
14.1884
-82.2429
3.80609
-26.8901
-4.70934
4.6671
-2.23554
10.2337
5.4431
-63.6412
-18.6144
7.74184
8.23842
22.878
16.0696
5.00732
7.95276
28.4488
11.4857
-7.89354
8.45338
11.7467
16.4909
9.26578
16.9079
3.43222
3.24359
1.86638
3.70287
9.28729
19.5052
-4.1919
-0.874335
-11.7213
21.6462
-44.4802
8.27577
15.8729
-38.9049
4.79452
10.1031
-8.79907
-5.91282
6.58241
16.2468
11.9742
15.7032
-6.66282
-4.04118
-2.31911
-18.2462
5.76569
6.38805
5.79895
7.93266
5.48877
-57.1577
-6.80271
-0.0910138
18.3057
-87.6416
21.8789
-5.4644
-32.56
2.44997
2.89807
16.2749
6.3237
20.1236
10.2108
7.12081
-10.5158
14.9592
-4.49888
16.1061
7.1444
21.0541
17.1027
6.64139
14.5744
20.1739
10.4951
14.4921
3.40317
-82.4716
4.75565
3.05098
4.12173
-1.16
-0.832669
9.36947
-15.9471
9.40572
4.6109
3.94154
0.4052
4.38172
20.9759
10.3156
4.8875
10.6865
16.1096
10.2651
10.5966
10.9355
9.99352
9.69758
10.3818
8.05096
16.086
16.2093
5.03471
16.9259
17.2545
12.0592
4.19172
2.96187
14.2682
8.01459
3.6914
-2.32641
-91.8049
4.5057
-61.1738
12.6825
5.18682
3.28415
-5.43534
5.67451
-24.8386
5.79722
11.758
14.5199
-2.58891
16.475
27.7578
15.018
-19.9346
15.3611
13.3734
9.33205
1.61988
6.23245
-25.051
9.83522
15.1321
1.35962
19.582
1.58482
16.1998
4.19299
5.23272
-7.37402
-4.69844
24.9813
-57.6939
16.1653
16.2352
16.8852
9.88168
14.9175
8.48164
-5.31276
10.053
-7.65795
-11.9805
15.1804
16.272
-2.03176
15.3837
17.6666
-24.5185
-0.278018
2.66316
3.64577
17.6167
15.3739
17.8555
5.89693
9.77769
4.7749
5.17031
4.34051
17.9475
23.7757
6.5329
-22.5663
-6.50492
6.78127
10.0974
10.147
-8.98605
-31.1528
4.94083
-42.0553
-2.2473
26.9151
14.847
-4.24042
-117.092
-22.3047
4.37043
-10.2233
-0.166482
-2.54408
19.0188
15.3238
4.0728
24.2346
6.5858
-9.65426
-10.6933
-13.732
10.6774
-1.47769
14.244
9.14951
8.30479
4.90261
-26.6091
-8.08222
-143.82
17.9845
-23.816
8.64128
-9.94109
16.2639
14.7823
-41.3919
16.0725
13.3775
18.0856
20.4341
10.6413
10.2875
25.8125
-12.8632
7.29859
-17.3121
-29.448
19.2752
-93.1784
21.7991
15.2087
4.53169
-3.11898
-11.1202
17.4324
-91.2717
4.23927
11.1535
11.5091
-8.44069
15.7111
13.075
3.58601
21.6539
-4.06039
2.01011
17.7756
7.68041
17.441
10.3125
27.6261
8.70197
4.86257
17.712
7.05844
16.1759
10.0175
12.887
10.3814
-3.44283
-0.0337014
10.9183
9.57402
-52.7526
20.8702
9.82492
14.9481
15.2987
-57.1715
9.76456
-7.64482
15.5719
7.04194
-20.1436
16.7927
-60.8103
16.2795
16.6462
-6.88313
18.9008
12.6576
24.8385
11.5501
-23.7266
2.01608
0.426678
18.4574
17.4045
-26.0061
15.5673
17.0848
-6.08355
3.59849
9.66922
12.3276
-6.77374
-9.43197
-1.6697
-144.288
16.2067
0.968133
-35.9494
1.84823
17.9874
15.9594
19.0022
2.5599
15.2629
1.25856
10.2331
15.4255
-54.2866
-63.3518
21.5435
10.2021
-21.1056
1.60106
-14.0284
-46.3881
16.1706
-8.47506
3.34274
17.5106
2.46332
15.5188
-0.532115
6.92325
23.2563
5.30668
17.9099
4.10381
-48.808
14.1456
9.34823
17.6208
23.2119
12.2886
10.762
24.372
14.9406
18.64
-18.1724
-0.759422
-2.71092
4.80764
-43.8499
-26.4899
6.27889
-20.9593
6.47853
8.15577
-0.864092
2.28104
-47.8473
0.539888
18.6154
-24.7944
7.8517
15.7515
16.0148
0.0547384
7.49483
-44.2372
-11.12
-6.15139
4.35009
18.6623
-32.3422
18.1027
2.19213
16.1716
-2.96739
2.88992
-17.5256
12.8561
15.8124
13.715
8.14595
15.5748
-17.8281
16.3699
20.7543
10.4579
-31.4532
-33.5131
16.887
12.6307
-10.0064
-7.1967
11.9495
3.49002
8.66197
9.18752
2.60029
5.82549
15.8092
12.5219
8.53259
-29.578
19.255
-21.7706
14.2059
5.4681
16.3859
13.3759
15.5964
8.96664
-32.5119
-89.942
4.74646
5.48747
-80.4909
16.0121
4.26808
-44.8344
16.6374
11.609
16.1233
-69.8816
-32.7288
3.96073
8.69787
13.3587
-6.24918
11.2503
9.15759
-18.6079
-36.5491
-23.9854
8.14637
16.3377
8.7884
10.0436
1.57987
10.6341
-37.232
3.33173
-0.655453
16.0776
7.30089
-41.5918
15.1612
10.3221
14.072
21.3128
20.7192
4.75815
6.24407
-24.5194
5.79642
15.7238
9.07313
-24.3586
-9.78454
-12.2588
0.393399
9.05804
-19.1753
25.7925
2.54043
12.7488
7.2006
1.28001
9.36425
8.23714
-4.9767
12.887
10.5182
16.8453
5.51114
15.9699
3.72038
-10.4787
-62.3795
-4.86513
-14.8343
12.2111
22.9287
15.674
-5.41767
-19.8427
17.5405
-7.41508
-46.0588
7.06675
3.16651
12.5211
-26.2466
-14.393
4.2374
8.11024
6.73009
-26.5829
9.28639
16.779
5.53226
0.115788
17.3178
8.48679
-18.1296
3.56428
10.2667
4.73337
24.6372
7.666
7.26794
6.54004
7.5618
5.57169
9.77032
-3.35714
5.12626
9.23947
3.43223
8.84872
-14.2787
17.7027
9.45129
13.4941
-37.3312
5.7073
23.283
-62.9124
12.7094
12.2796
14.3897
7.85689
7.28412
-5.96957
21.6422
16.7729
16.3884
11.3664
-63.6302
17.213
13.0067
20.3293
-13.2096
17.0116
17.2612
16.7632
9.49451
3.36875
14.138
-10.1266
2.91293
15.263
14.152
12.593
18.0069
10.1726
19.5436
3.89881
13.0133
11.6339
7.36294
-40.35
16.2185
5.18198
15.6776
24.7229
16.6288
8.43313
4.78961
7.12283
16.2002
8.83756
-9.13177
8.29079
8.4306
16.6966
-34.3109
18.6569
13.7582
28.4651
21.3039
0.00410303
-2.54064
-38.3553
12.4102
21.374
11.2843
11.6413
1.66963
26.7354
16.1279
7.66546
25.6015
6.94479
14.7568
3.49097
12.3051
4.16839
10.1156
12.7125
15.1942
9.31307
-17.3239
9.06263
-15.038
4.6491
-20.873
9.29404
21.5886
17.7458
6.3548
-12.8522
7.68598
13.5793
9.10605
8.87458
15.6308
-22.5268
6.30887
-96.2818
16.6426
4.07831
-57.3879
19.3297
3.43669
7.22551
5.04771
23.5477
-48.3462
18.0868
-14.3271
25.2732
5.82678
-1.2962
3.89138
4.28219
9.77424
16.0604
11.9509
-54.4966
2.69649
-71.8519
16.3753
11.2868
11.9244
-50.7482
-33.6041
-14.2132
12.2233
-4.85259
6.35741
-10.9045
16.2008
23.9476
-14.4071
8.88395
8.59291
-45.8124
15.1236
6.61909
-0.801487
-48.096
-2.11589
17.4071
-74.499
-33.5277
11.459
-26.3905
-6.09952
13.2357
16.2652
13.639
16.2481
22.8169
-25.6072
26.0759
3.42134
24.3449
-27.5835
5.92403
21.8515
15.0335
-57.2071
6.47942
8.76217
9.15292
-58.3735
-9.10543
10.2047
4.52641
3.94286
6.00473
-5.7603
14.6557
12.2227
-29.2873
14.8077
2.4018
4.53509
-52.8537
8.68678
-2.2481
-61.2673
4.22222
23.4883
10.0242
23.7823
7.96887
-6.56684
15.0981
8.4011
4.38963
16.2448
15.2735
25.2127
16.366
17.8976
-4.37995
-3.71464
24.6376
24.0918
17.3158
8.381
-61.6642
-11.1557
9.21101
0.35058
2.78096
20.5175
-129.151
9.11115
-27.0142
24.1785
6.47054
12.8446
-98.8973
7.01431
20.6335
27.0206
25.715
10.5818
15.9782
-6.09344
4.15288
16.6059
26.0403
-35.5544
1.09331
2.31521
0.835999
9.94493
10.6992
9.21509
9.57213
9.758
8.16563
-25.0855
14.4107
16.7531
-14.9667
13.7281
-105.541
8.79955
20.7596
-26.652
-1.68616
-16.7304
15.2033
16.373
-33.0208
-18.7047
6.94849
7.88793
27.6628
-7.45043
-24.5868
7.02361
10.8237
-37.3508
-15.8325
-43.6409
-20.0055
-52.5294
-10.0325
8.71387
2.93634
16.1342
9.33931
12.6163
26.9186
13.2461
8.95139
-37.5118
13.1643
-5.18996
4.24675
20.9043
14.8065
9.09491
-25.9416
12.9024
14.5686
-42.6573
-21.9979
7.45239
21.0632
4.89432
16.2027
12.1425
19.0221
11.358
-108.363
6.68581
15.924
6.13328
16.7517
7.03774
24.9009
-58.7111
10.0841
-19.0869
16.6675
-45.9736
4.2741
-61.5074
10.5295
-9.45221
-62.2314
-53.3553
6.56746
7.0736
16.0427
8.52898
9.80122
-12.2322
7.70308
-66.0185
15.7902
23.9786
6.37622
-6.75787
8.4135
9.95597
-0.054961
4.99558
8.42151
-4.53105
9.88633
5.89552
-9.37664
12.4251
11.9632
-40.8467
-41.735
7.90966
15.9793
13.3275
-29.0629
10.3701
-21.021
-33.8109
3.4702
3.23494
-32.0746
18.6267
-71.4693
-5.2124
0.158676
-36.1814
-3.54167
-27.1129
28.6486
2.34496
3.25326
17.357
24.09
20.8254
-110.517
3.85777
15.9772
9.11888
10.2593
23.9793
6.63163
3.63677
28.3521
11.5823
-14.126
13.1879
20.1936
16.3221
8.42146
21.2979
16.0667
1.7743
6.71545
15.1033
9.32455
-10.0101
22.6562
16.1881
11.0377
-26.6481
11.2258
3.12963
-106.582
3.53416
8.36338
9.94909
17.0712
10.5273
-6.60896
21.4599
21.9838
-31.2081
7.53236
-38.1035
-36.3325
-2.84864
15.9034
-47.8593
5.31516
18.2233
24.2431
-7.90215
12.0374
14.3948
13.9716
2.08687
8.54465
-41.0265
1.40573
-4.85442
7.30313
-20.5875
1.16271
9.36923
-63.2387
15.0403
-72.5264
5.7042
14.0705
-4.45067
-87.7628
-10.7034
11.0171
4.349
8.09007
14.8805
0.948925
3.77929
-27.6873
-35.7134
15.3101
-8.33544
24.1868
-46.9888
26.2763
6.99725
7.48712
9.82191
16.3907
7.32011
2.52237
0.313553
12.1984
10.3486
3.63314
28.9961
13.9449
-4.80214
4.74193
0.402076
-10.9346
10.4535
-26.3634
15.9828
-107.423
-80.9764
-4.9641
-12.9255
1.72899
-4.77693
15.7844
7.33032
20.963
24.8022
-9.94986
-4.17254
11.4353
7.14695
21.5845
-30.3874
11.8878
14.7837
16.1034
-141.874
-37.4055
11.4512
8.98994
5.09101
-135.443
-14.8017
10.3995
7.43263
1.60123
11.2678
3.15523
2.44198
10.7626
-102.803
-112.085
0.104707
-15.8149
24.8614
0.0474259
16.3038
2.28066
3.79048
11.4861
-1.96776
14.0923
-47.8673
-2.47832
21.3976
15.1433
12.2054
-6.34419
26.146
-72.7506
2.33691
-102.307
-2.85987
-42.1696
-142.202
19.8261
11.987
7.86226
14.6784
-65.8229
-26.3593
9.75133
7.86089
3.66467
12.2759
14.8889
11.1072
-21.8499
3.70616
-27.5815
5.99179
6.82272
6.1452
25.2965
16.0238
-22.477
-4.12757
13.7977
20.3578
1.06494
-5.42259
-1.99729
18.0535
8.83449
4.40277
16.8185
-54.0056
21.1804
1.06809
17.3147
-5.31831
4.88376
-17.9681
-104.324
-3.2618
14.4209
-7.53131
-34.1065
13.2538
-62.382
11.1735
18.0918
16.1496
17.678
16.194
3.1278
4.8682
12.3875
9.39999
4.85207
13.0711
1.54033
21.5094
-58.5516
17.3148
-7.72314
23.8703
-65.3403
7.77058
22.8945
-61.4001
0.466289
-8.94411
17.5345
22.847
15.7741
5.66445
16.0377
15.1502
12.2626
15.9452
-127.825
16.277
-67.6268
-75.0577
-5.04109
-7.26233
14.9377
-6.77441
-15.5429
4.78593
22.4396
11.3753
12.4318
-10.6384
5.33149
2.64339
-26.8857
16.2265
9.83965
-17.7964
25.7391
8.09414
20.8339
15.8454
8.73467
14.626
6.63698
0.715271
-9.82102
5.06226
3.9234
10.4353
9.65479
-82.3114
25.9304
17.6001
2.73372
-29.1878
9.35905
-117.138
16.7359
14.2234
9.49428
-61.0479
14.2472
10.6773
5.4666
-3.4928
1.30358
11.3786
21.1945
-4.40302
22.8743
27.2052
23.6269
-33.2388
14.7728
-4.71926
15.8316
14.3766
18.1966
11.4102
17.1424
26.7384
16.8487
-4.67797
-24.2309
1.11245
26.8369
5.37013
-60.8634
-32.0128
18.3914
21.6527
12.8451
2.44039
2.60448
19.8336
-19.6037
9.79332
-33.3057
14.8878
8.51138
-14.9796
6.52088
1.47792
-0.394319
-48.3058
4.82801
-23.9707
14.5714
11.857
10.8452
10.0519
-42.8053
-3.17182
-12.5973
-42.9564
-5.10083
-4.93151
16.6288
20.153
-74.0494
20.9936
16.932
22.0593
5.26629
-25.5205
11.4204
-9.26143
18.0219
-37.6334
17.6241
16.7706
13.1257
17.8184
8.24692
15.4378
3.34157
15.0981
5.41347
-5.07383
-32.9026
-4.35705
15.2293
-21.2313
-139.95
-13.5291
23.3685
14.5531
15.5315
4.43598
19.3384
1.22492
9.7456
-4.61393
4.34967
9.94852
-115.01
-7.75637
6.5052
-11.5188
4.0707
-25.5617
-3.81425
-14.61
-4.49318
7.25124
22.6016
24.7457
20.9189
-25.3541
9.85185
-7.69543
10.2162
21.1467
13.6176
15.0729
-8.77689
4.32823
5.07043
11.5906
16.3454
10.3614
11.5688
-7.19447
10.9326
-12.9233
15.9985
11.6705
15.9735
-9.71875
10.1388
-54.4263
-14.7694
-14.0686
2.9487
21.7844
1.07387
0.254218
-34.8442
13.7138
16.2433
7.81809
15.6675
-10.1931
19.6843
23.1449
-143.543
11.1354
17.4508
-122.536
-27.5322
12.1461
17.2544
18.1883
-1.71078
-0.225463
12.7913
22.423
-19.8951
14.9998
11.3949
19.7694
11.9614
5.36977
-74.4837
15.2269
16.1458
16.0691
11.2183
1.2597
11.6253
26.1903
-6.55231
4.20835
11.8694
-19.0839
12.1062
5.21667
-17.5744
-0.96404
-72.6856
15.782
-127.733
4.36406
14.8403
17.1415
10.3248
2.11164
17.7696
10.4585
-8.91509
-7.62119
5.13265
4.94337
-24.4522
18.773
10.9557
12.055
8.88681
20.6356
-14.6144
2.55336
15.719
-12.9241
16.1993
9.05903
3.56382
-11.0417
16.5112
8.99089
4.6566
7.09194
5.2741
15.4928
-9.64317
0.288057
-111.013
-18.9888
15.7189
-14.0767
23.4326
-7.57531
-16.4476
-35.8858
17.7273
11.3156
14.3085
-5.24581
19.4737
-31.5455
1.37585
11.7253
-41.1781
16.7155
5.46363
7.67839
3.23404
4.21569
16.2547
-9.15933
-111.729
9.90476
-30.1655
-39.8218
5.51004
20.7974
10.0308
-6.05882
14.3752
-14.695
17.9063
-9.35342
12.2121
18.6354
16.5554
5.12185
-96.0122
-26.5697
11.8459
14.4847
15.2389
-41.3221
-46.9643
4.07337
-4.09808
15.1176
27.3826
10.039
15.5525
17.7271
13.8757
16.7346
-5.54764
-8.2151
-85.9197
15.8788
26.5661
10.4625
7.5652
15.8796
5.27315
6.29633
7.95331
12.1652
6.94722
23.4279
-37.7389
3.82439
25.4552
16.1039
8.09046
11.7685
14.667
8.22597
-55.1893
-46.8119
11.6525
-3.44896
-5.20012
14.7256
-67.6615
-29.5585
-12.5497
9.1798
9.66545
11.3506
12.9411
14.5568
14.834
-1.3647
11.7733
10.1835
22.3558
18.7007
-1.80326
4.38795
8.02584
16.8789
11.1658
-0.45326
5.67989
12.7634
4.97693
20.7658
12.5985
1.15287
-4.04669
7.84242
12.9514
1.16734
16.3295
8.81458
10.4819
-55.001
10.0204
-4.51484
10.6512
-0.270635
-19.67
-26.5729
-10.15
18.3456
-17.4776
6.85711
-13.3104
21.476
-59.8295
5.60332
14.2172
-10.4424
18.7619
16.3323
-0.876958
16.6213
8.91473
12.1461
-4.27041
-3.10019
1.99787
18.8958
-1.27975
-4.23801
-20.1333
1.99245
6.54193
-18.1467
-16.9597
4.67566
14.5331
16.0494
13.5079
-7.14001
-27.033
16.9981
14.377
-0.670903
13.8526
-1.14681
2.09859
11.7658
7.13121
16.1977
-57.5075
-61.3288
-61.1829
14.6631
-26.6586
-6.7877
10.213
-19.0733
-11.4064
-12.701
-7.09823
9.96203
0.35094
5.19368
-4.29167
16.5605
16.3965
-3.57179
17.9999
-24.4453
20.3774
5.60755
12.3576
7.15274
11.9795
7.3083
-3.39993
-4.02067
16.7342
18.8034
21.5121
-5.52145
-10.6133
-31.1346
2.15363
2.60711
-8.53206
-10.663
-4.91758
7.26702
-6.3781
0.676812
-22.3383
5.62179
19.6465
8.44335
11.5609
10.4954
3.47796
-5.18705
21.1399
24.4253
0.73094
11.8614
12.44
-1.11928
-47.74
17.6001
18.6245
-20.2218
-60.363
-71.1314
-29.4498
8.00874
-8.39009
9.36813
17.4631
-18.2018
17.6512
-10.6583
-14.9111
16.6925
8.83036
-6.33862
12.9169
18.4665
-8.86794
9.57706
-17.7048
-7.12477
-4.39109
21.8578
-6.0584
11.2085
-8.72389
14.2084
-14.5242
-30.1595
-19.2398
-28.7538
5.16236
12.2833
-2.87565
-7.71704
10.0975
6.83756
19.6232
-43.8624
-12.0361
1.5629
5.49256
15.6916
-11.6702
17.3104
10.1764
1.39412
8.61394
5.49077
-37.4241
-9.67152
-9.1383
6.06131
14.7427
7.55252
11.6413
0.405365
8.05576
-28.8589
16.2977
-41.3849
15.6709
3.14993
-84.9187
-6.96594
29.3881
-45.3605
-11.7629
-6.66271
0.648246
15.9515
7.11544
-1.59424
2.27426
-21.8947
-3.79124
-4.22548
-7.2384
8.8916
-23.8693
12.9369
-18.893
11.4977
10.3321
8.52536
-5.80622
8.18525
13.9175
-10.6899
13.498
15.6132
2.31128
-11.7533
11.4383
-43.4647
1.0126
10.2441
14.6483
-96.4442
15.5718
-9.50322
-40.3184
-28.193
-27.7964
4.85276
-3.78164
-15.3973
15.2082
15.5126
-37.9571
27.1044
-33.5717
18.3468
16.8252
-11.6993
14.2881
14.0518
16.1574
1.86226
3.09359
-23.9793
-23.4488
15.8128
14.0818
-0.936188
-38.7834
-1.45587
18.7815
11.8421
-23.3783
12.874
15.5917
5.55754
5.17039
5.6775
16.2354
15.3462
-14.0879
17.4536
17.3331
6.90527
-14.9867
14.1279
15.5687
12.2983
4.74654
8.09893
-13.9633
-33.974
-10.1047
18.3556
8.72082
3.30386
5.07687
-4.92611
-57.4244
10.6253
-20.3213
0.752156
14.2139
15.8589
-63.758
14.4218
5.40508
9.24571
10.8144
12.3543
11.3565
9.78168
16.4955
17.5397
15.6142
1.63669
16.5871
14.4048
16.2288
16.9086
16.1411
2.79533
6.66247
3.0726
14.5463
22.8
-28.7018
26.2952
-5.42055
-4.85856
11.4486
14.2197
-15.2854
11.2543
-10.6833
-16.202
10.6205
-96.7517
-21.7053
11.6254
9.15036
25.6137
12.6282
-4.09492
-101.726
9.80327
15.2064
-75.291
-14.749
14.1039
6.14545
-3.99442
-6.38139
16.2072
-2.28971
15.0971
1.50627
0.456314
-19.0071
2.72291
6.45496
-2.33476
19.4177
5.23494
-7.51025
21.9267
-27.2652
7.00911
15.4766
6.26562
-30.5315
17.2711
9.08705
15.5796
4.23035
15.2462
9.26833
19.3915
15.7101
2.65585
11.1856
4.62181
15.7532
8.54441
7.0901
-32.1443
-20.9989
26.0241
9.91949
-48.4955
17.1614
-25.8901
10.2707
-49.8173
-0.0633016
-10.031
-13.5275
5.9617
7.20395
-15.7411
7.45119
2.16927
-65.3263
4.01616
-106.52
11.6565
16.5375
-52.2123
-78.7331
5.35428
5.6962
-0.330304
15.0085
17.7444
9.45899
15.1466
1.7462
16.0514
21.3328
-8.93565
16.1044
7.32225
14.8143
16.0129
12.9949
0.677243
-110.38
14.1193
17.7543
-100.653
-32.2541
-1.83271
1.40754
15.5792
14.4405
-4.89709
6.38645
15.4996
-8.80449
9.44776
4.10157
16.681
10.0958
-3.67999
10.2548
6.78885
-25.232
19.5831
23.1484
14.619
26.4909
17.9601
27.5155
9.72315
6.27727
19.9934
4.96942
11.5707
10.8784
-3.60912
18.5597
7.24758
1.10405
23.065
12.5846
-18.4869
15.4195
14.9061
17.3819
-16.5017
16.7856
23.5861
-17.8496
-3.71562
0.553829
7.97553
-6.01238
13.497
11.1122
18.1019
15.8816
-63.45
13.5508
6.57218
-3.81981
-3.44721
-58.3103
11.801
0.417283
16.1489
8.42333
-8.58984
11.0744
-23.4984
10.0255
11.8314
-14.1603
13.0643
13.5679
-5.17251
10.8194
17.2506
9.05634
-26.6901
15.9272
6.6089
15.258
-10.6668
17.3717
14.187
-3.93349
4.16255
12.4883
7.51247
14.412
-12.5254
25.5007
4.56326
-15.6416
12.6897
9.48274
-6.32335
1.47305
4.40384
-0.476352
0.903556
1.63559
11.2041
10.2752
26.8911
2.39409
-39.5619
10.9446
4.5554
0.702166
2.58428
10.3695
17.4569
-5.70059
7.6473
-9.74291
1.10138
7.91404
9.52304
16.3268
6.9958
0.771476
0.0924856
15.1268
-2.51733
10.0096
-13.9856
11.1925
7.80748
17.9463
-14.9125
3.10667
-14.8625
11.497
-9.67721
10.9712
15.3543
13.9486
17.8452
-1.65098
1.86246
15.347
-44.0349
16.771
15.413
5.84384
14.7793
4.45379
14.3234
9.62446
5.00379
7.73059
17.0992
-74.4297
16.1375
8.61932
27.0532
11.7397
13.8883
14.8202
12.8742
9.03429
14.9974
4.84411
6.31114
-0.91032
6.75674
11.0333
6.71334
-4.37317
-26.4527
-21.8042
-5.35195
-7.82669
4.84109
16.3664
7.51326
16.2533
12.9395
23.5833
22.3953
14.8443
6.00127
14.7305
-14.1815
18.2811
8.24829
12.9441
5.54664
15.7656
12.0777
3.1625
-20.197
2.91294
7.4206
-0.560614
6.83768
15.6123
-26.5377
6.57545
-5.10726
11.857
15.1825
2.84282
14.9635
13.278
4.34536
10.1324
13.8251
10.0706
4.11756
17.3563
10.5576
19.1632
-41.903
16.8034
12.2855
-11.5551
18.0637
-34.6966
4.77513
-9.07025
-127.31
16.1636
18.6607
17.3296
17.4739
16.2463
16.2152
15.1456
10.6105
15.3522
9.43273
13.3358
10.1349
4.75017
21.3891
7.18876
-20.011
16.4954
18.1913
20.7922
-28.4477
2.97281
9.74607
-4.07659
15.3243
-15.9784
-56.1896
17.4586
23.8526
-14.7836
-43.5038
-7.07285
14.9358
9.71726
13.3076
8.73309
8.27427
-54.3808
10.9962
1.1719
-0.951561
16.7303
16.2026
17.809
-1.00789
-22.761
0.68691
8.88586
-25.8538
-1.05412
8.87119
5.94959
0.626266
8.07529
3.72541
0.665826
12.4607
-26.5033
9.00133
13.5352
3.96464
7.58765
-11.5056
-6.67385
4.96195
16.9267
9.61401
-54.1044
15.6835
17.8875
-26.0492
4.6508
8.00163
-1.42047
-22.6768
6.67831
5.70862
4.61135
15.2111
-1.8693
15.7418
-40.1821
7.12487
20.2889
10.6023
12.6798
10.0633
15.7675
-40.9991
16.9318
4.54561
2.28094
10.7768
-70.8341
-68.0986
-74.2618
-23.1952
12.6871
-11.6679
-17.0848
17.0702
4.65528
-8.42509
-34.6315
5.81249
15.7639
6.95652
13.349
-16.4917
17.1389
4.145
6.2802
-21.3223
4.92139
17.0342
9.08459
16.3711
-3.70096
3.47384
19.439
16.8039
15.0883
16.2212
17.5476
20.3025
22.0824
10.2243
17.0055
9.44287
18.3331
2.55644
-17.0476
13.3843
10.3789
-3.73042
2.43649
3.17025
-51.9335
-51.081