/*--------------------------------*- C++ -*----------------------------------*\
| =========                 |                                                 |
| \\      /  F ield         | OpenFOAM: The Open Source CFD Toolbox           |
|  \\    /   O peration     | Version:  2306                                  |
|   \\  /    A nd           | Website:  www.openfoam.com                      |
|    \\/     M anipulation  |                                                 |
\*---------------------------------------------------------------------------*/
FoamFile
{
    version     2.0;
    format      ascii;
    arch        "LSB;label=32;scalar=64";
    class       surfaceScalarField;
    location    "8";
    object      phi;
}
// * * * * * * * * * * * * * * * * * * * * * * * * * * * * * * * * * * * * * //

dimensions      [0 3 -1 0 0 0 0];

oriented        oriented;

internalField   nonuniform List<scalar> 
20045
(
0.873068
-1.04512
0.172055
-1.7518
0.812956
0.938845
0.341428
2.85713
-3.19856
1.18599
-1.55936
0.373373
-1.67125
1.42294
0.248311
-0.828801
3.09126
-2.26246
-1.74975
0.291988
1.45776
0.080007
0.836408
-0.916415
0.872578
0.719803
-1.59238
-0.89325
-0.362864
1.25611
0.154969
-0.560686
0.405716
2.7902
-1.49854
-1.29166
0.722618
-0.700888
-0.0217296
-1.6461
1.32598
0.320123
-0.165783
1.58461
-1.41883
-1.44213
0.548883
0.137361
-0.220115
0.0827531
0.781457
1.3572
-2.13866
-2.29768
3.2697
-0.972018
-1.18094
-0.116738
1.29768
1.75342
-1.43621
-0.317209
0.268288
0.45433
-0.450036
-1.30177
1.41638
1.08105
-2.49743
1.27424
0.066978
-1.34122
-1.09495
2.51134
-0.285859
0.317444
-0.0315852
-1.8037
3.82921
-2.02552
0.100821
0.816291
-0.917113
-4.13316
2.8118
1.32136
0.93322
-1.46319
0.529968
1.9569
-1.91691
-0.0399849
-0.745917
2.25632
-1.51041
4.56082
-2.57121
-1.98961
-1.05922
1.13922
4.12828
-1.62627
-2.50201
0.425348
2.07079
-2.49614
-0.118638
0.728728
-0.61009
-3.97104
2.48743
1.48362
1.03667
0.896187
-1.93286
-0.0145879
0.949018
-0.93443
0.334899
-0.46655
0.131651
3.61602
-3.67098
0.0549589
2.0288
-0.59047
-1.43833
0.807865
1.22094
1.38654
1.40365
-0.470733
0.63284
-0.162107
2.34799
-1.79799
-0.550002
2.56994
-2.14459
0.385894
2.62962
-3.01551
1.99853
-3.2936
1.29507
3.15753
-2.01493
-1.1426
-0.88895
-1.31881
2.20776
-0.165632
-0.564261
0.729893
-1.47356
2.05491
-0.581347
-1.22325
-0.448008
1.43288
2.20169
-3.63457
2.39524
0.951442
-3.34668
1.88581
-2.63173
2.81727
-3.05683
0.239558
0.397741
-0.571261
0.17352
-0.0930412
2.91032
-0.339746
-1.68932
2.02907
1.16794
0.585481
-0.749909
-0.648559
1.39847
0.740079
2.13818
-2.87826
-0.381916
1.35541
-0.973496
-1.05811
0.0420784
1.01604
1.52301
-0.650433
1.59597
-1.65422
0.0582462
-1.13409
0.752177
-2.20099
0.727427
-0.485172
-1.68489
2.17007
-0.0743404
-0.0207909
0.0951313
1.51709
1.09539
-2.61248
3.19305
-1.76016
-1.93924
3.45633
1.12403
-1.28981
-0.023783
-0.728388
0.752171
0.0137891
-3.43479
3.421
3.52963
1.21519
-4.74482
1.29377
-1.24971
-0.0440552
1.02706
-1.36681
-3.36855
0.396262
2.97229
-0.055912
0.92898
-0.393891
0.693572
-0.299681
-0.498577
-1.39806
1.89664
-2.37504
0.0465569
2.32849
1.39014
0.505944
-1.89608
-1.21359
0.901707
0.311885
-2.29845
0.517198
1.78125
1.39549
-0.335828
-1.05967
0.706278
-1.09608
0.389801
-0.473656
-1.15943
1.63309
1.07424
-1.16166
0.0874214
2.92202
-2.28164
-0.64038
-0.281527
-0.00433198
-0.28657
-0.866631
1.1532
2.08892
-1.05225
0.219036
-0.239192
0.0201559
3.42477
0.703509
-0.669243
-0.97686
-1.35754
1.07097
-1.02326
3.4185
0.233226
-0.627116
0.192956
0.0260797
0.534096
1.93352
-2.46761
1.57763
-3.70594
2.12831
-0.494516
-0.901582
0.765646
0.135936
-0.517689
0.650921
-0.133232
1.84081
-1.91243
0.0716135
-0.916069
0.750437
2.23434
-4.10638
1.87204
-0.477246
0.655087
-0.177841
0.0944156
-0.623505
0.529089
1.51548
-0.241238
3.27529
1.28553
-1.98926
1.50408
-0.159403
-2.68609
2.84549
-1.35548
2.13693
-0.175898
0.573639
-1.42981
1.1511
0.27871
-2.39341
0.204499
-1.09138
0.886878
1.85273
1.3048
1.72378
-2.43116
0.707389
2.32927
0.243029
-2.5723
-4.09656
2.90238
1.19419
0.458447
0.692156
-1.1506
3.11176
-1.25904
0.396906
0.235934
-0.0470855
-0.0867071
0.133793
0.0327783
-0.0630721
0.0302938
1.73673
1.17725
-2.91398
1.86382
-1.56021
-0.303608
-0.365037
-0.0270813
0.392119
-0.645502
-0.25608
2.56449
-2.72389
-1.22314
1.25316
-0.0300266
1.58095
-3.2333
1.65235
0.822922
-1.71187
0.922762
1.15401
-2.07677
3.81338
-3.79959
3.38425
-0.506082
-2.87817
1.3792
-2.00491
0.625709
2.54512
-1.30075
-1.24437
-0.45687
0.401407
0.0554624
-0.251609
3.14581
-2.8942
0.710606
-0.609785
-2.45733
0.0534636
2.40387
-1.83636
1.29665
0.53971
4.47901
-0.949379
0.235831
1.05793
-1.85718
2.14891
-0.291737
-2.55331
2.89473
0.0252238
-0.793831
0.768608
0.0388733
-0.0538417
0.0149684
-0.0740207
-0.684264
0.758284
1.83626
1.13835
-2.97461
3.93603
-1.95522
-1.98081
-0.823366
0.749345
2.22168
-2.03704
-0.184638
0.410219
-0.07532
-3.03819
-1.22774
1.69872
-0.470974
-1.7144
1.34134
0.373057
-0.016625
-0.246684
0.263309
1.51692
1.0282
-0.0572261
0.0900045
0.039487
-0.0865726
-1.94954
0.0923598
-2.25636
2.7764
-0.520043
-2.30447
2.32767
-0.0232038
0.427965
-3.80867
3.38071
-1.79357
0.864988
0.928581
0.996437
-1.16457
0.168137
2.92621
-0.162249
-2.76396
-0.104953
-2.22205
2.327
-1.43844
2.36121
0.64364
-1.88695
1.24331
-2.02009
4.25443
-2.34443
1.88924
0.455186
0.0405849
-0.102575
0.0619896
1.46348
-3.08685
1.62338
-3.0277
1.224
-1.95785
-1.20659
3.87603
-2.61911
-1.25692
-1.17135
1.15676
0.614635
-0.657529
0.0428935
-0.371436
-2.46893
2.84037
-2.94611
4.2288
-1.28269
3.46145
-3.01588
-0.445571
-0.138576
-0.470126
0.608702
-1.70846
-1.49631
3.20477
0.463895
-0.308926
1.46183
-1.00338
-2.11513
-0.641343
2.75647
0.432292
0.108036
-0.540328
0.282694
-1.51044
1.3313
-0.398078
2.45684
-0.12757
-0.604808
0.486169
-0.714925
0.881601
-0.166676
-1.62757
3.46382
-3.50445
1.79599
2.02169
-1.96411
-0.0575807
-2.32591
0.56115
1.76476
0.696977
2.76447
3.27384
-1.81037
2.68424
-4.21364
1.5294
1.5078
-2.34771
0.839912
0.275488
-1.45642
-1.59448
2.12857
1.82002
-2.64882
0.672147
-4.10825
3.4361
-4.38856
2.06907
2.31949
-0.301882
-0.911709
0.62008
0.569714
-1.18979
1.7842
-0.69671
-1.08749
-0.101831
-2.1984
1.94679
-0.912723
-0.310413
1.8209
1.97425
-1.88264
-0.0916183
-0.0410997
-0.512163
0.553263
1.78409
0.339662
-2.12376
0.598648
-0.537428
-0.0612194
-0.653623
3.49401
-2.84039
-2.57704
2.07846
1.94971
-1.30607
-0.461588
1.51579
-1.0542
2.74827
-1.16732
0.444249
-0.035476
-0.408773
1.33287
-0.0517114
-1.28116
-0.502491
0.5233
-0.020809
3.99311
-2.6823
-1.3108
0.833364
-3.77948
-0.557497
0.0550063
-2.4137
0.52411
1.88959
3.66649
-1.41017
0.662084
-2.91844
5.44836
-2.15927
-3.28909
-0.0649843
0.497276
3.3592
-2.5456
-0.813601
-1.83009
0.217862
1.61223
-2.82075
2.72463
0.096118
1.70225
-2.9125
1.21025
-0.194581
-0.00748817
0.202069
-1.4378
1.69222
-0.254418
-0.62316
-0.124383
0.747544
-0.60728
0.130034
-0.627438
0.109749
-1.70958
-1.99636
1.82509
-4.26079
2.4357
1.57553
0.124092
-1.69962
1.70791
0.248988
3.58934
-2.9172
-0.814921
0.853794
1.79864
1.86785
-1.67485
0.30444
1.37041
2.10301
1.25619
1.47188
0.112734
0.359802
1.21572
-1.03595
-0.170076
1.20603
-0.121105
0.16169
-3.54438
2.89076
-0.575098
1.37625
-0.801156
-2.89429
2.78314
0.111143
1.10254
0.17158
-1.27412
-0.285451
-0.543061
0.828512
2.2305
-2.55475
0.324247
-2.28045
-2.10812
2.92556
-2.07272
-0.852837
-0.408059
0.366959
3.14411
-1.44185
-2.37893
4.20402
2.74192
-0.962607
-1.77931
3.70204
-1.55662
-2.14543
2.69294
-1.03623
-1.65671
1.81275
0.929166
2.77695
-1.69423
-1.08272
-0.68745
2.50874
-1.82129
1.36895
-2.17409
0.805131
0.606897
-0.453284
-0.153613
0.304188
-0.146527
-0.157661
3.55428
-3.11665
-0.437627
-2.3367
-1.75986
1.57406
0.400195
-2.61941
-0.274875
-0.188117
1.52099
2.0589
-2.9941
0.935196
0.010176
0.604459
-1.60015
3.33688
1.41794
2.57516
4.30255
-2.83384
-1.46871
-2.85066
2.20932
1.78314
-2.78031
0.997173
-1.85175
-0.299636
2.15139
-1.17632
-0.484265
1.66059
1.71856
0.503127
2.69681
-0.675116
1.39219
-0.649243
-1.26767
-0.329347
2.44833
-2.11899
-0.860065
0.145141
-0.779186
0.317597
0.253245
-3.074
-0.157176
-2.41986
2.19851
-0.653906
0.822617
-0.168711
-0.12184
1.30783
-1.2659
0.814576
0.451327
1.58359
0.257226
0.0248427
-0.103952
0.0791091
1.31584
0.547979
-0.918055
2.97696
1.76288
-0.372742
-0.796964
-1.52895
5.11912
-3.59493
-1.5242
2.81087
-3.25385
2.33774
0.916106
2.34646
-2.66516
0.3187
-1.51585
1.04219
-0.493157
0.12812
-0.955382
-1.34307
1.16039
-1.87182
0.711427
1.33855
1.43839
1.52828
-2.58248
1.0542
1.00778
-1.87527
0.867489
-2.92415
0.549103
0.112312
1.28318
-2.05643
1.95094
0.105484
-0.565946
1.00606
-0.440111
-1.83169
0.0819386
-0.437379
-0.838599
1.27598
0.440872
0.000681103
-0.441553
-0.995059
-0.841305
0.96602
1.39924
-2.36526
3.06117
-0.958162
1.57475
-1.34956
-0.16629
1.70073
-0.692949
-2.15811
-0.186317
-0.19447
-0.0305394
0.225009
1.08444
1.26355
-1.7029
2.48603
-0.783138
-0.480425
0.581056
-0.10063
1.6321
0.1521
-2.27679
-0.717313
-1.72242
2.92039
-1.19798
1.43533
-2.55115
1.11582
1.16871
1.75685
0.278778
-0.272529
-0.0062488
0.43877
-2.29052
1.21666
-0.672197
-0.544464
0.100693
-0.175033
-0.39781
2.12159
-2.57407
2.4169
-0.851208
2.35901
0.486128
-2.78381
-1.92222
1.67832
0.243906
2.10787
-0.550085
-1.55778
2.87063
-0.640134
-2.06409
-3.69616
-1.26
1.62024
-0.433678
0.308178
0.1255
1.01886
-1.1356
-2.48329
2.08548
2.8709
0.745122
-2.57352
0.870619
1.97534
-0.401276
0.854676
-0.28494
-0.569736
-0.0149103
-1.63075
1.64566
-2.68736
0.465475
2.22188
2.50512
-2.50512
-2.27817
3.10341
-0.825242
-0.147204
0.172047
1.3537
-0.751318
-0.602382
-2.99202
3.11395
-0.121927
1.22223
-0.0964749
-1.12575
0.957603
-0.270332
-0.687272
0.49851
-0.783961
-0.0367721
2.02624
-4.40517
-2.3487
2.78309
-0.434393
-0.936181
1.9022
0.281735
0.0207868
-0.302522
0.302841
1.042
-1.34484
-1.18037
1.45586
3.90168
-2.81901
-1.08267
-0.358166
-1.44198
1.80015
-0.889654
0.930771
-0.0411177
0.628026
-0.91639
0.288364
-2.92895
3.9281
-0.999149
-1.05404
-0.505322
0.530534
0.324142
0.0265962
-0.288627
0.262031
1.8743
1.67998
0.276293
0.00544159
-0.328662
-0.54096
0.869622
-1.65463
2.61117
-0.956535
0.0355103
0.682569
-0.718079
1.46615
-1.17416
1.6244
-0.843522
-0.780881
0.268063
-1.4275
0.646562
2.27964
1.52493
0.830718
-2.35565
1.5711
-1.14457
-0.42653
-3.03563
0.578294
-0.894165
0.46195
0.432214
1.06827
2.18501
-3.25328
-2.02322
1.72358
0.215261
-2.75092
2.53566
-0.510246
0.37167
-0.0234326
-0.0301126
0.0535452
0.151242
-1.18719
0.0762705
-0.0923487
0.0160783
-2.07497
-0.338727
1.82856
2.36123
-1.10538
-1.25584
-0.548427
0.0680016
0.341867
-2.01031
1.66845
0.71816
1.42935
-2.14751
1.04219
-2.07293
2.43451
-0.361577
-2.26186
1.57441
0.170676
0.146769
-1.09946
-0.614932
-0.96367
0.202828
0.760842
-2.81215
1.15752
1.87304
-2.23121
0.630137
1.3452
-1.19514
1.1158
0.0793441
0.470455
-2.81313
2.34267
0.686936
-0.985553
0.298617
0.596123
-2.87291
-1.98543
-0.319033
-1.16858
0.110463
-0.024164
-0.00675745
0.0309215
1.62123
0.144145
-0.185246
0.0411019
3.05287
-1.9846
-1.15246
2.83077
-1.67831
0.875522
0.690824
-1.56635
-0.978649
0.468403
-0.868842
-0.0948283
0.894038
0.459662
-2.60538
-0.0807056
0.182744
-0.377214
1.74111
1.4521
0.310774
-2.56853
2.95442
0.205345
-1.02149
0.816144
-0.281956
-2.46977
2.75173
0.41071
-0.521892
0.111182
-0.782493
-1.01108
-0.5603
1.92926
2.38961
-1.01041
-0.945291
-0.320612
-0.0785112
-1.36417
1.44268
3.35105
-2.92308
-0.178983
-1.31555
1.49453
0.47639
-1.60017
1.12378
-1.85888
-0.0536221
1.9125
0.276808
-2.07479
0.0276196
0.381091
-0.40871
-0.790071
-0.0995823
0.626464
1.19766
-1.82413
0.531203
-0.639071
0.107867
2.57869
0.594053
-3.17275
2.18608
0.735941
0.416094
0.0247783
-1.45502
-2.06254
3.51755
3.24979
-0.685301
2.60942
-1.89126
-1.26358
0.826202
0.0548021
0.249385
-0.878406
2.66155
0.307613
-2.24192
1.93431
0.161771
0.0408572
-0.202628
-1.1439
1.76605
-0.622156
1.12106
-1.31356
-0.885652
2.19921
0.231908
-0.29043
0.0585228
-0.80107
-1.48575
2.28682
1.38943
-1.08659
0.25861
-0.275235
1.5472
-2.34827
-2.04694
-0.708448
2.75539
-0.00876316
-1.63478
1.64354
1.22479
3.23155
-3.38427
0.152722
0.694661
-0.235164
-0.459497
-0.0746914
-1.12045
0.737742
0.895347
-1.22694
0.0506115
-2.39102
2.99714
-0.60612
0.626946
-1.20204
0.610788
3.20259
-2.75849
-0.912488
-0.329336
0.197055
0.13228
1.58725
-0.13515
-0.759416
0.828416
-0.0689997
-0.830845
0.207685
-3.43506
1.4772
2.56498
0.526278
-0.203206
0.831232
-0.752326
1.62785
4.25575
-2.22951
-0.773714
0.014298
-0.471368
-2.01193
0.55482
0.878011
-0.852788
-2.7691
0.0817387
0.115758
0.761818
-0.0748818
-4.18351
0.472679
3.71083
1.12048
0.475491
0.754565
-0.287681
-0.466884
1.07256
-0.947467
-0.125096
-3.09942
1.47315
-3.26394
1.54152
-1.0168
0.541183
0.475618
-0.0980696
-0.543903
0.641973
2.90391
-0.0548639
-2.84904
0.726191
0.0602871
-0.786478
-0.494243
-0.935569
0.839964
-0.133686
0.222452
-0.233437
0.0109847
1.43772
-0.117224
-1.32049
-0.036119
0.258571
-0.463231
-1.81841
-0.0978004
-0.535888
0.633688
-3.04569
0.654668
-0.126007
-0.269994
-1.08754
0.979173
1.38205
0.0579578
-0.872879
0.810619
0.640387
-1.45101
-1.43873
0.688821
0.990727
-0.785381
0.801375
-0.706959
0.4289
-0.994846
1.65126
0.0932956
-1.74456
1.77864
-0.353537
-1.4251
-1.11573
-0.889183
0.615239
-0.601393
-0.013846
0.829022
-0.963317
0.134295
3.25959
-0.0890603
-3.17053
0.075065
-0.387311
0.312246
-1.5864
2.21272
-0.626317
1.66149
1.50297
-3.16446
-0.553122
-0.0181391
-1.00333
1.50562
-0.502289
0.780014
0.323822
-1.10384
-3.12275
1.95943
1.16332
-0.222422
-0.011015
-2.54924
0.502303
1.11264
-0.636211
-0.476426
1.19468
-1.6753
0.480623
-0.399852
-0.645271
0.330801
2.90075
2.4893
-0.504487
-1.98481
-2.37202
0.299088
0.988555
-1.78552
3.11242
-4.67122
1.5588
-0.395837
1.01592
-0.00274911
-1.00774
0.679078
-0.566539
0.771038
-0.8157
-2.95491
3.77061
2.05865
1.08546
-2.21434
2.37224
-0.157899
0.0182168
-0.0423808
-1.6116
-0.480139
-0.447226
0.501509
-0.0542827
-1.6756
1.57529
0.100316
-0.124057
1.45404
-1.32998
-0.355675
1.55036
-1.22722
-0.682685
1.90991
-2.52991
-0.762985
3.2929
1.22692
-1.12961
-0.0973177
-0.920171
0.0718021
0.848369
-0.30402
-0.121331
0.425351
-2.7736
0.124146
2.64945
0.0618199
0.715277
-0.777097
2.27002
-2.53612
0.266104
-1.27845
0.924187
-0.0952356
-0.828951
0.0444953
-0.491721
-1.76347
0.518359
1.24511
2.02738
-4.04747
-2.83866
2.48617
0.352494
0.637341
-0.106138
3.75333
-3.14255
-0.261791
-0.322955
0.584747
-0.048408
0.641143
-0.592735
-0.314243
2.06059
-1.74634
1.80283
-0.292308
-1.51053
3.03176
-2.89092
-0.140837
1.86658
-0.673094
-1.19349
0.11953
-0.824586
0.705056
-1.03258
-0.0587973
-3.18
2.75832
0.421674
0.114162
-3.29416
-0.387017
1.14319
-0.756174
-1.52809
-1.58856
0.769426
-0.593032
-0.176394
-2.37214
-0.67355
-0.713335
0.516312
0.197022
0.482784
0.115864
-2.9611
2.81902
0.142076
-0.520731
-0.087664
0.0668731
0.792289
-0.066098
-1.61542
0.17762
0.626983
-0.651248
0.0242651
-0.0388537
-1.21166
1.25052
1.36206
-0.139835
-0.714879
1.72333
-0.091233
1.10175
2.36259
-1.18109
-1.1815
-0.325475
1.32191
-2.09678
1.36271
0.734078
-0.19675
-0.025672
3.21508
-1.15643
2.15445
-1.68399
-0.400964
-0.517891
0.918855
1.33102
-3.64138
2.31036
1.84432
-1.85308
3.91937
-3.00277
-0.916596
-0.0223008
-1.76688
-0.329908
-1.29355
3.20143
-1.90788
0.330299
-0.888665
3.5729
-3.12099
0.748849
0.342487
0.26441
-0.349999
-0.136379
0.539482
-0.0161819
-4.24909
-0.46313
4.07465
-0.881606
0.608876
0.398334
-1.00721
0.126114
0.831489
-2.29451
-1.37469
3.6692
1.93828
-0.219725
-0.021814
-0.535611
0.557425
2.464
0.146711
-0.213839
0.0671281
2.26583
-0.614568
-1.04858
-2.83822
0.489518
-0.795036
0.0497065
0.745329
2.14801
3.30035
-1.40706
-0.17863
1.58569
2.89551
0.136247
1.94762
-2.73367
0.786054
-2.40806
0.0190558
2.38901
-2.60157
3.30511
-0.703538
0.530437
-0.0238196
-0.506617
-2.0582
4.08558
-1.44776
1.22038
0.227381
0.135231
-2.34958
2.54692
-1.40765
-1.13927
-2.71667
3.53211
-0.815447
-0.699412
1.85304
-1.15363
3.48731
-1.54478
-1.94252
0.151068
-1.7811
1.63003
-0.0702015
0.040089
-1.21886
2.88035
0.775632
-3.0538
2.47095
-1.03562
-0.659035
0.561235
-2.48631
0.0782457
2.73308
-1.2048
0.118775
-3.48733
0.984262
-0.0352443
1.86744
1.80504
-3.67249
1.64525
-0.557742
-1.08751
1.03233
-3.197
2.16468
-0.626394
0.031661
0.594733
-0.649649
-1.58828
2.23793
1.1613
-0.732404
-0.611757
1.67007
-1.05831
0.351886
0.552602
-0.904488
0.251247
0.518179
-3.18369
3.66174
-0.47805
0.588902
-0.178191
1.42009
0.722787
-2.14287
1.12379
1.87876
-3.00255
0.681951
1.42592
-0.0110654
3.39532
-0.0542221
2.38539
-2.33116
0.0374177
-0.00190735
-0.0779323
0.17909
-0.101157
2.63045
-2.0352
-0.595251
3.23802
0.681345
-0.263918
0.123528
0.14039
-0.676727
2.2757
-1.59897
-0.0434942
0.676257
-0.632762
1.12936
-3.94507
2.81571
-1.20755
-1.42063
2.62818
2.2341
-0.450004
0.683146
0.962106
1.2046
-1.2606
0.0559971
0.936537
-2.37852
-0.882182
0.315215
0.566967
0.646227
-0.0842652
-0.561962
-0.141389
0.0711872
-0.130158
2.03443
-1.90427
-0.549906
3.17953
2.159
-1.88665
-0.272355
2.04566
-1.53971
-1.35602
0.600335
0.755685
0.252202
-1.00352
-1.66182
0.893493
0.768326
0.259118
0.495447
0.456137
2.17592
-2.63206
0.866678
0.571039
0.388242
-2.91816
-1.67637
0.399642
1.27673
-1.18436
-0.706638
1.89099
1.69783
-0.887209
-2.51205
1.57587
0.805542
-0.627567
-0.177975
-1.87801
3.96837
-2.09036
-1.28836
1.55642
-1.93507
1.84697
0.0880982
-1.72729
3.6746
-1.94731
-0.0679871
0.758979
-0.690992
0.633909
-0.731978
-2.97889
-1.33377
2.62447
-1.2907
-1.68825
2.2494
1.44615
-1.69552
0.249364
0.819371
-1.16321
0.34384
-3.03827
1.82895
1.20932
-0.133873
-0.0169948
0.150868
-0.493881
1.63972
-1.95397
3.50728
-2.17626
-0.143451
-1.77877
-2.122
2.06778
1.25707
0.0842655
0.814123
0.334926
-1.14905
-1.15759
1.07663
0.0809681
1.64283
0.148153
-1.79098
0.266855
1.39272
-1.65958
-1.29391
-0.977863
2.27178
-1.96324
-0.702399
2.66564
1.22669
-0.407315
1.47766
1.1528
-3.29289
1.37084
1.92206
1.05906
-1.5522
0.493146
0.0245271
0.702854
-0.86342
0.160566
0.320838
1.32887
-1.06201
0.508623
0.71958
-0.60005
-1.59835
-0.0772515
-0.0113077
0.703463
0.090673
0.983569
0.0459802
0.186176
-0.232157
-2.43448
-1.84407
4.27855
1.29487
-0.0902692
-1.41518
-0.172336
1.58751
0.303545
0.770343
-1.07389
-0.0320102
3.31844
-2.13687
-1.18156
0.614683
1.87462
0.270857
-0.0290964
2.00954
-1.98044
-1.49991
2.66782
-1.16791
-1.5723
-0.656375
2.22868
-1.54825
0.544926
-0.860574
-0.495446
3.06817
-1.43074
-1.63743
0.110694
-1.23754
1.12685
0.856178
0.36925
-1.22543
-0.627315
0.689135
0.42744
-0.7061
0.27866
1.18315
-0.0935078
-0.729858
-0.0385709
1.71938
1.34879
-0.762316
3.24974
-0.874658
3.68646
-0.790404
0.901098
-2.35246
0.780155
2.27805
-1.83928
-0.462087
-2.07556
0.489156
0.551054
-0.938071
1.89668
-1.91159
2.51274
-0.166282
-0.635097
-0.460982
-0.399811
-0.308186
0.707997
-1.03443
-0.12723
2.32874
0.399266
-2.72801
-0.153769
-0.750649
0.904418
-0.468928
2.31448
-3.2936
0.979117
2.42367
-0.153659
-3.70115
4.31342
-0.612272
0.638266
-0.596187
-2.44569
-0.592584
-0.661603
2.80372
-0.0453937
2.37774
2.84594
-1.13447
-1.71147
-1.73224
-0.136427
1.86867
0.77016
1.22652
-1.99669
-2.14799
0.289107
-0.598517
-0.0908315
0.689349
-1.44151
1.74912
0.549239
1.35435
-1.90359
0.0564503
0.63238
-0.68883
-2.6328
0.318272
2.31452
0.910708
2.59657
-0.919701
1.37392
0.492665
-0.499441
-0.394724
3.00432
-3.5104
-1.39265
0.780659
0.611993
0.00250701
-0.555629
2.01214
0.0290555
-2.04119
2.73839
-3.61305
0.0147779
-0.209359
-0.696672
0.143021
0.553651
-0.598946
-1.16452
-0.101385
1.00631
-0.904921
-0.420229
-0.00248409
0.422713
1.00052
-1.78302
-0.900637
1.88919
-0.293773
-0.723029
-0.551158
0.595653
-0.323324
-0.214105
-0.137876
0.130388
-0.685951
0.654315
0.0316358
0.723875
-0.798612
0.0747375
-2.05798
3.15337
0.267469
-1.68265
-0.161094
-1.01025
-0.186396
1.78456
-1.59816
1.09412
-1.2642
-0.0681722
-2.02248
2.09065
-0.542821
3.52176
-2.97894
2.0941
-2.42345
1.78365
-0.0632242
-2.77544
1.09509
2.97956
-2.09701
-0.415038
-1.1336
-2.12024
-1.42139
0.58279
0.269737
0.0456792
-0.315416
4.86894
-2.72092
0.770795
0.445866
-0.754444
-0.553909
1.30835
-3.27575
1.57667
1.69908
-0.388752
-0.171934
0.549015
0.375171
0.57392
-0.305633
-0.158063
-0.407017
-1.04074
0.195676
-0.432275
0.236599
-0.375664
2.70441
1.27391
-0.203625
-1.07029
2.93386
-3.26902
1.50783
1.76119
0.448315
0.964249
-1.41256
0.203819
0.151995
-0.355814
-1.74841
1.049
0.81327
-0.215217
1.0714
2.64079
-2.92274
1.38338
-0.603367
-1.04554
1.98208
-1.93432
1.30985
0.624469
1.04676
-3.76872
2.72197
-1.95602
2.2175
-0.261484
0.936523
-1.262
0.0427768
0.405541
0.821382
1.32759
-4.76237
1.99246
-4.88683
2.68621
2.20062
0.660464
-2.3927
-0.157048
0.0418267
-1.87191
0.368671
1.44154
3.11422
-1.12377
-1.99045
-0.843789
0.75764
-1.942
0.583489
-2.64471
2.50828
-1.99101
0.677444
1.33489
-1.74307
0.556777
1.18629
-2.80545
1.18627
1.61918
-1.39283
-0.796716
1.27311
-2.99686
2.1448
0.852058
2.08017
-4.13837
-3.09493
-0.0887603
4.56369
-1.45127
1.75753
-1.18335
-0.57418
-0.0842258
-0.527718
0.611943
0.0128374
0.782848
1.51975
-0.651721
-1.09134
0.333494
0.82781
0.477196
1.21248
-1.68968
1.30119
-0.731475
-0.110211
-2.69853
2.80874
-1.03659
0.643209
-2.08165
-1.93489
-1.3449
3.27979
0.798032
-1.13386
-2.18269
0.681394
1.50129
-0.0901665
0.313116
-0.222949
2.79103
-3.60673
-0.807722
0.11105
3.12516
-0.0206578
-3.1045
-0.0179576
0.626834
-2.5438
0.760606
1.78319
-2.84529
1.63774
1.24467
-2.74458
-0.732366
-0.660286
-0.0328342
-0.0573324
0.103577
0.0581941
-1.69291
2.29669
-0.603785
1.4281
0.387663
-1.81577
-1.53923
-0.0378767
-0.616029
0.13557
2.36955
0.477039
0.104017
0.972682
-0.189573
0.0423688
1.48227
2.08396
-0.441137
-2.75931
-0.201785
-2.92112
0.422372
-2.96797
0.601098
0.616156
-1.21725
2.45536
0.170602
-2.62596
-0.399124
0.375304
-1.11369
-2.15024
-2.22589
-0.439271
-1.04719
3.78558
-1.00822
1.51303
-0.504805
-3.41213
0.977652
-1.00342
1.48062
-3.666
-0.517502
-1.32411
-0.643454
0.811591
1.3682
-1.40706
3.25347
-0.44975
0.916014
0.51605
-1.43206
0.365746
1.15005
0.905682
2.93836
-2.7231
-0.228695
-0.7134
1.1032
-1.34663
1.65107
-1.50677
-2.68422
0.735812
0.564193
-1.30001
-2.55318
0.0480665
-0.49099
2.33371
-1.84272
0.00439864
-3.70555
-1.8132
2.15286
3.86772
-1.83662
-2.0311
-0.169412
0.631362
2.13697
-0.686053
-1.45092
0.878991
-0.972499
0.174576
-0.252508
-0.312728
-0.156199
0.468927
-0.309807
1.12393
-2.16323
4.24341
0.0140007
-0.607033
-0.831216
-0.376653
1.20787
-0.304216
3.09525
-0.319927
0.353131
-0.0332036
-1.18852
1.81499
1.03668
1.23902
-1.45713
-0.219239
1.73832
-0.665889
-1.07243
0.0326798
-0.219191
0.186511
0.35095
-2.00451
1.65356
-2.70216
0.47627
0.7168
-2.49464
2.91702
-0.0324975
0.911488
0.518149
-1.52637
-4.25141
2.9914
-2.80389
0.848673
-1.48228
0.301913
-0.901874
-1.74241
2.64429
-2.54964
-0.0362414
0.346615
-0.310374
2.54017
-2.14391
2.11857
-1.34841
0.245547
1.62272
-1.86827
0.267799
-0.866316
-0.816972
-2.04345
2.86042
-2.27641
1.19935
1.07706
-2.1796
3.26461
-1.08501
2.16406
-1.95022
-0.213837
1.65889
-0.00170673
-1.65719
-1.29585
-1.97317
-0.92611
-0.242468
1.43589
1.67588
-0.0192914
0.370068
-0.350777
-1.99277
-0.551027
1.6987
1.57099
-1.5995
2.03105
-0.431545
-0.061104
-0.152735
0.187246
0.630454
-0.8177
0.921603
0.352309
-0.287075
-2.70979
-3.25696
0.79822
0.00732223
0.686548
0.64475
0.268369
2.02017
-2.28854
-1.46689
-0.148536
1.03302
2.02815
0.230714
-0.876216
-0.274542
0.281764
-0.0072221
0.0537149
-1.09773
1.04402
0.82273
-0.651151
1.96981
2.60047
-1.26192
2.1844
-1.54119
-0.410709
-0.797219
1.20793
2.1078
0.400943
-0.108265
-2.10952
1.45987
1.79291
-2.09713
-1.16773
-1.88552
3.05326
-1.60226
-1.67349
-2.79367
2.78224
0.0114264
0.168232
-0.770227
0.462041
1.67986
0.920612
0.700047
-0.634089
-0.0659575
-0.45135
-1.20287
-1.79816
-1.12466
2.92282
1.78543
0.152849
-0.224136
-0.658046
1.64202
-2.75571
1.08578
-1.0188
-2.03233
3.00625
-0.973924
1.03548
1.10378
1.17602
-2.2798
2.96062
-1.6358
-1.32482
-1.68934
-1.58861
2.40923
-0.820626
-0.414897
1.33091
-0.950077
0.917579
1.22297
2.26433
-0.721178
0.636953
0.115929
0.0282155
2.69532
-1.51807
1.60323
3.26571
-1.33004
0.757505
0.572532
0.587467
-0.98843
2.03144
-0.0192967
0.658547
1.09898
-1.76567
-0.262325
2.028
0.626334
-0.0479435
-0.578391
0.588315
0.106345
0.376058
-2.97763
-0.933109
1.08435
1.84961
-1.76253
-0.0870755
0.562076
1.17624
-0.535149
0.247468
0.912755
0.663008
-1.57576
-1.04257
2.92838
0.713549
-1.117
2.59424
-1.47724
-0.513971
0.865857
-0.590112
0.646562
3.07393
-1.58645
-1.03296
-0.375034
0.578853
1.00329
-1.16438
-0.598963
0.530976
-0.864535
-0.504356
-0.044071
0.96898
-0.557645
2.3062
-1.74855
0.252846
-0.22625
-0.642311
0.319356
-1.09844
0.172335
-3.54259
2.08757
0.831615
0.674
1.26177
0.429195
-1.69096
0.343983
0.349589
2.00951
1.36839
-3.37791
-0.423858
-0.0226635
0.446521
1.25421
-2.40667
2.68237
1.18534
2.19711
-1.92874
-2.46701
0.257809
0.207255
-1.96723
1.22855
0.832818
1.62617
-2.45899
1.304
-0.209879
-0.0637436
-0.950538
-0.379499
-1.63701
-0.883451
1.13565
2.08948
0.741289
1.50056
-1.42692
-0.0736342
0.634562
0.0197529
-0.208877
0.823837
-0.0999628
2.16902
0.523006
-2.69202
0.456915
-0.261239
-0.757162
0.471422
0.285739
-1.10476
-0.0367282
1.14149
0.385299
1.74501
-2.13031
0.658158
1.03967
1.85926
-0.0514596
-0.864609
0.000814266
-0.190387
-0.575536
1.21765
-0.642111
-2.88357
1.67698
2.37673
-1.81285
-0.563884
0.0529972
-0.499896
0.446898
2.31581
-2.44597
1.00367
0.781767
1.14222
0.976352
-0.501552
-0.00280435
-0.654564
0.342301
0.312263
-1.359
-0.434599
2.99722
-1.54025
-1.45697
0.821291
-0.18996
-0.63133
1.36742
-2.16277
0.795351
0.301373
1.54752
0.153214
1.03154
1.23347
-2.265
-0.310501
-0.344062
-2.25987
-1.12223
0.918601
2.38121
0.00944476
-2.39066
-2.89831
-0.0633003
0.10928
0.200599
-0.0770714
0.887575
-0.744554
-1.90006
1.77601
-0.0123338
0.406151
-0.120846
0.354072
-1.21026
1.45581
0.0279842
0.850027
0.0336361
-0.21001
1.91792
-0.0063353
1.50689
-0.704359
-0.443149
-0.660942
1.5737
-0.311706
2.32335
-2.01165
-2.17392
-0.375317
-1.0415
3.58861
-2.54711
-1.05139
-0.0708319
1.01962
-0.183213
-0.050636
-0.792359
0.842995
-2.38254
0.796086
0.504884
-0.477264
1.63886
-3.93337
1.83729
-3.89982
-1.14481
2.22586
-1.2579
1.61106
-0.948051
0.0333797
-1.52468
1.87563
0.000136251
-0.512299
0.13266
-1.26227
-0.436227
-1.60929
2.04552
1.16813
3.21051
4.79693
-3.18973
-1.6072
-0.685577
0.290698
0.74966
0.0655425
-0.815202
-2.26434
0.571435
0.686261
-0.040034
-0.0169928
-0.448815
0.465807
2.46484
-3.50634
0.290079
1.24605
0.261257
-1.50731
-2.59591
2.2842
0.489473
0.124596
-0.614069
1.48434
-2.81811
-0.494329
0.00671202
0.487617
0.636449
-0.146976
0.00949904
2.08935
-1.4074
1.58592
1.56459
-0.906437
-2.73485
0.799954
-1.75276
1.60395
0.148813
1.80834
-2.97607
-1.5246
-0.850526
2.37512
-0.0601435
1.3568
-0.939689
0.843214
2.8453
-0.413828
-2.43148
-0.000795729
-2.75851
1.40446
0.254433
1.47526
0.661709
-0.537692
0.00208154
0.506955
-0.712712
-1.15911
0.0165556
-0.161806
0.14525
0.025669
-1.90557
1.8799
-0.332976
1.12448
-0.791504
1.87085
-3.84012
1.96927
-0.035047
-1.52516
-0.074794
-0.168691
1.78706
-1.06465
-0.566476
1.63112
-1.19286
-0.882112
1.38436
-0.820171
0.409198
-0.872282
0.463084
1.99443
-0.732664
-2.61514
-0.252365
-0.321741
0.574106
0.849321
0.470366
-1.31969
0.674756
-2.43544
1.76068
0.335661
-1.63743
0.452217
-3.16889
-2.41471
-1.0818
3.49651
-2.52644
0.0926937
2.43375
-2.72861
-2.1584
0.202379
-0.961624
0.955633
0.00599115
-3.6663
-0.870573
3.03959
1.20866
-0.568277
0.345963
-1.00691
-0.443203
1.48287
0.499863
0.383796
-1.21501
0.0568909
-0.496121
0.43923
-0.333989
-0.12288
-0.342702
0.3957
-1.02769
1.47601
-2.85828
1.42153
1.43675
1.8944
0.80241
1.16395
0.690437
-0.0641026
0.305855
0.394192
-1.3989
-0.783783
-1.64508
0.529188
1.11589
0.319101
-0.31024
-0.00886111
-1.39252
1.44623
-0.349441
2.1142
0.268645
-0.588573
1.18789
-2.38074
1.19695
-1.3449
0.147954
0.435016
-0.053925
-0.279672
0.00714306
-2.63677
1.73489
0.0468996
0.774391
0.0421941
-0.635776
0.593582
-3.93033
1.37702
-1.24266
1.19095
-0.604302
-0.0478063
-0.696274
0.74408
-1.69067
0.626027
-2.85774
2.57067
3.72949
-0.604326
-0.803694
0.745387
0.0583068
-0.186864
0.38392
-0.511322
-4.36104
3.03316
1.32788
-0.497711
0.475048
-0.196635
1.14663
-0.949999
1.57581
-0.572145
0.0197803
-0.13412
0.114339
-0.879527
0.907511
-0.0833673
0.18406
1.80749
-3.28391
2.73147
0.164035
-1.95463
0.556565
2.48579
-0.12729
-2.3585
-0.247857
1.27478
-1.02693
0.122674
-4.37177
1.01661
-2.55439
1.53778
-0.0214558
-0.0367366
0.0581924
-2.55024
2.63009
-0.079844
-1.36149
1.29331
1.90065
-0.0978149
3.19521
-1.24075
-1.95447
-0.296453
-1.03366
1.33011
-0.629181
-0.992293
-0.0402859
-0.947794
-0.0444995
0.325975
-0.8789
0.552924
-0.274838
2.53029
-2.25545
-2.23044
0.507253
1.72318
0.733101
2.17081
0.034891
0.290376
-0.325267
1.63504
0.718032
-2.35307
0.0297007
0.240036
-3.36724
2.96593
0.40131
-2.02967
0.263998
1.65986
0.753966
-2.27856
-0.00633757
-0.377254
0.383591
2.73534
-0.896032
-1.83931
1.20725
0.708343
-4.45321
3.99008
2.37242
-2.48263
-1.32061
0.0976456
1.22297
0.0454494
-0.412144
0.230555
0.181589
-0.0756826
0.284885
-0.209202
-0.0270685
0.419537
-0.392468
-1.24266
1.19198
0.0506853
-1.62803
3.27005
-0.939445
0.860934
0.697257
-0.893892
0.992087
-1.65675
0.664665
-1.14383
-0.790491
-0.402118
0.0980971
0.254854
0.0072992
-0.262153
3.21653
-2.13448
-1.08206
0.12678
1.72283
-0.748938
-0.408656
-1.72783
0.363659
1.82359
0.597139
-2.42073
-0.0322311
-0.0505794
0.0828106
-0.0365677
1.10913
0.150128
0.667449
-0.817577
3.40758
-2.19134
-1.21624
-3.77389
0.818985
0.00248162
-0.853106
1.60145
-0.748341
0.0349264
-2.609
0.979119
-1.24911
-0.262447
-0.0172255
-1.26744
2.30744
-1.04
0.500546
0.0733737
-0.638469
-0.79774
-0.742753
0.756754
-0.364822
-0.0224888
0.513395
1.4095
-1.9229
1.8076
-1.43453
-0.373075
-0.024798
0.847528
0.777922
0.152849
-0.732375
0.599143
-0.316806
-0.932905
1.35081
-1.64312
-1.66663
2.69816
-0.501696
0.380365
0.439671
0.196778
-0.0184843
-0.00297145
2.23965
-2.34016
0.100517
3.09011
-1.28169
0.741083
0.540603
0.373097
-1.0865
-1.92276
-2.45848
-0.762229
0.714285
-0.516692
-0.834375
1.35107
-2.27643
0.588182
0.464118
0.664473
-1.12859
-1.29248
-0.983935
-0.341192
-1.20167
3.08043
0.483687
-2.62911
0.662211