/*--------------------------------*- C++ -*----------------------------------*\
| =========                 |                                                 |
| \\      /  F ield         | OpenFOAM: The Open Source CFD Toolbox           |
|  \\    /   O peration     | Version:  2306                                  |
|   \\  /    A nd           | Website:  www.openfoam.com                      |
|    \\/     M anipulation  |                                                 |
\*---------------------------------------------------------------------------*/
FoamFile
{
    version     2.0;
    format      ascii;
    arch        "LSB;label=32;scalar=64";
    class       volVectorField;
    location    "8";
    object      U;
}
// * * * * * * * * * * * * * * * * * * * * * * * * * * * * * * * * * * * * * //

dimensions      [0 1 -1 0 0 0 0];

internalField   nonuniform List<vector> 
13486
(
(5.19205 -1.27132 9.31289e-21)
(5.34725 -0.0142603 5.55734e-21)
(7.31248 -0.144658 0)
(12.1799 -5.63393 -4.2958e-20)
(8.62295 -0.882342 -2.35848e-21)
(6.76225 0.411128 -2.15545e-21)
(9.6984 0.896673 1.27973e-22)
(7.30537 -2.40748 -1.57789e-21)
(6.77198 -1.27782 0)
(5.5299 1.05738 0)
(-2.91305 1.25843 -7.70564e-21)
(6.30944 0.264774 0)
(4.89483 -1.81476 -8.96432e-21)
(6.27941 1.49979 -3.23346e-21)
(8.44988 0.551453 -1.27371e-21)
(5.46889 1.07325 -5.95986e-21)
(2.18569 0.0705944 2.40909e-21)
(3.59962 7.05961 -1.16766e-20)
(5.79649 0.0702999 8.9236e-23)
(5.52153 -0.766426 -9.92363e-21)
(11.1905 -3.86135 -2.82725e-20)
(4.93693 -1.84606 1.15487e-20)
(5.37886 -0.0292127 -4.45184e-21)
(8.56176 -1.12869 0)
(5.7748 0.871322 2.21325e-21)
(8.48397 -0.938606 7.0556e-22)
(-2.18813 1.30267 2.74704e-21)
(8.60865 0.0151599 -4.13718e-21)
(1.48381 1.96752 0)
(8.66629 0.010136 3.21343e-21)
(8.05675 1.84878 -3.03175e-20)
(7.30313 1.60011 -9.71747e-22)
(9.23971 0.410361 1.14021e-21)
(8.05515 -0.45374 0)
(7.3329 -2.2911 0)
(6.32446 1.07952 -8.56433e-21)
(5.34934 -3.59685 -6.42404e-22)
(5.74088 -2.65907 3.73039e-21)
(6.47143 -2.24693 8.99828e-22)
(6.66103 -0.797043 4.08322e-21)
(10.2453 -2.51208 0)
(4.26006 -2.05725 -1.06647e-20)
(6.76705 -0.119997 0)
(5.83284 0.727538 -1.02707e-20)
(5.83141 0.743779 4.21728e-21)
(6.19992 0.246852 4.27477e-21)
(-1.9091 3.15446 1.10486e-20)
(2.32204 4.76118 -1.68463e-21)
(4.99573 -3.85396 4.86542e-22)
(7.906 0.265526 -2.65141e-21)
(5.98865 0.00178192 7.67908e-21)
(6.2345 -0.614476 0)
(5.6789 0.767162 -7.54445e-21)
(5.92127 -2.18947 -5.6587e-21)
(1.91574 7.72162 0)
(8.44434 -1.04029 8.99657e-22)
(8.21578 -1.71416 -1.31465e-21)
(6.74787 -1.31485 4.55129e-21)
(8.92855 0.401133 3.80754e-22)
(5.89672 -2.98423 0)
(-3.41244 -0.796503 -9.44628e-21)
(5.65092 -2.57264 0)
(8.24917 4.18967 -3.1292e-21)
(11.2569 -3.42126 -3.26478e-22)
(-5.86814 0.847184 0)
(6.01652 -3.22298 -1.81619e-23)
(9.96657 -5.84598 -3.47754e-20)
(5.01195 -0.664192 3.40205e-21)
(6.77864 -1.35397 -1.96601e-21)
(3.18692 0.117415 -2.8675e-21)
(11.4379 -5.80866 4.01558e-20)
(2.83779 7.60599 -6.96379e-22)
(6.45817 -0.504079 3.4168e-21)
(-0.563888 -0.639644 -9.40943e-22)
(5.50376 -2.85324 2.31457e-23)
(7.9601 -1.68174 3.40488e-22)
(6.02628 -3.23631 4.32124e-22)
(8.56472 0.547758 5.66077e-22)
(-1.59066 5.37982 -6.07529e-21)
(10.8809 -5.42093 0)
(7.72868 2.71236 4.42087e-21)
(5.18174 0.119694 -3.6364e-22)
(6.45574 4.14463 1.96493e-21)
(7.49477 -0.320831 -1.51306e-21)
(5.1945 -1.2882 -1.8105e-20)
(4.14857 2.25069 0)
(3.96516 -3.97614 3.52742e-21)
(5.99013 0.0303046 -1.2266e-20)
(5.74798 0.00789887 -4.91728e-21)
(5.04697 1.44823 -7.86914e-21)
(6.39453 1.91178 -1.71762e-21)
(7.76979 -1.82561 -3.48833e-22)
(5.40609 -1.50355 2.29151e-21)
(5.4756 -0.43927 2.75459e-22)
(6.63363 -1.9755 7.50441e-22)
(2.78906 6.28206 5.02794e-22)
(-2.45396 1.52858 0)
(8.18717 -6.67209 1.67416e-20)
(6.65625 -0.756128 -7.84613e-21)
(2.04089 0.614251 4.92128e-22)
(8.70407 1.10452 0)
(6.26856 1.47415 -1.28426e-21)
(7.33513 -7.41522 8.48492e-22)
(6.17283 -1.01942 -5.44406e-21)
(3.90104 2.01004 0)
(1.81335 1.17534 3.99935e-22)
(6.02879 -0.0977693 -1.28912e-23)
(6.7772 -2.30022 2.06691e-21)
(-1.39395 4.42029 8.07481e-21)
(7.54591 -3.31956 0)
(6.00751 -2.77331 0)
(8.22681 2.14098 2.91754e-21)
(5.95272 -2.14333 8.46368e-23)
(8.03849 0.879555 1.08189e-22)
(4.24959 -1.07026 0)
(5.9005 -2.76007 -2.22337e-21)
(5.71104 0.931161 0)
(8.6142 -0.424275 0)
(6.45013 -0.4879 0)
(3.54345 -3.98494 -2.42441e-21)
(3.25404 7.22844 3.78295e-21)
(-3.57844 -0.299621 0)
(6.48642 -1.82166 0)
(7.05906 -1.93076 -2.91146e-21)
(6.85568 -2.29784 0)
(6.28041 -0.824226 0)
(7.35024 -0.375058 6.72752e-23)
(6.26334 0.156141 6.0035e-21)
(8.03065 -0.621748 1.03228e-21)
(-2.97997 1.50268 -1.26079e-21)
(5.83013 -0.535125 6.7568e-22)
(-1.99005 2.9661 -2.69792e-21)
(0.0250484 -0.781867 -6.23919e-22)
(-0.126993 -0.762178 1.25892e-21)
(5.99665 -0.00193992 -1.21372e-21)
(5.62332 0.459526 -6.70203e-21)
(3.11303 0.416495 -3.30608e-21)
(7.43362 -3.16883 0)
(4.55246 -4.50693 1.04122e-21)
(7.28724 -1.8316 -8.17307e-22)
(8.5187 0.643803 8.134e-22)
(5.68772 0.902257 6.47274e-21)
(6.60015 1.11474 0)
(10.6325 -5.12645 0)
(7.21976 -0.0451765 5.32669e-22)
(8.39011 1.48626 -1.90919e-20)
(5.34168 -1.27228 -2.92394e-21)
(1.75568 1.16912 0)
(7.88685 0.374447 0)
(2.09869 0.821255 0)
(6.0034 0.00989825 1.64796e-22)
(8.9862 0.124369 0)
(8.71227 2.52199 -4.62682e-21)
(5.12453 0.114226 -3.09412e-21)
(6.16611 0.557687 0)
(8.25984 -0.292478 0)
(7.54989 -3.19421 0)
(-0.249993 0.51809 1.70192e-20)
(6.31826 -2.44672 6.90854e-21)
(6.47884 -2.10341 4.67456e-21)
(7.32782 0.151581 -2.74791e-21)
(6.33829 -2.39443 -1.02883e-20)
(6.35885 3.384 3.80482e-22)
(3.8356 -1.92279 4.63604e-21)
(6.60279 -0.954944 0)
(6.48837 1.59418 3.41692e-21)
(6.20214 1.31521 8.15397e-21)
(2.93786 -1.32531 -1.26881e-20)
(5.32552 -1.36175 7.55412e-21)
(0.0367056 -0.952257 3.44721e-22)
(-0.103945 -0.600142 1.44675e-22)
(6.15416 0.493781 4.48105e-21)
(5.99473 0.060363 -1.15424e-20)
(7.40602 0.2388 1.01759e-22)
(6.91336 4.26103 2.1451e-21)
(-4.46077 -8.01783 0)
(6.05096 2.02053 -6.30372e-21)
(8.74766 0.950504 -2.50596e-22)
(6.05081 -0.107859 -1.0873e-20)
(6.5506 1.00701 0)
(6.86185 -0.856659 7.41439e-21)
(8.34021 1.07782 2.18693e-22)
(7.27262 0.578082 6.5051e-24)
(-1.30134 -0.00595315 0)
(6.50231 -0.544393 3.74802e-21)
(7.85224 0.0604237 1.90454e-21)
(6.34221 -0.34275 -9.22493e-22)
(8.54765 -0.120245 1.03917e-21)
(10.2799 -2.48118 0)
(5.39348 -2.56757 -3.53775e-21)
(5.37072 -4.35239 0)
(7.84113 -0.00234115 0)
(6.9384 -1.58194 0)
(4.28297 0.840416 -7.03239e-21)
(7.65473 -1.70976 0)
(-3.10118 1.57485 -1.84287e-21)
(-5.84414 3.03391 -9.57249e-23)
(7.38937 0.0863471 -1.40566e-21)
(5.03791 -2.46817 -1.86085e-21)
(6.48239 1.51036 2.61219e-21)
(7.4414 2.05399 3.4345e-20)
(6.27742 0.197577 -1.91034e-22)
(5.66471 -2.69207 -4.32274e-21)
(8.80892 -3.37209 -2.28186e-21)
(6.27216 -2.20404 -5.66639e-21)
(7.49313 -1.59663 1.98405e-21)
(4.62809 8.84427 -1.32461e-20)
(6.17167 -0.433314 7.55139e-21)
(7.24648 -1.61703 0)
(6.42069 -0.509538 0)
(8.63184 -0.129039 -3.50595e-21)
(7.10209 -0.32308 -5.45158e-21)
(5.56112 -0.698056 9.11579e-21)
(6.00717 -0.0800329 -1.20216e-23)
(6.81206 0.486687 2.48571e-21)
(12.313 0.168861 1.62418e-21)
(8.56056 0.00316085 0)
(5.06609 1.39714 1.78479e-20)
(5.65985 -1.50886 0)
(7.29731 2.44681 0)
(2.12908 0.0735295 -4.47324e-21)
(7.85966 0.451729 0)
(7.22286 -1.8363 1.80922e-21)
(7.83062 0.218464 0)
(5.20858 0.569667 -1.61659e-21)
(4.99095 -2.33931 3.11924e-21)
(6.93592 0.943315 2.4624e-22)
(-0.744847 -2.94733 1.75507e-20)
(9.15839 -1.3444 6.03248e-22)
(4.09785 -4.05259 -1.77868e-22)
(6.87333 -0.818266 -2.40708e-21)
(11.3701 -0.0314834 3.02344e-20)
(8.61057 0.6043 -1.09642e-21)
(4.23685 -2.04948 3.68595e-21)
(7.52003 -6.30728 0)
(4.67031 -2.27096 3.56999e-22)
(8.56188 -0.301772 -2.05721e-21)
(8.22999 0.092975 -1.19535e-21)
(4.65864 -2.22918 9.91099e-21)
(6.98498 0.372432 0)
(9.05882 0.129675 0)
(5.98843 0.0563399 1.78292e-20)
(9.21657 1.00275 0)
(4.46511 -2.20292 3.14663e-21)
(6.26534 -2.38558 2.0809e-21)
(5.79451 -0.336784 0)
(6.81663 0.160299 -8.78136e-22)
(8.18967 -0.0320339 -4.19593e-21)
(1.79833 -1.117 3.09953e-21)
(5.79281 0.652123 0)
(1.56629 -5.89921 -1.94947e-21)
(4.17722 -1.01171 1.45513e-21)
(5.51241 -2.67217 2.55255e-21)
(6.94987 -2.1067 0)
(9.79932 -2.5055 1.51469e-21)
(-4.70478 -7.8483 2.66889e-21)
(7.24417 1.58647 1.16154e-21)
(13.5787 0.183922 -2.05238e-21)
(6.62448 1.17271 -1.782e-20)
(9.18012 0.287687 8.35632e-22)
(5.56902 -0.0434945 0)
(6.25355 -2.28501 -1.50409e-22)
(8.44246 0.585629 2.76072e-21)
(-4.44133 -7.85947 -3.33257e-21)
(8.49429 -2.20599 2.4311e-21)
(-1.54253 -0.115398 0)
(9.85542 -1.47724 -7.71806e-22)
(8.16972 -0.205897 -4.11644e-20)
(6.58582 -0.0498052 -4.3549e-21)
(1.41739 3.10595 0)
(4.76684 1.06283 5.88985e-21)
(5.99805 -0.061412 -3.06593e-21)
(8.53149 0.102242 0)
(6.01517 0.318436 4.19063e-21)
(5.10329 -2.41335 4.14773e-21)
(8.32902 0.238436 2.36145e-21)
(9.475 -2.77308 0)
(-2.03049 8.99816 0)
(7.0062 -2.31615 1.81627e-21)
(5.24549 -1.07595 5.62128e-21)
(-2.09368 8.40168 1.2942e-20)
(7.00363 -0.402588 -2.79245e-21)
(5.98227 -0.124697 6.52033e-21)
(8.20797 -2.20615 -6.06547e-21)
(-3.7624 -0.385168 8.385e-21)
(-1.28527 2.00029 3.22125e-21)
(8.47039 0.841591 -1.3682e-21)
(7.4636 -0.63968 -1.3574e-21)
(5.44646 0.544464 2.9223e-21)
(6.44358 -0.0582635 0)
(8.5747 -5.99138 0)
(5.61387 -2.27652 -2.16337e-21)
(5.81991 -2.71192 2.65544e-21)
(6.00075 0.00379541 -1.1796e-21)
(8.52119 -0.321284 -2.2185e-21)
(8.57864 -0.209852 0)
(7.31081 -0.01574 3.43637e-21)
(5.92923 0.174521 -3.86775e-21)
(6.00013 -0.171184 -5.87708e-21)
(10.266 -0.272312 -7.70744e-21)
(6.25793 3.39103 -3.40569e-22)
(4.16003 9.74847 8.61677e-22)
(5.30831 -1.16646 -4.79025e-21)
(7.43172 1.45062 1.1279e-21)
(4.7278 -3.48219 -6.05648e-22)
(7.45624 -3.54773 0)
(8.02241 0.483897 0)
(6.2623 0.0902634 1.61125e-21)
(4.26107 -4.49018 -2.7646e-21)
(4.66326 -3.39332 0)
(5.18394 3.62833 -1.22779e-22)
(10.33 -5.26228 0)
(5.87141 1.90726 3.68196e-21)
(8.1668 2.10368 2.21436e-21)
(-0.933785 0.577547 0)
(5.61099 0.382487 -4.21939e-21)
(6.39593 -2.71496 3.15633e-21)
(5.70919 -0.00460092 -4.1642e-22)
(6.1292 -0.427736 -8.49411e-21)
(9.934 -1.17176 0)
(5.15624 -3.34676 3.79013e-24)
(5.99082 -2.06825 -1.65219e-22)
(6.04978 -0.0500443 1.38177e-21)
(5.43728 -0.357161 -5.28773e-21)
(3.37166 0.162009 6.00331e-21)
(6.54047 1.89161 3.85881e-21)
(7.80988 -0.514765 -2.505e-21)
(7.0394 -0.381113 0)
(5.96754 -0.274971 -5.98982e-23)
(7.94339 -0.417661 6.92506e-23)
(5.99324 -0.0112589 1.77179e-20)
(7.88813 -1.81884 0)
(6.19065 2.18545 -8.81768e-22)
(4.84399 0.0343426 0)
(9.68278 1.05588 1.45634e-20)
(6.83764 -1.78427 -1.82619e-21)
(3.51234 -1.71644 4.64204e-21)
(8.94243 -0.115038 3.19161e-21)
(5.95375 0.218866 0)
(6.27788 -2.27806 3.82937e-21)
(9.8657 -1.21141 1.91423e-22)
(5.42753 -0.343905 5.00029e-21)
(8.0251 -0.411272 6.42016e-22)
(7.23688 0.61553 2.74846e-21)
(-1.88808 -1.66602 -3.26065e-22)
(2.61479 3.21563 -3.10488e-22)
(7.24923 -0.0815765 0)
(4.22188 -1.72013 1.08477e-20)
(7.33715 2.51918 0)
(6.34617 -2.61889 5.49952e-23)
(6.95981 0.0246249 5.11126e-21)
(5.86614 -0.074743 -4.87206e-21)
(5.86498 0.310296 3.71999e-21)
(-2.49234 1.49395 -3.09738e-21)
(6.00806 -0.150736 7.30711e-21)
(1.683 1.4128 0)
(-0.738179 -0.999956 -5.389e-22)
(7.33638 -0.331182 -1.35565e-21)
(5.22541 -4.54851 1.24783e-21)
(7.20731 0.311634 -3.8654e-21)
(6.91229 0.0717414 0)
(5.98829 1.88334 3.7925e-21)
(5.68014 -0.180701 1.14778e-20)
(5.99346 -0.0679138 9.33823e-21)
(8.62586 0.196633 0)
(9.89686 2.21588 -8.79245e-22)
(8.55787 -0.199755 1.93211e-21)
(-1.8778 1.61167 1.25004e-21)
(5.48088 -0.760765 1.26546e-21)
(7.30407 -0.270037 1.29304e-21)
(6.97824 -0.0674915 -2.92581e-22)
(7.23216 -0.113726 0)
(5.07906 0.373227 -6.97283e-21)
(0.577665 -5.08243 7.82431e-22)
(6.54074 0.884991 -4.72262e-21)
(6.00511 -0.00274051 6.38534e-21)
(4.74586 0.00615024 0)
(6.10755 -2.62993 4.50099e-21)
(-1.08267 0.139555 0)
(6.99615 2.41614 7.57367e-22)
(6.63932 -0.0744037 0)
(7.98116 -2.21141 -2.01093e-22)
(4.90651 -1.07494 -2.65404e-21)
(4.83134 0.915063 1.33714e-20)
(-2.20883 1.80572 -4.70876e-21)
(9.40417 -2.16091 0)
(6.45761 0.121174 -6.51745e-21)
(5.96645 0.22705 -5.15281e-21)
(2.52137 -1.36101 -1.8849e-21)
(11.2559 0.958122 4.15493e-21)
(5.62807 -0.724717 -1.37232e-20)
(8.48736 0.0743415 -1.21622e-21)
(6.05135 0.284629 4.35729e-21)
(5.39262 -1.84506 0)
(4.73087 -0.180206 5.89963e-21)
(3.92957 -5.56912 -7.71965e-21)
(10.5025 -5.76527 2.43606e-20)
(0.662381 -5.14121 -4.0928e-21)
(2.67319 -1.01885 -3.89156e-21)
(8.5306 0.845198 0)
(2.54396 -1.14651 0)
(5.32054 1.8831 0)
(6.81139 -0.204734 0)
(9 -1.5255 -1.37976e-20)
(9.29818 1.16958 0)
(3.35127 -1.48506 0)
(5.52025 -0.38052 2.04181e-21)
(8.74563 0.933179 2.57482e-22)
(7.16381 -0.158584 -3.60989e-21)
(5.37266 0.0800255 1.97711e-20)
(6.00117 0.0372903 -2.60735e-21)
(5.39196 3.00948 0)
(8.42973 0.0871827 0)
(5.97836 -0.169888 6.2704e-21)
(6.02565 0.0350455 1.11239e-21)
(3.90074 0.786935 0)
(-0.721824 -0.322516 -1.37729e-21)
(8.40617 -2.27493 -2.72703e-21)
(-0.579356 -0.675366 0)
(6.98695 0.393444 3.43091e-21)
(6.0519 -0.083171 -7.30198e-21)
(9.36804 5.44284 7.36986e-21)
(4.20202 -1.69753 0)
(5.94372 0.234643 9.08462e-21)
(7.16468 0.64737 0)
(8.53785 -0.127478 0)
(6.28105 0.353448 -8.91389e-22)
(5.96028 -0.119391 3.47049e-21)
(-2.30629 1.45451 -3.60099e-21)
(6.17658 1.25016 2.56357e-21)
(5.02829 -1.60886 -4.41718e-21)
(6.7386 -0.189839 5.8263e-22)
(6.09637 0.313888 3.54058e-21)
(5.30109 0.285001 1.89368e-20)
(8.82202 -2.00369 0)
(8.54775 -0.0624321 -1.56874e-21)
(4.88788 -0.930254 0)
(5.59042 -2.14381 -2.24605e-21)
(7.39005 0.170765 0)
(5.05805 -0.634094 7.3404e-21)
(0.132221 -0.205666 -8.24409e-21)
(8.51919 0.0272508 0)
(-1.29904 -0.372123 8.70451e-23)
(8.46906 0.0423275 2.18001e-21)
(4.97053 -2.42824 5.12918e-21)
(6.18896 -1.10755 1.12848e-20)
(4.5067 0.817015 -8.25633e-21)
(5.00256 -1.58805 -1.2772e-20)
(6.84219 2.59985 0)
(5.32841 -4.61599 1.38748e-21)
(-2.16562 -1.89739 -2.56153e-21)
(5.94663 0.228763 0)
(5.6995 0.0105559 4.56232e-22)
(7.57049 0.161098 5.44688e-22)
(6.4614 2.29859 0)
(6.00045 -0.00656963 0)
(3.70005 -3.05903 0)
(-4.12284 -7.52684 1.4875e-20)
(7.03962 -2.6464 7.18368e-21)
(8.93361 1.12937 1.27496e-21)
(5.85258 1.81243 0)
(5.89817 -0.949893 8.30384e-21)
(6.63144 4.89964 -4.13582e-21)
(6.19225 1.15166 -6.28223e-21)
(12.6901 -4.94369 4.71921e-20)
(5.83244 -0.00128772 0)
(2.64243 3.6501 0)
(3.58276 -1.26192 -7.64493e-21)
(5.31613 -1.84335 -3.01326e-21)
(6.5809 -0.642482 0)
(6.68361 -3.06886 -5.88787e-22)
(7.1202 1.13951 5.06826e-21)
(1.46322 3.73309 9.17266e-23)
(3.79332 -1.82649 0)
(7.61267 -0.835132 -9.11213e-22)
(3.15112 -4.64988 4.46109e-21)
(7.2214 0.638871 -4.07757e-21)
(6.81074 -1.87438 0)
(-0.535564 2.03272 -5.04756e-21)
(5.95231 0.0813493 4.22401e-21)
(5.97915 0.0909221 1.75951e-21)
(0.474882 0.124318 -3.08973e-21)
(6.6208 1.63181 0)
(5.35725 0.0697625 -5.26952e-21)
(7.83292 2.18806 1.08914e-21)
(2.74697 -0.758815 5.21827e-22)
(5.99241 0.0373322 0)
(11.8124 1.04976 -4.26358e-21)
(2.96095 -1.17927 0)
(5.99386 0.0478305 -7.18858e-21)
(5.98037 -0.000853327 2.57145e-21)
(5.98308 -0.280803 -1.21028e-21)
(-2.93363 -7.71977 0)
(6.66964 -0.23395 -2.38792e-21)
(4.11211 -0.0155395 1.60573e-20)
(8.7489 -2.09219 0)
(5.48424 -0.427414 6.18145e-21)
(10.0444 -0.527671 8.87855e-21)
(6.5608 0.0259076 0)
(7.63397 -1.08269 2.01151e-20)
(10.2674 -5.14387 -6.74691e-21)
(7.01779 -0.0735238 0)
(1.28405 2.4915 4.44696e-21)
(5.67402 -0.0215794 0)
(6.52189 -2.90359 2.20142e-21)
(1.30543 -5.96279 3.25703e-21)
(5.92976 0.103864 9.0359e-22)
(6.85655 0.40192 4.2091e-21)
(4.74044 -0.221474 3.06157e-21)
(6.17941 -1.17501 -4.10969e-21)
(9.63156 -2.36499 -2.57039e-22)
(6.53969 -2.82608 7.8747e-23)
(7.27982 -0.315399 1.34294e-21)
(6.58746 1.63924 -6.31909e-21)
(8.07692 -3.41752 0)
(6.00079 -0.0102173 -5.66427e-21)
(-0.158108 -0.614002 5.93675e-22)
(4.95654 -0.94441 0)
(7.91784 -4.55034 -3.93312e-21)
(3.06192 -0.489229 0)
(4.74564 -1.66991 1.12066e-20)
(7.8366 -2.5397 0)
(7.97669 0.614674 1.48562e-20)
(7.14618 -0.00255176 -2.95001e-21)
(5.23391 -1.02915 3.95396e-20)
(4.96413 -3.83009 4.55948e-21)
(6.9027 0.155297 -4.11907e-23)
(7.13055 -3.31916 -1.6622e-21)
(6.44649 -1.82966 3.38466e-21)
(5.40257 -1.50369 0)
(-2.39553 1.08809 -9.81507e-22)
(8.92911 -1.8498 4.6292e-22)
(-2.45468 1.18921 -1.25327e-21)
(0.458962 3.1091 1.19358e-21)
(5.39967 -2.15308 0)
(6.55647 -0.0109912 -6.40892e-23)
(-1.14602 -0.569146 0)
(6.37571 -6.54093 8.0602e-22)
(8.94135 5.94406 -9.96183e-21)
(8.43466 2.25161 0)
(7.49747 -1.55532 5.02722e-22)
(-5.35513 1.40057 0)
(6.46508 2.25268 0)
(6.22057 -2.89398 -2.91045e-21)
(4.91094 -0.0550991 4.91897e-21)
(3.93161 -1.48028 0)
(5.66626 -0.124533 -3.23291e-21)
(7.72022 2.17067 2.19359e-20)
(-0.537061 -4.63228 3.08871e-21)
(6.33854 2.76505 0)
(6.34239 -0.037871 0)
(-2.57798 -1.28735 -1.85706e-21)
(6.24604 -0.588161 0)
(6.58549 -0.282358 0)
(-3.53674 -1.24392 -7.32083e-22)
(7.24216 -1.04801 -3.68631e-21)
(6.26206 -1.56954 3.14596e-21)
(9.06991 0.0503969 1.21851e-22)
(-2.38154 0.97855 1.49092e-21)
(5.98299 -0.00628083 2.90368e-21)
(5.52597 -1.54624 0)
(6.04186 0.810745 -2.1103e-21)
(5.15672 -1.2182 0)
(6.16107 0.00317392 0)
(5.98245 0.116692 0)
(6.29267 0.335188 -7.32169e-22)
(6.1217 -0.452009 3.89518e-21)
(9.05195 0.659153 -8.81327e-22)
(5.64923 -1.55289 0)
(-2.2978 1.29266 -2.53192e-21)
(5.34903 1.77728 4.77039e-21)
(6.8572 -2.31408 2.17066e-22)
(8.03844 -1.01367 2.23033e-21)
(8.34457 0.112351 -4.92925e-21)
(6.20951 0.0429786 -4.18126e-21)
(0.257715 -0.265639 0)
(6.03785 0.166292 0)
(4.3519 0.868883 0)
(4.81004 -2.18628 -7.86596e-21)
(-4.32217 6.59448 -2.82114e-20)
(9.49049 2.49509 0)
(6.07527 0.817582 0)
(5.31946 0.950049 5.83847e-21)
(6.28231 -0.0272545 -9.43242e-22)
(5.47542 0.847039 7.88185e-21)
(9.24951 -3.45257 0)
(-3.03175 1.71147 -1.33116e-21)
(6.54324 0.139621 3.99325e-21)
(5.21117 -1.76486 -7.24334e-21)
(6.31805 0.158735 -4.9763e-21)
(6.16577 1.16749 7.71695e-21)
(2.50428 -3.38183 -7.01276e-22)
(4.75369 -2.16263 1.3612e-20)
(3.59817 4.17814 -1.25061e-22)
(8.31618 1.14566 2.0507e-22)
(6.00369 -0.00555329 -1.33313e-21)
(6.16066 -2.92187 9.64832e-23)
(9.8013 -4.83673 3.52274e-21)
(3.99919 3.04725 -5.23171e-21)
(6.48041 -2.99626 5.6788e-22)
(6.48274 -0.439487 0)
(3.68275 -2.55258 -1.13809e-21)
(6.40403 -0.0345356 -9.22644e-21)
(7.0035 2.06328 -1.306e-21)
(5.11711 -1.67843 -6.71638e-21)
(6.78065 -2.23127 -2.69128e-21)
(6.4299 0.0529957 8.39026e-21)
(8.40966 -0.0944272 -4.82183e-21)
(3.41312 0.244202 -5.82517e-21)
(8.41998 0.970011 7.36109e-22)
(4.48786 -1.25054 -1.58141e-20)
(6.50555 -0.0391943 -8.28074e-21)
(4.48457 -1.41561 0)
(0.867093 -3.01896 -7.38171e-20)
(6.74277 0.017702 9.63996e-21)
(5.77486 0.795968 -2.94687e-21)
(-0.27206 -0.631341 0)
(7.28787 -3.18077 0)
(5.81299 0.611968 7.53708e-21)
(4.17629 -1.27716 9.88568e-21)
(-5.66154 -3.67274 -6.88464e-21)
(8.04047 -2.17698 3.94656e-22)
(7.87812 -0.491711 1.28645e-21)
(7.39088 2.50834 0)
(5.79045 0.667708 4.37254e-21)
(3.99278 8.608 -5.54026e-22)
(6.12772 2.01329 -5.74776e-21)
(6.76428 -0.821094 -4.47841e-21)
(-2.30286 0.936423 -2.06954e-21)
(8.40117 0.358232 4.58538e-21)
(8.29041 -0.110255 -3.96222e-22)
(5.65232 2.10731 0)
(9.39234 -0.560963 6.15482e-22)
(5.99763 -0.274415 1.06715e-21)
(7.7791 3.2958 3.47227e-21)
(3.88168 -1.92354 1.29716e-20)
(6.7186 -0.870369 6.77318e-21)
(6.00783 -2.28037 -2.33694e-21)
(0.026823 -4.50783 -6.94042e-22)
(7.93674 0.026103 1.73484e-21)
(6.44246 0.0592251 7.44067e-21)
(-3.85905 -0.376365 -1.02346e-21)
(6.00251 1.89578 1.10579e-20)
(1.57649 1.62689 -4.8318e-21)
(4.76746 -2.30156 -3.86049e-21)
(9.41971 4.21711 0)
(8.058 -1.57311 -1.06444e-21)
(-3.96622 -4.32794 -3.36421e-21)
(4.89016 -1.13663 1.41293e-20)
(7.38402 0.150804 0)
(5.76798 3.42051 1.07307e-21)
(4.63275 -1.99151 3.16328e-21)
(5.99273 0.00979346 -1.25217e-20)
(-0.377699 -1.77782 1.36728e-21)
(5.69301 -3.48825 -6.3093e-21)
(7.19865 -0.145577 2.46009e-21)
(6.47146 0.157158 9.91175e-21)
(6.61565 -2.9409 -2.64168e-21)
(9.17187 1.0165 9.83674e-22)
(-5.66119 3.54158 -5.48541e-20)
(6.37947 -0.0313944 8.65922e-21)
(6.69632 -0.180299 -2.55322e-21)
(6.20591 0.195813 -3.44267e-23)
(7.58141 0.0852405 -5.26661e-21)
(4.5304 -2.04648 -6.10156e-21)
(8.57102 1.23617 0)
(-2.20887 -8.31771 2.26835e-20)
(6.42929 0.0461069 8.07861e-22)
(9.30836 4.65569 8.80477e-21)
(7.09226 0.130753 3.92658e-21)
(7.73373 -0.739045 -1.14207e-21)
(6.0021 0.0275212 -1.11529e-20)
(6.02679 0.492125 2.619e-21)
(-0.344177 -0.509956 1.41566e-21)
(7.08692 -0.307623 0)
(5.96935 -2.24417 -2.23745e-21)
(5.87591 -0.167872 4.9936e-21)
(5.42252 -2.11374 0)
(6.19274 0.146211 6.08579e-21)
(6.17001 -0.401623 6.62366e-21)
(6.67914 -0.331633 7.22545e-25)
(10.5218 -2.905 7.31297e-21)
(7.77313 -1.44485 0)
(5.44974 0.244255 1.03658e-20)
(6.84591 -2.12249 2.2889e-21)
(6.27008 -2.88196 2.11343e-21)
(6.73624 -0.54242 0)
(4.91021 -0.0962638 -1.41491e-20)
(2.87185 5.20337 1.04812e-21)
(5.85642 2.77408 5.57567e-21)
(4.52619 -1.29017 1.54172e-20)
(7.54592 -0.117967 1.32706e-21)
(3.93726 -3.44434 1.8312e-21)
(6.39246 -0.485976 -5.7028e-21)
(8.64542 -0.0522952 1.56456e-21)
(5.6773 -0.169915 -6.60131e-21)
(6.9544 -0.0387331 0)
(6.00732 -0.0149656 -4.99447e-21)
(0.993521 -0.0857399 6.31658e-20)
(-0.988518 -1.006 0)
(7.60423 -0.719623 0)
(7.81914 3.74407 0)
(2.53781 -0.500698 0)
(5.95064 0.433339 0)
(4.35529 -1.24957 0)
(11.6246 0.383485 6.89734e-22)
(9.71808 -0.0547767 -9.89456e-21)
(6.96554 1.03358 0)
(5.42925 0.175127 1.53071e-20)
(0.58775 3.21642 -2.12865e-21)
(6.05569 0.307808 5.37271e-23)
(-4.09466 -3.1931 -1.74841e-21)
(4.28698 -0.750531 3.77951e-23)
(-0.279691 -1.03453 -1.47311e-21)
(5.54804 0.0821742 -2.54524e-21)
(7.73675 0.257987 -3.11378e-22)
(5.92373 0.390401 -5.12857e-21)
(5.75351 -0.0285452 -9.59771e-21)
(5.29938 1.54783 -8.1688e-21)
(6.8969 2.61245 0)
(11.8296 -2.54121 1.04432e-20)
(4.79487 -1.71152 -1.22638e-20)
(6.01996 0.0184088 -1.48691e-20)
(9.00813 -1.68523 6.65419e-21)
(7.32192 -0.0164531 9.00591e-22)
(10.8384 -0.81729 -1.1597e-20)
(7.30854 -0.619736 -4.25564e-22)
(7.52364 -1.52487 -1.71888e-21)
(5.97862 0.210273 5.34086e-21)
(6.00191 3.92079 0)
(9.26718 -2.37711 4.7035e-23)
(5.57619 -0.426735 -1.95553e-21)
(9.18515 1.51542 0)
(7.42383 -2.01442 0)
(7.01663 -3.07532 -8.23916e-23)
(4.6403 -4.45631 3.72074e-21)
(11.8004 0.732474 -3.52163e-21)
(5.0683 -0.845473 0)
(6.22821 -0.435006 -7.87732e-21)
(5.62287 -0.0296878 -1.81766e-21)
(1.05318 -7.44906 1.58684e-20)
(6.32318 -0.475776 3.6448e-21)
(0.36941 -1.47963 0)
(11.4135 -2.80807 1.21496e-20)
(5.9307 -0.376288 0)
(9.63793 -0.557099 -4.33347e-22)
(6.04632 1.90463 -2.61446e-21)
(6.00586 -0.00777103 2.51559e-24)
(6.2072 1.33091 -1.44282e-20)
(6.35479 2.52028 -2.7435e-22)
(6.25783 -1.80813 7.30437e-21)
(9.1147 7.01378 0)
(-5.26153 4.4378 -4.87062e-21)
(-1.24592 6.73694 0)
(7.10249 1.09351 1.37414e-21)
(1.93606 -7.3796 3.65405e-20)
(8.1436 -0.563894 -4.05136e-21)
(5.99627 -2.30198 2.38185e-21)
(-5.36029 -6.54081 -1.26366e-20)
(5.70351 -2.63495 -2.44093e-21)
(4.90344 -1.70605 -7.0474e-21)
(4.91613 -5.92775 2.27725e-21)
(-3.42195 3.46355 4.01331e-21)
(4.56788 -2.06405 5.01143e-21)
(5.06225 -1.75582 7.53417e-21)
(-4.69847 6.13361 4.39437e-20)
(-3.04895 1.88501 1.48299e-21)
(6.68392 -1.97411 2.95008e-21)
(-1.62367 0.517529 5.11435e-21)
(8.97308 0.194725 6.42861e-22)
(-0.157509 4.54036 2.61801e-21)
(6.36601 0.892447 -3.60317e-21)
(8.47245 -1.11783 0)
(2.26364 -0.80965 -6.8099e-21)
(6.22471 -0.0314447 -9.80036e-21)
(5.97111 0.0996677 0)
(7.06145 0.986205 0)
(-3.38283 9.72754 -1.45379e-20)
(9.17778 -0.579816 -1.63194e-21)
(6.73109 0.563544 -9.44291e-21)
(7.22147 -1.01223 4.81753e-21)
(5.32048 1.52091 7.04281e-21)
(4.99068 -0.0684431 5.6475e-21)
(0.170321 -7.88701 1.07077e-21)
(5.2697 0.758525 0)
(5.17528 -1.82601 7.06936e-21)
(-1.35484 4.13345 1.95142e-21)
(-3.8759 -6.83165 1.00068e-20)
(6.28701 -2.33803 1.08043e-21)
(7.85235 -3.53207 2.68809e-21)
(5.75423 -0.0171552 2.97174e-21)
(6.4712 -2.1301 -1.14283e-21)
(8.7041 0.11459 -3.40705e-21)
(1.028 -9.04582 -1.63421e-20)
(6.69401 0.534347 7.12306e-21)
(6.02194 -0.159474 3.62204e-21)
(4.45057 -1.3941 -6.32076e-21)
(6.26117 -0.527609 4.73447e-21)
(2.96228 0.314048 0)
(6.5672 0.888805 8.18576e-21)
(6.04511 -0.0844411 8.18649e-22)
(5.35838 -1.42475 -2.33259e-21)
(4.56678 2.82866 -4.82279e-21)
(6.58077 -1.95758 2.38969e-21)
(6.26905 -0.0135649 1.4899e-21)
(4.80007 -0.498528 -1.00419e-20)
(9.35988 1.14145 0)
(6.05078 -2.13654 4.60157e-21)
(6.3313 0.181508 6.72757e-21)
(8.72899 -1.16948 0)
(4.95418 -0.699973 5.58587e-21)
(6.26829 -0.488584 0)
(4.15305 2.65847 1.7179e-20)
(7.97254 -0.00647243 0)
(9.1267 -2.35412 0)
(6.47224 0.141249 2.04013e-21)
(6.72343 0.410681 5.39754e-21)
(8.05137 1.3232 1.87184e-21)
(5.85959 -0.0135964 -4.50299e-21)
(4.47783 1.47514 -4.39854e-21)
(5.98449 0.0594269 -2.22079e-21)
(5.99278 0.462649 0)
(-0.815623 4.57931 -1.6662e-21)
(6.9665 0.43066 -4.81271e-21)
(9.61581 -0.844447 7.64198e-22)
(8.49872 -1.14971 0)
(7.07089 2.07622 -1.59514e-21)
(5.20284 2.90415 -8.78694e-22)
(8.83339 0.0518522 2.75328e-21)
(-3.79002 -5.29402 0)
(-3.31313 -1.61318 7.63248e-21)
(6.02991 0.233082 0)
(8.59017 -0.0304381 1.6768e-21)
(1.75962 -1.05377 0)
(2.04862 4.00391 0)
(2.3061 4.49861 0)
(7.63499 -2.5394 0)
(-2.92303 2.30214 -1.02183e-21)
(-5.25583 -8.15962 -3.6826e-21)
(6.12117 -0.443109 -5.83982e-21)
(5.21373 -1.70416 -4.46653e-20)
(4.80921 -2.11493 0)
(-1.61934 -1.8652 -3.09164e-20)
(1.11348 -0.878378 -3.07434e-21)
(5.84089 -2.71039 0)
(5.41466 -2.00669 -7.25476e-21)
(6.25878 -3.09654 6.09814e-23)
(6.34651 0.83701 9.56896e-21)
(9.87425 -2.54941 -5.88789e-21)
(5.75768 -0.0739548 0)
(8.37847 -2.03115 0)
(9.06091 2.96193 4.57823e-22)
(8.83935 -4.17512 3.54094e-22)
(3.41225 -2.74066 5.9412e-22)
(-2.87743 8.64075 1.16046e-21)
(6.00141 0.0028057 3.71042e-22)
(7.74033 -1.29286 -2.00395e-22)
(5.98621 0.208621 7.6251e-21)
(5.9899 -2.46673 -2.23692e-21)
(6.81339 -1.73339 0)
(-2.51076 1.73287 0)
(9.14413 0.836833 0)
(1.27014 1.73529 0)
(6.09961 -1.2921 3.02606e-21)
(8.22808 0.452341 0)
(-3.23195 0.950283 1.54819e-20)
(0.0893494 -1.94777 -6.28457e-22)
(4.99212 -1.79882 -1.13763e-20)
(0.975525 4.45767 1.79311e-22)
(-2.88913 -8.10961 -1.14384e-20)
(-2.2565 2.28002 -8.94614e-21)
(6.65892 0.0567607 1.17762e-21)
(-0.502855 -7.71004 -8.61215e-21)
(6.03662 -2.7063 -3.2336e-21)
(6.57013 0.066416 0)
(8.24078 0.105136 0)
(-0.0493867 -0.699014 0)
(7.75633 -0.823592 5.10476e-22)
(-5.11429 1.46355 0)
(5.2906 0.753776 0)
(5.999 0.00580004 0)
(6.29828 -1.55183 2.98757e-21)
(6.06401 0.281678 -8.70611e-21)
(3.73266 -0.0491312 0)
(10.5157 0.487645 3.68836e-22)
(5.91096 0.176312 -6.28132e-21)
(6.17355 1.91804 1.20207e-20)
(5.895 -2.67843 3.69078e-21)
(5.41377 0.933924 6.13002e-23)
(10.8689 -4.92696 -1.2796e-21)
(6.8029 -2.42532 -1.78503e-21)
(9.56762 -1.93279 -2.19279e-21)
(6.64605 0.438327 -7.33998e-21)
(3.38438 -3.56204 -1.39869e-21)
(5.82216 -0.270486 -6.16284e-21)
(6.32135 -0.0253593 0)
(8.64167 4.69258 -6.51738e-21)
(6.00012 -0.0758197 6.82084e-21)
(3.09774 7.59709 6.23466e-21)
(7.26815 -0.610338 -1.33081e-21)
(4.24352 -1.31994 -1.07538e-20)
(6.673 0.365898 1.25019e-21)
(7.77108 2.17258 -1.57559e-21)
(5.99238 0.0706806 0)
(3.71694 -1.82887 -2.92467e-21)
(5.46284 -1.50518 1.50225e-21)
(10.1584 -2.3016 3.15935e-21)
(11.2107 -4.72194 -5.38539e-20)
(6.28058 -0.0515451 3.17221e-21)
(8.77389 1.20608 -2.01867e-22)
(7.62088 -0.0585538 -1.00666e-21)
(8.86857 0.673495 0)
(3.27726 3.89134 0)
(5.51591 -2.60865 4.97516e-21)
(0.184547 -1.56783 -1.47682e-21)
(8.75154 2.66403 6.62987e-22)
(6.01071 -0.0818842 1.34581e-20)
(3.6448 -1.8914 8.88136e-21)
(4.88747 -0.174557 0)
(5.75104 -0.285924 0)
(5.7369 -1.47223 -1.15491e-22)
(6.21753 0.0476328 3.15045e-21)
(5.48708 0.901654 1.14926e-20)
(6.6449 0.930256 0)
(6.71905 0.000311172 0)
(7.72336 -1.71024 8.63684e-22)
(6.65 -0.528217 4.02527e-21)
(1.42193 -0.523042 -8.66713e-21)
(7.348 -0.71912 0)
(-1.07767 3.71136 1.23867e-21)
(9.30656 1.13743 9.15859e-22)
(-3.81074 -4.00464 -3.50968e-21)
(6.39106 -0.19949 -6.40583e-21)
(11.4321 0.490049 0)
(9.44236 -0.452066 1.15336e-21)
(-3.23713 -4.73798 -8.83623e-21)
(0.204102 1.39539 0)
(0.039613 0.163119 8.92491e-21)
(5.90041 -0.103938 -4.50601e-21)
(3.98742 0.903707 2.66422e-23)
(6.41865 2.16834 9.20735e-22)
(5.01702 4.61266 2.03932e-22)
(6.50387 0.048768 0)
(4.25972 -1.76938 -9.44241e-23)
(3.29693 -1.5019 -8.11666e-21)
(-0.488419 -0.416845 -1.86309e-20)
(5.9241 0.408222 6.07304e-21)
(7.24273 6.82934 2.86912e-20)
(6.2465 0.00169873 -1.47754e-20)
(6.49978 -2.2712 1.27771e-21)
(6.48164 -2.43114 -2.29052e-21)
(6.18795 -1.47197 0)
(5.66341 0.084078 4.94635e-21)
(4.50419 -2.10976 4.03521e-21)
(7.03449 0.00809996 -5.71966e-21)
(6.03902 -0.0704646 -6.08217e-21)
(8.62682 -0.00173719 -1.59713e-21)
(5.76152 -0.928318 1.23296e-20)
(8.44374 0.153756 -7.35383e-22)
(5.722 -0.251181 3.63919e-21)
(7.32622 -4.99186 -5.84727e-21)
(9.13232 -0.0586337 -1.36797e-21)
(6.00344 2.04895 9.25156e-21)
(-6.36984 -4.1608 5.4588e-21)
(6.20731 0.0276392 0)
(1.28298 -3.34924 0)
(10.6506 0.208967 0)
(4.96349 -1.71249 8.84527e-21)
(6.09531 0.0293351 -9.6952e-21)
(5.59464 -0.0300943 0)
(5.47445 -1.44193 -6.77152e-21)
(5.59672 -0.0863258 0)
(6.10604 -1.18061 -5.02368e-21)
(9.75899 -0.699362 6.872e-23)
(6.71169 -1.62865 -3.37283e-21)
(6.59227 0.0477091 0)
(6.05081 -0.176696 0)
(8.33651 -1.07765 -1.79767e-21)
(6.97326 0.887422 -2.44974e-22)
(7.83647 0.132676 -1.83764e-21)
(5.35118 3.12029 -3.04771e-22)
(6.6673 1.49563 0)
(6.31843 -2.27923 -1.75605e-21)
(-1.35842 -1.48359 0)
(3.09761 0.777325 -6.69989e-21)
(6.39268 2.4902 0)
(8.89295 1.21428 4.52549e-22)
(4.49375 -1.19453 4.11949e-21)
(5.34865 -0.983075 4.05709e-21)
(6.37093 -0.687926 2.30237e-21)
(0.470538 -1.90123 9.42338e-21)
(6.59643 -0.652623 1.00574e-20)
(5.95128 0.443037 -5.67736e-23)
(11.111 -0.80263 1.42522e-20)
(7.00797 -1.29267 -1.59815e-21)
(-1.48288 -1.33264 1.47036e-21)
(6.87113 1.2878 0)
(6.0423 -0.0355606 -7.37157e-24)
(5.5731 -1.59834 0)
(6.35781 -2.16169 2.42227e-21)
(6.39911 -2.25258 -8.72167e-22)
(5.79193 -0.863401 -4.00994e-21)
(9.16016 1.67638 9.76231e-22)
(7.55325 0.242491 3.66559e-21)