/*--------------------------------*- C++ -*----------------------------------*\
| =========                 |                                                 |
| \\      /  F ield         | OpenFOAM: The Open Source CFD Toolbox           |
|  \\    /   O peration     | Version:  2306                                  |
|   \\  /    A nd           | Website:  www.openfoam.com                      |
|    \\/     M anipulation  |                                                 |
\*---------------------------------------------------------------------------*/
FoamFile
{
    version     2.0;
    format      ascii;
    arch        "LSB;label=32;scalar=64";
    class       surfaceScalarField;
    location    "6";
    object      phi;
}
// * * * * * * * * * * * * * * * * * * * * * * * * * * * * * * * * * * * * * //

dimensions      [0 3 -1 0 0 0 0];

oriented        oriented;

internalField   nonuniform List<scalar> 
7520
(
-0.985965
0.788894
0.197071
-1.35456
-0.194572
1.54913
-0.0762669
-1.87486
1.95113
0.227954
-0.0311807
-0.196773
0.147621
1.60051
-1.74813
-0.0869798
0.0935685
-0.00658868
-0.301869
2.11032
-1.80845
-0.207452
-1.85085
2.0583
-1.54146
1.4652
0.848552
-0.0848918
-0.76366
0.293489
-0.313485
0.0199964
-0.261764
-1.62806
1.88982
0.709439
-0.112604
-0.596835
-0.0974975
0.134636
-0.0371386
-1.97383
0.916271
1.05756
0.129402
1.56477
-1.69417
0.151376
-0.0899203
-0.0614554
-0.174415
-0.162783
0.337198
0.029019
0.0317263
-0.0607453
0.000683129
0.150693
-0.40049
-0.286474
0.686964
-1.06842
1.19782
-0.0293956
-0.310589
0.339985
0.130161
-0.139361
0.00919949
0.0728172
-0.283591
0.210774
0.247219
-0.24091
-0.00630917
0.859596
1.12763
-1.98723
-0.0360567
0.311513
-0.275457
-0.0414672
0.0704861
0.193746
-0.0304892
-0.163257
-1.15364
1.75012
-0.59648
-0.0473063
-0.0180977
0.065404
-1.84735
2.02295
-0.175602
-0.29026
0.168813
0.121447
-0.309832
-1.24718
1.55701
-0.39504
0.974443
-0.579403
0.261044
-0.538345
0.277301
0.802998
-1.57373
0.770735
0.0873587
-0.307437
0.220078
-0.0436996
-0.0997035
0.143403
-0.0268941
0.254848
0.384065
-0.0822825
-0.301783
0.281628
-0.0344086
2.10158
-1.58896
-0.512623
-0.572734
-0.609042
1.18178
-1.50006
1.61874
-0.118682
-0.128267
-0.0249726
0.153239
0.256568
-0.0735392
-0.183028
-1.34287
0.189226
0.26825
-0.0739027
-0.194348
1.80083
0.180735
-1.98157
-0.730528
0.270671
0.459857
0.0753725
-0.0640764
-0.0112961
1.04506
0.494784
-1.53984
0.0142903
-0.10127
-0.777572
0.142384
0.635188
0.411231
-1.2711
0.859866
-0.0415745
-0.120364
0.161938
-0.115639
0.0683325
-2.19241
1.11395
1.07846
1.53911
-0.719984
-0.819122
0.00391044
0.118375
-0.122286
-1.29482
0.984991
0.826338
-0.1169
0.0334588
0.0419137
0.00388633
-0.101384
1.12158
-2.29569
1.17411
0.131431
1.6694
-1.24064
0.978288
0.26235
0.309618
-0.232284
-0.0773348
-0.494552
0.905783
0.181664
-0.81601
0.634346
0.334851
-0.0922218
-0.242629
0.294558
-0.39802
0.103462
0.856309
-1.48274
0.626436
0.124011
-0.108408
-0.0156027
1.75026
-0.639166
-1.11109
0.37558
-0.734831
0.359252
1.68297
-1.1948
-0.488162
-0.83292
0.0553481
-1.48147
-0.710936
1.27839
-0.47475
-0.80364
0.220275
-0.596868
0.376593
-0.270463
-0.0197971
-0.375962
0.201547
0.210387
-0.0166407
0.0087548
-0.0479536
0.0391988
0.920731
0.829525
-1.93226
2.20676
-0.274506
0.709257
0.829849
-0.95472
1.11533
-0.160606
-0.00398066
-0.0416821
0.0456628
1.36312
-1.62489
0.23707
0.189928
-0.102569
0.418266
0.242892
-0.661158
0.00716081
0.0818859
-0.0890467
-0.520548
0.391253
0.129295
1.32899
-0.472685
-0.720506
0.622365
0.0981415
0.892817
-1.43936
0.546543
-0.0853773
0.107467
-0.0220898
-0.00273998
0.00154464
0.00119534
2.68926
-1.48645
-1.20281
0.517963
-0.412937
-0.573029
-1.32832
0.833765
-1.92713
1.62526
0.162295
-0.0775666
-0.0847282
0.153781
0.139709
-0.15433
0.153121
0.00120937
-0.13584
0.190265
-0.0544248
1.93364
-1.13064
-0.0691228
0.0183577
0.0507651
-0.769418
0.368928
-0.000367585
-0.0481539
0.0485215
0.343889
0.934501
-0.78655
0.485409
0.301141
1.36015
-1.85586
0.495713
0.0294623
0.100699
-0.199173
-0.531355
-0.381944
0.100239
0.281706
1.06623
-0.217673
0.363634
-0.329714
-0.0339202
-0.029724
-0.0584484
0.0881724
-0.11981
0.101866
0.0179437
0.701473
-1.81418
1.1127
0.382851
-0.412246
-0.341004
-0.0510087
0.392013
-0.0206976
-0.0484252
-0.171108
-0.336985
0.508093
0.140389
0.0311788
-0.171568
-0.0622914
0.202681
-0.600194
-0.186356
-0.358063
-0.538264
0.896326
-1.02882
2.08232
-1.0535
0.402531
-0.416069
0.0135376
-1.15224
-0.176076
-0.0326939
-0.0491138
0.0818077
1.40328
-0.358226
-0.651591
0.422334
0.229256
-0.00111564
0.113691
-0.112576
0.284167
-0.073457
-0.21071
0.277825
-2.15269
0.30099
-1.80105
-2.37999
0.751902
1.62808
-0.839255
-0.401383
-1.33195
1.23402
0.0979257
2.02
0.227439
-2.24744
0.178274
-0.221974
0.189956
0.968524
-1.15848
-0.250354
-0.315939
0.566293
0.191288
-1.52324
-1.84776
0.000414145
-0.00573192
0.0144867
0.0619163
-0.113992
0.0520757
0.279399
-0.320973
1.2717
-0.378885
-0.150211
0.123317
-0.0283019
0.00239084
0.0259111
0.750436
-0.414367
-0.336069
-0.459467
-1.51436
-0.0234609
-0.226893
0.0301837
-0.575221
0.545037
0.279327
0.0435557
-0.322883
-1.57864
0.945578
0.633062
0.778084
-0.630463
-0.0522113
0.442831
-0.39062
-0.288019
0.360836
0.506609
-0.236573
-0.270036
0.939777
-0.521511
0.232347
-0.306249
0.906236
0.285522
-1.19176
0.294052
-0.330109
-0.349706
-1.43916
1.78887
1.29042
0.65402
0.672144
-0.451869
-1.3144
0.919363
-0.686363
0.90823
-0.221868
0.0141051
-0.0355256
0.0214205
0.271017
-0.313904
0.0428867
-1.31086
1.65475
-0.265253
-0.149357
0.41461
0.340983
-0.0616558
-0.851999
0.882183
0.54759
-1.07312
0.525526
-0.507967
-0.0125808
0.66909
-0.408046
0.134421
-0.0104102
-0.477623
0.321537
0.156087
0.0741599
-0.21
-0.321966
-0.123104
0.44507
0.129811
0.205039
-0.907526
-0.575218
-0.753364
-0.825276
-0.0062037
0.0507737
-0.04457
1.47435
-0.372345
-1.102
-1.40452
0.375694
-1.17386
2.15434
-0.980472
0.351468
0.155141
-0.423291
0.40718
0.0161113
-0.765195
0.566022
0.580533
-1.15327
1.75767
-0.0644331
-1.69324
-1.44403
1.89132
-0.447288
-0.0213776
0.0832939
0.433832
1.45448
-1.88832
0.0327296
-0.162636
0.129906
-0.121906
1.79474
-1.67283
0.00170866
0.107116
-0.108824
-0.89946
1.23962
-0.340157
-0.125228
-0.639967
0.0876611
-0.409627
0.264183
-0.15211
-1.7314
1.88351
0.0182056
0.0135207
-1.66155
0.754026
-0.0198311
-0.261725
0.281556
0.0628122
-0.0925362
0.103701
1.60743
-1.71114
-0.574632
-0.552787
1.12742
-0.493722
0.390081
0.103641
2.58097
-1.67936
-0.90161
0.44548
-1.02011
0.0465851
-0.0479847
0.00139951
0.0981241
0.736315
-0.834439
0.0372251
-0.0411248
0.00389979
0.839454
0.814055
-1.65351
-0.228804
-0.491702
-0.0572448
0.162643
-0.105399
-0.935892
0.709343
0.226549
-0.0673437
0.0377497
0.029594
1.71022
-0.235871
1.06532
-2.0218
0.956489
-2.80018
1.23486
1.56532
-1.17499
-1.6252
-0.372628
0.491457
-0.118828
0.498179
-0.378706
-0.119472
0.78497
-1.65748
0.872509
0.0153504
1.08216
-1.09751
-0.841927
0.367177
1.14301
-0.236772
1.13139
1.29437
-2.42576
-0.175033
0.0789567
0.0960764
0.0351184
-0.97101
1.86645
-0.483152
-1.3833
0.132083
-0.0993531
0.133949
0.056224
-0.146144
1.06454
0.80191
0.160734
0.697637
-0.858372
0.352732
-0.041219
-0.0527744
0.0642163
-0.0114419
0.476505
-0.452082
-0.0244229
-1.81043
0.868354
0.942074
0.362845
0.135334
0.696488
-1.05455
0.400504
-0.0134183
-0.387086
0.131356
0.125211
-1.76379
1.70099
0.0627973
1.18887
-0.641283
0.0437588
0.00722286
-0.0509817
-0.00483111
-0.229859
0.23469
0.116545
-0.208767
1.68875
-0.567165
-0.0442239
0.24053
-0.196306
0.00227049
-0.0305724
-0.08883
-0.224655
0.838298
-0.595406
-0.665289
0.680639
-0.373703
-0.10392
2.11032
0.0212877
-0.0216312
0.000343543
0.00775561
0.830543
-0.19651
0.12682
0.0696895
0.0257554
-0.0284954
-0.0286303
0.412696
1.60071
-1.41075
0.409681
-0.364886
-0.0447954
0.309252
-1.20871
0.140989
-0.312097
-1.90419
1.75208
0.022242
0.0243432
-2.11164
0.215651
-0.216767
-0.0687379
0.0231772
0.0455607
-0.607466
-1.20296
1.71986
0.969405
1.72308
-0.777502
-1.62806
0.174048
0.189586
0.13102
-0.0869066
-0.0441134
0.179952
-0.241258
0.0613051
-1.26166
0.652618
-0.196421
-0.254458
0.450879
0.308614
-0.393506
-0.109393
-2.01788
2.12727
0.996758
0.204119
-1.5094
1.30529
0.949899
1.07305
-0.660128
1.56019
-1.12636
-0.0541432
0.381055
-0.326911
-0.881687
0.764696
0.116991
-0.148023
0.103799
-0.0835188
0.320358
-0.236839
-0.253464
-0.259462
0.512926
-0.534252
1.82468
-0.280573
-0.357555
0.638128
-0.194923
0.0666566
0.258113
-1.21283
-0.0328123
-0.0199621
0.00819118
-1.84293
0.98437
0.858562
0.352879
-0.465483
0.00837323
-0.0167478
0.419279
1.08589
1.49508
1.64572
-0.532799
-1.11293
0.115352
-0.0440835
-0.0712687
0.729993
0.952975
0.0787997
0.0522203
0.684319
-2.13683
1.45251
-0.0678998
0.0917168
-0.023817
0.660057
0.668937
-0.21134
-0.096097
0.72654
-0.565806
-0.566868
1.42646
0.151435
0.0108595
1.76106
-0.400906
0.140105
-0.132944
1.75127
-0.105545
0.0993887
0.395011
0.0146699
0.0178827
0.291736
-1.7464
-0.831374
0.972324
-0.14095
0.00563544
-0.114044
1.77311
0.023444
-1.79656
-0.697294
0.416722
0.218365
0.065802
-0.299894
0.0676105
0.0146434
-1.20945
1.54709
-1.58109
0.0339968
0.00991859
-0.275297
0.265378
-0.62263
1.28269
-0.808715
1.51019
0.0334385
-0.0235199
0.773311
-0.287903
1.95931
-0.596192
0.00509852
0.116418
-0.121516
-0.0716841
-0.0888678
0.160552
0.11194
0.00341179
-0.282302
-0.728983
-0.198796
-0.185146
0.383942
0.678708
1.40362
-1.70596
1.35625
0.106094
-0.447098
-0.780535
0.962199
-1.14233
1.32405
-0.181723
0.521632
-1.74924
1.62734
1.66746
-0.746729
1.30988
0.791705
-0.0651538
0.272802
1.27429
-1.3252
0.29462
1.03058
0.24527
-0.275759
0.42526
-0.0624149
-0.207449
0.145157
-0.0976018
-1.49136
0.482913
-1.24584
0.76293
-1.44809
0.989627
0.458465
-0.124178
-0.691832
-0.147003
0.150914
0.0862147
-0.0048907
0.166115
-0.161224
-0.532931
0.48072
0.800133
0.867327
-1.44403
-0.067263
-0.052547
1.61514
-1.42515
-0.189991
-0.419263
1.87375
-1.65468
2.51825
-0.863571
-0.758901
1.04692
-0.288016
0.080249
-1.37507
0.0237082
-0.402415
-0.265039
0.416538
-0.151499
-0.0148531
0.0163978
1.33175
0.703078
-1.27757
0.57449
-0.0191163
-1.54633
1.56545
-0.0510464
-0.103284
-0.00920006
-0.473291
0.482491
-0.509927
1.36442
-0.854491
0.192274
-0.133602
-0.0586722
-0.176705
0.14213
0.0345757
-1.96095
1.76638
2.20606
-0.459649
-1.74641
-0.023156
0.00500974
0.0181462
0.012824
0.167128
0.0800611
-0.588028
-0.836148
1.6756
-0.016055
0.0156874
1.75767
-0.991852
1.08998
0.130363
-0.130363
-0.127995
0.290994
-2.22325
2.24826
-0.93716
-1.3111
-0.843335
0.789908
0.0534274
-0.0881569
-0.206775
0.294932
1.02674
-1.19377
0.167032
-0.573949
-0.224296
0.798245
0.74902
-2.00112
1.2521
-0.0780259
-0.803661
-0.206233
0.134549
-0.199362
-0.578541
0.777904
0.761359
0.416705
-1.17806
-1.31939
-0.406766
0.655223
-0.248457
-0.74223
1.07949
-0.337264
1.44251
-1.33881
0.128334
-0.327131
0.0588315
-0.122406
0.416964
-1.20245
1.15922
0.0432261
-1.26787
1.79075
-0.522883
-0.0165495
0.128233
-0.111684
-1.53879
-0.756907
-0.0447486
0.00328147
-1.64515
0.471283
-0.361717
0.278198
-0.218558
-0.540344
0.028194
-0.0960938
-0.788101
1.91949
0.0421152
-0.352704
-1.52485
0.117972
1.40688
0.74784
-0.592927
-0.154914
-0.852324
0.165961
0.214057
-0.559197
0.345139
1.60764
-0.132156
-1.47549
-0.0491993
0.0827984
-0.0335991
-0.381828
0.707591
0.824795
-1.53239
-0.570422
1.48669
0.208471
0.663141
0.740143
-0.138699
1.57316
0.178105
-1.41211
1.393
0.110655
-0.0878829
-0.0227718
0.192099
-0.207484
0.0153858
-2.0241
0.369417
-0.102564
0.0202811
-0.60861
-0.222764
0.254723
0.854266
-0.271078
-0.583189
0.186817
0.0948111
-1.18523
1.76647
-0.581239
0.152085
-0.240953
-0.0652988
0.336316
0.246007
-0.511046
-0.178426
0.335779
-0.157353
0.00213514
-0.0187044
0.0165692
0.85691
-0.74793
-0.10898
-0.0390983
-0.105621
0.14472
-0.28146
0.312615
-0.0311549
0.0457929
-0.373917
0.328124
0.298322
-0.0530522
0.2719
0.178282
-0.450182
1.46929
-1.02951
-0.957717
0.03614
-0.295031
0.258891
0.081536
-0.0680153
-0.267961
-0.225761
1.14128
-0.287016
-0.0137995
-1.24901
1.26281
-0.352377
-0.029567
-0.0145685
-0.585625
-0.00746259
-0.169243
0.165296
-0.163587
-1.36547
-0.0342363
-0.0774759
0.111712
1.29141
-1.00588
1.16048
1.04558
0.370218
0.0302862
-0.128346
-1.63834
1.76668
0.745163
0.472326
-1.21749
0.0315747
-1.04818
0.667309
0.380875
0.727356
0.020484
0.0253427
0.0392516
-0.0645943
2.15519
-1.15849
-0.996708
0.130563
-0.293396
0.162834
0.722423
0.411892
-1.13431
0.06904
0.0978455
-0.166886
1.7126
0.0131228
-1.72572
-0.255304
0.0925211
-0.248492
0.290607
0.0536992
0.00462935
-0.0583286
-0.151669
-0.224293
0.0423578
0.00704608
-0.0494039
-0.464159
-0.679961
1.14412
1.11391
0.493732
1.00907
-1.02287
0.757877
-1.2678
-1.87836
1.76897
0.0322647
-0.0907131
0.252837
-0.612628
0.359791
0.728165
0.994915
1.11661
-1.35672
0.240112
1.22909
-0.565949
-0.126447
0.0823634
0.0526949
-0.338987
0.286292
-1.60352
-0.422115
2.02564
-0.41024
0.446113
-0.0358731
8.55859e-05
0.130278
0.23873
1.36178
-0.136613
-0.0384198
0.71525
-1.77917
1.06392
-0.745687
-0.360349
1.10604
1.57786
-0.512547
0.399361
0.573999
-0.889939
-0.25653
0.00460082
0.251929
0.0188165
-0.182073
-0.478367
1.18145
0.00731108
0.029914
-0.327694
-0.0268202
0.354514
0.0091255
1.01761
0.553717
-1.09198
-0.467651
-0.411216
0.511455
0.725302
-0.943859
0.0582899
-0.0399322
-0.140794
-0.00535022
-1.94152
0.91201
-0.0323951
0.0891331
-0.056738
-0.204786
0.16961
0.0351755
0.228288
0.853877
0.13501
-0.0166348
0.000353735
-1.65957
1.65922
0.454546
-0.883508
0.428962
-0.0102286
0.0551569
-0.0449283
-0.73059
1.2135
-0.12864
-0.362534
0.491174
-0.272588
0.486645
-1.03255
1.21068
-0.178134
-0.566068
0.529258
0.0368106
2.09163
-0.0716294
0.187488
-0.324127
0.136638
-0.412847
0.0758621
-0.17187
0.0533996
1.24333
0.963436
0.188888
-1.4597
1.27082
-0.810129
-0.168924
0.979053
-0.218886
0.204479
0.0144072
0.128655
0.0609118
-0.189567
0.0058885
-0.212293
0.206405
-0.0747979
0.0419857
-1.14061
-0.286511
0.00292004
-0.118445
0.0984833
-0.121076
0.383361
-0.262285
-0.224274
0.258019
-0.0337449
-0.00897804
0.165923
-0.156945
0.799814
-0.380919
-0.0686333
0.0206797
0.0214622
-0.651706
0.630244
1.18564
-0.957348
0.00901564
-0.34617
0.337154
-0.874041
-0.565319
-1.38904
1.52047
1.06946
-0.100936
-1.32645
0.807006
0.519444
0.2128
-0.09123
-0.12157
1.75058
-1.75058
-1.58145
0.0999777
-0.979033
-0.222808
-0.61681
0.839618
0.584564
-0.537078
-0.047486
-0.152091
0.0152205
0.0262925
-0.0415129
-0.00182913
0.20214
-0.200311
-0.44957
1.25859
-0.809015
0.366763
-0.076427
-0.290336
0.796303
-0.716054
-1.05952
0.24939
-0.0382979
-0.209609
0.247907
0.00951682
-1.33471
-0.50068
-1.23403
0.733347
0.575822
0.0163783
0.226877
-0.243256
-0.266736
0.323304
-0.0565677
-0.22182
0.164575
-0.0806283
-0.0372783
-0.0314596
0.035283
0.0468243
0.245853
-0.292677
-0.247437
-0.0915497
-0.102887
0.374787
-0.047792
0.00917639
0.0386156
-0.00963795
-0.0466473
0.0562853
0.0708261
-0.0903863
0.0195602
-0.0627534
0.164479
-0.101726
-0.574951
1.33788
0.561521
-1.14968
0.588158
-0.146254
-0.0777583
0.224012
-0.0355911
-2.38263
2.41822
0.884014
-0.550294
-0.333719
0.471077
-0.0431542
-0.198103
-0.00844972
-0.0397042
-0.0533463
0.183909
0.276168
-0.9534
0.677232
-0.442181
-1.32161
-0.192046
0.823425
-0.631379
-0.060062
0.0393644
0.398499
-0.267735
-0.130765
0.416952
-0.39549
-0.738834
0.301738
-0.405803
0.104065
-0.518253
0.321833
-0.162135
0.584469
-0.295959
0.291128
-1.88904
0.402589
-0.284731
0.530738
0.0257821
-0.232015
0.322951
-0.0366588
0.316262
-0.299884
-0.0788619
-1.29684
0.721893
1.98461
-0.189868
-1.7314
2.23814
-1.08377
-1.15437
-0.0811328
0.472386
-0.064329
-0.768591
0.490291
-0.416131
-0.238332
-0.0181973
-0.592145
-0.399282
0.991427
0.039575
0.21286
-0.252435
0.0346459
-0.873901
-2.01752
-0.30227
-0.325723
0.627993
0.687343
-0.232796
-0.23669
-0.0375433
0.274234
0.459973
-0.0771221
0.158521
0.0542795
2.00666
-1.25764
-0.903977
0.311832
-0.243579
-0.0500754
0.293654
-0.0443902
-0.105151
-1.08862
0.330095
-0.289288
-0.0408075
-0.0820415
-0.0335973
0.918664
-1.19628
0.27762
-0.65477
-0.0578739
1.80845
-0.132817
-0.518889
1.40567
-2.06147
0.6558
-2.04275
1.53043
0.512323
0.145244
0.101671
-0.246914
0.150256
1.19475
0.0201883
0.827673
-0.847861
-0.0133915
0.253922
-0.00968558
-0.0134704
-0.0263291
-0.263448
0.289777
1.25967
-1.38802
0.127329
0.271979
-0.243598
-0.0283815
-1.45706
-0.124394
-0.581508
-0.458998
0.495138
0.105616
0.00321408
-0.10883
-0.605571
0.296466
0.309105
-0.380745
0.326601
-1.0957
-0.521265
1.61696
-0.135165
0.095248
-0.183405
-0.0198316
-0.504905
0.524736
-0.221128
1.21075
-0.151106
-0.831754
-0.0115814
0.878872
-0.182384
0.970722
-1.42029
-0.0390017
0.0217141
0.0172876
1.08261
-0.528024
-1.22011
-0.338897
-0.0716118
0.410509
-0.0524964
0.197654
-0.0468618
-0.27141
0.318272
0.356356
-0.154809
-0.0887896
1.6895
-0.165446
0.297378
-0.065031
-0.421565
0.404817
-0.173575
0.068858
0.104717
0.241313
-0.109321
-0.131992
-0.139927
-0.0396886
0.179616
0.319469
-0.00864206
-0.310827
0.0558594
0.032313
-0.201266
-0.074031
-0.0633859
1.18625
-0.0641007
0.058689
0.00541162
0.0184511
-0.0524693
0.0340181
0.0218737
-0.455547
0.433674
0.410319
0.247476
-0.654242
-0.0546289
0.352434
-0.0730352
-0.375092
0.0870729
-0.12734
-0.0352953
1.79149
-0.97743
0.072735
-0.197661
0.124926
-1.60619
0.217149
-0.107353
0.0674947
0.0398581
-0.0381113
-0.0292323
-0.461723
-1.58103
0.352761
-0.0587086
-0.844734
-1.2921
-0.279929
-0.047765
-0.76835
0.748518
0.985891
-0.719099
-1.25091
1.4398
-1.96348
0.359961
-0.240469
0.120844
0.119624
0.0529002
-0.175205
-0.388975
0.56418
-0.162211
-0.0340958
-0.397864
-0.93735
1.33521
-0.731388
-1.11167
1.84306
0.607097
0.339027
-0.946124
0.00709331
0.350661
-0.0489235
-0.258387
-0.252659
-0.16637
-0.0996445
0.266015
0.207347
0.358946
0.271655
0.126844
0.366294
-0.587001
-0.0160613
0.037349
-0.603719
0.838745
-0.235026
-0.140591
0.311554
-1.25367
0.054073
-0.00329933
-0.964571
0.213147
0.294946
-0.794608
-0.259943
-0.140855
-0.903037
-0.328814
1.23185
-0.142187
0.632478
0.0801493
0.709759
-0.28679
-1.00794
-0.933577
-1.26679
1.43382
0.0740485
-0.0621858
0.00769244
-0.0562347
0.0485423
-0.621524
0.567689
0.0538346
0.662995
-0.788223
0.10041
-0.132805
-1.13928
-0.187172
-0.300393
0.251978
0.0484158
0.801012
0.055898
-1.45195
-0.142288
1.59424
0.000937782
-0.248375
0.290751
-0.0389944
-0.251757
-0.226882
0.373096
0.144868
-0.128518
-0.0145098
0.143027
-1.30668
0.823525
-0.198418
0.0362075
-0.16797
-0.125426
-0.319788
0.0347082
0.0235818
0.139007
0.34341
0.0247192
-0.0830478
0.326946
1.37405
-0.649735
1.95961
1.00767
0.607796
-0.832092
0.0106192
-1.46257
-0.212997
-0.319899
0.376186
-0.0562863
0.11298
-0.0111135
0.0474852
0.00933637
-0.0538175
0.12215
-0.141067
1.73714
-1.59607
0.207456
-0.847423
-0.119433
-0.252987
-0.0679857
0.359983
-0.275099
0.349369
-0.0742703
-0.0289936
-1.43135
1.46035
0.634292
0.280685
0.303879
-0.595963
-0.574027
0.950841
-0.376814
-0.019887
-0.0225574
0.192168
-0.359107
1.02686
-0.667752
-0.10633
0.0165914
0.0897382
-0.142831
-0.625318
0.768149
-0.270282
-0.0598267
-2.02538
-0.0042026
0.177753
-0.172655
0.0196313
-0.153329
-0.0450892
0.319411
-0.645134
2.19664
-0.933107
-1.26353
-0.083776
0.422869
0.208931
0.0818204
-0.327642
-0.078161
-0.168125
-0.0149036
-0.325829
0.0553657
-0.237944
0.819615
-0.962446
0.133573
-0.0914072
-0.042166
-0.377884
-1.93635
1.06906
0.867286
-1.87807
1.84248
-1.17028
0.373839
0.79644
0.0578309
0.1422
-0.200031
0.655968
0.485314
-0.0378082
0.192251
-0.139559
-0.152901
0.0160038
-0.256417
-0.0113179
1.05093
1.14571
0.0621418
0.0020745
1.60496
-1.37752
-0.0269598
-1.39677
1.42373
1.25253
-0.06628
-0.284361
-0.0773562
0.477094
0.0474773
-0.244128
-0.0190576
0.444318
0.690139
-1.63814
0.947998
0.0475339
2.36381
-1.44987
-0.913933
0.0141408
-0.284561
0.0777858
1.28499
0.369756
1.22516
-1.12518
1.0866
-1.81798
-1.22815
0.0335947
1.19456
-1.449
-0.0231782
1.47218
0.0209769
0.0775064
2.37815
0.02353
-2.40168
-0.627251
1.79623
-1.16898
0.0440663
0.213952
-1.00641
0.264184
-0.00381399
0.0260559
-1.34271
0.200384
-0.00543282
-0.0100127
0.0154455
-0.0922474
0.217833
-0.125585
0.146372
-0.493681
0.347309
0.518431
0.453893
-0.502052
-0.10352
0.0802406
0.855272
-0.933298
-0.0649484
-0.0490436
-0.245665
0.0513174
0.266404
1.10258
-1.36899
-0.679082
0.943835
-0.264753
0.0526144
-0.40474
0.352125
-1.03819
-1.59244
0.774608
0.817836
0.0648771
0.855678
0.215412
-1.07109
-0.360681
0.214488
-0.236848
0.0223601
0.163886
-0.0339796
-0.240909
0.00421878
-0.281122
-1.5514
0.140646
-0.393567
0.788042
-0.394475
-0.656332
-0.658071
1.70423
-0.719861
-0.0988847
0.179965
-1.38947
0.0509304
-1.38165
1.33072
-0.080425
0.0520047
0.0284203
1.0969
-1.25438
0.157482
0.133355
-0.0196635
-0.0863759
-1.42954
0.773211
-0.615977
1.28329
-0.391363
0.302533
0.289559
0.21028
0.0310333
0.797496
-0.380774
-0.0124745
0.675469
-0.963976
0.432621
-1.81968
0.708004
1.14325
-1.17225
-1.46139
1.32032
-0.192935
-1.44065
0.184887
1.25576
0.59883
0.224595
0.0328614
-0.926264
0.703456
-0.104647
-0.131806
0.236452
-1.82713
0.360048
1.46708
0.353861
0.791734
-1.14559
0.046247
-1.31303
0.75652
0.115738
-0.872258
-0.125408
0.154957
-0.935492
-0.0621923
-0.0105774
0.0483271
1.48697
-1.47385
-0.0219528
-0.993392
-0.599053
0.772382
-0.00678118
-1.22137
1.10616
-0.250485
-1.62734
-0.000721544
-0.266722
-0.925036
0.326793
-0.0932332
1.87836
0.231957
0.135485
-1.2241
0.132879
-0.1017
0.204874
-0.458338
0.316531
-0.530849
0.214317
0.252872
0.0458588
-0.298731
-0.133608
-0.190519
0.159879
0.316626
-1.12001
1.14565
-0.0256426
-0.731574
1.12795
-1.95714
0.829187
-0.595448
-0.055536
0.0851299
-1.50175
0.143511
1.35824
-0.36575
0.887381
-0.656352
0.690998
0.158986
0.973805
0.556552
-1.0242
-0.821783
-0.174033
0.995817
-0.531041
-1.2892
0.891339
-0.118627
0.121936
-0.00330859
0.0415147
-0.086443
0.964333
-1.4427
-0.697068
-0.175485
0.872554
-0.119164
0.0886481
0.0305163
-1.06066
0.435339
0.0359012
0.0242696
-0.221042
0.38945
2.14543
0.23272
-0.796249
0.816437
-0.254205
0.0862353
-1.17859
1.96241
-0.783825
-0.0743712
0.0610735
0.0733477
0.361271
-0.0212864
0.966686
1.18765
0.632033
-0.919936
0.311332
-1.99069
-0.160602
0.126366
0.122979
-1.12886
-0.236361
-0.959922
-0.200941
0.0507294
0.771873
-0.382423
-1.53779
0.481481
1.20802
0.176671
-1.68463
0.335931
1.3487
-0.0869605
0.460056
0.683671
-1.14873
-0.295306
0.728475
-0.306587
-0.421888
0.847468
-0.280085
-0.567383
-0.170171
0.0365692
0.633356
-0.649301
0.0159451
-1.02686
0.666927
0.359929
0.140353
1.07033
0.000635363
0.10498
0.749426
-0.50195
-1.97419
0.746865
1.22732
-1.88351
1.46139
0.915042
0.780138
-1.69518
0.794514
-0.739166
1.79178
-0.595691
-1.19609
-1.05814
0.163259
-0.0808961
-0.129239
-0.104461
0.183417
-0.0292661
0.106813
-0.0775468
-0.285422
-0.112599
-1.66099
-0.189858
0.0636468
-0.0899759
-0.0295267
-0.0115981
1.00968
-0.504694
-0.504987
0.766417
-0.469951
-0.111007
0.123831
-0.123529
1.24014
-0.0656797
-0.0147452
-0.316642
-0.744015
-1.4617
0.558661
-0.0685226
-0.070838
0.119769
0.0884843
0.0895215
-0.0818291
-0.491373
-0.423825
0.0848021
-0.0748342
-0.00996781
0.171516
-0.828027
-0.545127
1.37315
-0.194276
0.0409468
-0.0817277
1.09842
0.999132
-2.09755
-0.379721
0.986818
0.204706
-0.0813892
0.649
-0.808061
-0.714002
1.52206
-0.933452
-0.974481
0.5752
0.295754
-0.193557
-0.102196
0.888999
-1.26134
-0.147793
1.76708
-0.639126
-0.173142
0.0996853
-0.41145
-0.73823
0.0874413
2.0151
-1.76897
-0.246133
-0.878614
-0.583084
-0.256989
0.157965
0.0650083
-1.01874
-0.211939
1.23068
0.225714
0.129534
-0.235864
-1.64895
-1.58376
0.694589
0.889166
-0.154117
-0.00475613
0.158873
0.943731
-0.554574
-0.389158
0.101878
-0.155696
0.0738717
0.0792491
0.825713
-1.92141
0.754927
0.092541
-0.312984
-0.590994
0.25888
-0.0460205
0.144321
0.303736
-1.13176
0.0276088
0.353446
-0.530365
0.407959
-0.0816874
-0.00618625
0.0878737
0.982942
0.808838
0.56254
0.0624819
0.659506
-0.455423
-0.204082
1.74924
-1.41331
-0.299791
-0.329791
0.139626
0.0242599
0.203506
-0.028985
-0.263692
0.00406315
-0.12269
0.552893
-0.00461102
-1.80427
-0.0189058
-0.135212
-0.0661302
0.00989544
1.02668
-0.946526
0.880898
-0.447638
-0.43326
0.00372642
0.103741
-0.00913953
0.00370671
0.399209
0.0693327
-0.0527635
-0.256461
-0.49147
-2.45613
0.939196
1.51694
-0.047567
0.0058849
-0.0325837
0.0986065
0.11178
-0.270438
-0.288758
0.575285
-1.38335
0.18253
-0.970185
2.0686
0.61282
-0.0655571
-0.547262
-0.645869
-0.498168
-0.0389097
0.0862814
-1.08641
0.501728
-0.733852
0.232124
-0.0930505
-0.0515722
0.144623
-0.218459
1.19278
1.32548
-1.38987
1.41331
-1.83122
1.34123
0.489995
1.08838
-2.05857
2.19183
-1.10594
-1.04137
-1.01885
-0.0353161
0.201431
-0.0483438
-0.424948
-1.56567
0.125024
-0.0509913
-1.30573
1.22687
-1.97764
0.750778
-0.05024
0.228514
-0.444977
0.178848
-0.142038
0.995918
1.36789
-1.97412
0.795529
-0.159122
-0.774329
-1.32556
0.137562
-0.189134
1.87807
-1.9497
-0.134363
-1.08627
0.080475
1.28787
-0.580276
-1.62974
1.69965
-0.0699146
0.417664
2.00055
0.430576
-0.0686972
-0.361879
1.81496
-0.72836
0.223693
-0.149946
0.722865
-0.737433
0.0833501
0.12693
0.602661
0.880259
-1.48292
-0.563497
-0.45605
1.0143
-1.07498
0.0606738
-0.0158345
-0.273453
-1.72987
0.727717
1.00215
1.40711
-0.310215
-0.886503
-0.0665799
0.857609
-1.03999
0.271382
-0.529769
-0.288569
0.375642
-0.620722
0.445517
-1.26345
-0.751273
2.01472
-0.383499
0.374857
-0.306868
0.0825753
1.04874
-1.06033
0.0423167
1.3667
-2.01644
-0.187121
-0.474605
0.197955
-1.1553
0.0932433
0.69565
0.467817
0.0246228
-0.603164
-1.57996
0.329053
0.0916609
0.373813
-0.465474
0.0674059
-0.304245
1.14143
1.09671
1.25579
-0.978168
0.0587455
-0.148695
-0.303388
0.422625
-0.327985
0.173176
-0.682527
-0.945081
2.03346
-0.267481
0.332358
-0.552026
-1.12907
1.6811
-1.51619
0.888938
-0.0642772
0.346772
0.0869021
-1.45097
-0.0738793
-0.142323
0.644051
-1.14727
-1.30886
2.0151
0.555818
-1.38109
1.01188
-0.557991
-0.210833
0.311938
-0.360861
-0.237643
0.246658
-1.58969
0.208913
-0.78294
1.0878
-2.03288
-0.809273
-0.313722
0.389584
-0.0929639
-1.53677
0.900944
-1.16089
1.34484
0.706952
-1.49693
0.789977
1.08686
-0.419931
1.88982
-0.918957
-1.05461
1.97357
0.565799
1.25242
-1.0267
-0.65887
-0.924885
-0.912035
-0.91919
0.435804
-0.707571
1.39447
-0.686903
-0.133584
1.36958
-1.236
-1.01366
-0.958764
1.97242
0.913163
0.101141
0.247374
0.350592
-0.399345
0.269172
0.130173
0.0042209
-0.245174
0.489302
-1.36792
-0.707651
-0.380379
-0.241145
-0.260466
0.473613
-0.308359
0.942705
-1.98274
0.835204
1.14753
-0.0271231
-1.65316
1.68029
0.0271944
-0.24572
0.0454085
0.611706
-1.86619
1.86619
-0.0421249
-0.0141081
0.0562329
-0.646309
1.06301
0.0287305
0.108831
-0.769034
-0.30593
0.664876
-1.38987
-0.0850703
-1.28527
0.293422
1.3
-1.29048
-1.20993
0.191194
-0.262987
0.485655
-0.222668
0.125371
0.507985
0.311301
-0.0584286
-0.976023
-1.18708
0.189477
0.997605
-1.37673
-0.364823
-0.729963
-1.22718
-0.0139111
-0.114606
0.15366
-0.0315534
-0.296088
-0.025997
0.0507162
0.365556
-0.268461
-0.352261
-0.83849
1.30774
-0.469254
0.314548
0.197433
-0.226558
0.39299
-0.166433
-0.425124
0.165662
0.414833
-0.52438
0.109547
-1.145
1.8926
-0.977562
-1.31117
-1.75477
0.323411
-1.44006
0.048845
0.990124
1.16507
0.134499
-1.05953
1.15883
0.000392225
-0.16105
-0.230312
0.65917
0.610516
0.183999
2.0167
-0.928904
-1.0666
-0.773968
1.84057
1.14849
-0.00960528
-1.13888
0.0518046
-0.104274
-0.186129
0.16958
0.122391
1.33638
-1.45878
-1.22736
1.17225
0.0551146
1.22736
-1.32032
0.207153
-0.257393
-0.861814
1.01677
0.0718522
0.00666679
0.0256462
-1.66279
0.153383
1.50336
-0.796405
-0.336063
-0.0626815
0.131539
-0.421944
0.937857
0.245154
-0.0823203
0.614886
-1.28264
0.169725
-0.228397
-0.547615
-0.0492526
0.631418
-2.06319
0.516856
-0.0737228
0.421725
-0.348002
-1.04114
-0.936503
0.0735095
0.648301
0.540573
-0.864652
0.0684028
-0.092228
-0.312512
0.0989865
-2.08423
1.04286
0.059045
-0.0172312
-0.282652
0.100583
0.0384236
-0.0671934
-1.41164
0.659415
-1.51521
0.855796
0.0566781
0.239035
-0.295713
0.0707971
-0.157704
-1.02383
1.31725
0.624283
0.362535
1.30892
-1.14873
0.179168
0.0391972
1.69153
-2.01755
0.326022
0.0580911
-0.562996
-0.80557
-0.0666876
0.365714
-0.437326
0.356501
-0.39316
-1.22725
0.0598163
-0.096523
0.0367067
-1.47223
0.185289
1.28694
0.396741
-0.395803
0.0311451
0.323826
-0.354971
1.17771
-1.18449
-0.339995
0.385854
0.602137
0.237481
-0.318212
0.366628
0.0496337
-0.0102693
0.204268
0.635518
-0.839787
-0.428403
-0.0652779
-0.92428
-1.01087
1.93515
0.0145756
-0.245439
0.370366
-1.0017
1.84248
0.107766
-0.0548658
0.0418644
0.0456232
0.0932069
2.07501
-1.02408
-1.21042
0.75539
-0.546477
-0.713578
1.9409
0.174255
-0.104922
-0.214502
0.214587
0.128956
-0.123545
-0.279083
0.179438
-0.27713
0.27093
-0.302484
1.09454
-0.190583
0.291167
0.298692
-0.0718144
0.0360863
0.36768
0.0766373
0.48325
-0.751711
0.20004
-0.229328
0.0292882
-0.174007
0.226012
0.180945
0.886882
-1.06783
-0.236492
0.104686
0.472828
-0.615015
1.83578
-1.15707
1.02016
0.903304
0.111087
0.557274
-1.0851
0.343943
-0.421066
-0.364391
1.21281
0.79385
-1.48739
1.48739
1.71066
-0.825335
1.08345
-0.0195167
1.53482
-1.5153
0.925255
1.01919
0.813986
-2.07743
0.169379
-1.13182
-1.34984
-0.210752
-1.4225
1.63325
-0.391361
-0.126892
0.0697744
1.04787
0.150481
-0.259802
-0.81142
1.49988
-0.688456
-0.173151
0.256501
-0.0246155
-0.146054
0.87341
2.62268
-1.04339
-1.57929
1.63247
-1.48896
1.13233
0.191726
0.031981
0.00145744
0.0449311
1.5625
0.566917
1.1469
0.619569
0.0204971
0.187567
-0.208064
-0.330423
0.204997
0.172476
-0.184451
0.0119752
0.153459
-0.206714
0.053255
0.515246
-0.435006
0.327914
-0.468505
0.20991
-0.0358622
0.0146873
-0.162972
0.0108811
-0.481226
0.492178
-0.0109525
-0.240295
0.213015
0.0272799
1.9497
-1.59584
0.480606
-0.404565
-0.0760409
-1.48697
-0.328127
0.255092
-0.98568
1.91094
0.248094
-0.31608
2.08662
-1.27264
0.23629
-0.301321
-0.150228
-0.225734
-1.33541
-0.0300313
1.59739
1.2783
-1.08034
-0.106562
0.136024
-0.0893025
-1.49178
-0.280583
0.274274
0.233306
-0.352739
-0.351342
0.277071
-0.0741313
-1.33478
1.30782
-1.44859
1.48259
-1.17755
-0.463495
0.418699
0.649473
0.375458
-0.386775
-0.0480792
0.0573524
0.340371
-0.397724
-0.358999
1.42354
-0.962647
-1.02301
-2.00891
-0.0749757
0.0710409
0.00393482
-0.00661559