/*--------------------------------*- C++ -*----------------------------------*\
| =========                 |                                                 |
| \\      /  F ield         | OpenFOAM: The Open Source CFD Toolbox           |
|  \\    /   O peration     | Version:  2306                                  |
|   \\  /    A nd           | Website:  www.openfoam.com                      |
|    \\/     M anipulation  |                                                 |
\*---------------------------------------------------------------------------*/
FoamFile
{
    version     2.0;
    format      ascii;
    arch        "LSB;label=32;scalar=64";
    class       volVectorField;
    location    "6";
    object      U;
}
// * * * * * * * * * * * * * * * * * * * * * * * * * * * * * * * * * * * * * //

dimensions      [0 1 -1 0 0 0 0];

internalField   nonuniform List<vector> 
5098
(
(2.55879 1.02071 0)
(2.11299 0.105024 -3.75779e-20)
(2.58582 -0.0258172 -2.32613e-21)
(1.48904 -0.666152 8.33651e-19)
(2.28556 -0.817071 0)
(0.861066 -0.416113 0)
(2.45848 0.00365905 3.83616e-22)
(2.60827 -0.263865 1.84313e-21)
(2.72047 -0.0179296 -4.74011e-20)
(2.00078 -0.275268 1.18906e-19)
(-0.877601 -0.906755 0)
(2.15133 -0.0194772 1.9543e-19)
(2.47111 -0.449097 -1.36342e-20)
(0.91768 -0.449412 0)
(2.13813 -0.317793 1.16475e-19)
(1.96501 0.02672 4.75197e-22)
(-0.811455 -0.140744 -1.61352e-19)
(-1.70409 1.19551e-05 0)
(-0.3325 0.219505 4.24681e-19)
(-0.894814 -0.0287246 1.83557e-19)
(1.83214 0.583109 -8.25301e-20)
(1.90294 0.0250582 1.54654e-21)
(2.06638 -0.803312 0)
(0.721421 0.0771046 3.08396e-20)
(-2.41442 1.2708 0)
(1.43778 -0.581005 0)
(1.97764 0.0274096 1.37182e-19)
(1.81567 -0.763235 2.28694e-19)
(-0.261712 0.410875 -1.29031e-18)
(1.65182 -0.726481 0)
(2.41175 -0.208301 -1.28125e-19)
(0.707747 -0.34389 0)
(2.0231 0.0493904 -1.51741e-19)
(0.163996 -0.919339 0)
(2.53093 0.353236 -4.63127e-20)
(3.48809 0.331298 1.43235e-18)
(1.86716 -0.432181 1.63902e-19)
(2.02002 -0.00497328 -3.93926e-21)
(1.29672 -0.423941 5.99674e-19)
(1.35609 -0.631356 0)
(1.4942 -0.678081 -3.94035e-19)
(1.18502 -0.191541 -2.36438e-18)
(1.45251 -0.585965 0)
(2.54401 -0.180415 7.0691e-20)
(2.47783 0.720596 3.21886e-20)
(2.08793 0.0608271 7.39633e-21)
(-1.06811 -0.120588 9.48645e-20)
(1.04874 -0.336373 0)
(2.39912 -0.233498 0)
(1.49686 -0.636809 8.87857e-20)
(2.25175 0.140011 5.6334e-20)
(1.63789 0.490678 -5.01751e-19)
(-0.425228 0.411499 4.72814e-21)
(2.0587 -0.0630195 1.94559e-19)
(0.925411 -0.46383 -3.67183e-19)
(1.59761 0.144897 0)
(1.83841 0.328285 -2.71749e-19)
(1.59862 -0.650991 0)
(0.837287 -0.412242 0)
(1.92689 -0.0050501 -3.382e-20)
(1.5953 -0.370156 3.79183e-20)
(-1.42124 0.567377 -4.30567e-19)
(2.53986 0.421635 0)
(2.4246 -0.429757 0)
(-0.469722 0.546635 2.15839e-18)
(0.794222 -0.399945 4.55799e-19)
(2.21089 0.0241778 6.28519e-21)
(2.29845 0.150657 9.26839e-21)
(2.11233 -0.249798 2.00192e-19)
(1.64023 -0.682082 2.63428e-19)
(1.89427 0.240863 1.6843e-20)
(1.27449 -0.441919 -5.8942e-21)
(1.88854 -0.784055 0)
(0.843742 -0.689514 0)
(1.68211 -0.139368 3.65536e-20)
(1.08729 -0.531393 -4.24928e-19)
(1.48463 0.0528013 0)
(1.46747 0.259282 4.63234e-19)
(2.52272 -0.227853 7.56086e-20)
(1.62662 0.20124 0)
(1.69124 -0.0264958 0)
(3.24465 0.0911905 9.71675e-19)
(1.64294 -0.258035 5.6821e-19)
(0.132176 -1.0041 -1.47627e-20)
(-1.66165 -0.320475 4.92503e-19)
(1.49373 -0.659506 2.87807e-19)
(0.00337838 0.331374 -2.75001e-19)
(1.47408 0.0756254 -2.96335e-21)
(2.76792 -0.221186 7.09473e-20)
(1.58667 -0.326828 3.3937e-20)
(2.26798 -0.259939 -9.09576e-21)
(0.503371 -0.24219 8.41028e-19)
(2.46968 -0.0660309 -2.43648e-19)
(1.51187 -0.6544 -4.44605e-19)
(1.27729 -0.44885 1.05749e-19)
(1.34313 -0.398859 -7.95553e-21)
(1.02069 -0.511442 -3.63172e-19)
(1.43597 0.325596 3.41985e-19)
(1.62936 -0.125249 2.03997e-20)
(2.01854 -0.470519 -1.39e-19)
(2.16796 -1.97755 -2.16224e-19)
(0.975783 -0.481977 -4.37042e-19)
(-0.0484171 -0.0640333 4.63687e-20)
(2.55755 0.425275 3.12538e-21)
(1.49517 0.230343 -5.26568e-19)
(2.37485 1.1636 0)
(1.91692 0.279932 2.88138e-19)
(2.3069 0.0996522 4.69616e-21)
(0.989064 -0.385797 8.12698e-20)
(-1.04642 -0.952376 0)
(1.01986 -0.489671 -9.65144e-19)
(1.26787 0.557857 6.22638e-19)
(1.84722 -0.0109833 -2.83161e-19)
(0.45904 -0.146446 1.82606e-19)
(1.76781 0.664068 1.18175e-19)
(0.07302 -0.324006 0)
(3.34993 -0.162196 2.24035e-18)
(2.66339 1.46963 0)
(1.76895 0.442076 -6.93891e-21)
(0.74952 0.0295232 -4.75052e-19)
(1.69894 0.468593 4.11977e-19)
(1.60691 2.08615 -7.83258e-20)
(2.06628 -0.270901 -7.42673e-20)
(-0.282182 1.28001 -1.42236e-18)
(0.629511 -0.189046 -1.10286e-18)
(-0.9334 0.277271 5.26736e-21)
(2.12109 -0.0484677 1.60653e-19)
(2.05659 -0.771237 -2.90401e-19)
(1.32919 -0.131829 -1.25401e-19)
(0.451746 -0.160427 -3.52854e-19)
(-1.96945 1.05333 -1.41933e-18)
(1.08658 -0.48034 -6.00215e-19)
(1.11414 -0.479157 5.02543e-19)
(2.54274 1.50289 -1.1642e-19)
(1.18166 -1.70033 -4.20811e-19)
(3.02838 -0.703318 4.73798e-19)
(2.02236 2.59118 6.37077e-19)
(1.88611 0.287568 1.95732e-19)
(0.846844 -0.416957 0)
(2.03537 -0.07385 -6.2462e-19)
(1.6055 0.606004 -3.31137e-19)
(1.23982 -0.295103 -1.38481e-20)
(1.7156 -0.779656 4.44167e-19)
(2.53116 -0.0368325 -1.28919e-20)
(2.06037 0.0467399 -5.03065e-20)
(2.3723 0.453916 0)
(2.07714 -0.252512 2.06248e-19)
(2.01687 -0.951703 0)
(2.72307 -0.0735739 4.25764e-19)
(1.60243 -0.736836 1.72691e-19)
(2.99138 -1.3792 -1.12168e-18)
(2.3026 0.505457 0)
(2.07867 -0.952993 1.2446e-19)
(2.08233 0.0750556 0)
(-0.020043 0.220092 -3.49922e-19)
(0.764747 -0.271465 -1.98209e-19)
(1.60324 -0.643212 -4.70444e-19)
(1.88627 -1.94832 -1.12746e-19)
(1.43901 -0.669897 -3.21935e-19)
(-0.307366 0.215765 1.35897e-18)
(1.93303 -0.402102 -4.49916e-19)
(2.15745 -0.327902 -1.56782e-19)
(0.609397 0.37013 -5.34852e-19)
(1.8116 -0.163497 -3.53044e-19)
(-2.20852 0.646161 -5.24319e-19)
(2.46238 -0.190452 -1.24988e-19)
(2.23603 -0.955605 -4.43625e-19)
(2.31828 -0.576284 0)
(-2.46837 1.22061 7.44866e-19)
(1.65662 -0.535192 -5.12687e-19)
(1.40115 -0.36436 5.71717e-21)
(1.50674 -0.6139 -3.02317e-19)
(2.2227 0.566227 1.22965e-19)
(1.81795 -0.735904 4.09709e-19)
(2.64137 -0.0315397 0)
(1.93066 0.0118556 0)
(1.68519 -0.257783 -2.20783e-19)
(3.38926 0.404869 -2.66117e-20)
(1.74562 -0.152498 4.86166e-19)
(0.18278 0.153574 0)
(1.74 2.23871 0)
(3.98228 -0.699414 -1.44909e-18)
(1.72508 -0.5248 6.34142e-19)
(-2.21406 0.668552 0)
(1.82978 -0.13856 0)
(2.77883 0.763922 4.88607e-19)
(1.47155 0.360291 0)
(1.87459 -0.398448 5.6556e-19)
(0.956733 -0.466884 8.26764e-19)
(-1.08741 2.23487 -4.13774e-19)
(1.27246 0.727951 0)
(1.44414 -0.250406 1.59645e-19)
(1.91238 -0.801859 0)
(1.69178 -0.174977 3.71277e-20)
(2.46717 -0.202026 1.3927e-20)
(0.468106 -0.265597 -8.73536e-19)
(4.18457 0.114889 6.58815e-19)
(3.20824 -0.713677 0)
(2.00818 0.00799414 -6.73507e-21)
(1.68282 -0.517339 -9.38027e-20)
(-2.26348 1.39063 -2.37275e-18)
(1.65722 0.407985 6.28435e-21)
(2.46578 0.730365 -2.90473e-21)
(2.30128 0.0147166 5.22613e-21)
(1.45842 -0.0158118 2.25999e-19)
(0.742649 -0.286192 -1.41917e-19)
(2.62989 0.0405756 -2.07396e-20)
(1.14991 -0.532463 0)
(2.31833 -0.0965349 0)
(1.2379 -0.602563 -4.69015e-19)
(1.96056 -0.143769 -1.79618e-19)
(1.7 0.369163 3.35043e-19)
(1.54613 -0.279044 -1.60903e-19)
(2.08207 0.115315 -1.76344e-19)
(2.14473 -0.0792176 -2.64883e-19)
(0.181158 0.303153 -3.61767e-19)
(1.76278 -0.16738 0)
(-1.1839 -0.668269 -6.16664e-19)
(0.685699 -0.224059 1.59773e-19)
(2.01438 0.0799367 1.33016e-19)
(2.30761 -0.276277 -3.42352e-20)
(1.52963 -0.303787 0)
(2.25257 0.0287479 1.20517e-20)
(2.31162 -0.330713 1.76596e-19)
(0.390005 -0.142927 2.29806e-19)
(2.02852 -0.139329 0)
(0.315501 -0.0518969 0)
(1.97132 0.0253351 0)
(1.98583 -0.470838 0)
(1.67035 -0.668122 1.02419e-20)
(1.85346 0.460094 0)
(0.543297 -0.208029 -5.16495e-19)
(3.93633 -0.219691 -9.50433e-19)
(2.03705 0.0171215 -3.36377e-21)
(2.65989 -0.0221134 -6.80145e-20)
(2.39793 -0.0380549 0)
(1.4587 1.56889 -1.71667e-19)
(-1.3654 1.97948 -2.47131e-18)
(3.21762 -0.17215 0)
(1.83794 -0.0158091 3.50136e-19)
(2.76151 0.193056 -3.31263e-18)
(2.25028 0.613519 0)
(2.54854 0.13764 0)
(1.00132 -0.193229 8.74805e-19)
(1.84621 0.519478 -4.29192e-19)
(2.29082 -0.138963 -2.18698e-19)
(1.02948 -0.493295 9.75082e-20)
(-1.31161 -0.481509 -3.73481e-19)
(-0.820365 -0.231405 0)
(2.3763 -0.119748 6.10969e-20)
(2.17301 0.883151 -8.29406e-20)
(1.82261 -0.762144 4.26219e-19)
(0.0798326 -0.42081 6.30919e-19)
(-1.8503 1.69586 1.26506e-18)
(1.95158 0.0301586 -2.58015e-19)
(-1.42173 2.04613 2.26791e-18)
(1.45006 -1.38124 3.58065e-19)
(0.996783 -0.384207 -7.91539e-20)
(1.07739 -0.357447 -3.68117e-19)
(1.81633 0.0407637 7.1915e-21)
(2.76285 0.738193 7.71501e-20)
(-0.181031 0.350521 9.63151e-19)
(-2.37834 1.31383 1.15708e-18)
(1.83591 -0.793801 0)
(2.02687 0.0347869 -1.72954e-21)
(-1.77726 0.553134 2.0564e-19)
(-0.273793 0.164413 -1.59015e-18)
(-0.813717 -1.24128 0)
(1.31103 -0.342047 0)
(1.81972 -0.029883 -3.22489e-20)
(-0.983813 2.15059 5.03522e-19)
(1.85705 0.0666223 -3.71722e-22)
(-0.145817 0.211208 -7.11854e-19)
(1.34854 -0.279928 0)
(1.0876 -0.426149 2.60962e-21)
(0.0771091 -0.127798 6.82446e-20)
(1.20102 -0.973901 -2.45183e-18)
(3.71665 -1.88612 0)
(2.21055 -0.715282 0)
(1.96356 -0.115821 0)
(-2.1911 1.30824 -8.33696e-19)
(2.52749 -0.185874 1.93212e-19)
(0.311547 -0.0570021 -9.62777e-19)
(2.53657 -0.18344 -2.14679e-19)
(1.92087 -0.516749 1.29864e-20)
(0.0679536 -0.357356 0)
(1.92744 0.0384513 0)
(2.50214 0.440911 6.82345e-21)
(2.48237 -0.172043 1.00529e-19)
(1.74561 0.00739633 -3.00133e-19)
(0.00471025 1.23628 0)
(-0.633888 -0.221305 6.19148e-19)
(1.0524 0.00355447 -2.55343e-19)
(2.48534 0.567432 2.59677e-20)
(1.93348 -0.594903 4.41674e-19)
(0.92099 -0.180177 -5.60491e-20)
(2.54853 0.129876 0)
(2.42527 -0.215877 -1.13621e-19)
(2.01972 0.0492896 0)
(2.07548 0.0133373 -1.56201e-19)
(2.40768 0.460839 -5.54786e-21)
(2.67277 0.0105993 1.29123e-19)
(1.5476 -0.394108 5.86761e-19)
(1.9009 0.433703 2.38463e-19)
(-1.7282 0.638668 -3.34318e-19)
(1.7487 -0.700874 -2.5555e-19)
(2.55802 1.91275 -1.41862e-19)
(2.1291 -0.00331233 0)
(1.79493 -0.408308 0)
(-1.09872 -0.120818 0)
(2.25305 -0.261311 4.38076e-20)
(-0.187326 -0.402932 6.31393e-20)
(0.794241 -0.39609 4.8415e-19)
(1.87074 -0.0145061 -7.04912e-20)
(2.50938 -0.446328 -5.7799e-20)
(0.0766137 0.134214 6.85517e-19)
(1.96027 2.38381 -5.88443e-20)
(2.24943 0.00347699 -1.05921e-20)
(2.21378 -0.153717 5.98281e-19)
(0.82465 -0.332048 0)
(2.69311 -0.225158 -9.16628e-20)
(-0.616647 -0.234972 -1.36009e-18)
(3.09151 -0.0945675 -6.17384e-19)
(0.811773 -0.249617 -5.18853e-21)
(1.60666 -0.11331 1.62003e-20)
(1.28322 -0.39838 4.02561e-19)
(2.16528 0.906761 0)
(1.96713 0.0822057 -9.92843e-20)
(1.00241 -0.395869 -8.59067e-19)
(1.80372 0.353881 5.56303e-21)
(1.22932 -0.594977 0)
(2.27693 -0.14689 -1.73168e-19)
(0.991832 -0.480592 2.71281e-19)
(2.24996 -0.71076 -1.50402e-19)
(1.66588 -0.688632 -3.57745e-19)
(2.34197 0.0860851 -5.04141e-20)
(2.362 -0.368885 1.01974e-20)
(0.913929 -0.452152 5.37831e-19)
(2.13516 -0.0515249 2.45301e-19)
(1.7911 -0.33615 0)
(1.73813 -0.792451 -4.20334e-19)
(1.61903 -0.683968 -1.07775e-18)
(2.60488 -0.235285 2.8568e-20)
(1.99813 0.03803 4.16865e-20)
(1.76206 1.14678 0)
(1.53538 -0.069583 0)
(2.03808 -0.0808897 -1.94743e-19)
(0.459113 0.316559 3.13994e-19)
(2.68717 1.38058 0)
(2.28987 -0.0585768 1.74318e-19)
(1.47522 -0.656739 -4.20644e-21)
(0.867832 0.378802 -6.23076e-19)
(0.822024 -0.342105 -4.58607e-19)
(-2.27475 1.29669 8.53354e-19)
(1.79662 -0.0294519 4.23314e-20)
(-2.27354 1.16965 2.94705e-18)
(3.03807 -0.671502 -4.54078e-19)
(2.22951 -0.00801139 0)
(1.3573 -0.0925457 -1.08094e-19)
(1.46036 -0.476721 0)
(1.95122 0.114684 -4.82773e-19)
(1.97501 -0.422715 0)
(2.11685 -0.0245522 -1.72072e-19)
(1.4935 0.19718 2.63095e-20)
(2.75885 -0.172826 -5.63039e-20)
(1.06385 -0.399804 4.85708e-19)
(1.95845 0.0591228 -3.89248e-19)
(2.03388 0.239702 -4.25039e-19)
(1.92221 -0.829101 0)
(-1.01454 2.1804 0)
(1.1382 -0.444806 -4.7945e-19)
(2.71113 -0.195079 0)
(3.4882 0.655353 -8.58322e-19)
(1.55835 -0.332109 0)
(1.38449 -0.475181 7.89109e-21)
(-1.45651 0.487348 3.76919e-19)
(1.70004 -0.544536 7.52841e-19)
(0.595447 -0.286939 -3.83833e-20)
(2.29994 -0.544189 0)
(1.48987 0.203156 -1.87374e-20)
(1.79648 0.0276085 -2.52529e-19)
(-0.872208 0.20316 -2.44847e-20)
(1.92525 0.0431015 -2.20826e-19)
(2.66294 0.0103342 -8.37342e-20)
(2.67246 -0.0704085 -3.59022e-20)
(3.16174 0.996321 3.29317e-19)
(2.50886 0.45448 -5.68214e-20)
(-1.61201 1.98102 -5.72601e-19)
(1.64544 -0.486441 0)
(-0.0744307 -0.0661753 -6.09496e-20)
(1.9836 0.125427 -1.71155e-19)
(2.52796 -0.243851 0)
(1.95943 0.023247 1.46885e-19)
(1.09044 -0.524668 -3.62584e-19)
(1.63589 1.35856 1.54008e-19)
(3.72916 0.400938 0)
(1.31954 -0.625424 1.30298e-19)
(0.382849 0.590103 0)
(2.197 0.059222 4.03024e-20)
(2.36927 -0.302418 -1.65388e-19)
(0.00876492 0.13582 1.23868e-18)
(1.01079 -0.016732 0)
(1.51238 0.318713 2.36481e-19)
(2.00688 0.060793 1.55379e-19)
(0.159505 -0.244124 0)
(1.68531 0.0158858 0)
(2.02592 -0.1629 0)
(-0.965272 0.464831 8.17233e-19)
(0.291972 -0.130183 -4.39772e-20)
(2.78134 -0.0852606 0)
(2.00875 0.0122599 0)
(1.42607 -0.826985 8.11514e-20)
(-1.34586 1.53904 0)
(2.39514 0.455409 1.13243e-20)
(2.84928 1.25511 1.78801e-19)
(2.05166 0.299425 5.90359e-21)
(1.84412 0.404032 -4.9545e-21)
(0.86576 0.465852 7.1663e-19)
(2.87719 1.44869 -1.88697e-19)
(2.36485 -0.259998 8.02697e-21)
(2.07915 -0.063433 1.65706e-19)
(1.53573 -0.144852 -2.6402e-19)
(1.56076 -0.29386 4.48064e-21)
(2.02207 0.0447973 0)
(-2.24447 1.08409 -2.82194e-18)
(0.609118 -0.269754 0)
(0.985114 -0.649085 5.64074e-20)
(1.87012 -0.883648 0)
(2.20049 -0.228486 0)
(1.23835 -0.591865 -3.08733e-19)
(2.07508 0.042827 -1.00957e-20)
(-0.283743 0.33564 -1.42681e-18)
(2.06013 0.0236705 8.63534e-21)
(1.75738 -0.674577 4.12038e-19)
(3.02773 1.15239 2.08494e-19)
(0.802873 -0.261492 1.32878e-18)
(2.46848 0.111237 1.31173e-20)
(2.02503 -0.81301 1.6941e-19)
(1.97318 0.0689315 -2.71303e-19)
(2.1758 0.642496 0)
(1.74003 -0.104217 -5.0556e-19)
(1.78267 -0.458795 4.1973e-19)
(2.03345 0.15174 -5.91123e-19)
(-0.637705 -0.004223 -7.7372e-20)
(1.5593 1.36055 -1.4532e-19)
(2.80617 1.3344 2.68334e-19)
(3.36461 -0.394774 0)
(2.11686 -0.278241 0)
(0.307685 0.359264 -5.49009e-19)
(2.11307 -0.105174 1.0527e-19)
(-0.944249 -0.33536 0)
(2.23372 -0.148938 -1.51699e-19)
(1.9831 0.019062 -3.22093e-19)
(-0.571083 -0.288942 -5.23969e-20)
(-0.715549 -0.693662 4.0344e-19)
(2.63416 -0.100439 -4.32068e-21)
(0.569917 -0.0445136 -1.16291e-21)
(2.3337 -0.370624 -3.55128e-19)
(1.91697 -0.429473 2.95985e-19)
(3.43374 1.06298 7.67385e-19)
(1.46739 -0.604903 3.82136e-19)
(1.85749 0.26342 5.40208e-23)
(0.969258 0.303244 5.24024e-19)
(2.06781 2.05274 0)
(1.65068 -0.458635 2.40742e-19)
(-1.63229 -0.18723 0)
(0.161127 0.163178 -2.4511e-18)
(2.52875 -0.311161 0)
(-1.60636 0.63261 -1.1682e-18)
(1.56082 -0.663803 -5.4192e-19)
(1.45235 0.734537 -2.85875e-19)
(1.99139 -0.822152 0)
(0.677962 -1.1695 0)
(3.16754 -0.251029 0)
(1.99287 0.0969485 1.22629e-19)
(1.30937 0.757612 -1.14272e-18)
(-0.15489 0.34937 1.09875e-18)
(1.50981 -0.285213 -7.84691e-21)
(3.4519 1.10063 -8.72237e-19)
(2.0727 0.271351 0)
(1.16738 2.10026 2.30806e-19)
(2.44721 1.39819 1.08597e-19)
(-0.0383557 0.832085 -2.25278e-19)
(1.48439 -0.694346 3.59526e-19)
(2.52616 -0.194219 5.44571e-21)
(1.10975 -0.538861 6.16836e-19)
(2.27115 0.427164 0)
(2.34061 -0.25062 1.55986e-19)
(0.971556 -0.313304 8.76771e-20)
(1.89412 -0.00904475 3.21505e-20)
(3.54136 0.784461 -4.63177e-19)
(1.93017 -0.905691 0)
(2.56375 0.788562 0)
(2.7117 0.479371 0)
(0.6109 -0.223089 0)
(1.87236 0.0201153 0)
(1.35217 -0.50517 1.6253e-19)
(3.80203 1.0355 6.7055e-19)
(1.39048 -0.580631 4.52301e-19)
(2.05315 0.0455811 2.63331e-19)
(-1.82815 0.0340536 0)
(1.98966 -0.835633 3.09561e-21)
(-0.425177 0.212015 0)
(-1.41071 -0.513872 -8.32724e-19)
(-0.417711 0.209252 5.91557e-19)
(3.93841 0.614631 -3.63676e-19)
(1.97408 0.113117 2.96145e-19)
(2.05752 0.217305 -9.47584e-20)
(3.89907 0.32017 -4.86876e-19)
(2.50745 -0.00146113 0)
(0.600121 -0.128181 1.05031e-18)
(2.00962 -0.0120057 0)
(1.54141 0.967732 1.74524e-20)
(2.48073 -0.150327 0)
(2.10743 0.272465 -1.19263e-19)
(2.08132 -0.114658 0)
(0.851334 -0.298519 -3.23585e-19)
(-1.99621 1.44583 2.01021e-18)
(2.32622 -0.213041 -1.49891e-19)
(1.35082 0.418702 4.72177e-19)
(-1.49246 0.745109 -1.70509e-18)
(2.18899 -0.815624 0)
(0.974697 -0.160554 -1.23787e-18)
(1.6083 0.385807 -7.92137e-21)
(3.54301 0.562345 -1.10676e-18)
(1.84286 0.00398751 4.15911e-21)
(4.2548 -0.15032 2.35444e-18)
(3.00107 0.918984 0)
(1.70235 -0.762854 -8.95067e-20)
(1.39296 -0.636394 0)
(2.50418 -0.229643 1.5304e-20)
(0.36962 -0.0721982 7.84012e-20)
(-2.0112 0.363245 0)
(2.43155 0.436991 0)
(1.43315 -1.93453 -3.25555e-19)
(2.48513 0.77921 0)
(1.72296 1.89263 8.21221e-20)
(2.96316 0.951533 -3.28255e-19)
(0.447714 -0.199562 -8.00998e-19)
(-0.663202 -0.497569 -1.2771e-19)
(1.97901 0.0478749 -6.75826e-21)
(0.388106 -0.434716 1.38683e-20)
(-1.2862 0.895473 -1.22972e-18)
(1.89744 -0.0364507 5.37891e-19)
(-0.678302 -0.133145 5.96747e-20)
(-1.40813 0.520177 0)
(2.48321 0.13529 -9.85888e-20)
(1.00422 -1.88769 3.82219e-19)
(0.291268 0.291223 8.42611e-20)
(3.51094 0.640774 9.05415e-19)
(2.80154 1.70969 0)
(1.77279 -0.488832 -4.21614e-19)
(1.54556 -0.628321 -4.98342e-21)
(2.31462 0.850185 -9.46875e-20)
(2.68815 -0.0862279 -4.19641e-19)
(-0.429523 -1.26839 1.24464e-19)
(-1.97927 0.900635 1.88685e-18)
(1.40624 -0.567593 -1.09075e-19)
(-0.923642 -0.470395 4.13451e-20)
(2.72515 -0.161341 -3.98962e-19)
(-0.737496 -0.921005 -1.39573e-19)
(2.03661 -0.7869 0)
(1.88134 -0.130695 -4.91737e-19)
(-0.996799 -0.535508 0)
(0.283058 -0.646474 6.23455e-21)
(-0.652723 -0.877383 2.40213e-19)
(-0.241271 -0.376738 9.23956e-19)
(1.73511 0.469175 2.258e-21)
(-2.26075 1.11826 1.32144e-19)
(-0.695877 -0.405811 0)
(2.12773 -0.788793 4.61589e-19)
(2.09053 -0.825997 1.24136e-19)
(-0.923135 -0.445992 -7.89914e-19)
(1.79007 0.523341 0)
(1.69347 0.542484 0)
(0.118707 0.420726 0)
(1.14713 -0.882946 -5.47631e-20)
(1.871 -0.0259078 -4.79099e-19)
(1.30389 0.193828 0)
(2.24049 -2.10054 0)
(2.29953 0.226624 -1.07705e-20)
(2.71177 -1.81364 -1.1252e-19)
(2.12341 0.395301 -3.53906e-19)
(1.56417 -0.360204 2.96645e-20)
(1.71282 0.0292467 4.82523e-20)
(1.90853 -0.00798979 -4.67912e-20)
(1.58589 0.36286 3.33118e-20)
(1.92115 0.540236 -2.81919e-20)
(1.86486 1.30809 0)
(-1.361 1.01285 -2.4821e-20)
(0.175523 0.0217395 0)
(1.00319 0.180852 0)
(2.94424 0.319064 -5.2039e-19)
(-1.98455 0.276605 0)
(2.53569 0.443499 0)
(1.90023 -0.0999358 7.56874e-19)
(1.8066 -0.799377 0)
(2.07929 0.295626 4.34976e-19)
(3.3905 0.708574 4.6048e-19)
(3.26832 0.704745 1.61774e-19)
(1.85527 0.318135 -3.88752e-22)
(1.06433 1.4443 2.67212e-19)
(2.13737 -0.824134 5.74776e-21)
(1.8869 -0.754544 -1.16343e-20)
(1.1147 -0.422227 4.68247e-19)
(0.0325163 -0.404541 0)
(0.910664 -0.45147 0)
(-2.41797 1.04763 -1.74364e-18)
(-1.9958 1.48649 -2.75141e-18)
(0.694814 -1.00732 0)
(-0.127774 -0.357536 1.75349e-20)
(-0.677478 0.642977 0)
(0.574253 -0.137105 1.14708e-18)
(1.08046 -0.503063 -6.07717e-19)
(3.38379 0.542185 -2.08785e-20)
(3.26592 0.798089 3.64747e-19)
(1.16606 -0.385317 9.47689e-20)
(2.63047 -0.0860485 1.91544e-19)
(2.29766 1.04193 0)
(2.41311 0.971361 0)
(1.06133 0.0566903 0)
(-0.14526 -0.314232 -5.73537e-19)
(1.3522 -0.512383 0)
(2.28252 0.769218 0)
(1.79477 0.0401506 0)
(2.39693 -0.405269 -7.99494e-20)
(0.425335 -0.0961435 3.50749e-19)
(1.97563 -0.759993 -2.36854e-19)
(1.11694 -0.896393 1.50406e-19)
(1.54338 -0.312521 0)
(-1.98772 0.28839 0)
(1.93785 -0.557179 -4.02866e-19)
(1.57282 0.612116 7.0648e-19)
(-2.48244 1.29157 -1.04289e-18)
(2.62925 0.483379 7.9132e-21)
(1.68456 -0.435182 4.42346e-19)
(0.949691 0.488638 -1.12903e-18)
(-2.01251 1.66608 0)
(1.17797 1.40949 -6.17792e-19)
(0.296448 0.461687 -6.9395e-19)
(3.2459 0.600758 0)
(2.2274 -0.0512749 0)
(1.84426 -0.0601513 0)
(2.03949 0.0507371 -4.7148e-19)
(1.39318 0.336825 -4.84475e-19)
(1.68382 0.1833 0)
(2.69842 1.40163 1.47711e-18)
(1.73704 -0.773325 4.1887e-19)
(2.4298 -0.370219 8.9154e-20)
(-2.04246 0.749443 5.62958e-19)
(2.05843 -0.260107 0)
(2.54026 0.0951401 6.41238e-20)
(1.72251 -0.382714 0)
(0.840075 -1.92937 -3.7978e-19)
(1.67683 -0.756075 0)
(2.08049 -0.755455 5.36158e-19)
(1.42078 -0.296804 -3.31741e-22)
(2.07357 0.266845 -6.53131e-21)
(2.45418 -0.39466 0)
(1.76203 -0.746133 0)
(1.53891 -0.65362 -5.63866e-19)
(2.33075 0.37526 -1.25089e-20)
(-1.13265 -0.863273 3.74372e-19)
(0.834494 -0.400069 4.75256e-19)
(1.92657 -0.0805581 0)
(1.53299 0.273418 -7.40048e-19)
(2.35409 0.0129662 -4.87842e-20)
(1.22312 -1.00848 -6.63093e-20)
(2.07886 0.374569 -6.07228e-21)
(2.12419 0.456395 0)
(1.14303 -0.315496 6.65594e-19)
(0.939973 0.235603 -7.21015e-19)
(3.65622 0.811111 1.01628e-20)
(1.80299 0.23938 -8.41046e-19)
(-1.88559 0.647991 4.50178e-19)
(-0.252391 -0.380537 -1.92978e-18)
(1.49308 -0.283386 -1.0284e-19)
(2.03635 -0.00636786 -4.43035e-20)
(0.839103 0.449239 1.24158e-18)
(-0.375322 0.244705 2.58077e-21)
(-1.96041 0.504277 8.55813e-19)
(-1.43567 -0.664335 8.71026e-19)
(1.75795 -0.0343109 5.64682e-20)
(2.37214 -0.222466 0)
(1.4707 0.574691 1.27919e-18)
(1.11267 -0.540917 2.79985e-19)
(1.62438 -0.222212 2.61991e-19)
(-0.367573 0.22582 0)
(1.57236 -0.354572 -7.0291e-20)
(1.93376 0.0631544 2.08548e-22)
(2.07652 0.0408399 0)
(-1.06239 1.23867 7.99736e-19)
(0.0125863 -2.00571 2.2176e-19)
(1.43494 -0.373699 0)
(0.993559 -0.353384 0)
(1.47742 -0.922598 -7.85129e-20)
(1.3153 -1.25463 -3.15581e-20)
(2.90175 0.300277 1.86873e-19)
(-0.181686 -0.2074 0)
(1.93926 -0.0289559 -4.30756e-19)
(2.39597 -0.861774 -1.39421e-19)
(2.14655 -0.73307 3.21259e-20)
(1.16474 -0.445556 5.89369e-19)
(-2.04505 0.43695 -8.4724e-19)
(-1.60831 -0.165137 6.60912e-19)
(3.78962 0.765932 -8.80282e-21)
(3.04942 -1.91929 0)
(2.16339 0.978537 -1.17224e-18)
(1.53271 -0.60513 2.81381e-19)
(2.04436 2.11919 1.77637e-19)
(0.77823 0.651233 0)
(1.12288 -0.191152 -5.85905e-19)
(1.17119 -0.495906 -7.1571e-19)
(-2.33367 0.887654 1.17684e-18)
(0.547206 -0.162022 -1.12479e-18)
(2.2401 1.50536 0)
(-0.359286 0.234637 -6.95589e-19)
(2.31126 0.568567 0)
(-0.386466 0.154618 -8.23588e-19)
(-0.191175 0.271897 1.47312e-18)
(-0.882264 2.14017 0)
(-2.12675 0.413519 4.10106e-19)
(1.57656 -0.108033 -1.07843e-19)
(0.523183 -0.270349 4.48831e-19)
(1.63133 -0.634508 5.15263e-19)
(-2.49454 1.22874 -2.98948e-18)
(1.14488 -0.525662 0)
(1.98628 0.0554432 1.49824e-19)
(0.347075 -0.251918 0)
(2.268 0.227995 -3.41027e-21)
(-0.671428 -0.233267 -1.2688e-18)
(0.497674 -0.170158 3.0749e-19)
(2.15135 0.488436 0)
(1.85044 -0.732973 -4.01076e-19)
(3.08008 -0.0922686 1.6937e-19)
(-1.86621 0.140556 1.74722e-18)
(0.370638 -2.35115 0)
(-1.80843 0.0107378 -1.55584e-18)
(3.48444 0.689936 -1.02584e-18)
(1.57335 0.250315 9.48026e-19)
(2.08472 -0.668377 0)
(2.43251 -0.216456 3.81011e-19)
(-1.2087 -0.444736 1.06817e-18)
(0.301615 0.0743176 -1.66591e-19)
(2.155 -0.572774 1.64378e-19)
(-1.70065 0.407058 0)
(1.81382 -0.432654 -4.95299e-20)
(1.9279 0.208098 1.91039e-22)
(2.51341 -0.381822 1.44202e-19)
(2.32238 0.00719833 0)
(-1.89555 0.570721 1.0228e-18)
(1.62025 -0.430905 -4.99469e-22)
(1.23013 -0.356815 7.31926e-20)
(1.65716 0.503001 0)
(2.00254 -0.778378 -1.88875e-19)
(-2.36776 0.945864 2.14733e-18)
(1.69442 -0.38648 -5.52891e-19)
(-0.188809 0.26464 0)
(1.47489 -0.223008 -4.8656e-20)
(2.0296 -0.758189 1.53117e-19)
(-2.05056 0.579316 -9.31202e-19)
(1.41537 -0.452451 0)
(0.423343 -0.251187 1.5982e-18)
(1.53263 -1.0267 0)
(-2.08813 1.19643 1.76981e-18)
(1.64074 -1.60209 0)
(1.89927 -0.114716 -2.79287e-19)
(2.15052 -0.234267 -2.89791e-19)
(2.81895 1.35054 -7.38818e-19)
(1.41208 -0.723533 0)
(1.94648 -0.835911 -2.95406e-19)
(2.00443 0.0302394 0)
(2.39326 0.418068 0)
(2.02306 -0.836775 1.00623e-19)
(-1.97535 0.629957 1.0226e-18)
(0.484608 0.0116372 1.92552e-19)
(2.09052 -0.554131 -9.68525e-20)
(1.64583 0.335211 3.10694e-19)
(0.37889 -0.504613 3.04782e-20)
(2.06571 0.328986 1.64406e-19)
(-1.91785 1.79829 -1.9834e-19)
(2.42519 -0.731534 0)
(2.48492 0.231799 0)
(-2.2299 1.63863 0)
(-0.121595 -1.26423 4.06372e-19)
(1.13309 -0.380449 -4.13448e-19)
(1.43736 0.172559 0)
(-1.21189 0.209893 6.11437e-19)
(2.30414 -0.151443 -2.05203e-19)
(-1.59743 0.381183 -3.56331e-19)
(1.3372 -0.479475 -1.35399e-19)
(2.1118 -0.844459 0)
(0.455121 -0.196059 1.37339e-18)
(-0.72695 0.914485 -1.74204e-18)
(-0.825452 2.43364 0)
(-0.540588 0.0970808 -9.01988e-19)
(1.79594 0.0377027 -7.86474e-21)
(2.7106 -0.143088 9.60115e-20)
(1.9256 0.0380784 2.82849e-19)
(2.77987 1.08433 -3.449e-19)
(2.40255 0.190681 7.57933e-21)
(-1.05742 -0.295921 0)
(1.90702 -0.746045 0)
(-1.03116 0.314946 4.81421e-19)
(0.359818 0.0339534 0)
(1.5576 -0.310645 -7.10538e-20)
(2.11882 -0.76277 -2.91261e-19)
(0.955949 -0.448942 4.98173e-19)
(2.29947 -0.159752 -1.41456e-19)
(1.72486 0.389508 -3.07502e-19)
(1.49093 -0.593963 -2.76057e-19)
(1.58138 -0.620894 -5.15393e-19)
(1.1903 -1.10646 0)
(1.68514 -0.643345 4.93951e-19)
(1.94541 -0.10508 0)
(2.49659 -0.415602 -5.72784e-21)
(1.99007 1.38244 1.51997e-20)
(1.09149 -0.21183 5.81201e-20)
(2.22115 -0.390734 -2.57329e-19)
(0.67 -0.151975 -9.49364e-19)
(-1.39626 1.20534 0)
(1.1562 -2.42238 -2.08091e-19)
(-0.229952 -0.557347 -2.04494e-18)
(2.05444 0.544448 -1.82088e-19)
(1.79595 -0.712409 4.65504e-19)
(2.1233 0.0395341 -4.84599e-21)
(0.538526 -0.180759 3.83389e-19)
(1.74835 -0.737884 -1.28507e-19)
(0.240508 0.184829 0)
(-1.5351 0.255908 9.94344e-19)
(1.72418 -0.319639 2.92464e-19)
(2.01193 0.0297404 -1.99933e-22)
(1.14379 -0.499566 1.05006e-18)
(-0.538498 -0.364566 -4.38307e-21)
(1.73693 0.652075 0)
(-0.128271 -1.12517 -1.37711e-19)
(-1.82605 0.32049 -1.33887e-19)
(1.05077 -0.297219 -7.89167e-19)
(0.18227 -1.20678 1.32921e-19)
(2.61464 1.00311 -3.33567e-19)
(2.06065 0.454719 5.2908e-21)
(0.913868 -0.355728 3.57382e-19)
(1.75886 -0.317298 0)
(2.54852 0.160866 -1.69087e-19)
(2.42439 -0.0465538 -6.06369e-21)
(3.09438 0.874156 -3.66974e-19)
(-1.0348 -0.00289992 0)
(3.59646 1.03961 3.07274e-20)
(-0.106899 0.335432 7.89034e-19)
(1.57199 -0.674908 1.09517e-18)
(-0.524413 -0.519885 1.17935e-20)
(0.540802 1.04085 -5.3307e-19)
(0.340118 -0.105266 2.66328e-18)
(1.96203 -0.739883 4.77923e-19)
(2.1286 0.00199283 -4.78332e-21)
(0.314766 -0.428176 -5.83429e-21)
(2.78841 -0.00536 4.69066e-20)
(0.121139 0.208386 0)
(2.00829 0.0331543 0)
(2.39003 0.531071 0)
(1.73567 -0.656298 -4.32212e-19)
(1.81044 -1.73783 3.08966e-19)
(-0.912506 -0.372781 0)
(1.19067 -0.350067 -1.71144e-19)
(-0.895983 2.12633 0)
(3.91864 0.190707 0)
(-1.14864 -0.408588 0)
(1.99514 0.04881 0)
(0.452885 -0.237251 -4.95938e-19)
(-1.7267 1.87708 0)
(4.03663 -0.625797 1.46619e-18)
(1.40791 -0.0149062 0)
(1.87697 0.203205 0)
(1.90704 0.217792 2.45193e-21)
(-1.86548 1.52303 0)
(3.07028 -1.9251 0)
(-0.55999 -0.363094 0)
(2.55837 0.0564398 1.96478e-20)
(2.0538 -0.681365 0)
(2.1098 -0.824301 -1.34639e-20)
(1.58249 -0.352014 2.70659e-21)
(0.235011 -0.0548894 -4.72549e-19)
(1.98773 0.0723664 6.85513e-19)
(-0.157562 -0.0388284 1.13183e-20)
(1.05232 0.954293 -5.99046e-19)
(1.4719 0.769314 0)
(2.36968 -0.365581 9.48131e-21)
(1.62578 -0.183702 -2.55797e-19)
(1.55479 1.77505 1.46377e-19)
(1.84368 0.396035 4.33312e-19)
(0.725555 -0.228646 -7.48449e-19)
(1.47064 -0.6444 -4.26826e-19)
(3.25802 -0.717353 2.41946e-19)
(0.795071 -2.5719 0)
(2.26259 -0.493557 3.34435e-20)
(1.35604 -2.62569 2.45136e-19)
(2.69553 0.304548 -8.72656e-20)
(-2.50804 1.32892 0)
(1.83605 0.0888202 -3.15732e-19)
(2.97863 0.881314 -1.15299e-18)
(1.31145 -0.527674 5.45724e-19)
(1.19907 -0.546687 -6.57498e-19)
(1.61666 -0.742279 0)
(1.72531 -0.751802 0)
(3.67065 -1.29776 1.44768e-18)
(2.27548 -0.389598 -1.65861e-19)
(3.35157 0.410685 -6.06957e-19)
(1.7437 0.00200597 3.46226e-20)
(1.17554 -0.317562 -1.58808e-19)
(1.66842 -0.494494 4.69133e-19)
(2.47936 0.300744 0)
(2.38785 0.285244 2.09142e-20)
(-0.224911 0.635031 -2.091e-18)
(2.61143 -2.51726 1.58276e-18)
(1.00001 -0.20387 1.61491e-20)
(-0.757772 -0.295597 7.50615e-19)
(3.23863 0.467192 5.06854e-19)
(2.57335 0.723328 7.08522e-20)
(2.40966 0.653607 0)
(-0.803838 -1.31655 0)
(2.17483 -0.829732 -4.1037e-21)
(1.13016 -0.21916 0)
(1.83054 -0.343601 1.96526e-19)
(1.60559 0.288927 5.36068e-19)
(1.67029 0.5036 -1.57248e-19)
(1.55172 -0.627694 1.11652e-18)
(1.92651 0.249261 -1.06028e-22)
(1.52417 0.0130192 0)
(1.78432 -0.0416012 -7.99899e-21)
(-0.957269 -0.526684 -8.93556e-19)
(2.14439 0.282701 0)
(2.58725 -0.413369 0)
(1.87938 -0.752895 1.73941e-19)
(1.9531 0.557686 2.36773e-19)
(1.0663 -0.121157 0)
(3.15873 -1.04448 4.76921e-20)
(2.66699 -0.011896 1.95829e-19)
(2.3443 0.299044 2.75808e-20)
(1.75553 0.507061 4.63785e-19)
(-0.664607 -0.613027 -2.21211e-19)
(1.37003 -0.580623 0)
(0.60104 -0.195913 -2.37085e-18)
(0.478183 -0.196228 1.11642e-18)
(1.97848 0.0460237 1.76129e-20)
(0.300514 -0.0374633 -9.76036e-19)
(1.76637 -0.722931 3.28195e-20)
(2.64049 0.383407 2.31945e-19)
(2.31079 -0.984492 0)
(1.96713 0.147756 2.23687e-21)
(1.81575 0.0486611 9.82758e-20)
(2.12768 -0.0217317 -1.76627e-19)
(2.16063 0.457506 -1.36276e-19)
(2.165 -0.791564 0)
(-0.578467 -0.409448 0)
(2.52305 0.00325755 0)
(2.31498 0.39462 -6.628e-20)
(1.02596 -0.48027 7.81889e-19)
(2.40156 1.82971 -9.38634e-20)
(1.42658 -0.0733315 0)
(-2.3587 1.55875 -5.149e-19)
(-0.456344 -1.28059 2.83978e-19)
(-1.85584 1.83304 0)
(1.90308 0.304212 -1.41953e-19)
(1.62829 0.273606 -1.78702e-19)
(3.07967 -0.228901 -1.06545e-19)
(2.04919 0.330801 -3.61931e-21)
(0.62113 -0.188402 0)
(2.18813 0.212993 -1.68402e-19)
(1.99912 -0.408544 0)
(2.05462 -0.251409 9.33096e-21)
(0.976048 0.104548 0)
(2.22019 0.925217 9.26599e-20)
(1.65444 -0.655106 -5.04657e-19)
(2.44384 0.882836 0)
(1.82608 -0.0855056 -4.85521e-19)
(2.08975 0.411121 2.37699e-21)
(1.84065 -0.508152 0)
(1.10084 -0.523698 0)
(0.451254 0.253533 -9.35341e-20)
(2.48076 -0.209769 -1.44493e-20)
(0.775321 -2.28394 -2.19734e-19)
(0.365483 -0.313959 -4.98583e-20)
(2.66532 -0.08565 2.64615e-21)
(1.44602 0.0441034 7.57225e-19)
(1.76325 0.42786 -1.99542e-21)
(2.01742 0.556618 0)
(3.41993 0.896843 5.03234e-19)
(1.6667 -0.756072 0)
(1.45487 -0.663503 -4.67964e-19)