/*--------------------------------*- C++ -*----------------------------------*\
| =========                 |                                                 |
| \\      /  F ield         | OpenFOAM: The Open Source CFD Toolbox           |
|  \\    /   O peration     | Version:  2306                                  |
|   \\  /    A nd           | Website:  www.openfoam.com                      |
|    \\/     M anipulation  |                                                 |
\*---------------------------------------------------------------------------*/
FoamFile
{
    version     2.0;
    format      ascii;
    arch        "LSB;label=32;scalar=64";
    class       surfaceScalarField;
    location    "4";
    object      phi;
}
// * * * * * * * * * * * * * * * * * * * * * * * * * * * * * * * * * * * * * //

dimensions      [0 3 -1 0 0 0 0];

oriented        oriented;

internalField   nonuniform List<scalar> 
7520
(
-1.01014
0.782439
0.227705
-1.32851
-0.229996
1.5585
0.0117764
-1.78349
1.77171
0.23769
-0.0328339
-0.204856
-0.0198333
1.43068
-1.41085
-0.0903589
0.0971473
-0.0067884
-0.267457
2.06606
-1.7986
-0.222617
-1.6247
1.84731
-1.39508
1.40686
0.863397
-0.0794883
-0.783909
-0.123198
-0.160105
0.283303
-0.250919
-1.71982
1.97073
0.712306
-0.106782
-0.605524
-0.100586
0.139161
-0.0385748
-1.80889
0.924858
0.884032
0.168415
1.56977
-1.73819
-0.124785
-0.0287326
0.153517
-0.162128
0.221158
-0.0590298
0.0400349
0.0362695
-0.0763045
0.0443918
-0.169177
-0.392981
-0.278358
0.671339
-1.06023
1.22865
-0.0312222
-0.317664
0.348886
0.143496
-0.143495
-4.30737e-07
-0.0224079
-0.0355423
0.0579503
0.257186
-0.250156
-0.00702965
0.861497
1.15203
-2.01353
-0.0342962
0.320103
-0.285807
-0.048129
0.0881639
0.200055
-0.0318079
-0.168247
-1.15991
1.75498
-0.595071
-0.0487672
-0.0184633
0.0672306
-1.76086
1.94867
-0.187813
-0.300364
0.369994
-0.0696301
-0.249738
-1.23801
1.48775
-0.563147
1.00542
-0.44227
0.278518
-0.555403
0.276885
0.837621
-1.57239
0.734774
0.0903561
-0.320435
0.230079
-0.0451184
-0.102331
0.14745
-0.0281184
0.265808
0.441912
0.383059
-0.824971
0.292287
-0.0351013
2.29583
-1.67688
-0.618951
-0.559634
-0.611996
1.17163
-1.48416
1.62206
-0.137904
0.0138391
0.0921308
-0.10597
0.267521
-0.0782762
-0.189244
-1.35737
0.197468
0.278659
-0.0773179
-0.201341
1.8345
0.118726
-1.95322
-0.727012
0.269227
0.457785
0.18544
-0.200614
0.0151743
1.02819
0.501779
-1.52996
0.014585
-0.104944
-0.778005
0.129586
0.648419
0.371773
-1.27845
0.906676
-0.043038
-0.124865
0.167903
-0.119527
0.07076
-2.21786
1.08774
1.13012
1.15921
-0.71629
-0.442918
-0.0147902
-0.0268496
0.0416399
-1.23006
0.980319
0.836703
-0.124397
-0.0607927
0.246233
0.00404211
-0.104629
1.10373
-2.20417
1.10044
0.18553
1.64897
-1.26234
1.00371
0.258629
0.320707
-0.241535
-0.079172
-0.526006
0.897779
0.218893
-0.922865
0.703971
0.344275
-0.0954441
-0.248831
0.468761
-0.495796
0.0270358
0.678987
-1.46586
0.78687
0.129227
-0.11289
-0.016337
2.22691
-0.945598
-1.28132
0.412463
-0.769456
0.356994
1.73094
-1.22303
-0.507904
-0.831495
0.0534898
-1.4914
-0.726456
1.03583
0.303737
-1.33956
0.235852
-0.622939
0.387087
-0.0128048
-0.28756
0.0825597
-0.244688
0.217188
-0.017133
0.0175464
-0.0466055
0.0290591
1.1751
1.05181
-1.75655
1.96215
-0.205603
0.957825
0.201383
-0.956949
1.11837
-0.161421
0.0888848
0.0446266
-0.133511
1.36067
-1.61159
0.245825
0.197714
-0.107358
0.457155
0.290045
-0.747199
0.0076499
0.0847675
-0.0924174
-0.53949
0.388153
0.151337
1.37042
-0.691432
-0.732443
0.635224
0.0972196
0.809806
-0.931002
0.121196
-0.0885912
0.111776
-0.0231845
0.000543116
0.00451982
-0.00506294
2.28052
-1.35215
-0.928371
0.542049
-0.455477
-0.554667
-1.35471
0.828705
-1.82143
1.55397
0.169811
-0.0797994
-0.0900116
-0.218142
0.0949443
-0.160677
0.15944
0.00123621
-0.20849
0.289088
-0.0805987
1.90233
-1.06471
0.414836
-0.172894
-0.241942
-0.758434
0.365453
-0.0465948
-0.0239348
0.0705297
-0.193041
1.22887
-0.784646
0.459254
0.325392
1.25616
-2.03261
0.776443
0.0413636
0.102132
-0.197219
-0.529793
-0.366554
0.0771232
0.289431
1.08414
-0.22074
-0.527628
0.478236
0.049392
-0.0919709
0.319738
-0.227767
0.0698807
-0.0666774
-0.00320328
0.727592
-1.82933
1.10173
0.389772
-0.420995
-0.353641
-0.0541152
0.407756
0.262003
0.152833
0.184763
-0.162463
-0.0223001
0.146644
0.0324417
-0.179086
-0.0648119
0.211456
-0.618797
-0.165849
0.106455
-0.67728
0.570825
-0.708628
1.63486
-0.926235
0.386458
-0.410417
0.0239583
-1.16491
-0.189798
-0.0339078
-0.0505487
0.0844565
1.38865
-0.360461
-0.641047
0.417428
0.223619
-0.00131107
0.119363
-0.118052
0.293284
-0.0760216
-0.217263
0.23253
-2.01602
0.337367
-1.82153
-2.14366
0.848586
1.29508
-0.858247
-0.404096
-1.23784
0.990108
0.247736
1.90812
0.217992
-2.12611
0.183063
-0.228181
-0.0828241
1.02194
-0.939118
-0.284103
-0.426192
0.710295
0.00875733
-1.2466
-1.77713
0.0162675
0.00538575
0.0121607
0.0645272
-0.123587
0.0590598
0.288888
-0.331926
0.823583
-0.0137774
-0.156878
0.128759
-0.0243339
-0.00288925
0.0272232
0.761305
-0.428426
-0.332879
-0.492903
-1.31599
0.0435384
-0.327641
0.0470233
-0.589821
0.542798
0.0356029
-0.115726
0.0801227
-1.58796
0.936087
0.651874
0.566761
-0.586594
-0.0520677
0.448295
-0.396227
-0.0686663
0.0462584
0.520469
-0.240989
-0.279479
1.03753
-0.580373
0.240473
-0.317791
0.955342
0.211064
-1.16641
0.304033
-0.33833
-0.289729
-1.51068
1.80041
1.27282
0.671626
0.687897
-0.452045
-1.28006
0.716914
-0.69281
0.918062
-0.225253
0.00321113
-0.0330293
0.0298182
0.27698
-0.326366
0.049386
-1.35184
1.1588
-0.275014
-0.150227
0.425241
-0.0174218
0.0530247
-0.84948
0.896503
0.514917
-1.05469
0.539771
-0.519366
-0.0201237
0.68278
-0.404262
0.140073
-0.0108457
-0.239617
0.00725651
0.23236
0.0576371
-0.266127
-0.342697
-0.125495
0.468192
0.133818
0.210457
-0.730874
-0.734982
-0.77211
-0.81585
0.0769926
-0.187338
0.110346
1.567
-0.737796
-0.829203
-1.07561
0.36698
-1.15864
2.12237
-0.963724
0.361898
0.158571
-0.123986
-0.00887007
0.132856
-0.780332
0.583112
0.590732
-1.15037
1.7353
-0.057187
-1.67811
-1.49308
1.97163
-0.478554
-0.0244952
0.0890224
0.440519
1.38561
-1.82613
0.0340497
-0.169142
0.135093
-0.100111
1.75972
-1.65961
0.00163888
0.110041
-0.11168
-0.87805
1.22442
-0.346367
-0.117815
-0.662517
0.0842392
-0.426936
0.293559
-0.221355
-1.60554
1.8269
-0.0338189
0.0700884
-1.59694
0.866067
0.271375
-0.102987
-0.168389
-0.215208
0.123237
0.0949374
1.60497
-1.6999
-0.57695
-0.550465
1.12741
-0.516243
0.410513
0.105729
2.398
-1.57552
-0.822482
0.450433
-1.02738
-0.268563
0.307842
-0.0392796
0.10548
0.725777
-0.831257
0.0492163
-0.0523774
0.00316104
0.810707
0.822729
-1.63344
-0.227717
-0.504726
-0.0594655
0.168487
-0.109022
-0.908583
0.689566
0.219018
-0.0767182
0.040665
0.0360532
1.22321
0.34379
1.07683
-2.03221
0.955387
-2.77725
1.2723
1.50495
-1.20548
-1.57177
-0.380322
0.479348
-0.0990263
0.101616
-0.269593
0.167977
0.545922
-1.4477
0.901779
0.0355518
1.07416
-1.10972
-0.804691
1.10843
1.13051
-0.175172
1.04808
1.11227
-2.16035
-0.183581
0.0872399
0.096341
0.0443449
-0.952928
1.85646
-0.479239
-1.37722
0.136755
-0.102705
0.053233
-0.197474
0.168742
1.04609
0.810372
0.213857
0.688856
-0.902713
0.36369
-0.0435864
0.0169644
0.0347463
-0.0517107
-0.00518138
-0.168877
0.174058
-1.842
0.88113
0.960869
-0.154077
0.255693
0.866888
-0.760433
0.512134
-0.0236731
-0.488461
0.136264
0.131257
-1.92009
1.85299
0.0671018
1.18324
-0.668324
-0.00278029
0.238147
-0.235367
-0.0322683
-0.0458864
0.0781547
0.119529
-0.214973
1.67931
-0.575582
0.0413086
-0.0946011
0.0532924
0.00388946
-0.0282234
-0.367168
0.207063
0.979703
-0.689658
-0.67136
0.706912
-0.308817
0.0691999
2.06606
0.0179535
-0.0185324
0.000578896
0.0525393
0.927163
-0.205316
0.13286
0.0724558
0.0217605
-0.0212174
-0.308138
0.75005
1.02048
-1.10331
0.419657
-0.371953
-0.0477037
0.31323
-1.19128
0.153999
0.0307643
-1.72019
1.49883
-0.28461
0.0160475
-1.9428
0.22404
-0.225351
-0.0694575
-0.0649636
0.134421
-0.616725
-1.22527
1.32982
0.950701
1.74561
-0.80952
-1.71982
0.12106
-0.648687
0.0270465
0.307579
-0.334625
0.174453
-0.249752
0.0752993
-1.2243
0.612308
-0.19492
-0.266626
0.461546
0.374086
-0.453574
-0.126722
-1.89353
2.02025
0.982868
0.17665
-1.4706
1.29395
0.910771
1.0379
-0.81384
1.48437
-1.04385
-0.0519942
0.394741
-0.342747
-0.893832
0.760692
0.13314
0.0569933
-0.0156846
-0.0828295
0.329699
-0.246869
-0.273586
-0.242284
0.51587
-0.522567
1.79539
-0.272475
-0.378134
0.650609
0.160131
-0.146292
0.263071
-1.22002
-0.0050881
0.0220525
0.00855608
-1.86968
1.03161
0.838077
0.361958
-0.46874
0.00859688
-0.0324781
0.418936
1.01413
1.38388
1.65259
-0.536992
-1.1156
0.121529
-0.0443289
-0.0771997
0.759457
0.971479
0.214192
-0.187145
0.714383
-1.94602
1.23163
0.0874035
-0.064552
-0.0228515
0.498686
0.871733
-0.220893
-0.0995423
0.767683
-0.553825
-0.557354
1.41885
0.159032
0.0107789
1.89555
-0.639389
0.145857
-0.138207
1.7538
-0.101214
0.102847
0.40372
0.0159373
0.0176508
0.303057
-1.70271
-0.848152
0.984916
-0.136764
0.00587403
-0.118764
1.77076
0.0245974
-1.79536
-0.713254
0.440779
0.22491
0.0683742
-0.311415
0.0698793
0.00894363
-1.23198
1.56058
-1.59095
0.0303739
0.025142
-0.319933
0.294791
-0.889328
1.38801
-0.792567
1.52016
0.0611741
-0.0360321
0.781529
-0.322275
1.95764
-0.596975
0.00505038
0.120598
-0.125648
-0.0871254
-0.0775437
0.164669
0.118774
0.00275448
0.0300128
-0.781943
-0.159122
0.06808
0.0910424
0.511066
1.1238
-1.70139
1.41166
0.107167
-0.460808
-0.76867
0.987563
-1.15797
1.33775
-0.179773
0.533588
-1.84893
1.74882
2.09777
-0.922666
1.25362
1.04221
-0.0690521
0.293152
1.26742
-1.32176
0.273493
1.04827
0.252244
-0.284052
0.05089
-0.204967
-0.216544
0.151732
-0.0762424
-1.60064
0.557592
-1.21754
0.659953
-1.34157
0.47198
0.869589
-0.151996
-0.770869
0.0577613
-0.0725515
0.0868838
-0.016871
0.215815
-0.198944
-0.539068
0.487001
1.09287
1.0049
-1.49308
0.0337667
0.0361139
1.64502
-1.44597
-0.199047
-0.417169
1.80278
-1.49561
2.46197
-0.966365
-0.782064
1.03127
-0.249203
0.137249
-1.36731
-0.250102
-0.0194907
-0.269244
0.428795
-0.159551
-0.011848
0.0163678
1.32868
0.700307
-1.28522
0.584918
-0.00160718
-1.56765
1.56926
-0.0531342
-0.107542
0.0112479
-0.477312
0.466064
-0.883443
1.66063
-0.777191
0.200617
-0.13913
-0.0614864
-0.557362
0.836867
-0.279506
-1.98785
1.75785
1.98518
-0.45581
-1.52937
-0.0603228
-0.00845207
0.0687749
-4.37848e-05
0.174497
0.102332
-0.621698
-0.842246
1.65295
-0.0572269
0.0106321
1.7353
-0.963525
1.069
-0.00721461
0.00721461
-0.142366
0.23481
-1.99136
2.24902
-0.925852
-1.32317
-0.70208
0.876235
-0.174155
0.0486344
-0.294412
0.245778
1.01157
-1.15566
0.144084
-0.550867
-0.258881
0.809748
0.889284
-2.00592
1.11663
-0.0676951
-0.826137
-0.217684
0.130559
-0.230662
-0.560014
0.790676
0.765168
0.427455
-1.19262
-1.32755
-0.433422
0.690346
-0.256924
-0.992041
1.07929
-0.0872441
1.46924
-1.3743
-0.143992
-0.0151302
-0.126323
-0.00227968
0.47104
-1.15336
0.943296
0.210067
-1.4223
2.08624
-0.663939
-0.0168377
0.13185
-0.115012
-1.43545
-0.768717
-0.0489426
0.000813624
-1.62491
0.466266
-0.371102
0.288272
-0.263345
-0.51872
0.0776716
0.00973191
-0.659443
1.70753
0.0437229
-0.361387
-1.52111
0.125507
1.3956
0.911472
-1.14066
0.229188
-0.869985
0.177176
0.214788
-0.573173
0.358386
1.58879
-0.140476
-1.44831
-0.00292451
-0.0759486
0.0788731
-0.369074
0.788161
0.484763
-1.27292
-0.437232
1.36209
0.255269
0.661123
0.727524
-0.0373434
1.57513
0.178675
-1.40677
1.40517
-0.150593
-0.0218161
0.172409
-0.171597
-0.0716866
0.243283
-2.03645
0.54084
-0.160932
0.543992
-0.616559
-0.231594
0.254354
0.878118
-0.33066
-0.547458
0.193303
0.0989837
-1.11295
1.87213
-0.759182
0.161491
-0.239034
-0.0748757
0.351856
0.260665
-0.52991
-0.156987
-0.062735
0.219722
0.336401
-0.00403607
-0.332365
0.671911
-1.16451
0.492603
-0.000670466
0.0292947
-0.0286243
-0.292376
0.32475
-0.0323734
0.143246
-0.498868
0.355622
0.307417
-0.0551737
0.00800921
0.430082
-0.438091
1.2603
-1.05454
-0.958991
-0.356823
-0.410509
0.767332
0.104253
-0.0341648
-0.283669
-0.232574
1.1103
-0.232181
-0.0504872
-1.2292
1.27968
-0.349508
-0.0170469
-0.0485595
-0.570237
-0.424772
-0.132589
0.169824
-0.168185
-1.49854
-0.0351299
-0.0802775
0.115407
1.24921
-1.03815
1.05145
0.93373
0.456404
0.0557305
-0.183129
-1.62297
1.8061
0.65108
0.541052
-1.19213
-0.163256
-1.05251
0.662687
0.389827
1.31312
-0.401646
0.0487332
-0.0655143
0.0167811
2.18754
-1.20004
-0.987497
0.136
-0.306033
0.170033
0.66196
0.461952
-1.12391
0.0711779
0.101996
-0.173174
1.68253
0.0252271
-1.70776
0.1402
0.0809577
-0.254856
0.298579
0.0751828
-0.0199352
-0.0552475
0.287274
-0.204714
0.0518319
0.00112169
-0.0529536
-0.533004
-0.667898
1.2009
1.13801
0.450786
1.01098
-1.06147
0.478921
-1.36236
-1.84189
1.71517
0.162692
0.157045
0.261994
-0.60679
0.344796
0.758287
0.98732
1.12328
-1.33459
0.21131
1.22603
-0.564911
-0.134538
0.0902088
0.108058
-0.241557
0.133499
-1.46006
-0.325215
1.78528
-0.407164
0.438976
-0.0318125
-0.00392599
-0.00328863
0.335253
1.09543
-0.138485
-0.0450962
1.02942
-2.08003
1.05061
-0.868034
-0.265273
1.13331
1.63112
-0.554294
-0.128629
0.560139
-0.986331
-0.264967
0.00411825
0.260849
0.0195395
-0.187787
-0.495526
1.19583
0.012997
0.0362193
-0.0238117
0.157238
-0.133427
0.0296984
0.981873
0.0277486
-0.705029
-0.461782
-0.420045
0.497168
0.680839
-0.944183
-0.292556
0.119662
-0.0422742
0.211016
-1.93567
0.881134
0.0582421
0.111643
-0.169885
-0.264839
0.172461
0.0923781
0.216582
0.857583
-0.0315517
0.00470202
-0.0166722
-1.65206
1.66873
-0.0472852
-0.574153
0.621439
-0.0273126
0.0651219
-0.0378092
-0.670009
1.2276
-0.156456
-0.348118
0.504574
-0.282081
0.496869
-0.316073
1.51336
-1.19728
-0.689721
0.540721
0.148999
1.94071
-0.0325965
-0.211616
-0.0942052
0.305821
0.116177
-0.278641
-0.178978
-0.20894
1.06553
0.896621
0.333104
-1.34316
1.01006
-0.803306
-0.180664
0.983971
0.188937
0.108353
-0.29729
0.0661415
0.28765
-0.353791
-0.198482
0.138535
0.0599476
0.0547767
-0.0598648
-1.00318
-0.043804
0.00826162
-0.0028445
0.024897
-0.125454
0.39325
-0.267796
-0.230677
0.266043
-0.0353659
-0.13506
0.0706778
0.0643818
0.805037
-0.37182
-0.0563274
0.00972191
-0.252189
-0.585148
0.837337
1.19603
-0.979445
0.0109346
-0.349716
0.338781
-0.473306
-0.457697
-1.34688
1.53241
0.97142
0.0505217
-1.26889
0.81846
0.450427
0.224237
-0.0963084
-0.127929
1.73325
-1.73325
-1.61233
0.12092
-0.987163
-0.250412
-0.605568
0.85598
0.57153
-0.546507
-0.0250231
-0.156781
-0.388186
0.217946
0.17024
-0.014225
0.209171
-0.194946
-0.504858
1.23731
-0.732448
-0.00235895
-0.17355
0.175909
0.803196
-0.665947
-1.05543
0.252121
-0.0397494
-0.215242
0.254992
-0.0271452
-1.29461
-0.566464
-1.21932
0.652856
0.782607
-0.0060242
0.238081
-0.232057
-0.273582
0.33263
-0.0590477
-0.229192
0.169727
-0.0836832
-0.163949
0.0944911
0.0364562
-0.0580126
0.044498
0.0135146
-0.211171
-0.0303865
-0.353205
0.361214
0.142395
-0.161567
0.0191719
-0.0999682
-0.110539
0.210507
-0.301781
0.12844
0.173341
-0.0653637
0.171003
-0.105639
-0.679126
1.33908
0.614499
-1.11792
0.503423
-0.152781
-0.0806217
0.233403
-0.0915105
-2.17552
2.26703
0.90562
-0.601336
-0.304284
0.450143
-0.0586262
-0.191126
-0.0409118
0.016977
-0.0555105
0.19151
0.32055
-0.973544
0.652994
-0.474825
-1.44527
-0.199516
0.832353
-0.632837
0.248137
0.0138656
0.407061
-0.273103
-0.133958
0.315517
-0.567706
-0.383744
-0.209091
0.0773801
0.131711
-0.529183
0.334263
-0.162834
0.580261
-0.0852506
0.0529823
-1.50607
0.153918
-0.28741
0.548076
0.0152051
-0.232889
0.286582
-0.153083
0.306311
-0.312335
-0.0836401
-1.29937
0.620245
1.95763
-0.197908
-1.60554
2.22843
-1.0903
-1.13812
-0.0880168
0.47617
-0.0859191
-0.745576
0.523683
-0.466046
-0.24766
-0.017307
-0.593177
-0.40827
1.00145
-0.05146
-0.017102
0.0685619
0.0107494
-0.868996
-1.9102
-0.324392
-0.323342
0.647735
0.374144
-0.42143
-0.246593
-0.0375124
0.284106
0.470298
-0.0805252
0.165939
0.0582986
1.98174
-1.09245
-0.914006
0.320829
-0.253847
-0.0492674
0.303114
-0.0465515
-0.0589467
-1.09671
-0.130288
-0.181308
0.311596
-0.0847681
-0.0347591
0.906203
-1.17623
0.270024
-0.667124
-0.0653495
1.7986
0.156155
-0.741303
1.22867
-2.05434
0.825672
-1.98955
1.29827
0.691279
0.15243
0.105208
-0.257638
0.147266
1.20301
0.0437577
0.849122
-0.89288
-0.0448565
-0.0497445
0.0872043
-0.147527
-0.0225169
-0.28044
0.302957
1.20957
-1.3927
0.247499
-0.0319777
0.104981
-0.0730029
-1.4839
-0.128426
-0.592207
-1.03687
0.680044
0.108889
0.00361955
-0.112509
-0.625028
0.311565
0.313464
-0.396841
0.344847
-1.10209
-0.56456
1.66665
-0.0945985
0.279018
-0.230384
0.378531
-0.564626
0.186095
-0.921164
1.39314
-0.158076
-0.908051
0.205971
0.752798
0.114089
0.863998
-1.36886
-0.0397355
0.0550913
-0.0153558
1.17906
-0.352436
-1.05841
-0.344844
-0.0753095
0.420153
-0.0543567
0.206088
-0.116879
0.128465
-0.011586
-0.02174
-0.222948
-0.0547736
1.07526
-0.243599
0.308107
-0.0676338
-0.425761
0.393282
-0.177545
0.0563683
0.121177
0.251627
-0.108446
-0.143181
-0.146092
-0.0411466
0.187239
0.0421033
-0.106335
0.0642314
-0.35164
0.123874
-0.228477
-0.0914559
-0.0541
1.19026
-0.391463
0.104046
0.287416
-0.0350863
0.0867273
-0.051641
0.173076
-0.216042
0.0429654
-0.118084
0.257268
-0.69069
0.229826
0.363819
-0.074931
-0.0213909
-0.0472754
-0.132428
-0.0367142
1.80889
-0.986157
0.0425644
-0.356728
0.314164
-1.57937
0.232489
-0.0701237
0.0679304
0.00219327
-0.0412036
-0.0355146
-0.734506
-1.25504
0.360821
-0.056788
-0.844923
-1.10109
0.19529
-0.219102
-0.158638
0.537168
1.02209
-0.753044
-0.995172
1.32828
-1.72912
0.269053
-0.085155
0.0339021
0.0512529
0.0944592
-0.17771
-0.396578
0.574288
0.0948826
-0.0415902
-0.482249
-0.78963
1.27188
-0.862958
-1.03582
1.89878
0.611604
0.346412
-0.958016
0.00204564
0.0918312
-0.300922
-0.261384
-0.268526
-0.174081
-0.103191
0.277272
0.269524
0.440771
0.276986
0.130075
-0.0159093
-0.611803
-0.00756518
0.0255187
-0.763108
1.00233
-0.239226
-0.144008
-0.0834377
-1.23724
-0.184987
-0.00235114
-0.751896
-0.264499
0.242199
-0.805365
0.0449322
-0.149224
-0.887635
-0.344228
1.23186
-0.188105
0.711788
0.232413
0.643822
-0.294605
-1.00409
-0.931581
-1.24533
1.38942
0.0767407
0.208009
0.0176394
-0.0698415
0.0522022
-0.636552
0.58103
0.0555215
0.705696
-0.823511
0.293681
-0.235439
-1.15041
-0.118476
-0.170697
0.289024
-0.118328
1.08009
-0.408178
-1.45001
-0.100247
1.55026
-0.109643
-0.101528
0.0689337
0.288437
-0.357371
-0.236464
0.403777
0.138271
0.0585479
0.0215181
-0.080066
-1.30856
0.829318
0.0786539
0.0162288
-0.175426
-0.130606
-0.328756
-0.152708
-0.139848
0.276238
0.180333
0.0673214
-0.122569
0.392693
1.4603
-0.800668
2.05428
1.02829
0.583799
-0.84268
0.0225856
-1.4726
-0.00954524
-0.329081
0.384215
-0.0551345
-0.0533209
-0.0133565
-0.225494
0.0136726
-0.055963
0.126723
-0.0982663
1.50385
-1.40559
0.18639
-0.848907
-0.124488
-0.261556
-0.0703709
0.0114954
-0.284647
0.359678
-0.0750307
-0.00557727
-1.4313
1.43688
0.637186
0.255209
0.316321
-0.710569
-0.585199
0.959424
-0.374225
-0.144736
-0.115886
0.288347
-0.545795
0.655305
-0.10951
0.0524181
-0.467335
0.414917
-0.161308
-0.612658
0.773965
-0.280431
-0.0578981
-2.04503
-0.103503
0.183352
-0.178301
0.0320925
0.114158
-0.0355037
0.34204
-0.665383
2.14661
-0.9036
-1.24301
-0.0802828
0.411207
0.308251
-0.239318
-0.0962526
0.173633
-0.175176
-0.0140689
-0.382779
0.369974
-0.334098
0.799203
-0.960511
0.140462
-0.0944551
-0.0460065
-0.371214
-1.91353
1.02537
0.88816
-1.78843
1.69692
-1.15892
0.417315
0.741607
0.122198
-0.285258
0.16306
0.577633
0.532666
-0.173517
0.199885
0.181099
0.426358
-0.156744
-0.262516
-0.0105871
1.02657
1.12004
0.0561093
-0.021363
1.47721
-1.25922
-0.030814
-1.40141
1.43223
1.1946
-0.00434209
-0.294371
-0.076731
0.0182185
0.0678333
-0.254702
0.185109
-0.134219
0.339281
-1.50308
1.1638
0.172735
2.34745
-1.4575
-0.889959
-0.0653258
-0.186227
-0.108185
1.21565
-0.0568521
1.39388
-1.27296
1.04186
-1.90482
-1.25192
0.00902456
1.24289
-0.923509
0.0764712
0.847038
-0.00173462
0.0266317
2.10451
0.0306618
-2.13517
-1.60662
1.74155
-0.134929
0.0458403
0.220202
-0.858423
-0.133618
0.0118531
-0.296463
-1.34383
0.185855
-0.00646223
-0.0112335
0.0176957
-0.108974
0.225298
-0.116324
0.139399
-0.492932
0.353533
0.531181
0.453735
-0.515425
-0.109604
0.0593033
0.861345
-0.92904
-0.066619
-0.056968
-0.255249
0.0539086
-0.190454
1.3473
-1.15684
-0.140679
0.662188
-0.521509
0.0600092
-0.420752
0.360743
-0.686474
-1.53146
0.698129
0.833327
-0.0389922
0.868562
0.228612
-1.09717
-0.445609
0.222968
-0.246238
0.0232704
0.170453
-0.0353601
-0.250216
0.00362323
-0.291359
-1.02519
-0.0781138
-0.393665
0.799672
-0.406008
-0.750216
-0.529845
1.7715
-0.739893
-0.102273
0.187805
-1.33826
0.0463778
-1.36253
1.31615
-0.249202
-0.0819696
0.331171
0.812062
-0.722097
-0.0899655
0.141093
-0.0217299
-0.0718583
-1.40528
0.655063
-0.622823
1.28551
-0.158558
-0.208609
0.297264
0.221712
0.0299148
0.813999
-0.373219
-0.00196443
0.70766
-0.955764
0.425971
-1.88528
0.84946
1.29863
-1.3042
-1.50168
1.40342
0.0875796
-1.45349
0.219822
1.23366
0.599713
0.232641
0.0317405
-0.945232
0.694819
-0.118398
-0.128111
0.246509
-1.32284
0.265069
1.05777
0.278762
0.76421
-1.04297
0.041694
-1.28703
0.769374
0.0915835
-0.860957
0.201009
0.259697
-1.02837
0.206112
-0.0124886
0.0531536
1.52272
-1.49749
0.343581
-0.993452
-0.538004
0.771951
-0.0222161
-1.2297
1.14036
-0.2718
-1.74882
0.0290061
-0.211532
-0.954874
0.334202
0.1892
1.84189
0.224165
0.10559
-1.2023
0.13799
-0.105548
0.185974
-0.45956
0.333695
-0.552242
0.218547
0.183301
-0.0658853
-0.117416
0.243374
-0.337579
-0.191043
0.185862
-1.13779
1.16017
-0.0223776
-0.755008
1.05387
-1.66992
0.616043
-0.777247
-0.0580327
0.0940859
-1.50662
0.130955
1.37567
-0.366203
0.899791
-0.674057
0.684807
0.150545
1.00941
0.575089
-1.03687
-0.831591
-0.170601
1.00219
-0.75607
-1.19408
0.711836
-0.123097
0.126419
-0.00332201
0.0544907
-0.0922999
0.974983
-1.47051
-0.1089
-0.50355
0.61245
-0.182591
0.156768
0.0258235
-1.05268
0.440025
0.0364452
0.0255219
-0.230378
0.409737
1.92921
0.175301
-0.78536
0.829118
-0.264979
0.089553
-1.0203
1.65014
-0.629838
-0.0754779
0.0637208
0.0763523
0.370055
-0.021169
0.926869
1.1955
0.615003
-0.937278
0.302696
-1.87822
-0.166624
0.131494
0.0923359
-1.13048
-0.211614
-0.964613
-0.209801
0.0529239
0.786142
-0.376405
-0.978283
0.268403
0.806855
0.18428
-1.69371
0.352111
1.3416
-0.0790321
0.482809
0.663182
-1.21372
-0.279358
0.741413
-0.323546
-0.417866
0.854723
-0.281506
-0.573217
-0.177313
0.0381832
0.655439
-0.67297
0.0175307
-1.57166
0.508
1.06366
1.13744
0.375919
0.000572039
0.108317
0.771723
-0.514455
-1.69037
0.58214
1.10823
-1.8269
1.50168
0.77474
0.808814
-1.58355
0.795358
-0.741868
1.82501
-0.620234
-1.20478
-1.04321
0.172089
-0.0818801
0.0231071
-0.103328
0.190568
-0.0379193
0.116685
-0.0787656
-0.238986
-0.256811
-1.48113
-0.143561
0.0734945
-0.0960114
-0.0326235
-0.0197539
1.03686
-0.46905
-0.567806
0.783344
-0.471779
-0.123847
0.123803
-0.129273
1.25255
-0.33126
0.0820582
-0.325916
-0.726767
-1.46378
0.576147
-0.0611941
-0.0823011
0.1217
0.0770557
0.102361
-0.0847213
-0.495181
-1.03585
0.095952
-0.0785776
-0.0173744
0.179046
-0.163559
-1.19915
1.3627
0.0966307
0.0175268
0.303297
1.05201
0.974313
-2.02632
-0.38684
0.998444
0.213758
-0.0849987
0.591247
-0.93486
-0.617023
1.55188
-0.931483
-0.984598
0.576328
0.303279
-0.191505
-0.111774
0.389417
-1.12721
-0.16234
1.42734
-0.373467
-0.178469
0.102447
-0.376254
-0.741669
0.0859623
1.95943
-1.71517
-0.244261
-0.863694
-0.600089
0.0601241
0.164942
0.0653074
-0.99508
-0.232005
1.22708
0.231414
0.541692
-0.489274
-1.62947
-1.78411
0.729951
1.05416
-0.158645
-0.00480979
0.163455
0.947682
-0.553212
-0.39447
0.10663
-0.162593
0.0771278
0.0823126
0.886908
-1.989
0.761776
0.0929465
-0.322209
-0.591797
-0.0367408
0.0196388
0.150524
0.694999
-0.858558
0.0255632
0.369178
-0.555746
0.553466
-0.0877814
0.00152777
0.0862537
0.968892
0.856118
0.567905
0.0560989
0.72288
-0.573508
-0.149372
1.84893
-1.49682
0.0554625
-0.546405
0.14513
0.0253233
0.194305
0.0336561
-0.0201414
0.00401125
-0.127108
0.587671
0.0685367
-1.76805
-0.0197235
-0.138922
-0.0703725
0.000530998
1.03731
-0.804896
0.893265
-0.493412
-0.399853
0.00392892
0.107847
-0.0107972
0.00433502
0.401393
0.0148538
-0.347219
-0.873113
-0.291402
-2.11699
0.882607
1.23438
0.0612645
-0.0166379
0.102798
0.101561
0.115627
-0.269601
-0.303573
0.456664
-1.39152
0.188379
-0.952978
2.00499
0.625256
-0.0976673
-0.527589
-0.715897
-0.47775
-0.0687565
0.0899799
-1.12877
0.513829
-0.741422
0.227593
-0.267513
0.235523
0.0319904
-0.0665038
1.32893
1.13304
-1.47222
1.49682
-1.57933
1.07173
0.5076
1.04829
-2.00127
2.08292
-1.0688
-1.03664
-0.96878
-0.0307866
0.246602
-0.0698358
-0.407476
-1.55497
0.10148
-0.0311416
-1.30345
1.20419
-1.9737
0.76951
-0.0519031
0.234966
-0.478084
0.323294
-0.174294
0.973331
1.37412
-1.70908
0.688775
-0.150687
-0.780796
-1.34366
0.256214
-0.0206918
1.78843
-1.82103
-0.120985
-1.14028
0.077465
1.06593
-0.277772
-1.49639
1.63368
-0.137289
0.415606
1.85143
0.437414
-0.0690595
-0.368354
1.87747
-0.835613
0.233435
-0.291177
0.709573
-0.758132
0.0898959
0.131816
0.302386
1.02416
-1.32655
-0.646515
-0.453416
1.01761
-1.06005
0.0424336
-0.338387
0.157079
-1.76491
0.785834
0.979075
0.828239
-0.0161768
-0.43422
0.0781585
0.879726
-0.765636
0.29132
-0.552704
-0.0713026
0.0240271
-0.633402
0.455691
-1.07098
-0.876122
1.9471
-0.0391538
-0.0671809
0.104519
-0.309234
1.04824
-0.842267
0.0779779
1.27738
-2.07805
0.0563228
-0.0309323
0.191082
-1.17053
0.0771711
0.705268
0.359567
0.0525474
-0.612561
-1.40699
0.411814
0.0384423
0.157344
-0.195786
0.0682218
-0.315091
1.15257
1.07585
1.23758
-0.967555
0.0221104
-0.17979
0.0109131
0.440862
0.0608208
-0.283768
-0.706914
-0.961527
2.00982
-0.08478
0.0457878
-0.741503
-1.11287
1.85438
-1.8536
0.246986
-0.0672657
0.0514774
-0.008512
-1.45412
-0.0669822
-0.142259
0.656088
-1.0297
-1.08729
1.95943
0.574235
-1.39009
1.01905
-0.565319
-0.220431
-0.269911
-0.0310109
-0.232441
0.243376
-1.62479
0.207096
-0.792295
1.04598
-2.00751
-0.812092
-0.0886916
-0.189949
-0.0724539
-1.42393
0.856989
-0.812057
1.3297
0.840067
-1.54607
0.706003
1.68396
-1.17595
1.97073
-0.942716
-1.01102
1.95373
0.548807
1.24961
-1.0182
-0.728238
-1.05587
-0.851919
-0.727414
0.453263
-0.664438
1.59243
-0.927996
-0.137361
1.37141
-1.23405
-1.03247
-0.948001
1.98047
0.89934
0.118271
0.256298
0.370199
-0.486075
0.323637
0.162438
0.00838131
-0.247415
0.479943
-1.34364
-0.785034
-0.3905
-0.246051
-0.124283
-0.140216
-0.248274
0.952245
-1.97223
0.923379
1.04885
-0.0430323
-1.65383
1.69686
0.0550192
-0.245526
0.0505804
0.614606
-1.89459
1.89459
-0.0447842
-0.0156761
0.0604603
-0.645528
1.07298
0.264273
-0.00805849
-0.775625
-0.354193
0.794964
-1.47222
-0.0215533
-1.27573
0.312201
1.26034
-1.28748
-1.20308
0.208002
-0.172377
-0.0586017
0.230979
0.121712
0.533727
0.182756
0.000545222
-0.962496
-1.17164
0.17664
0.995001
-1.40514
-0.0943416
-0.495174
-1.17474
-0.0318543
0.0904022
0.160624
-0.3249
0.228647
-0.00567047
0.0729919
0.364351
-0.272828
-0.360573
-0.642231
1.42172
-0.779487
0.331299
0.207285
-0.231591
0.403213
-0.171622
-0.420512
0.178228
0.422381
-0.536897
0.114516
-1.07433
1.75299
-0.978252
-1.33366
-1.66043
0.229132
-1.20435
0.05045
1.00519
1.18235
0.117909
-1.07278
1.12008
-0.176783
-0.365936
0.207377
0.644989
0.627018
0.16834
1.98861
-0.942625
-1.01943
-0.864752
1.88419
1.12415
0.00960532
-1.13376
0.126554
-0.0398266
-0.192082
0.175244
0.10976
1.35048
-1.46024
-1.33096
1.3042
0.0267582
1.33096
-1.40342
0.212635
-0.264538
-0.763275
1.02297
0.0776338
0.3911
-0.267226
-1.65064
0.180042
1.61515
-0.775081
-0.360385
-0.0799858
0.136354
-0.432308
0.946124
0.25602
-0.0859868
0.68681
-0.796321
0.176469
-0.237956
-0.56694
-0.0559997
0.789254
-2.07003
0.50238
-0.0688898
0.429202
-0.360313
-1.03335
-0.940352
0.0641051
0.599721
0.58352
-0.876768
0.0914083
-0.098836
-0.321916
0.102259
-2.03908
1.00244
0.0270186
-0.0366058
-0.27573
-0.00770487
0.283943
0.17197
-1.42622
0.774406
-1.47692
0.702516
0.0583568
0.245804
-0.30416
0.294803
0.0127751
-0.991142
1.30334
0.62885
0.369594
1.33188
-1.21372
0.184631
0.040279
1.63586
-1.93216
0.296308
-0.231581
-0.333045
-0.821233
-0.0397246
0.371403
-0.446712
0.130588
-0.283671
-1.12694
-0.145586
0.00122404
0.144362
-1.46001
0.165314
1.2947
0.138832
-0.248475
0.0875645
0.0679425
-0.155507
1.14843
-1.17065
-0.182956
0.11707
0.61324
0.24274
-0.281683
0.163355
0.375094
-0.361228
0.185623
0.660784
-0.846407
-0.429658
-0.0632733
-0.932284
-1.01286
1.94515
-0.230579
-0.270146
0.58431
-1.00662
1.69692
0.411275
-0.316816
0.0500659
0.0481997
-0.0830982
2.04902
-1.02245
-1.23602
0.767401
-0.560305
-0.501107
1.60934
0.337031
-0.322178
0.0285168
-0.0324428
0.339948
-0.0525315
-0.291643
0.188452
-0.244796
-0.332943
0.00804333
1.0853
-0.329192
0.321487
0.295344
-0.0572632
0.037118
-0.0939628
-0.0402567
0.494008
-0.766836
0.208886
-0.238652
0.0297664
-0.379647
0.297677
0.184811
0.896274
-1.08109
-0.246333
0.118222
0.448397
-0.636502
1.49057
-0.979501
1.01216
0.911094
0.0913761
0.56576
-1.06477
0.349194
-0.429719
-0.324354
1.08
0.901739
-1.53899
1.53899
1.75473
-0.840128
1.1032
-0.0455667
1.52223
-1.47666
0.897596
1.04685
0.895951
-1.96693
0.167866
-1.12838
-1.35025
-0.200242
-1.46453
1.66477
-0.405828
-0.123356
0.0727676
0.908069
0.164055
-0.272501
-0.975616
1.6994
-0.723781
-0.179008
0.268904
-0.0158819
0.373344
0.939774
2.35207
-0.905869
-1.4462
1.61153
-1.48057
1.14795
0.189792
0.056881
0.00429312
0.0372326
1.56773
0.573457
1.0857
0.786433
0.0207672
0.196075
-0.216842
-0.344976
0.214369
0.180393
-0.192437
0.0120439
0.160512
-0.215815
0.0553033
0.500344
-0.441041
0.333486
-0.477494
-0.527019
0.648078
0.0237831
-0.200107
0.0433262
-0.62211
0.567941
0.0541688
0.0467479
-0.0473342
0.000586326
1.82103
-1.54226
-0.0636178
0.221264
-0.157647
-1.52272
-0.338634
0.263703
-0.996443
1.89404
0.256673
-0.327044
1.98115
-1.0852
0.245038
-0.312671
-0.155637
-0.384545
-1.32084
-0.0709483
1.62686
1.28263
-1.09155
-0.101142
0.142505
-0.0984721
-1.49248
-0.292775
0.285746
0.24268
-0.367168
-0.361695
0.286664
-0.0823858
-1.32954
1.29873
-1.46098
1.49135
-1.18144
-0.473303
0.425599
0.659486
0.383197
-0.393785
-0.058578
0.0597159
0.348353
-0.408069
-0.37505
1.42114
-0.981351
-0.991069
-1.96857
-0.0805155
0.0768594
0.00365614
-0.00894018
1.4475