/*--------------------------------*- C++ -*----------------------------------*\
| =========                 |                                                 |
| \\      /  F ield         | OpenFOAM: The Open Source CFD Toolbox           |
|  \\    /   O peration     | Version:  2306                                  |
|   \\  /    A nd           | Website:  www.openfoam.com                      |
|    \\/     M anipulation  |                                                 |
\*---------------------------------------------------------------------------*/
FoamFile
{
    version     2.0;
    format      ascii;
    arch        "LSB;label=32;scalar=64";
    class       volVectorField;
    location    "4";
    object      U;
}
// * * * * * * * * * * * * * * * * * * * * * * * * * * * * * * * * * * * * * //

dimensions      [0 1 -1 0 0 0 0];

internalField   nonuniform List<vector> 
5098
(
(2.63005 0.939175 0)
(2.10376 0.0683535 -2.38674e-20)
(2.37848 0.0319402 -2.63017e-21)
(1.55128 -0.69208 7.59107e-19)
(1.96493 -0.531995 0)
(0.89516 -0.432186 0)
(2.33863 0.00462532 -1.93618e-20)
(2.30309 -0.303578 1.20708e-21)
(2.49451 0.0756287 -4.85388e-20)
(2.0786 -0.263468 9.22502e-20)
(1.04952 -0.789732 0)
(2.23955 0.000297658 1.72312e-19)
(2.4956 -0.431231 -9.6584e-21)
(0.949221 -0.463853 0)
(1.93465 -0.160137 7.06365e-20)
(1.96951 0.0224095 7.69627e-22)
(1.00754 -0.52566 -2.77724e-20)
(0.545482 -0.881334 0)
(-0.499979 0.176548 5.16164e-19)
(0.887524 -0.464379 3.13768e-20)
(1.79628 0.565221 -7.28996e-20)
(1.94267 -0.0177131 4.00651e-21)
(2.11889 -0.817177 0)
(0.771672 0.0156947 2.87534e-20)
(-0.45544 0.0240967 0)
(1.49493 -0.600626 0)
(2.04026 0.0220156 1.19274e-19)
(1.87071 -0.799958 2.00833e-19)
(-0.257645 0.436768 -1.56217e-18)
(1.70443 -0.747176 0)
(2.41323 -0.204091 -1.09584e-19)
(0.729176 -0.354223 0)
(1.97316 0.018758 -1.36321e-19)
(1.26289 -0.666698 0)
(2.45286 0.255359 -4.76932e-20)
(3.29094 -0.0713258 1.51511e-18)
(1.9027 -0.466941 1.46824e-19)
(2.03501 -0.0700574 -1.01718e-21)
(1.35173 -0.446054 5.53597e-19)
(1.39425 -0.647407 0)
(1.55975 -0.706893 -3.57658e-19)
(1.75384 -2.26917 -8.38293e-19)
(1.50956 -0.605535 0)
(2.81194 -0.0573661 2.6486e-20)
(2.48063 0.683898 4.99587e-20)
(2.12712 0.0658003 6.17801e-21)
(0.966398 -0.552043 1.10875e-20)
(1.09 -0.359368 0)
(2.42733 -0.230337 0)
(1.55483 -0.657075 8.08762e-20)
(2.2839 0.0963042 4.04081e-20)
(1.63108 0.494604 -4.53034e-19)
(-2.04747 0.997565 -2.62348e-20)
(2.03319 -0.0860087 1.72142e-19)
(0.959325 -0.479552 -3.37409e-19)
(1.60781 0.122587 0)
(1.88233 0.261902 -2.42132e-19)
(1.65709 -0.67564 0)
(0.863797 -0.425528 0)
(1.90981 -0.0132174 -1.54443e-20)
(1.22934 0.14358 5.30428e-20)
(0.459145 -0.259062 -4.25251e-20)
(2.45431 0.324448 0)
(2.46016 -0.412495 0)
(-2.23599 1.07473 2.43318e-18)
(0.818631 -0.411429 4.21433e-19)
(2.07191 -0.00811633 7.7915e-21)
(2.28284 0.0708892 6.19998e-21)
(2.1417 -0.279592 1.76934e-19)
(1.69959 -0.711545 2.37232e-19)
(1.91683 0.183686 1.43634e-20)
(1.51773 -0.486878 -1.27413e-20)
(1.93896 -0.810933 0)
(1.34467 -0.550117 0)
(1.70864 0.0644377 1.10541e-20)
(1.13308 -0.553729 -3.87723e-19)
(1.87059 0.151187 0)
(1.54863 0.208117 4.25988e-19)
(2.61191 -0.255629 5.35591e-20)
(1.62997 0.179724 0)
(1.73858 0.0132074 0)
(3.46537 -1.82631 6.72842e-19)
(1.69746 -0.286219 5.17656e-19)
(1.26147 -0.68968 -5.15109e-21)
(0.584646 -1.02781 5.26138e-20)
(1.54325 -0.679436 2.11455e-19)
(0.0837959 0.263498 -2.61977e-19)
(1.86884 0.151061 3.13244e-21)
(2.4623 -0.201098 4.60453e-20)
(1.33176 0.268098 2.64668e-20)
(2.26948 -0.270657 -7.84629e-21)
(-0.947143 0.948653 1.02925e-18)
(2.37397 -0.057727 -2.18251e-19)
(1.57164 -0.677055 -4.04748e-19)
(1.33127 -0.471045 9.76543e-20)
(1.43871 -0.43035 1.88553e-20)
(1.05677 -0.530981 -3.26524e-19)
(1.47542 0.28919 3.14808e-19)
(1.72911 0.102237 6.65074e-21)
(2.05356 -0.488257 -1.21424e-19)
(1.71273 -0.892813 -6.53494e-20)
(1.01506 -0.49999 -4.0081e-19)
(-0.0582627 -0.0282553 -2.34754e-21)
(2.18156 0.186232 -1.71969e-20)
(1.55926 0.196676 -4.84222e-19)
(2.46736 1.08627 0)
(1.94001 0.236672 2.5765e-19)
(2.23826 0.0518984 -4.59412e-21)
(1.03522 -0.413848 7.5313e-20)
(0.964843 -0.766471 0)
(1.06246 -0.511273 -8.73549e-19)
(1.67741 0.711558 7.65107e-19)
(1.84271 -0.0336834 -2.56363e-19)
(-1.9626 1.66423 2.62899e-19)
(1.7421 0.663233 1.03747e-19)
(0.504313 -0.318236 0)
(3.13483 -1.77585 1.00337e-18)
(2.7452 1.35859 0)
(1.96036 0.167857 1.06796e-20)
(0.795687 -0.0256488 -4.42183e-19)
(1.68636 0.458391 3.7198e-19)
(1.6602 1.98096 -4.40421e-20)
(2.12934 -0.281488 -5.7817e-20)
(0.827179 -2.04424 -9.87661e-19)
(-1.31713 1.68094 -1.3962e-18)
(0.483895 -0.243097 3.5806e-21)
(2.14821 -0.0406605 1.42821e-19)
(2.10218 -0.780877 -2.41174e-19)
(1.38006 -0.135967 -1.16207e-19)
(-2.01796 1.61856 -4.81257e-19)
(-0.578587 -0.995437 -4.74929e-19)
(1.134 -0.502388 -5.55621e-19)
(1.16159 -0.500318 4.65249e-19)
(2.61444 1.40813 -1.36765e-19)
(1.60415 -0.760297 -1.54034e-19)
(2.3908 -0.677593 2.63316e-19)
(2.08846 2.49521 6.51898e-19)
(1.95193 0.234294 1.73079e-19)
(0.875733 -0.430403 0)
(2.01197 -0.0620838 -5.57149e-19)
(1.58242 0.597873 -2.99295e-19)
(1.29925 -0.310415 2.33039e-20)
(1.76898 -0.807962 3.8487e-19)
(2.37463 0.0367614 -1.30145e-20)
(2.02741 0.0908523 -4.12679e-20)
(2.11966 0.17544 0)
(2.12888 -0.282875 1.82748e-19)
(1.84544 -0.563355 0)
(2.52313 -0.0771856 3.21164e-19)
(1.64779 -0.756239 1.45764e-19)
(2.44536 -1.93693 -2.85821e-19)
(2.48278 0.363472 0)
(1.86336 -0.571561 6.21619e-20)
(1.96403 0.102552 0)
(0.0696613 0.163547 -3.30249e-19)
(0.819557 -0.316866 -1.83931e-19)
(1.65791 -0.664176 -4.24942e-19)
(1.67598 -0.853477 -4.63306e-20)
(1.50424 -0.700973 -2.92756e-19)
(-0.33056 0.188252 1.60597e-18)
(1.95851 -0.432143 -4.00152e-19)
(1.98506 -0.145918 -9.24501e-20)
(1.40408 0.182497 -5.1109e-19)
(1.82744 -0.18733 -3.20142e-19)
(0.143241 -0.66681 -6.80101e-20)
(2.48202 -0.167975 -1.04206e-19)
(1.93485 -0.575883 -2.12327e-19)
(2.34771 -0.584283 0)
(-0.475489 -0.051173 1.55936e-19)
(1.70363 -0.559708 -4.6347e-19)
(1.73876 -0.516643 -1.34309e-20)
(1.56405 -0.63339 -2.75371e-19)
(2.24389 0.402854 8.96182e-20)
(1.86415 -0.770981 3.58912e-19)
(2.66966 -0.0953258 0)
(1.97132 -0.00187058 0)
(1.72289 -0.286429 -2.00758e-19)
(3.35633 -0.030135 -7.22601e-20)
(1.76185 -0.163567 4.42495e-19)
(0.272976 0.102017 0)
(1.88751 2.34182 0)
(3.0284 -1.56518 -7.08466e-19)
(1.76781 -0.547497 5.69903e-19)
(0.0742993 -0.577916 0)
(1.85042 -0.176541 0)
(2.76217 0.684326 5.37315e-19)
(1.52643 0.3305 0)
(1.90647 -0.437115 5.0499e-19)
(0.996882 -0.486616 7.53093e-19)
(-1.31454 1.01402 -7.10472e-19)
(1.88505 0.849437 0)
(1.50462 -0.247941 1.16186e-19)
(1.96201 -0.827167 0)
(1.72213 0.0197636 1.35833e-20)
(2.47232 -0.172937 1.17527e-20)
(-1.35545 1.22057 -1.13943e-18)
(3.58545 -1.12155 4.84133e-19)
(2.49736 -0.7473 0)
(1.95964 0.0191532 -5.62433e-21)
(1.7278 -0.53939 -8.42035e-20)
(-0.969873 -0.52243 -9.33189e-19)
(1.7103 0.411926 5.67116e-21)
(2.47276 0.704874 1.20397e-20)
(2.21593 0.0248556 4.48721e-21)
(1.57139 -0.0126272 2.07802e-19)
(0.793582 -0.325704 -1.31617e-19)
(2.65221 0.044106 -1.82865e-20)
(1.19585 -0.553665 0)
(2.24144 -0.124965 0)
(1.27055 -0.617548 -4.00599e-19)
(1.94415 -0.15403 -1.62923e-19)
(1.74321 0.341534 3.02039e-19)
(1.61893 -0.270678 -1.1772e-19)
(2.05816 0.089868 -1.51027e-19)
(2.09288 0.0106283 -1.86998e-19)
(0.708498 0.324444 -4.42217e-19)
(1.73097 0.00384426 0)
(0.886452 -0.813556 -6.15155e-20)
(-1.20945 1.46097 1.91683e-19)
(1.9696 0.110792 1.15788e-19)
(2.3021 -0.290154 -2.94191e-20)
(1.595 -0.329459 0)
(2.07714 0.0216326 1.59161e-20)
(2.31881 -0.329511 1.50625e-19)
(-2.03871 1.30669 3.31798e-19)
(2.00667 -0.154917 0)
(0.397794 -0.0976471 0)
(1.99461 0.0398563 0)
(2.01999 -0.49487 0)
(1.72865 -0.688645 5.44325e-21)
(1.80997 0.456166 0)
(0.604922 -0.254165 -4.80419e-19)
(3.41919 -1.37114 -5.09357e-19)
(2.05503 0.00642211 -5.67022e-21)
(2.62549 0.0702292 -5.83003e-20)
(2.36501 0.0243384 0)
(1.51437 1.49294 -1.42928e-19)
(-1.61086 -0.421607 -2.73887e-18)
(2.87424 -0.393616 0)
(1.87516 -0.00654655 3.14479e-19)
(3.26584 -2.06651 -2.35525e-18)
(2.26233 0.465459 0)
(2.2297 0.0830061 0)
(1.0274 -0.228223 8.1178e-19)
(1.79441 0.505639 -3.84571e-19)
(2.29582 -0.137447 -1.97334e-19)
(1.0663 -0.510369 9.00206e-20)
(0.918263 -0.785841 -3.65257e-20)
(1.0611 -0.594959 0)
(2.35682 -0.0898688 5.30195e-20)
(2.31684 0.815931 -4.62936e-20)
(1.87547 -0.795287 3.70998e-19)
(0.365842 -0.131699 7.545e-19)
(-1.32994 -0.483745 8.96568e-19)
(1.98385 0.0278718 -2.33587e-19)
(-1.22103 -0.117831 2.62833e-18)
(1.63081 -0.714027 1.34308e-19)
(1.23566 -0.431575 -5.21228e-20)
(1.11852 -0.378928 -3.41161e-19)
(1.9364 0.041968 1.36253e-21)
(2.78079 0.64947 8.34141e-20)
(-2.35493 1.20721 1.20745e-18)
(-0.676235 0.144276 3.11181e-19)
(1.88766 -0.82075 0)
(2.02774 0.0329743 -2.35841e-21)
(0.536374 -0.40686 1.92245e-20)
(-0.282773 0.126737 -1.86999e-18)
(1.05591 -0.875124 0)
(1.39515 -0.501032 0)
(1.87315 0.0100457 -2.9015e-20)
(-1.82701 1.01958 8.67004e-19)
(1.88552 0.0869303 1.8761e-20)
(-0.0935467 0.159753 -8.44113e-19)
(1.57817 -0.399184 0)
(1.13509 -0.448518 2.38728e-21)
(0.10955 -0.0971472 1.73029e-20)
(1.60505 -2.25235 -6.17591e-19)
(2.29203 -1.51779 0)
(2.26237 -0.721927 0)
(1.91384 -0.104754 0)
(-0.580302 -0.697758 -2.84827e-19)
(2.25215 -0.113326 1.2642e-19)
(-2.33871 1.4059 -1.36846e-18)
(2.30776 -0.174197 -1.40508e-19)
(2.00468 -0.535991 -2.18595e-20)
(0.915992 -0.48219 0)
(1.95215 0.0361783 0)
(2.16289 0.173223 -4.08226e-20)
(2.49905 -0.138176 8.36818e-20)
(1.87183 0.0264624 -2.61488e-19)
(1.18881 -1.90066 0)
(-0.624161 1.96417 7.23341e-19)
(1.07844 -0.0574244 -2.37422e-19)
(2.37899 0.514986 3.93011e-20)
(1.97972 -0.63219 3.86862e-19)
(1.21056 -0.166636 -4.46741e-20)
(2.49608 0.086227 0)
(2.43985 -0.183576 -9.7246e-20)
(1.9731 0.0834284 0)
(1.9477 -0.0418001 -1.39284e-19)
(2.14711 0.184839 3.24606e-20)
(2.51534 -0.0134199 1.11698e-19)
(1.60923 -0.422038 5.37102e-19)
(1.90195 0.454052 2.13381e-19)
(0.510208 -0.358972 -3.07247e-20)
(1.79884 -0.737245 -2.26858e-19)
(2.62283 1.84377 -1.59543e-19)
(2.02952 0.00743761 0)
(1.83624 -0.451167 0)
(0.968038 -0.59121 0)
(2.27893 -0.276149 3.80051e-20)
(0.0479397 0.160961 7.43645e-20)
(0.824365 -0.410099 4.43945e-19)
(1.87755 0.0236438 -2.74857e-20)
(2.54271 -0.429915 -3.82826e-20)
(0.155278 0.0824656 6.48158e-19)
(1.99674 2.32891 -7.15607e-20)
(2.09949 -0.00311128 -1.35738e-20)
(2.24901 -0.141822 5.33189e-19)
(0.872513 -0.368212 0)
(2.76034 -0.199172 -5.85657e-20)
(-0.587885 1.85288 -1.50475e-18)
(2.80216 -0.228203 -4.48197e-19)
(-0.167909 0.541135 -6.17362e-21)
(1.72857 0.0921607 3.12754e-21)
(1.33632 -0.418188 3.72364e-19)
(2.25479 0.802941 0)
(1.98863 0.113086 -8.78224e-20)
(1.04633 -0.421567 -7.96192e-19)
(1.97976 0.138965 -9.68668e-21)
(1.27665 -0.620238 0)
(2.25467 -0.158463 -1.54939e-19)
(1.02629 -0.49693 2.50364e-19)
(2.30251 -0.719912 -1.12736e-19)
(1.72508 -0.720761 -3.21115e-19)
(2.19493 0.00629863 -3.57055e-20)
(2.39772 -0.354411 9.8073e-21)
(0.95127 -0.470333 4.90793e-19)
(2.21665 -0.0894342 2.19982e-19)
(1.8205 -0.385788 0)
(1.78962 -0.818798 -3.6418e-19)
(1.68036 -0.712585 -9.70593e-19)
(2.63436 -0.217709 2.23707e-20)
(2.00668 0.0153459 3.71778e-20)
(2.26086 1.33172 0)
(1.7555 0.165474 0)
(2.04485 -0.0956678 -1.7315e-19)
(0.722608 0.448203 3.75083e-19)
(2.75385 1.27987 0)
(2.33895 -0.0753023 1.55401e-19)
(1.52519 -0.677706 -4.20059e-21)
(0.915609 0.329921 -5.79598e-19)
(0.864993 -0.372871 -4.25063e-19)
(-0.780482 -0.631523 3.18229e-19)
(1.82757 0.0351451 1.93572e-20)
(-0.587839 -0.612628 8.36836e-19)
(2.36302 -0.665888 -2.24432e-19)
(2.25144 -0.0611595 0)
(1.40279 -0.0904887 -1.00076e-19)
(1.45016 -0.449436 0)
(1.95502 0.131078 -4.26127e-19)
(2.00047 -0.443902 0)
(2.23585 -0.0391721 -1.52402e-19)
(1.90646 0.165446 -4.25239e-21)
(2.8758 -0.0141655 -1.2002e-20)
(1.10912 -0.422128 4.50128e-19)
(1.98347 0.120202 -3.45995e-19)
(2.03985 0.28405 -3.7742e-19)
(1.98178 -0.851244 0)
(-0.996197 -0.70402 0)
(1.18744 -0.465996 -4.43913e-19)
(2.86071 -0.136892 0)
(3.37997 0.323002 -9.1596e-19)
(1.52603 0.288298 0)
(1.48886 -0.469709 1.70525e-20)
(0.572444 -0.329686 3.75143e-20)
(1.74482 -0.567387 6.77713e-19)
(0.742732 -0.324457 -2.65342e-20)
(2.32416 -0.556019 0)
(1.90576 0.178327 5.36812e-21)
(1.82813 0.0330883 -2.25654e-19)
(0.52211 -0.26364 -4.1022e-21)
(1.97406 0.039844 -1.99157e-19)
(2.47498 -0.0734216 -6.60291e-20)
(2.54848 0.130484 -2.82279e-20)
(3.19371 0.804933 3.56816e-19)
(2.45617 0.357255 -6.98823e-20)
(-1.22357 -0.700735 -4.43728e-19)
(1.69455 -0.516822 0)
(-0.0592726 -0.0298398 -1.95465e-21)
(1.95722 0.146664 -1.49321e-19)
(2.53005 -0.224032 0)
(2.03196 0.0413427 1.2984e-19)
(1.13472 -0.54731 -3.2837e-19)
(1.6705 1.27365 1.27116e-19)
(3.88037 -0.487161 0)
(1.3767 -0.650697 1.19204e-19)
(2.55765 0.51245 0)
(2.30656 0.0256074 3.26836e-20)
(2.11075 -0.206449 -9.99742e-20)
(-0.162549 -0.257201 1.02835e-18)
(1.04236 -0.0770394 0)
(1.58288 0.304416 2.16684e-19)
(1.96485 0.0945148 1.39162e-19)
(0.531598 -0.318682 0)
(1.73776 -0.00389321 0)
(1.99472 -0.172555 0)
(0.0286858 -0.0238141 8.34517e-20)
(0.35481 -0.111576 -3.12892e-20)
(2.51695 -0.125009 0)
(2.01623 0.00828606 0)
(1.56165 -0.496583 6.15423e-20)
(-2.27049 0.869293 0)
(2.33878 0.404089 2.04292e-21)
(2.90254 1.1344 2.01731e-19)
(2.04544 0.116915 9.24079e-21)
(1.89352 0.410536 -5.02044e-21)
(0.922903 0.420087 6.66617e-19)
(2.94782 1.3251 -2.1238e-19)
(2.39422 -0.250255 6.8716e-21)
(2.09194 -0.0691375 1.50129e-19)
(1.61857 -0.139652 -2.42774e-19)
(1.71525 -0.7789 -6.73318e-21)
(2.00683 0.0329279 0)
(-0.511609 -0.664992 -8.03215e-19)
(-1.22018 1.27278 0)
(1.34016 -0.559672 1.88282e-20)
(1.7746 -0.529364 0)
(2.53683 -0.235577 0)
(1.27403 -0.610402 -2.70771e-19)
(2.0272 -0.017989 -8.72204e-21)
(-0.297336 0.398338 -1.69399e-18)
(2.045 0.0296373 7.21121e-21)
(1.80221 -0.707905 3.6611e-19)
(3.05954 1.01473 2.30975e-19)
(-0.117161 0.518456 1.50875e-18)
(2.2223 0.0357043 1.88938e-20)
(2.07502 -0.829228 1.39729e-19)
(1.9898 0.0433348 -2.34078e-19)
(3.95987 -0.646606 0)
(1.78076 -0.107043 -4.60221e-19)
(1.82604 -0.491572 3.7682e-19)
(1.98678 0.153103 -5.32936e-19)
(0.771889 -0.381752 -2.2028e-20)
(1.60598 1.28439 -1.27984e-19)
(2.88559 1.21051 3.04868e-19)
(2.80854 -0.69812 0)
(1.92051 -0.148712 0)
(0.93584 0.554593 -6.76583e-19)
(2.08948 -0.120699 9.41124e-20)
(1.02881 -0.616668 0)
(2.28465 -0.152558 -1.35636e-19)
(2.03773 0.0406494 -2.84667e-19)
(1.0306 -0.524023 -1.39301e-20)
(1.07483 -0.694276 6.49032e-20)
(2.63698 0.10324 -5.70622e-21)
(1.46143 -2.23069 4.59969e-20)
(2.37403 -0.364724 -2.92401e-19)
(1.94395 -0.456674 2.62968e-19)
(3.36414 0.853419 8.04715e-19)
(1.52443 -0.623753 3.48946e-19)
(1.97889 0.129171 -1.04074e-21)
(0.990381 0.260466 4.86216e-19)
(2.13022 2.10523 0)
(1.70429 -0.494191 2.18584e-19)
(0.764494 -0.86652 0)
(-2.22638 1.4798 -3.59268e-18)
(2.57161 -2.21593 0)
(0.39619 -0.224211 -1.10531e-19)
(1.62172 -0.689063 -4.90756e-19)
(2.33018 0.736413 -3.69487e-19)
(2.05073 -0.842553 0)
(1.38114 -0.662898 0)
(2.80185 -0.482186 0)
(1.99968 0.109195 1.11661e-19)
(3.30876 0.0719078 -2.5595e-18)
(-0.0447851 0.209802 1.33851e-18)
(1.58145 -0.312943 -7.64779e-21)
(3.53617 0.829875 -8.9687e-19)
(2.08058 0.352385 0)
(1.23685 2.00174 2.02532e-19)
(2.52019 1.2908 1.38568e-19)
(2.11879 0.838334 -4.86896e-19)
(1.52664 -0.713216 3.06848e-19)
(2.80015 -0.199511 1.58802e-22)
(1.14766 -0.559339 5.51142e-19)
(2.26973 0.334802 0)
(2.12838 -0.239269 9.46955e-20)
(1.26931 -0.416496 5.48276e-20)
(1.96754 -0.0470914 2.86297e-20)
(3.36265 0.514199 -4.76709e-19)
(1.78149 -0.535594 0)
(2.55895 0.791161 0)
(3.71604 -0.79391 0)
(-0.33763 0.510713 0)
(1.92294 -0.00726302 0)
(1.40973 -0.52723 1.49756e-19)
(3.73509 0.756607 6.12685e-19)
(1.44515 -0.599624 4.14859e-19)
(2.06465 0.0574103 2.31276e-19)
(0.577895 -0.830998 0)
(2.04283 -0.853713 2.85487e-21)
(-0.542561 0.0954383 0)
(0.727272 -1.0575 -8.43717e-20)
(-0.540778 0.216734 7.0239e-19)
(4.14138 0.344607 -3.71711e-19)
(2.02453 0.186828 2.66785e-19)
(2.04009 0.247544 -8.27786e-20)
(3.94397 -0.563064 -4.99349e-19)
(2.4027 -0.0184453 0)
(-1.44265 1.96759 1.32622e-18)
(1.98277 0.0145966 0)
(1.5379 0.923268 1.67522e-20)
(2.52425 -0.124687 0)
(2.092 0.248895 -1.01933e-19)
(2.0865 -0.10881 0)
(0.900709 -0.339214 -3.00001e-19)
(-1.97912 0.60658 1.4897e-18)
(2.09469 -0.145785 -9.10874e-20)
(1.33456 0.420483 4.36012e-19)
(0.0698243 -0.0559493 -1.74657e-19)
(1.94787 -0.518922 0)
(1.00216 -0.202094 -1.1487e-18)
(1.9244 0.220138 4.77152e-21)
(3.82494 0.398446 -1.34238e-18)
(1.92598 -0.0197549 7.01087e-21)
(3.17571 -1.38193 1.24721e-18)
(3.50398 0.611837 0)
(1.75845 -0.795074 -7.85222e-20)
(1.43747 -0.655088 0)
(2.54994 -0.209627 1.21356e-20)
(0.451712 -0.125065 7.34174e-20)
(0.0845437 -1.00975 0)
(2.35939 0.385361 0)
(1.58504 -0.804433 -8.88394e-20)
(2.50567 0.76913 0)
(1.77512 1.8085 4.67398e-20)
(2.98492 0.81128 -3.58959e-19)
(-1.99376 1.42385 -1.07468e-18)
(1.12212 -0.620318 -2.49432e-20)
(2.0156 0.0158362 -5.85419e-21)
(0.953871 -0.504417 2.28213e-21)
(-2.10688 0.88039 -1.03266e-18)
(1.85188 -0.0104611 4.8847e-19)
(0.953996 -0.487341 1.5821e-20)
(0.31333 -0.170403 0)
(2.45605 0.132305 -9.56236e-20)
(1.50914 -0.776722 1.02026e-19)
(0.385608 0.237595 7.9294e-20)
(3.60736 0.538826 9.6766e-19)
(2.87896 1.60732 0)
(1.81071 -0.513729 -3.78535e-19)
(1.73331 0.602663 -5.66327e-22)
(3.11637 0.679135 -1.03208e-19)
(2.52581 -0.0327652 -3.164e-19)
(1.1444 -0.754436 1.8718e-20)
(-0.143897 -1.25449 6.25502e-19)
(1.46311 -0.587203 -1.00092e-19)
(1.01366 -0.679845 1.64058e-21)
(2.42749 -0.193718 -2.62557e-19)
(1.08143 -0.760229 -2.09755e-20)
(1.86324 -0.463023 0)
(1.87849 -0.139454 -4.45145e-19)
(-0.572441 1.41259 0)
(1.27955 -0.634349 -1.3349e-20)
(-0.301479 0.829001 2.15019e-19)
(-0.115296 0.318166 1.06364e-18)
(1.96999 0.181218 -2.64947e-21)
(-0.404255 0.0748274 2.61943e-20)
(-0.234408 0.0290786 0)
(2.18111 -0.800184 3.71868e-19)
(2.15341 -0.846745 9.17868e-20)
(-0.444697 0.603175 -8.87312e-19)
(1.78729 0.559567 0)
(1.66081 0.536893 0)
(0.194536 0.350463 0)
(1.58633 -0.568595 -3.36218e-20)
(1.88047 -0.028194 -4.32568e-19)
(1.31666 0.192196 0)
(1.75285 -0.940261 0)
(2.28061 0.173389 -7.20542e-21)
(2.22507 -1.87363 -8.4628e-21)
(2.06772 0.269655 -3.00914e-19)
(1.6385 -0.373242 -3.24959e-20)
(1.77971 0.0284943 3.34108e-20)
(1.93975 -0.0118221 -3.10936e-20)
(1.92919 0.204039 -1.59824e-20)
(1.92947 0.586316 -2.45298e-20)
(1.90742 1.20901 0)
(-1.8177 0.72361 4.6528e-20)
(-1.234 2.13166 0)
(1.02243 0.13197 0)
(2.84523 0.17759 -4.95124e-19)
(0.337113 -0.917858 0)
(2.5041 0.326303 0)
(1.88931 -0.0999267 6.83808e-19)
(1.85786 -0.818413 0)
(2.07587 0.215383 3.84028e-19)
(3.38406 0.544734 4.74303e-19)
(3.25819 0.428329 1.66001e-19)
(1.99699 0.121606 9.75761e-22)
(1.16153 1.35648 2.38801e-19)
(2.19737 -0.841292 4.37201e-21)
(1.95052 -0.77757 -7.39263e-21)
(1.16255 -0.44283 4.33776e-19)
(1.04207 -0.538117 0)
(0.940535 -0.4657 0)
(-0.210746 -0.329381 -3.06567e-19)
(-1.7837 0.467082 -2.0054e-18)
(1.34593 -0.654643 0)
(1.00876 -0.514741 2.85755e-20)
(-1.94992 0.904147 0)
(-1.04435 1.66907 1.35985e-18)
(1.12349 -0.522682 -5.62214e-19)
(3.38898 0.293353 -2.26825e-20)
(3.15101 0.549141 3.81247e-19)
(1.21488 -0.403802 8.77665e-20)
(2.44232 -0.128463 1.34739e-19)
(2.40416 0.984596 0)
(2.50188 0.887669 0)
(1.07823 0.00197533 0)
(0.245326 -0.331998 -7.13825e-19)
(1.40871 -0.534311 0)
(2.40284 0.689784 0)
(2.00182 0.0460567 0)
(2.43206 -0.392213 -6.00818e-20)
(-1.97481 1.98514 4.9481e-19)
(2.01794 -0.777852 -2.00943e-19)
(1.52636 -0.578988 9.22759e-20)
(1.45988 0.209743 0)
(0.0344361 -1.24932 0)
(1.98529 -0.595205 -3.5289e-19)
(1.55764 0.605868 6.39327e-19)
(-0.695291 0.0388707 -2.75672e-19)
(2.13865 0.210833 -7.2736e-21)
(1.74028 -0.477995 4.00234e-19)
(0.994928 0.457737 -1.04526e-18)
(-1.90261 0.467082 0)
(1.24535 1.35814 -5.60084e-19)
(0.379102 0.388506 -6.55276e-19)
(3.31259 0.319347 0)
(2.24118 -0.0706504 0)
(1.67396 -0.0121465 0)
(2.06923 0.0361641 -4.19822e-19)
(1.41122 0.305078 -4.47481e-19)
(1.65989 0.14666 0)
(3.24561 1.38295 1.70905e-18)
(1.79629 -0.808467 3.68088e-19)
(2.45695 -0.363002 7.20986e-20)
(0.344246 -0.393978 5.78402e-20)
(2.05313 -0.298116 0)
(2.37955 0.0409589 6.04853e-20)
(1.77438 -0.43406 0)
(1.45562 -0.817539 -1.00794e-19)
(1.7377 -0.792477 0)
(2.12658 -0.762825 4.45323e-19)
(1.50617 -0.305968 -9.4273e-22)
(2.04613 0.0929695 -1.06286e-20)
(2.47921 -0.376356 0)
(1.82005 -0.784943 0)
(1.59788 -0.675196 -5.12315e-19)
(2.2945 0.315904 -2.25666e-21)
(0.898821 -0.993645 3.82948e-20)
(0.863696 -0.414447 4.40117e-19)
(1.88267 -0.076852 0)
(1.5875 0.230609 -6.76078e-19)
(2.25936 0.0554808 -3.37791e-20)
(1.5892 -0.589949 -4.08128e-20)
(2.05569 0.124433 -1.16698e-20)
(2.05691 0.149374 0)
(1.18933 -0.333445 6.16794e-19)
(0.971283 0.178822 -6.70597e-19)
(3.77904 0.532728 1.03398e-20)
(1.87261 0.203494 -7.53438e-19)
(0.483916 -0.440052 4.27662e-20)
(-0.534641 0.299342 -1.58346e-18)
(1.60436 -0.270613 -1.21851e-20)
(2.04761 -0.0574555 -3.94423e-20)
(1.56118 0.472927 1.49103e-18)
(-0.443587 0.228607 7.27083e-21)
(0.418212 -0.568294 8.45941e-20)
(0.765168 -0.982852 8.80041e-20)
(1.79605 -0.0512848 3.75238e-20)
(2.39664 -0.210536 0)
(3.68752 -0.197676 2.49228e-18)
(1.1479 -0.560228 2.49167e-19)
(1.66788 -0.243034 2.39234e-19)
(-0.525762 0.234329 0)
(1.63605 -0.385853 -6.42771e-20)
(1.9888 0.0341463 6.71584e-22)
(2.01486 0.0386686 0)
(-2.3308 1.0506 9.34066e-19)
(1.27769 -1.14699 2.71001e-20)
(1.60592 0.4186 0)
(1.03563 -0.380631 0)
(1.62107 -0.522496 -5.95339e-20)
(1.60334 -0.665604 -1.38067e-20)
(2.7707 0.155499 1.78815e-19)
(0.161573 -0.368166 0)
(1.95441 -0.117795 -3.94228e-19)
(2.04637 -0.545722 -6.91736e-20)
(2.19577 -0.738591 2.57113e-20)
(1.21441 -0.466691 5.4562e-19)
(0.355138 -0.730027 -9.58392e-20)
(0.529712 -1.11435 8.30325e-20)
(3.65252 0.544191 -8.95467e-21)
(2.0765 -1.45269 0)
(2.4583 0.91207 -1.365e-18)
(1.58845 -0.624654 2.56268e-19)
(2.10235 2.03423 1.90886e-19)
(0.8528 0.604426 0)
(1.17036 -0.224841 -5.44009e-19)
(1.22085 -0.518221 -6.62169e-19)
(-0.0791438 -0.597423 1.7787e-19)
(-1.77128 2.0029 -1.51128e-18)
(2.45593 1.60151 0)
(-0.251556 0.0350635 -8.47149e-19)
(2.31542 0.438448 0)
(-0.697773 2.08316 -1.09043e-18)
(-0.132524 -0.481654 1.53272e-18)
(-1.07316 0.497047 0)
(0.113882 -0.775532 5.32473e-20)
(1.6746 -0.105657 -9.87318e-20)
(-1.63353 1.39474 6.02272e-19)
(1.68469 -0.657416 4.65285e-19)
(-0.408298 -0.196644 -6.02466e-19)
(1.1911 -0.546836 0)
(2.01405 0.0426914 1.31139e-19)
(1.24419 0.201488 0)
(2.22454 0.181998 -2.38973e-21)
(-0.445098 -0.355187 -1.54538e-18)
(0.561163 -0.217243 2.86333e-19)
(2.0531 0.155019 0)
(1.8927 -0.765836 -3.51487e-19)
(2.77885 -0.248961 1.27258e-19)
(0.317325 -1.14926 2.4694e-19)
(1.3357 -1.04804 0)
(0.350317 -1.06448 -2.19462e-19)
(3.5613 0.564105 -9.45826e-19)
(1.65261 0.22036 8.65303e-19)
(1.89124 -0.356239 0)
(2.12475 -0.108071 2.34339e-19)
(-0.59035 0.149304 1.0134e-18)
(-2.20366 1.72008 -2.97557e-19)
(2.19672 -0.586702 1.37369e-19)
(0.639055 -0.489067 0)
(1.74166 -0.25448 -3.01622e-20)
(1.99157 0.0932144 4.34578e-22)
(2.5321 -0.371168 1.10911e-19)
(2.20364 0.00483841 0)
(0.134737 -1.41467 2.34565e-19)
(1.67769 -0.470403 -2.34875e-22)
(1.28234 -0.374987 6.77439e-20)
(2.49186 0.306612 0)
(2.04548 -0.793845 -1.57753e-19)
(-0.239724 -0.429149 3.86054e-19)
(1.75826 -0.437232 -5.00526e-19)
(-0.0351715 0.272324 0)
(1.54346 -0.339938 -1.6801e-20)
(2.07149 -0.769375 1.29096e-19)
(0.319357 -0.471353 -9.59567e-20)
(1.55595 0.482113 0)
(-1.31026 0.994788 2.07481e-18)
(1.60925 -0.557998 0)
(-0.562283 -0.971059 7.61796e-19)
(1.63255 -0.768629 0)
(1.89414 -0.113951 -2.51581e-19)
(2.1144 -0.249536 -2.60047e-19)
(3.04518 1.27506 -8.59626e-19)
(1.58589 -0.49932 0)
(2.00078 -0.856295 -2.44764e-19)
(1.98177 0.0220513 0)
(2.3374 0.387802 0)
(2.08642 -0.859217 7.3639e-20)
(-0.30035 -1.07244 2.65255e-19)
(0.560837 -0.0442749 1.79881e-19)
(2.1416 -0.569005 -8.22596e-20)
(1.74927 0.341194 2.80192e-19)
(1.13721 -0.581092 -6.08463e-22)
(2.06483 0.222111 1.39581e-19)
(-2.02378 0.544093 -1.94886e-19)
(2.08677 -2.13128 0)
(2.44018 0.163775 0)
(-1.72963 0.362502 0)
(1.23008 -0.762112 8.49187e-20)
(1.17945 -0.399129 -3.83144e-19)
(1.516 0.144945 0)
(0.671085 -0.361869 7.14783e-20)
(2.3077 -0.1443 -1.79077e-19)
(0.670871 -0.453597 -3.33227e-20)
(1.39489 -0.501813 -1.24698e-19)
(2.17307 -0.863205 0)
(-1.95092 1.38649 1.79734e-18)
(-2.38697 1.05104 -2.2142e-18)
(-0.878688 0.401818 0)
(-0.81141 -0.102177 -1.0683e-18)
(1.97897 -0.00354066 -1.49019e-21)
(2.78688 0.0701212 2.3736e-20)
(1.95433 0.0415707 2.55097e-19)
(2.83266 0.970782 -3.90574e-19)
(2.41024 0.209875 8.42323e-21)
(-0.0282412 1.26921 0)
(1.94777 -0.771993 0)
(0.571563 -0.289088 6.75804e-20)
(-1.15074 1.965 0)
(1.62768 -0.339204 -6.49796e-20)
(2.16765 -0.769858 -2.35592e-19)
(0.99286 -0.466628 4.61475e-19)
(1.98531 -0.090463 -8.5574e-20)
(1.76395 0.352315 -2.77216e-19)
(1.54827 -0.613668 -2.52088e-19)
(1.63584 -0.641159 -4.67684e-19)
(1.60743 -0.61968 0)
(1.73537 -0.670946 4.43791e-19)
(1.94426 -0.0371459 0)
(2.51421 -0.400868 -5.16071e-21)
(2.03433 1.28259 7.63354e-21)
(1.48583 -0.374947 2.00651e-20)
(2.23643 -0.412801 -2.21606e-19)
(-0.867823 1.52192 -1.11241e-18)
(-2.05584 0.770702 0)
(1.5552 -0.997282 -3.87018e-20)
(0.938854 -1.97156 -5.38914e-19)
(2.04013 0.49397 -1.53201e-19)
(1.84162 -0.749051 4.10876e-19)
(2.03668 0.0189463 -4.16082e-21)
(-1.72241 1.74106 5.15335e-19)
(1.80721 -0.760026 -8.78837e-20)
(0.341029 0.13307 0)
(0.748845 -0.509073 9.37052e-20)
(1.76467 -0.371122 2.64806e-19)
(1.96916 0.018185 -2.31357e-22)
(1.19326 -0.522089 9.71606e-19)
(-0.296096 0.817762 -2.82037e-20)
(1.683 0.632345 0)
(1.21056 -0.721547 -3.24861e-20)
(0.131008 -1.28719 -2.39132e-20)
(1.08885 -0.320257 -7.31776e-19)
(1.27877 -0.713661 3.87955e-20)
(2.9529 0.810405 -3.92187e-19)
(2.07921 0.423087 4.32389e-21)
(0.958934 -0.3873 3.31251e-19)
(1.79553 -0.368995 0)
(2.55363 0.0807047 -1.53078e-19)
(2.23885 -0.117031 -4.20237e-21)
(3.11669 0.701412 -3.87197e-19)
(0.651966 1.1719 0)
(3.45262 0.795611 3.78509e-20)
(-0.781049 2.06164 1.05014e-18)
(1.63323 -0.70022 9.9252e-19)
(0.64303 0.462906 1.17766e-20)
(2.75007 0.397564 -1.29418e-18)
(-2.18322 1.57335 3.85792e-18)
(2.00163 -0.759363 4.10046e-19)
(2.07682 -0.0117156 -4.36676e-21)
(0.493352 -0.135708 -4.49633e-21)
(2.60893 -0.00584641 3.49988e-20)
(0.0876987 -0.098055 0)
(2.02039 0.051155 0)
(2.31699 0.403831 0)
(1.78253 -0.688645 -3.85677e-19)
(1.66568 -0.816845 9.53386e-20)
(-0.445168 0.309741 0)
(1.24139 -0.368205 -1.58586e-19)
(-0.584449 -0.461904 0)
(3.35047 -0.602841 0)
(-0.481926 0.871926 0)
(2.00293 0.0438094 0)
(-1.48077 1.24803 -6.57197e-19)
(-2.09992 0.683866 0)
(2.82632 -1.58 5.64104e-19)
(1.6457 0.0112507 0)
(1.98167 0.0946596 0)
(1.97333 0.199018 2.32017e-21)
(-2.06713 0.596039 0)
(1.96901 -1.06252 0)
(-0.128184 -0.146782 0)
(2.27257 0.0344953 2.50929e-20)
(2.23767 0.677786 0)
(2.17696 -0.846826 -9.54184e-21)
(1.11893 -0.856524 -3.8941e-20)
(-2.16329 1.19932 -6.29693e-19)
(2.02927 0.0934805 6.042e-19)
(-0.17814 -0.0465827 -2.4462e-20)
(1.10846 0.90638 -5.50663e-19)
(1.48885 0.762704 0)
(2.41144 -0.350882 7.83707e-21)
(1.68278 -0.200403 -2.3359e-19)
(1.62268 1.68442 1.28711e-19)
(1.84246 0.349922 3.87446e-19)
(0.779916 -0.27635 -6.95074e-19)
(1.52963 -0.665579 -3.895e-19)
(2.56243 -2.00103 9.10572e-20)
(1.4414 -1.14945 0)
(2.35696 -0.486764 2.8769e-21)
(1.56125 -1.08509 4.56449e-20)
(2.60019 0.222101 -8.3654e-20)
(-0.608043 -0.0632283 0)
(1.9029 0.0519117 -2.85248e-19)
(3.17197 0.652675 -1.11839e-18)
(1.3631 -0.549349 5.02978e-19)
(1.24754 -0.568508 -6.07151e-19)
(1.67802 -0.777777 0)
(1.787 -0.790816 0)
(2.48281 -1.51075 4.7556e-19)
(2.30413 -0.405868 -1.3856e-19)
(3.26056 0.146925 -6.10312e-19)
(1.83672 0.0306766 1.31083e-20)
(1.22709 -0.335695 -1.47249e-19)
(1.71418 -0.518907 4.24174e-19)
(2.40976 0.240897 0)
(2.37762 0.282782 2.75996e-20)
(-2.37974 1.42932 -3.06158e-18)
(1.79724 -1.19336 3.02189e-19)
(1.05461 -0.223194 -2.15942e-20)
(-0.467446 -0.34574 8.8908e-19)
(3.23571 0.192157 5.09635e-19)
(2.60545 0.693581 8.59462e-20)
(2.35409 0.561228 0)
(1.03439 -0.913877 0)
(2.23897 -0.848568 -2.25205e-21)
(1.1782 -0.248364 0)
(1.85538 -0.38919 1.76274e-19)
(1.6941 0.29086 4.87833e-19)
(1.66324 0.487497 -1.41272e-19)
(1.60784 -0.647408 1.01378e-18)
(1.99204 0.105662 -2.78458e-22)
(1.67852 -0.00768059 0)
(1.89568 -0.0427759 -4.86867e-21)
(-0.38184 0.643669 -8.20118e-19)
(2.15419 0.26515 0)
(2.60415 -0.396621 0)
(1.92144 -0.783387 1.50685e-19)
(1.95373 0.63231 2.05578e-19)
(1.10486 -0.169666 0)
(2.30243 -0.814028 1.69014e-21)
(2.47008 -0.0647602 1.54457e-19)
(2.30907 0.307123 1.63932e-20)
(1.77134 0.445976 4.15655e-19)
(1.10816 -0.673999 -3.67231e-20)
(1.54588 -0.479754 0)
(-0.508408 1.25444 -2.70534e-18)
(0.528238 -0.230858 1.03866e-18)
(2.02989 0.00824923 1.54344e-20)
(-0.807285 1.85302 -1.15808e-18)
(1.81704 -0.759517 2.90886e-20)
(2.57092 0.269393 2.25605e-19)
(2.22267 -2.15658 0)
(1.97665 0.164558 2.2704e-21)
(1.84889 0.0425439 8.84104e-20)
(2.23447 -0.00112601 -1.54213e-19)
(2.17112 0.393656 -9.93232e-20)
(2.22315 -0.804086 0)
(1.13605 -0.606758 0)
(2.40455 -0.0152333 0)
(2.31305 0.337776 -4.48496e-20)
(1.0664 -0.499221 7.2404e-19)
(2.46801 1.744 -1.11025e-19)
(1.48779 -0.0592424 0)
(-1.46862 0.295728 -2.3019e-19)
(1.16168 -0.815665 4.14829e-20)
(-1.10027 -0.7377 0)
(1.9202 0.29584 -1.25692e-19)
(1.67984 0.249117 -1.6379e-19)
(2.62505 -0.42697 -6.93652e-20)
(2.03934 0.122849 -8.02571e-21)
(0.682181 -0.239117 0)
(2.21745 0.189658 -1.37778e-19)
(2.02523 -0.42575 0)
(2.05366 -0.300239 9.14472e-21)
(1.00025 0.0439004 0)
(2.33366 0.859402 5.17197e-20)
(1.70689 -0.679348 -4.53621e-19)
(2.50025 0.854167 0)
(1.84804 -0.0719121 -4.395e-19)
(2.05192 0.133092 1.27743e-20)
(1.71368 -0.302029 0)
(1.14225 -0.542409 0)
(0.527209 0.197938 -8.80145e-20)
(2.52955 -0.211006 -1.16052e-20)
(1.44872 -0.94596 -4.75662e-20)
(0.604735 -0.353796 -2.08426e-20)
(2.45976 -0.111181 1.10446e-20)
(1.68283 0.21557 6.17252e-19)
(1.76074 0.386569 -1.79895e-21)
(2.0317 0.550984 0)
(3.48752 0.66344 5.12003e-19)
(1.72591 -0.790724 0)
(1.51795 -0.689883 -4.26258e-19)