/*--------------------------------*- C++ -*----------------------------------*\
| =========                 |                                                 |
| \\      /  F ield         | OpenFOAM: The Open Source CFD Toolbox           |
|  \\    /   O peration     | Version:  2306                                  |
|   \\  /    A nd           | Website:  www.openfoam.com                      |
|    \\/     M anipulation  |                                                 |
\*---------------------------------------------------------------------------*/
FoamFile
{
    version     2.0;
    format      ascii;
    arch        "LSB;label=32;scalar=64";
    class       volScalarField;
    location    "8.1";
    object      p;
}
// * * * * * * * * * * * * * * * * * * * * * * * * * * * * * * * * * * * * * //

dimensions      [0 2 -2 0 0 0 0];

internalField   nonuniform List<scalar> 
13486
(
7.8548
7.19069
2.31348
-13.4185
-0.991581
0.925612
-0.842241
1.41132
4.01316
4.30082
-15.7703
2.83165
8.16677
0.880278
0.728003
4.61199
-16.7266
-4.1859
3.13217
7.26382
-14.5142
8.01502
7.04904
-4.10068
4.1097
-3.71498
-15.3846
-0.0810971
0.0366944
0.651874
-15.7028
2.82928
-3.50726
2.47463
1.49245
-0.0460172
-1.1653
4.97452
-21.8839
4.62921
-8.20972
8.57645
0.582707
4.00838
3.88362
2.78084
-21.1742
0.0620244
-1.03702
-0.776588
5.3001
-1.46026
2.51539
5.25398
-6.36719
-0.565708
1.08984
-4.77153
-3.24683
-1.52161
-11.7332
-1.12097
-10.1916
-14.4699
-6.52193
-1.0686
-12.8914
8.40273
3.87466
-5.10651
-12.8687
-6.12183
5.06279
-13.7771
-0.537688
1.13001
-0.340739
0.478176
-24.201
-3.66927
-0.0116041
7.38114
-11.6538
2.42263
7.86111
5.43848
-10.8318
5.11279
5.95876
4.92168
3.24566
0.684285
7.25526
7.23608
3.69741
0.0538495
-15.1427
-11.9549
4.5459
-17.1158
0.0121265
1.11849
-12.1625
-3.8971
6.03743
-17.3298
5.72564
-16.4464
-23.2081
-0.942132
2.50849
2.64923
5.27403
0.998972
9.93539
2.99888
4.15221
2.6927
5.10854
-0.571321
-4.60646
-11.8038
4.22438
-17.7822
2.75025
-2.81096
2.76136
2.63857
3.15465
-5.42192
-2.70321
-20.4191
-12.4434
-13.7272
5.45693
5.42138
11.189
-0.61786
-0.560561
2.0282
-2.37274
2.55442
2.90594
-2.70929
1.22051
-10.0741
1.42022
8.66948
-1.01365
0.0231124
4.09801
-0.762751
-0.00483756
7.54117
2.87831
2.32278
-2.35005
-7.40561
3.97751
0.979005
-0.259875
3.99085
3.74294
8.4935
-1.5624
-0.00859748
1.53275
11.9656
1.54967
-13.7422
-12.3107
2.92165
4.63436
2.5626
-0.00866821
-7.65754
0.432251
-3.29115
5.7011
2.935
3.98125
0.999023
2.76222
-10.1023
2.59586
-0.12868
-0.00035532
1.19373
-7.43511
3.47746
-0.640615
1.95921
-1.3063
8.44914
1.9155
-15.8103
-6.04974
-0.296338
6.08964
0.236349
-15.9609
2.56877
4.98396
-4.45104
0.695886
2.38288
-4.46758
5.75522
-2.71203
2.57549
0.696723
-3.16667
7.1829
5.73683
0.925958
0.618742
0.489908
4.98356
6.64939
-4.938
-16.8661
-1.14188
2.2792
-0.344141
1.42751
7.11089
0.0353472
-17.1048
3.09968
-10.0704
3.96248
-15.0545
-2.59071
8.85905
-14.297
6.55657
1.99458
2.01689
6.67605
3.03529
-3.45881
4.55473
1.18349
5.99475
-24.8765
6.4403
3.25161
-1.67181
-14.1574
4.31982
-8.7918
10.1061
2.59853
-12.696
1.94858
-5.50151
2.93506
0.213035
-6.15884
-3.15248
6.52138
-29.1576
1.01132
-5.83474
-1.69324
-10.1951
3.29629
-15.9198
5.04008
-14.5142
6.93605
5.67058
0.316055
2.55997
7.12557
-1.2873
2.44701
-7.91509
-8.31295
1.22348
-7.55505
3.72502
5.80263
-7.1031
-10.839
-17.4457
-2.29945
2.98851
1.51578
5.09998
-14.182
-13.8102
3.31696
5.49285
2.20415
1.62202
-0.209024
2.5556
5.84715
-4.91849
3.62701
-4.51755
1.53031
2.70855
-1.31019
-4.22939
-17.3017
3.36103
-11.2765
-0.700979
-11.8421
-13.5019
1.27502
2.81448
-13.592
5.54124
-10.7465
5.99429
5.83195
3.04222
-0.94705
-25.0608
5.67873
7.33423
10.9556
3.2471
1.62648
3.6099
2.45095
1.24812
5.14614
0.2536
3.20193
8.30296
-1.59953
3.33034
10.1264
-0.807238
4.32714
-28.5102
3.3647
7.3021
0.945839
2.69217
-9.27075
0.0333036
3.01668
9.61632
-5.004
-16.195
3.33375
2.40683
2.5214
-14.4945
5.8089
-0.518674
-13.6607
2.76312
-10.4384
-2.78054
3.14572
2.90529
6.47296
5.68889
0.464328
-0.00117301
1.82719
-17.0959
7.34607
2.90156
0.500792
3.12896
1.32178
-8.11149
1.06051
5.38556
5.73565
-28.8706
-12.8953
-8.37156
4.9119
-0.18145
8.61814
7.18133
-17.8847
3.18672
1.88714
4.2462
-15.5039
-11.7937
7.02853
-0.0723095
3.51653
6.97947
8.69414
-0.158076
-13.2577
-8.42933
-15.8453
-2.46069
-15.6193
3.41137
4.39514
-17.6855
-0.411991
-9.69451
7.12585
-3.02705
3.32056
6.86538
4.16185
-0.96146
-0.537714
5.87875
5.70239
8.2803
-9.84081
-1.58852
-12.5463
3.02736
5.71215
3.45009
9.68866
4.47017
-0.212861
1.42402
2.55037
5.8171
-15.7032
1.88192
7.98291
4.45618
3.47989
1.44238
-2.81791
-2.01946
8.67503
-19.503
2.67194
8.27179
-16.6671
0.268222
-13.6568
-0.603431
-3.17151
5.65085
7.92219
8.09444
-8.56598
-0.791192
-9.18094
4.39449
6.09337
-0.698289
-2.43104
5.67753
-9.30958
-7.52059
-7.35018
-9.26789
1.62378
6.36419
-0.0156595
1.95554
-14.0892
5.76435
0.0556408
11.1245
7.18581
4.83655
0.806313
-0.082347
0.0177141
10.0213
4.50714
-0.420892
-0.130792
3.36176
-17.7214
2.50387
4.69298
-0.979003
-0.487714
7.03135
-4.39503
-16.1013
4.41712
-12.604
11.9241
4.4755
5.35317
6.06551
-6.91052
2.37199
9.86988
-2.27895
7.29148
-4.46298
2.87148
-16.3935
-2.91682
0.647301
-18.0223
6.18776
2.7943
-8.56397
0.0189017
0.781755
8.71649
5.61116
3.51999
2.98702
3.0843
-0.372223
-2.17847
5.39909
-12.1772
8.51131
0.212393
-4.7485
8.60877
-0.294916
-0.0945556
3.41523
-17.4014
-9.5977
3.21564
-1.30507
4.39705
7.23576
-11.8158
-2.67463
-11.9871
0.0409046
6.63294
2.88476
-9.89735
-11.8866
3.2186
-6.36521
1.77594
-7.0233
-2.22451
2.99632
8.17284
-12.0888
6.41184
-10.6477
-7.82965
-3.38619
3.42392
-9.62485
5.5911
2.46908
-10.3876
2.82187
5.15868
-3.11709
-11.4451
5.35991
6.94257
3.11197
7.99092
2.39479
4.59602
2.63186
5.92952
0.97755
6.63074
-14.793
3.26928
2.67326
3.55267
-1.06307
5.62137
-16.0452
2.57242
7.69691
7.89482
-14.4222
-2.17371
2.91683
2.13495
4.58781
5.20294
-5.3774
-14.2894
1.68485
7.49922
2.30707
2.06377
-5.5084
7.99279
-2.0524
1.05568
5.62586
0.58703
-2.19007
2.18091
1.3057
2.51685
-7.73798
3.34858
-3.20728
7.75227
3.01653
3.53678
3.64335
-7.36731
-2.37392
9.38665
2.99124
9.34222
-17.3079
5.21401
-0.0680343
-13.8189
-1.60869
4.30723
10.015
-7.45111
-0.438808
1.3617
-5.5777
4.18813
-3.58763
-0.113841
4.27658
-11.3015
-0.783355
-2.25175
1.2608
2.78963
6.00223
-0.0207604
8.74498
4.44044
-0.0418914
-8.04043
0.832363
3.09143
-11.8167
0.836254
-17.6359
6.46294
-0.00280108
1.13091
-5.62581
8.59537
0.0130173
3.32029
8.48803
5.35576
-9.26852
-12.2216
3.20902
1.97618
2.4172
1.11807
-13.4628
3.31596
4.59545
2.9218
4.10599
8.68257
1.06129
-11.3193
5.62077
4.12712
0.771865
1.65326
4.83914
3.63646
-9.6095
2.44455
-32.9539
2.35119
6.62554
2.98018
2.41957
2.44023
-9.546
3.39361
6.32741
0.893751
2.1951
4.44506
8.19349
-3.87243
-1.49743
9.29367
0.404251
-9.36972
5.3287
-1.95739
6.54639
1.15066
5.61245
-18.4499
-13.7944
-3.58744
-0.0114893
-16.37
4.06787
9.69977
0.928659
-8.32783
-0.206011
6.47557
-18.9439
3.5878
-6.49815
9.9107
-9.52897
3.41054
-0.884435
4.29312
5.9936
3.87866
-7.75439
-14.1842
8.42804
5.75203
-2.80187
4.60258
-7.86261
2.85934
1.7649
4.20107
-12.6343
3.67783
7.00964
0.227973
-7.90655
1.12185
-9.59296
0.573205
-7.94943
5.67274
6.37833
-13.8179
2.60151
-9.32205
-14.3466
2.55064
2.79498
2.99833
5.60303
1.36177
-2.71663
4.85359
-8.92409
-6.16272
-11.4649
-0.653629
-13.5538
-3.20872
-37.0688
-4.59335
2.33865
8.17966
-0.24987
-5.66384
8.51629
7.7919
-15.1474
-4.94662
3.54296
-16.0073
1.40696
-17.6822
1.77204
-0.577361
-16.1733
3.62936
4.61505
-0.395449
-7.79967
-3.61628
0.986086
2.93997
4.14052
3.52216
-12.1478
5.92253
7.54703
-26.6985
-4.90675
4.12982
-5.0221
3.74513
-25.9049
0.883343
-11.5482
1.12841
5.78075
9.38123
5.62118
-9.53412
1.06373
5.69259
7.44508
1.89363
3.87089
5.43919
8.67916
-0.030562
-38.7898
2.23589
4.24334
8.49632
2.59806
2.75869
3.48847
3.38872
2.7773
1.19186
-3.01543
5.73933
5.97779
4.67257
3.79125
-23.026
0.473468
3.03628
-0.383402
-3.55757
0.106485
1.22025
-5.9756
-10.1666
3.98799
0.891199
-14.0866
-15.6151
-2.46798
0.300906
-16.9717
-8.30693
5.97742
-17.2356
7.9682
-16.9542
-14.1471
4.60427
6.74372
-0.419568
1.88387
-6.51315
6.10941
-1.39611
-6.96697
-1.94857
-1.40515
-7.48743
5.63562
1.0724
4.22327
-28.5467
3.49025
-16.0017
1.09106
-0.479841
5.71095
-1.51745
-14.6334
-5.72233
7.91755
-15.3052
-11.3147
-19.6379
5.41815
-9.08539
-21.2655
2.77996
0.908449
-38.5279
1.5346
-6.10783
5.73431
5.65522
4.99237
3.64318
-7.80194
1.03208
4.97364
0.122556
4.79248
5.07839
-3.73894
-11.1705
2.78994
1.2998
-1.01317
6.38758
3.39972
4.03808
5.72419
-4.92852
3.009
9.85074
1.19608
-4.58217
4.64735
-5.73743
-13.9167
2.74891
-14.3182
5.38969
1.13093
0.433592
0.91638
-2.82032
5.48698
-9.24291
-0.00147626
5.73863
-7.25492
8.38382
6.52613
6.47252
2.86953
4.80183
2.9547
2.1414
0.957518
4.66352
-16.9168
3.49579
-17.1383
-0.290983
-5.67472
5.22427
-7.85183
-4.02449
-6.17929
-17.1892
-0.87819
5.8767
-0.259899
3.29322
-12.8512
5.71614
9.49658
-7.20204
-11.4237
4.19713
-8.12602
5.26439
0.247002
-23.9693
5.43204
2.19727
8.70707
3.49089
5.67431
1.04914
6.7006
1.43522
6.58793
0.180272
-3.27093
0.521084
-6.88876
3.47899
-28.4573
-14.1005
8.02863
5.71052
6.46603
7.12323
6.51144
5.75277
2.88833
3.86947
5.74516
5.76292
4.10773
0.0607667
-0.695877
-1.88752
2.99196
4.15084
-13.7848
10.0122
-2.78435
1.14204
9.40832
7.61731
3.6712
-5.71718
4.77261
3.98703
-8.62658
3.3279
-13.7762
-0.343952
5.66484
6.7641
-26.8685
4.00428
6.65992
-0.00461994
-0.231188
6.95195
3.12327
-0.843504
-12.9421
2.43786
-2.80103
5.71115
5.78096
-6.2338
-12.2323
-0.265119
2.98339
-4.24684
2.78213
8.24415
-3.76027
10.7407
5.28174
3.10977
5.85429
-9.09644
-12.6801
-9.65292
5.40977
-24.4192
-12.2506
-15.9578
3.81297
4.40982
-31.3421
-0.302844
-14.5042
0.57787
-16.9445
-26.4323
3.57409
2.96865
6.17088
5.82475
6.30302
4.4786
3.71055
-2.359
-1.53522
2.40392
-14.4385
2.17707
3.4721
-17.7626
-5.86003
-5.3628
3.22099
-6.08778
3.55273
3.95998
2.17246
-0.558526
2.73783
-1.1068
-2.1627
2.36342
-24.2283
4.02468
4.8349
5.50878
-13.7032
5.42377
1.032
7.31647
1.55503
3.98539
-5.04151
0.921898
8.67567
10.1428
4.19605
-1.91643
4.65295
3.1015
8.73765
0.853549
-2.85067
-6.28141
2.65916
-2.09092
-22.6766
5.69793
5.14947
-35.4998
-5.76535
1.11554
4.54816
9.85958
-9.01423
5.12743
-15.9302
2.61309
8.08977
4.53657
2.66107
-13.7844
4.58219
3.16243
10.5147
-2.89149
-0.659971
3.86417
2.4437
-9.57281
-13.724
-3.54904
6.4851
1.09671
-1.50158
7.83197
7.38096
3.07136
-7.20293
-2.61256
2.47364
4.48909
4.98581
6.5952
3.6463
-19.5223
7.11483
2.34735
-5.97117
1.48554
6.10484
5.454
-10.8349
-15.8904
0.00122782
5.29257
8.27056
3.4062
2.70386
-2.73279
9.9471
-25.1204
-2.30465
8.85621
5.34621
-16.3049
3.16676
-13.1129
0.841271
-1.1481
-24.1857
-35.6833
-8.35096
1.79721
0.82456
-16.0362
-16.4216
-15.8068
-1.25563
-15.7067
-8.71431
6.86717
5.68176
-2.50904
-15.2931
3.02638
2.38355
3.36412
10.6765
0.509985
-1.19022
5.35287
0.715554
-7.81515
1.14057
0.906671
5.15339
10.9577
0.0184372
4.5571
-4.23927
2.60385
0.970837
2.59912
-0.312855
7.22427
5.07708
5.96087
-16.8907
-2.66805
1.55907
3.73763
5.69173
3.50627
5.83405
10.0124
9.21943
0.793455
5.37146
6.92318
-1.07579
6.41243
-9.52028
9.07185
6.30469
1.78085
6.52626
3.87174
1.55461
2.08693
6.15759
-2.19632
3.87754
-0.400192
-0.352441
0.943186
5.31222
-5.67831
3.00889
8.60088
8.55354
1.72339
-13.7113
2.84146
-9.61833
4.51959
5.40193
7.30629
-13.7245
5.78579
3.64179
3.0483
3.79545
-5.73957
-13.1344
-6.70902
10.5365
1.27246
-1.30105
6.87547
0.95308
1.17736
3.81291
2.64857
4.98484
-4.23511
1.01683
3.54562
1.57241
0.323474
1.17598
9.53974
7.55912
5.13431
9.05618
8.27021
1.08265
-6.79393
-5.47011
-3.4358
8.59484
-17.9467
4.76688
3.25084
-8.53158
0.811212
5.76785
-5.33793
3.08874
4.77194
11.0892
-14.2083
3.0769
-16.2969
4.21052
2.34936
-14.6774
8.31372
6.29655
3.79232
5.40128
0.149592
-3.32332
-18.2013
9.20028
0.34088
10.4217
-12.9415
2.3398
-14.2753
-2.38646
-13.6901
3.03392
-7.25958
3.24153
-13.1389
3.14292
-13.5654
-0.00212442
-6.89127
-13.6263
-0.130462
-7.64505
-5.583
3.41241
-14.2742
-10.5513
3.23481
3.44873
8.16885
5.66227
2.78649
3.17879
12.1778
4.68548
-16.4024
-0.0120896
1.0741
5.04419
3.97704
7.24502
-2.38928
-2.29532
0.878573
-0.00404928
2.88547
7.33135
-13.7494
-8.67106
-17.8253
9.34403
-11.708
3.52836
6.4569
-14.49
2.44362
-7.97666
-13.8775
-12.9665
0.543065
4.6165
5.0242
6.36917
-7.52735
-13.7796
-0.72709
-26.0438
0.264434
3.45506
3.11696
-2.33272
-11.0177
-12.1438
-13.8712
-3.77393
7.81137
-14.6101
9.24232
-9.22371
-3.80629
2.45619
-22.0666
6.8378
2.55244
7.20383
-7.6189
-0.786907
-14.223
6.21345
-13.5335
4.80168
-35.8218
7.56212
7.14054
-39.9791
5.43359
8.57159
4.38827
5.6538
-8.13591
-12.03
2.74795
-1.62982
-6.88211
0.321954
-0.266349
2.36799
-15.8767
2.76973
0.753816
1.76615
0.39426
0.454
9.04153
2.57769
0.00531887
2.41972
5.6397
-4.48685
0.0920681
4.6109
-0.944047
2.20923
0.579158
3.31936
5.65145
5.52178
-10.4535
5.69322
6.49362
5.01405
1.11368
1.20085
2.68984
3.55317
-2.56107
-12.3574
-12.3395
-4.72438
-13.2071
0.0619479
-10.3003
0.934859
-13.7409
-1.2036
-6.44312
0.718727
-2.46677
3.32421
-10.8956
5.99728
12.1089
3.2374
-6.45984
3.69385
2.17414
2.8365
0.354002
0.497215
-6.22875
2.33653
6.27867
0.049221
8.29534
0.301267
5.50138
2.01407
2.82959
-14.4034
-1.98494
10.3208
-14.2248
5.69699
5.61521
7.19992
2.19904
6.27027
3.52039
-14.2824
4.20332
-14.536
-21.4902
6.38637
5.34993
-6.64342
2.01225
7.0014
-8.41336
-5.97909
0.879457
1.03507
5.28327
3.98028
6.07257
2.56618
4.15948
-8.13888
-0.238975
0.946949
6.01421
10.3534
-0.0594874
-26.7964
-13.9954
2.78361
2.4172
2.41143
-2.98829
-2.25514
2.41346
-16.146
3.04152
10.027
3.55758
-6.7968
-15.6298
-10.2947
-2.13127
-16.1383
-3.6243
-8.20437
7.00207
3.98333
-0.576053
9.65139
-0.0105536
-12.8658
-5.34448
-22.0332
4.49683
-12.3547
3.13431
3.90064
-7.01018
1.21237
-7.51562
-16.6597
-17.564
6.4238
-6.71185
-9.64211
-17.753
5.62891
5.68872
-11.4698
6.50134
5.50793
7.70617
8.49292
4.45058
2.56464
10.6212
-18.4271
3.219
-3.16692
-7.06895
7.1796
-13.1202
8.72544
3.74688
-3.90122
-12.9567
-17.9193
6.22457
-12.3534
-4.75058
1.97345
-1.66956
-6.22263
4.38964
2.44507
1.86283
9.33636
-13.7939
-3.56106
0.617175
3.17227
5.17273
-2.17352
11.9352
-13.5005
0.611218
4.85955
-3.51386
5.58275
4.24025
5.30866
4.34873
-5.82064
0.968088
4.52039
2.74229
-16.488
-0.236075
4.01454
5.85145
6.45879
-15.0574
2.28452
-2.81039
4.30632
2.74224
-6.39931
5.32678
-11.3527
5.30877
5.94572
-16.5751
8.08142
-4.97766
10.1948
4.7463
-5.06118
0.0071207
-0.83576
4.03984
6.1639
-4.28466
6.51538
5.75711
-1.96265
0.855591
2.6587
0.582448
-2.13266
-17.0303
-0.0535161
-17.8899
5.65448
-11.781
-8.35505
0.815706
6.89303
6.79105
4.55147
-11.9596
3.83549
2.47145
2.59464
4.05202
-19.0921
-14.6808
9.13164
-0.848969
-11.0493
-1.95329
-21.1692
-13.1593
5.77241
-16.7989
2.98441
6.1712
1.76561
5.83481
-9.23854
3.06512
9.68145
-7.91124
5.96931
2.88723
-13.822
3.20204
2.79288
0.24065
9.78611
5.09588
-12.5281
9.93845
6.20902
7.01922
-25.0163
-11.9239
-1.19275
-4.38824
-10.4046
-8.83019
-3.5687
-8.19238
3.02801
3.15517
0.449934
1.57638
-14.4286
0.443588
6.2268
-23.5827
3.19085
4.41063
5.66943
2.23669
-0.978608
-11.5425
-16.2928
-9.47853
2.45106
6.19977
-7.25607
7.65499
-8.85639
5.59167
-0.90316
-5.71418
-3.09191
5.11688
3.80353
2.68337
3.56461
2.35599
-4.67317
6.96465
7.40267
-2.52527
-8.15711
-6.75194
5.49719
1.6612
-3.73468
-7.00255
1.69249
4.56985
-1.81112
3.95299
1.16122
1.55087
3.78434
1.51273
-7.56527
-6.2238
7.23917
-10.5496
5.30782
0.0351744
5.32816
5.32326
4.1697
3.84095
-4.8085
-13.9237
-9.12637
-12.544
-12.1676
-4.60756
-24.7466
-17.7188
5.21546
1.37112
5.62344
-9.73381
-3.33912
-6.30697
-11.6622
5.24239
-13.2297
4.62231
2.81424
-6.26894
-11.9085
-10.373
3.56746
5.86757
-10.1623
2.63197
-13.0074
4.44324
-0.638186
2.87489
-9.12927
6.47198
3.19944
0.00599813
5.74688
4.35527
5.81378
3.88748
7.54454
-8.3678
0.608905
-7.2198
2.40663
4.41668
2.87984
-6.47883
-5.80399
-5.98036
1.21337
2.27579
-4.77141
9.84736
-9.00927
5.31259
3.34582
-5.20208
-0.468979
1.72288
-2.38121
2.13697
2.48045
5.66602
-7.34692
5.70806
-6.6468
-4.22477
-14.0598
2.42959
-6.05347
5.13014
9.59363
5.914
-1.77596
-6.09154
4.85451
-15.9141
-3.8664
-8.55259
4.33175
-3.32094
-5.5539
-6.10027
-0.342257
3.56523
2.7783
-10.8815
2.87714
6.31062
-0.533392
-5.57413
6.21004
-5.79008
-12.866
0.796615
0.616453
0.0610462
9.7404
-8.14693
3.15763
-3.27178
-1.46313
-0.434933
4.12376
2.41987
2.51441
-2.29296
-1.43112
2.07139
0.192134
6.59773
4.04479
2.3997
-8.7377
2.30211
9.92011
-14.7277
5.23231
5.13157
1.6121
1.31118
3.15695
-13.6222
1.89313
5.42327
4.37282
4.64459
-10.4877
6.24142
2.17261
8.06627
0.841854
5.51443
6.79879
5.30228
2.61872
-9.462
3.08678
-19.8061
1.3367
3.709
5.83331
2.02358
7.6879
2.58536
8.38068
-32.0732
5.45257
0.90819
3.39796
-14.155
5.58487
2.82647
3.61277
9.3748
5.79355
2.84585
-0.190526
3.29819
5.5299
-8.09491
-15.9203
3.65635
0.773986
6.75775
-11.1139
7.8957
2.76562
12.3498
8.72687
0.268446
-1.04236
-14.4807
1.89302
9.01024
1.82055
1.38053
3.25372
10.4153
4.00255
3.42658
9.54975
-1.56395
5.71518
3.17663
5.13264
1.18319
4.21027
5.06851
6.35084
-0.769866
-24.5641
3.05689
-9.91613
2.67429
-7.40612
-1.63465
7.90706
7.45601
0.343478
-3.60269
3.88076
5.67534
3.97147
3.83081
4.35404
-7.13062
-12.1211
-14.802
5.91653
-6.5751
-10.06
3.13658
1.86385
3.15318
-0.410205
9.95328
-18.6343
7.66091
-4.82888
9.72104
0.408872
3.17674
-2.84151
1.49208
4.13188
5.65143
-2.27186
-9.05504
-30.125
-10.9038
6.94225
0.0411051
1.66467
-20.1823
-7.87847
-5.17459
5.10995
-0.97975
0.104452
0.319834
5.71768
10.4135
-9.79196
1.8607
3.66369
-3.5858
3.84825
-34.074
-0.0620474
-8.27517
-13.4666
1.52146
-12.5198
-1.76572
0.174639
-8.02551
-6.43819
1.59807
4.95049
5.42155
5.30498
9.9062
-13.2517
10.2294
-12.1013
9.43234
-4.22314
-1.9361
9.42921
3.51903
-10.3368
2.82168
1.14462
3.83823
-18.1839
-17.376
2.58568
-0.112237
-1.10974
-0.00438623
2.03612
3.4274
5.11899
-5.95132
3.60274
-6.51267
3.01186
-19.3658
-9.73603
3.76629
-13.5395
-4.75586
8.45887
-7.23016
8.91865
3.12861
-13.5807
3.24225
-2.55019
-2.26167
5.24404
6.23751
10.5672
4.94904
5.54468
-0.66636
-13.8416
10.2279
10.4794
6.26625
-1.3792
-10.2566
-20.3803
3.94638
0.806353
2.55196
6.01523
-16.8721
-7.17078
-23.1028
9.24265
1.32644
2.15306
-14.5615
3.06033
3.94539
11.7154
10.9063
4.31727
2.47149
1.26461
-9.63112
3.68903
11.1823
0.56803
-2.03938
1.35088
0.0924369
2.65256
0.939174
0.414224
2.72507
1.97304
3.29297
0.184887
3.07037
6.98613
-5.5881
5.41973
-14.7593
0.162434
8.95732
-7.40152
3.77143
-4.8726
3.624
2.80648
-10.8696
-6.40552
0.786438
2.6276
11.9579
-14.6528
-9.86633
-5.16922
-1.46151
-1.9522
-5.14864
-11.8725
-7.5719
0.0363768
-9.88676
-2.2456
-1.49075
2.73887
2.45846
2.03277
11.5609
2.09673
2.99113
-2.42749
2.54888
-13.7404
2.24385
8.00879
5.44845
3.08067
-7.89413
4.94515
5.61804
-2.86342
-5.37309
-8.81354
8.03086
-0.561449
5.4897
1.79514
7.98233
1.91989
-14.7069
-3.06175
5.96704
0.541992
5.47443
-1.64126
10.7745
-12.5859
0.52223
-17.1668
3.93688
-11.382
-2.04014
-12.6337
2.56075
-3.56989
-9.32355
-15.9572
2.9362
2.91192
-2.59488
-2.32916
3.96828
-21.8919
3.42181
-12.6841
5.97107
10.0164
2.81508
-13.8954
3.58215
2.26129
3.67624
3.80817
0.0242208
-17.4077
-0.0169333
0.417889
-3.64033
1.57701
-1.15611
-11.5201
-12.7899
3.41042
5.71009
-2.22823
-10.7098
-0.0738618
-0.0400485
-8.0429
2.2026
-7.71588
-10.5871
6.28313
-10.5711
-1.92211
-2.62383
-16.2966
-11.1341
-13.0395
12.1061
2.67018
-1.18242
3.45544
9.70415
8.97817
-14.3655
3.08482
5.66068
-6.76581
-0.567688
9.85739
3.15862
1.58357
12.1085
0.204307
-4.6096
2.27456
8.284
5.87453
3.55834
7.73998
4.70738
0.673117
1.81425
3.72332
2.80209
-15.8351
9.61062
0.438618
-0.894231
0.199758
-1.99888
2.31915
-14.9886
2.51133
2.88263
4.22262
6.16357
4.37815
-16.0109
8.49536
9.26557
-9.65029
3.34618
-5.61754
-20.0042
3.69492
4.32121
-15.1489
-0.627248
0.724497
10.4838
-14.936
5.01161
5.39946
5.85445
1.13619
3.78325
-8.38018
0.538136
-1.75082
-6.76422
-26.0334
-6.04512
2.24485
-13.0866
6.11795
-10.2438
-16.8833
2.61528
-13.5783
-13.6757
-17.0055
4.47084
3.24782
-8.18401
3.6485
-5.507
2.70691
-11.5697
-5.45088
5.80276
-13.4093
9.99817
0.0610262
10.9022
-0.00915435
-8.34805
2.36118
5.36636
3.27018
-9.03861
3.38881
0.677852
2.28936
1.99773
12.262
5.89659
0.968644
-0.360101
1.24992
-6.70474
4.35442
-8.09301
4.35547
-15.2718
-13.7638
-12.9386
-4.55582
0.630523
-13.4051
4.49043
3.27122
8.92643
10.3519
-16.2137
-17.231
-2.12707
-2.97937
9.29756
-2.05014
-0.150486
3.58623
4.76546
-17.9421
-0.931242
1.79316
0.0573961
2.20679
-17.6544
-4.00294
-12.6477
-1.81635
-7.77186
0.320073
-7.70799
-6.88902
4.51031
-13.3973
-15.1685
1.35855
-2.5313
10.7395
0.0959137
5.53389
-1.70563
2.49062
1.41974
1.2331
3.01589
-12.0631
-12.2537
9.22845
5.72262
1.50992
-14.8067
11.3195
-12.7433
-12.0013
-15.0881
-0.284048
-11.122
-17.832
8.09013
1.24178
3.43537
3.44002
-13.4648
1.97803
-3.12214
3.38076
-8.3828
1.65972
3.09552
4.59576
-10.1338
-12.5251
-3.30566
0.621048
-3.78316
-3.26171
10.6744
4.56691
-4.7227
-0.673456
2.78282
8.63031
1.42511
-12.9416
0.0585964
7.01244
3.6489
-0.229008
5.47619
-9.16422
9.1149
0.564322
6.04884
-11.2181
0.21212
0.0935277
-15.121
-1.01668
3.20543
-13.7919
-10.3621
5.42152
-8.93682
1.27261
7.39734
5.00839
7.1989
5.49793
-1.65218
0.228657
1.78679
3.98116
0.0227978
5.48982
0.744698
9.1907
-12.7665
6.99359
-2.73625
9.90426
-13.4955
-1.52369
9.7514
-12.7941
0.311135
-15.5681
7.45262
9.5408
5.92277
-6.15569
5.6625
6.25107
-2.19499
3.7866
-16.3136
6.81659
-12.8809
-13.2643
-17.7611
-18.4205
6.15439
-2.07773
-25.004
2.61096
9.43102
-0.673137
0.919198
-19.5239
-2.23954
1.09796
-0.771416
5.56566
4.16756
-26.7377
10.9727
2.76549
8.1942
6.67149
2.19123
-0.615547
2.93098
-5.69198
1.20279
2.30925
2.03302
-0.112457
4.07089
-14.3904
9.65479
6.30336
2.44695
-9.86434
3.88905
-16.2009
4.53895
5.98724
2.72878
0.167476
5.96488
4.52236
-0.993141
-13.7651
0.702344
4.75901
9.14357
-13.8733
9.8853
10.9611
10.2225
-8.18519
6.06926
-10.185
5.6671
6.04365
7.15111
4.79108
7.26559
11.6546
5.4352
-13.5784
-7.94835
-12.1983
11.5553
2.81709
-10.2743
-10.8743
5.99687
8.57284
4.94302
2.58632
3.46526
8.09809
-8.93166
4.06955
-10.8421
3.67079
-8.2674
-5.23755
3.09091
-9.33269
-8.41527
-15.6508
0.973631
-12.9376
5.97216
0.636499
2.43549
4.24684
-12.3045
-1.29366
0.00321583
-10.6223
-11.8045
-13.1757
6.97057
8.25144
-12.986
4.72976
6.80391
7.62871
0.358044
-6.36446
4.78922
-15.5549
7.34136
-9.24174
7.15024
4.61402
2.26961
6.9099
3.56693
6.38046
2.61228
3.74004
0.508363
-13.8225
-20.8479
-6.24838
6.2597
-6.29713
-17.3443
-6.18554
8.807
6.06378
3.38022
2.20305
7.85574
-6.66805
4.08783
-24.8628
-0.24023
4.18519
-15.021
-15.7262
-2.92086
-16.6011
2.69652
-4.62798
-21.0782
-23.4764
-14.0413
3.29728
9.59068
10.6724
8.84542
-6.25569
4.11918
-11.2373
4.30276
8.34944
2.35147
6.17944
-5.89354
2.74879
0.125657
1.27446
6.82589
-1.79015
4.81993
-17.001
0.360969
-17.3338
6.20127
4.86587
5.66737
-14.7554
4.27031
-19.557
-23.0484
-20.9484
2.70466
9.35461
-8.57977
-1.19934
-10.6891
5.15455
5.59195
1.7958
4.36126
-16.453
8.00753
8.40899
-17.865
0.589054
7.30388
-15.4861
-11.4223
1.64306
6.94109
7.6244
-10.5781
0.200341
1.03742
9.44899
-27.1564
-5.12078
1.249
8.38342
1.61222
0.740648
-11.2933
6.39844
5.02805
6.67304
1.07962
-7.5411
4.87059
11.3581
-13.8144
1.80348
1.46563
-27.4043
1.519
2.83163
-9.95841
-0.120959
-13.9159
4.50163
-17.0861
-1.52808
6.09386
7.30513
4.33319
-5.13389
-4.45775
4.35511
-16.4539
-1.16301
-0.495825
2.69991
-25.8013
6.5871
4.56878
1.3627
3.70161
8.88012
-5.22201
1.22765
6.08273
-19.0816
4.4675
-0.314275
2.43915
-2.96791
5.08073
0.0713453
2.80736
4.21154
-7.63254
6.51831
-2.56328
3.85382
-14.1799
0.0326038
5.76108
-19.6122
10.1375
-14.1932
-17.9888
-11.7471
6.96416
4.61674
5.97922
-13.4615
8.33554
-7.90709
0.663124
1.6597
-12.8392
5.59274
2.86396
3.41977
1.93782
-12.0031
5.06483
-16.5142
-14.4716
0.00357297
-8.08398
-9.50979
2.50872
8.87012
-2.63329
-10.365
6.01212
-7.57359
7.59299
-3.31947
1.7727
4.73214
5.83441
2.71497
-13.8759
-1.36625
1.52405
2.82137
3.39522
-14.5514
-10.9461
1.4768
-1.65064
1.4561
11.7553
4.1952
5.60796
7.53981
2.45244
6.25565
-5.59596
-16.9274
-11.2186
5.67122
11.3534
4.37604
-1.87337
6.68102
2.22318
2.60956
-7.17202
1.38959
3.21294
10.1602
-4.83014
-1.41976
9.20343
6.79545
3.34772
4.77954
5.98448
3.52746
-16.1965
-6.61888
4.8621
-13.7388
-13.2924
5.42558
-9.1138
-10.4636
-3.81847
3.85063
4.04395
4.68343
1.24138
6.10496
6.24013
3.40099
4.92749
4.33004
6.44438
5.45801
-0.61108
2.58205
3.27351
6.74797
4.64908
-6.39545
2.42962
1.17858
-7.5165
8.81019
5.2759
0.160282
-8.18424
1.62682
5.39004
0.913374
3.02514
-10.929
2.56402
-10.0559
2.64762
-9.15584
0.79164
0.0114951
-5.68265
-7.38984
-15.3066
7.79907
-10.0767
-11.6786
-8.08741
9.05269
-11.6818
3.05822
2.63596
-20.6935
5.56541
5.54003
0.370987
7.05871
3.91727
1.68464
-12.7594
-7.84093
0.455806
6.8592
-2.55569
-10.9777
-27.6026
-4.52953
-11.9488
-8.80698
-9.80517
4.38098
3.33829
5.64818
5.6224
-4.77556
-27.4975
7.19456
5.70595
-10.4271
1.25298
-12.273
1.68315
1.57862
3.27377
5.23628
-7.90629
-10.9354
-10.5511
2.90598
-7.12744
-13.4962
2.59316
-6.31394
-16.1867
-23.1533
-7.20478
2.40949
-13.206
2.73809
-11.5082
5.75923
5.39281
2.14782
7.07813
-4.44498
8.76656
-0.69841
1.88577
-2.64892
4.83245
3.33596
-13.713
-14.5716
5.91631
7.01935
9.26924
-8.68766
-15.7851
-4.42146
4.49606
0.0319533
-15.0487
-2.76055
-17.1506
3.34113
-10.9491
0.367249
-3.90548
3.50499
8.10501
3.68706
-1.31497
-4.29307
-4.54081
-13.9386
7.83618
10.6366
-12.9939
4.96169
4.82871
0.0188977
-17.6728
6.88082
6.95268
-11.0772
-11.2476
-10.1777
-4.36356
-2.33522
-17.2298
-1.84477
4.83402
-16.1979
6.37474
-13.4856
-24.3116
5.61601
-1.95022
-18.1808
1.90873
5.4128
-19.1696
-0.548492
-26.2234
-13.8824
-17.6047
9.453
-15.1611
0.773074
-10.2723
5.60522
-18.4808
-8.05363
-8.20143
-14.471
0.185864
5.07666
0.0286308
-15.2626
4.21184
0.0199979
-3.98527
-12.2674
-16.2251
1.04384
2.65002
5.65109
-20.1473
7.35034
-4.31491
0.00078419
2.12585
-6.42406
-5.72274
-15.7835
-5.7559
3.04047
3.49861
-9.21046
0.60604
-2.72803
3.45772
-9.58288
5.8341
-11.8395
4.39349
2.5315
-11.9986
-8.3036
12.1483
-15.5867
-20.6167
-17.0488
-2.32081
5.67371
-9.85711
-8.64763
0.936442
-27.6724
-8.65909
-13.8885
-16.5681
3.71079
-24.9734
2.25478
-27.4208
1.43274
4.24805
2.13596
-0.90916
-0.105922
5.84984
-16.6584
-4.44432
6.54187
2.37311
-17.3532
0.530673
-11.1404
-2.32781
0.280192
6.086
-13.2822
3.6897
-15.6671
-9.70597
-21.0412
-24.1087
-12.0028
-1.22908
-5.7818
5.54093
3.49969
-9.60794
2.65261
-4.61594
6.97582
7.24905
-21.3273
2.11046
5.50382
5.64385
0.878729
-5.05791
-7.07583
-7.0671
5.66958
2.95134
-2.79177
-15.2375
0.277596
6.93624
0.808893
-3.48718
1.86488
6.56096
-3.89374
-4.28931
-14.8344
5.27244
2.30665
-7.82061
7.4381
6.76545
-9.61733
-6.20961
5.89289
3.92151
1.27821
2.02466
-0.572521
-5.98568
-8.50356
-5.98563
6.93274
3.65539
4.50285
-0.48938
-18.3539
-7.13592
4.44349
-6.27201
0.189658
5.97508
6.66302
-10.9934
5.38768
2.47222
3.87838
4.49565
1.10245
4.74995
-0.0205138
5.79365
4.46858
5.88106
-9.09069
6.61406
5.8713
5.39903
4.74398
-4.39506
1.64069
0.888997
-1.28763
6.11635
8.34815
-6.55603
8.48732
-5.683
-14.079
4.78689
5.59751
-7.03463
1.25889
-15.9278
-6.25495
-1.97758
-14.0283
-7.50213
0.347334
3.92943
10.6804
5.26667
-4.97464
-14.975
4.11964
3.93272
-13.826
-6.11604
-4.77923
-4.21711
-13.801
-13.9423
5.56676
-38.6367
3.78269
0.468401
0.448228
-7.79547
0.753577
3.00467
-0.0283092
5.32722
-0.379397
-3.12068
-2.79572
-7.2441
3.26686
4.10391
3.58344
-0.197638
4.8196
-0.971765
3.51179
-0.19453
5.56286
4.03656
8.24298
5.64581
-5.18439
0.320671
-0.387279
-4.73087
-8.83763
-11.7726
-2.43233
-6.4099
10.9312
2.39191
-5.31511
7.26828
-10.2088
-1.30011
-17.5773
-8.72904
-14.9877
-3.6528
-3.13903
3.11057
-1.8884
-4.98631
-8.94026
-11.3319
-1.9417
-14.6771
-0.204982
5.05967
-12.1907
-13.015
-3.56334
2.87061
-2.60456
5.7346
7.54675
-5.12195
5.84266
1.60772
4.78631
9.08654
-9.437
4.43796
3.27591
3.6579
6.83156
0.558965
4.76905
-15.0757
5.49902
7.53906
-13.2752
-25.5217
-3.51357
-2.02638
4.00098
-4.59858
-6.46654
-5.51695
3.54173
-15.4108
2.78936
2.8342
5.41985
2.62088
-13.6089
-9.669
-37.6734
-6.44539
8.39104
10.0133
6.15108
11.2909
5.75693
6.00897
4.05433
2.70523
6.20734
-3.46203
4.77866
0.385068
-13.8659
7.73381
4.03619
-2.54183
9.76865
1.69721
-5.15815
4.04343
3.68175
6.70533
-19.0277
5.61505
9.47153
-9.82385
-13.8736
-5.02746
3.52927
-11.6937
5.6571
1.10032
6.87174
5.65985
-12.1541
5.56065
-0.585807
-12.75
-13.1595
-8.24382
4.95119
-2.52551
5.7649
2.01299
-15.9153
2.17238
-8.08694
-2.56528
-5.20269
-17.5701
5.50218
2.54568
-17.5115
-0.327643
4.74312
2.94099
-6.13973
3.95874
-11.3418
3.90249
-18.8738
4.57614
2.82766
-1.51466
4.07531
4.83467
3.36691
3.04869
-16.8758
10.9937
-1.89015
-24.374
4.89515
4.05631
-17.0768
-2.15086
-9.40816
0.503932
1.43806
-1.87991
1.23272
0.674192
11.3314
-36.6905
-10.4567
2.29021
0.387099
0.558
2.99846
4.33612
4.75866
-12.2001
3.42698
-15.5887
0.578523
3.20804
4.03729
4.7938
0.0633442
0.0696441
1.37315
5.80432
3.47425
2.59001
-20.0646
-0.613568
-0.185278
5.67046
-22.2015
2.2603
-21.4907
4.79845
-16.8004
0.617528
6.36798
5.71597
4.14294
-9.08551
-12.5988
5.91323
-2.78562
6.62577
4.11584
-6.22256
5.48264
2.92839
2.97305
2.6319
0.69818
-2.52801
4.81472
-10.3618
6.67185
3.15829
11.4459
1.54625
2.94393
6.00586
2.24977
2.94438
5.71011
2.23663
3.0556
-3.0413
-30.7995
4.54623
3.14553
1.09818
-6.29938
-0.195487
-7.33166
-17.3698
-0.00408783
5.44022
1.29008
5.11145
1.36981
9.63789
7.91196
3.42444
2.78076
3.3034
-17.8169
5.88732
3.67356
1.98082
2.84596
6.33892
5.01364
-7.02148
-6.38499
-6.01191
3.25376
1.34936
-4.91849
5.82811
-4.52987
2.87428
-9.73406
4.78553
3.83133
-8.14553
3.6622
5.45681
4.02795
4.28712
5.81005
2.62627
0.257014
4.43346
1.65621
8.02719
-13.038
6.97855
5.09813
-16.754
-4.13069
0.104227
0.699603
-10.9378
-16.0187
5.62692
7.55855
6.38352
7.29969
4.75109
6.60179
3.62191
2.56488
3.79853
2.4017
2.20415
4.17126
0.671278
8.51656
2.97699
-27.528
4.91594
7.62403
8.5407
-11.0939
2.06236
-4.64406
-13.9621
3.96849
2.5865
-11.8793
4.11265
9.38272
-16.9415
-11.0503
-9.35059
3.7142
2.18648
2.38545
3.75313
3.51127
-14.7106
1.88206
-21.7385
-10.7583
5.66214