/*--------------------------------*- C++ -*----------------------------------*\
| =========                 |                                                 |
| \\      /  F ield         | OpenFOAM: The Open Source CFD Toolbox           |
|  \\    /   O peration     | Version:  2306                                  |
|   \\  /    A nd           | Website:  www.openfoam.com                      |
|    \\/     M anipulation  |                                                 |
\*---------------------------------------------------------------------------*/
FoamFile
{
    version     2.0;
    format      ascii;
    arch        "LSB;label=32;scalar=64";
    class       surfaceScalarField;
    location    "8.1";
    object      phi;
}
// * * * * * * * * * * * * * * * * * * * * * * * * * * * * * * * * * * * * * //

dimensions      [0 3 -1 0 0 0 0];

oriented        oriented;

internalField   nonuniform List<scalar> 
20045
(
0.530867
-0.60432
0.0734528
-1.11831
0.439149
0.679163
0.244182
1.79691
-2.04109
-0.38642
0.458482
-0.0720621
-0.921327
0.833265
0.0880622
-0.526193
2.11292
-1.58672
-0.90725
0.275523
0.631727
0.0616594
0.479783
-0.541442
0.501712
0.447855
-0.949568
-0.740673
-0.17323
0.913903
0.334635
-0.314239
-0.0203966
2.36578
-1.18716
-1.17862
0.408709
-0.404278
-0.00443136
-1.24199
1.00444
0.237547
-0.254341
0.998496
-0.744155
-1.05984
0.31917
0.0725523
0.111197
-0.183749
1.25056
-1.74332
0.492755
-1.73313
2.49961
-0.766477
-0.764828
0.00217914
0.762649
-0.507762
0.491357
0.016404
0.144819
0.26389
-0.192289
-0.926023
0.582484
0.899902
-1.48239
0.85437
0.139301
-0.993672
-0.974255
1.55674
-0.205141
0.203633
0.00150879
-1.09973
2.09818
-0.998451
1.72525
0.0287094
-1.75396
-1.99657
1.07133
0.925239
0.00130073
0.137892
-0.139193
1.37899
-0.936537
-0.442457
-0.815462
1.47092
-0.655455
2.07705
-1.20121
-0.875839
-0.611738
0.673398
1.77405
-0.845507
-0.928544
0.869549
1.3308
-2.20035
-0.0703421
0.425843
-0.3555
-2.79768
-0.779967
3.57765
0.640535
0.530372
-1.17091
-0.00945448
0.532458
-0.523003
0.176146
-0.248259
0.0721136
2.57554
-2.55359
-0.0219573
1.45108
-0.492994
-0.958088
0.638259
0.812824
1.13993
1.22584
-0.12165
0.416112
-0.294461
0.981641
0.69042
-1.67206
2.35339
-1.48384
0.11835
1.75578
-1.87413
1.3113
-2.20088
0.889571
3.74307
-2.9113
-0.831776
-1.31681
-0.963884
2.2807
-0.0963979
-0.334548
0.430945
2.14101
-1.30559
-0.83542
-0.714807
-0.20652
0.464948
0.997781
-1.46273
4.01246
-0.59479
-3.41767
0.793832
-1.60929
1.33789
-1.67988
0.341984
0.252942
-0.138559
-0.114383
-0.298831
1.63672
0.764076
-1.76281
0.998735
-0.46227
-0.0454912
1.06077
0.298439
-1.35921
0.747837
1.40465
-2.15248
0.0880015
-0.414441
0.32644
-0.690045
0.111515
0.578529
0.901674
-0.399961
0.824748
-0.938696
0.113948
0.270818
-0.182816
0.742123
1.39889
-0.27849
-1.05555
1.33404
0.0507842
-0.109676
0.0588915
1.0309
0.635608
-1.66651
1.27157
-0.806626
-1.0245
2.0554
0.484952
-0.739292
-0.165087
-0.202729
0.367815
0.614358
-0.483111
-0.131248
0.922953
1.07047
-1.99342
0.901269
-0.756723
-0.144546
1.52566
-0.761579
-2.31557
0.379087
1.93648
-0.00477673
0.535644
-0.436818
0.57554
-0.138722
2.64321
-1.23636
-1.40684
-1.59819
0.0597753
1.53841
1.01885
0.195308
-1.21416
-0.862447
0.72454
0.137906
-1.34466
-0.403795
1.74845
0.796202
-0.164049
-0.632152
0.430439
-0.640953
0.210515
-0.216988
-0.80849
1.02548
0.637765
-0.679455
0.0416899
1.21468
0.514882
-1.72957
-0.150776
-0.0543657
0.044621
0.342921
-0.387542
1.27641
-0.635876
0.0436559
0.161667
-0.205323
1.20687
0.56718
-0.498735
-0.74325
0.458549
-0.413928
-0.221615
4.23408
0.0811548
-0.517973
-0.229591
0.273247
0.440538
1.21226
-1.6528
3.38869
-1.79937
-1.58932
-0.286737
-0.505597
0.434131
0.0714656
-0.263447
0.334644
-0.0711973
1.07338
-0.79983
-0.273552
-0.540959
0.444561
1.51547
-1.93765
0.42218
-0.230502
0.368341
-0.137839
0.0551192
-0.323154
0.268034
1.11798
-0.26361
1.57262
0.504433
-1.21116
0.932674
1.26349
-2.6892
1.42571
1.74287
-0.492311
-0.00593861
0.258881
-0.838166
0.683217
0.15495
0.591006
0.112961
-0.63931
0.52635
2.62191
1.12117
1.13528
-1.47621
0.340927
1.58989
0.173271
-1.76316
-1.93304
1.58387
0.34917
-0.506326
-1.05504
1.56136
4.05659
-1.43469
-0.0507391
0.466851
0.185773
-0.164342
-0.0214309
-0.0431463
0.0210963
0.0220499
1.14647
0.796635
-1.9431
1.22637
-1.12767
-0.0987041
-0.315519
0.123478
0.192041
-0.362522
-0.143075
2.89876
-1.63528
-0.70692
0.740873
-0.0339535
1.20727
-2.00321
0.79594
0.393327
-1.71014
1.21801
0.408744
-1.62675
0.510972
0.103387
2.23766
-0.309
-1.92866
0.45004
-1.50229
1.05225
2.0559
-1.95379
-0.102109
-0.283958
0.396542
-0.112584
0.032122
1.91067
-1.9428
1.85765
-0.1324
-1.64723
0.0488236
1.5984
-0.986359
0.779065
0.207294
1.75438
-0.831425
0.276119
0.62515
-1.26729
1.5152
-0.247911
-1.54488
1.78906
0.0193545
-0.411052
0.391698
-0.317009
0.0895129
0.227496
-0.0382094
-0.4073
0.44551
0.886901
-0.0199906
-0.86691
2.57642
-1.23485
-1.34157
-0.484252
0.446042
0.180578
-0.901783
0.721206
0.211912
-0.0357668
-3.13291
-0.959906
1.29488
-0.33497
-1.27713
0.988544
0.288586
-0.024161
-0.0949195
0.119081
0.235521
1.82038
-0.0396596
-0.00348663
-0.0143199
0.200093
-1.37692
0.109635
-1.47564
1.86065
-0.385011
-1.34575
1.52753
-0.181782
-1.14755
-0.726138
1.87369
0.333928
-0.366095
0.0321668
0.809369
-0.917388
0.108018
1.55271
0.239674
-1.79238
0.0126691
-1.50105
1.48838
-0.70897
1.92698
0.412661
-1.14462
0.731956
-0.516089
2.03156
-1.67426
1.09165
0.582614
0.0251359
-0.0357933
0.0106574
0.734452
-2.20047
1.46602
-1.69574
0.596009
-1.34046
-0.488892
1.85536
-1.13086
-0.724505
-0.649467
0.640012
0.322027
-0.342163
0.0201359
-1.10657
-1.30366
2.41023
-1.65221
2.42829
-0.776083
3.57251
-1.37569
-2.19681
0.0612644
-0.440504
0.37924
0.600454
-2.28231
1.68186
0.341019
-0.00638394
-1.40306
0.896734
-1.30847
-0.444445
1.75291
0.229435
0.0607016
-0.290137
0.177598
-1.1375
-0.029699
0.0309997
1.69428
-0.104397
-0.339398
0.269055
-0.359566
0.448271
-0.0887051
-0.238071
1.12497
-1.68948
2.28994
0.314463
0.476908
-0.79137
-1.43716
0.301208
1.13596
2.16011
1.41239
2.32565
-1.5912
1.29038
-2.16044
0.870067
0.450151
-1.58601
1.13586
0.106396
-0.871224
-0.98429
1.42483
1.29036
-1.81655
0.914852
-1.19793
0.283075
-2.19155
1.27231
0.919243
-0.116912
-0.745535
0.375604
0.324762
-0.700365
1.3105
-0.358415
-0.952088
0.234219
-1.315
1.34712
-0.541078
-0.165842
1.26795
2.4428
-2.06145
-0.381345
-0.0254882
-0.294958
0.320447
1.31718
0.164306
-1.48149
0.0833222
0.344485
-0.427807
-0.101896
0.644114
-0.542218
1.81091
0.832303
1.18776
-0.775098
-0.17659
0.741931
-0.565341
1.66949
-0.462216
0.237334
-0.0184444
-0.21889
-0.422936
0.00550379
0.417432
-0.268652
0.277894
-0.00924209
1.81624
-1.18595
-0.630291
0.555206
-2.20742
-0.295537
0.0268845
-1.78555
0.574844
1.2107
2.06428
-0.593358
0.482396
-1.95803
2.93089
-1.5294
-1.40149
-0.0333593
0.262794
0.23606
2.1301
-2.36616
-1.22309
0.24403
0.979061
-1.96473
1.9511
0.0136219
0.492357
-1.54801
1.05565
-0.00585398
-0.020579
0.026433
-0.955448
1.22559
-0.270146
0.0771061
0.262197
-0.339303
-0.339127
0.108625
-0.313714
0.0502664
-2.95364
1.15426
0.871739
-0.572066
-0.299673
-0.0418941
-0.286902
0.328797
0.721006
0.657987
1.16271
-0.247854
-0.435128
0.118119
1.25756
0.806714
-1.0303
0.0783327
0.951967
-1.93979
2.17586
0.75823
0.240266
0.175744
-0.217638
-0.60073
-0.0784656
0.679196
-0.0271761
0.052312
-0.847489
0.745593
0.196511
-0.274527
0.078016
-1.82752
1.7616
0.0659142
-2.75673
2.61808
0.138656
-0.345555
-0.277565
0.62312
1.52175
-1.66231
0.140556
-1.36229
-0.829265
2.73657
-1.82214
-0.914438
-0.230011
0.204523
1.71746
-1.2251
0.185334
0.686404
-1.19134
-0.360465
1.55181
0.726276
1.92894
-2.65522
2.12776
0.0393619
-2.16712
-1.58178
0.39044
1.70002
-0.997443
-0.702576
-0.337699
1.57694
-1.23925
1.04182
-1.49654
0.454724
0.288271
-0.201416
-0.0868554
0.306813
-0.0300153
-0.276798
2.26191
-1.78148
-0.480434
-1.01346
-0.919576
1.80508
0.637721
-1.67181
-0.15571
0.0476377
-0.470574
0.763821
-0.0540918
-0.70973
0.00777129
0.314256
-1.07105
2.21752
0.654295
1.16195
2.01013
-1.24316
-0.766966
-1.60963
1.16518
1.67174
-2.53713
0.865392
-1.24571
-0.0995396
1.34525
-0.599457
-0.263878
0.863336
0.887828
-0.70725
-0.605355
0.919818
0.173964
-0.0219388
-0.914598
-1.2678
2.8362
-1.5684
-0.426748
0.067182
-0.464394
0.287804
0.216921
-2.18165
2.29672
-0.48581
1.24682
-0.483062
0.651709
-0.168648
-0.00334708
-0.383073
-0.979175
0.669529
0.309646
0.579648
0.493733
-0.458911
1.09842
-0.63951
0.963138
0.263231
0.538805
0.225017
1.16225
-0.143394
-0.445802
-0.991362
1.33368
-1.05112
-0.282561
2.07864
-0.585249
1.1322
-0.546949
1.58223
-1.72774
0.14551
-0.924634
0.707646
-0.268947
-0.046572
-0.110777
-1.23388
0.614955
-1.11744
0.502489
0.85581
0.844208
1.67616
-2.27902
0.602859
0.505348
-1.10452
0.599173
-1.9471
0.348909
0.045771
0.750431
-0.956524
1.75698
-0.800452
-0.468979
0.646442
-0.177463
-0.866289
-0.0409606
-0.271486
-0.485297
0.756783
0.227584
0.00103547
-0.22862
-0.610168
-0.376191
0.728701
0.899321
-1.62802
-0.138091
-1.8017
0.486189
-0.905914
-0.0187202
0.966484
-0.461136
-1.34211
-0.332158
0.196798
-0.273706
0.0769077
1.72335
-0.741704
-0.938051
1.52498
-0.586925
-0.268581
0.317981
-0.0494003
1.41251
-0.102002
-0.575256
0.521165
-1.03161
1.88273
-0.851122
1.51378
-2.35592
0.842144
1.12002
1.61655
0.170056
-0.124149
-0.0459073
0.194549
-1.44026
1.17037
-1.73097
0.5606
0.120651
-0.0698672
-0.1641
1.29938
1.87361
0.423106
-1.0706
1.52075
0.343528
-2.07666
-1.8942
0.867496
1.02671
1.32119
-0.24956
-1.07163
1.87464
-0.352892
-0.724263
-0.92454
-0.796668
0.824173
-0.307422
-0.145662
0.453084
0.652461
-0.650282
-1.46985
1.30575
1.99299
0.582555
-1.60481
0.66676
2.41815
-0.613074
-0.342292
0.306095
0.0361964
-0.0386405
-1.16092
1.19956
-1.79962
0.330428
1.4692
1.59796
-1.59796
0.273636
-0.106549
-0.167087
0.830454
-1.28936
1.23975
-0.758282
-0.48147
-1.88172
1.96213
-0.0804185
0.717577
-0.0739534
-0.643623
0.56777
-0.202129
-0.365641
0.26861
-0.614165
-0.358161
0.956603
-0.771269
-1.62577
1.93455
-0.308778
-0.578472
1.30717
-0.00547892
-0.0078167
0.0132956
0.200177
-0.389489
0.189313
-0.764025
0.870421
1.96702
-1.62468
-0.342343
-0.193651
-1.02578
1.21943
-0.514007
0.546663
-0.0326561
0.312315
-0.581394
0.269079
-2.59349
1.49123
1.10226
0.346614
0.111868
-0.356697
0.0144056
0.0520333
0.0388528
-0.0908861
0.945554
1.31636
-0.0523117
0.0468327
-0.171954
-0.494126
0.66608
-1.0145
1.62156
-0.607056
0.0663589
0.305648
-0.372007
0.77103
-0.495507
1.93687
0.995504
-2.93237
0.0683046
-0.876794
0.0640528
1.48865
0.878937
0.608759
-1.4877
0.977587
-0.810296
-0.167291
-2.02899
0.381769
-0.769639
0.362991
0.406648
0.827558
0.999184
-1.82674
-1.26842
1.16888
0.120264
-1.81482
1.69455
-0.296214
0.357479
0.0175308
-0.0212422
0.00371146
0.0752765
-0.676007
0.0140373
0.108017
-0.122054
-1.37598
-0.409567
1.22493
0.119498
-0.0318297
-0.0876681
-0.293847
0.0252654
0.314754
-1.40006
1.0853
0.366083
1.06361
-1.42969
0.612201
-1.4085
1.68532
-0.276812
-1.44315
1.10545
0.0772427
0.12639
-0.794407
-0.482723
-0.561709
0.131872
0.429837
-1.75516
0.740652
1.30793
-1.50158
0.716742
1.70141
-0.668954
0.638883
0.0300713
0.721699
-1.69411
0.972409
0.357798
-0.580589
0.222791
-0.688574
0.113318
-1.29294
-0.0528153
-0.681772
-0.00827284
0.161964
0.248306
-0.410271
0.604739
0.0369472
-0.0870478
0.0501005
1.71134
-0.883778
-1.6919
0.556006
1.1359
0.533522
0.402431
-0.935953
-0.717304
0.42109
-0.488767
-0.0729428
0.697638
0.542115
-1.42982
-1.25938
0.287198
-0.0903993
1.21408
0.858681
0.303568
-1.71447
1.83282
0.129367
-0.818538
0.689171
-0.180006
-1.64858
1.82858
-0.115136
0.126236
-0.0111001
0.533091
-0.199163
-0.485385
1.5272
1.59572
-1.14568
-0.768768
-0.210407
-0.0127225
-0.842488
0.855211
0.714011
-1.86156
-0.161666
-0.951235
1.1129
-0.0695574
0.483101
-0.413544
-1.29621
0.080571
1.21564
1.75383
-1.06341
-0.0163017
0.203394
-0.187092
-0.464321
-0.0496862
0.385521
0.728058
-1.11358
0.263436
-0.325158
0.0617217
1.03586
0.577867
-1.61373
-0.832972
2.04766
0.217847
0.0097372
-0.302329
-1.64087
1.94319
1.46977
1.42899
1.72406
-1.35797
-0.750344
0.478858
0.266602
0.0402113
-0.779351
2.45109
0.255733
-1.5224
1.26667
1.69932
-0.334523
-1.36479
-0.819571
1.34234
-0.522768
0.785297
-0.663444
-0.935827
1.59927
-0.139786
0.0767548
0.0630308
-0.558041
-0.977457
1.5355
-0.160894
0.361071
0.106381
-0.130542
1.01663
-1.57467
-1.40535
-0.426292
1.83164
-0.0999085
-0.982859
1.08277
-0.190351
2.11853
-2.20136
0.0828215
0.446793
-0.247793
-0.198999
-0.0244265
-0.644527
0.512435
0.513043
-0.657109
0.0576519
-1.61363
2.03133
-0.417699
-0.0145825
0.211094
1.11799
-0.607018
-1.96533
-0.588257
-0.0258717
0.331336
-0.305464
1.07527
-0.216588
-0.440619
0.483626
-0.0430069
0.323657
-0.246551
-2.09663
0.756175
1.79632
0.316596
-0.213495
0.525811
-0.439357
0.972879
0.837835
0.118768
-0.453454
0.0128346
-0.211123
-1.25872
0.475306
0.496979
-0.477624
-1.84025
0.0406286
-0.000282606
0.453379
-0.0955811
-2.13349
0.889679
1.24382
0.794326
0.0304216
0.424343
-0.148446
-0.275896
0.607012
-0.553957
-0.0530546
-1.32323
0.477728
-2.10182
1.07022
0.00330801
-0.0504635
0.0471554
0.0127696
0.136443
-0.149213
2.10612
-0.0265337
-2.07958
0.375506
0.0242179
-0.399724
-0.28559
-0.552577
0.491384
-0.0609455
0.0503707
-0.0589092
0.00853849
0.819642
-0.0803405
-0.739302
-0.0309398
0.0813105
1.59153
-1.07664
-0.0582158
-0.313745
0.371961
-2.04516
0.431526
-0.0182625
0.010507
0.448042
-0.0969961
0.216494
-0.122171
-0.312957
0.502599
0.348015
-0.850614
1.33941
-0.278642
0.77965
-0.650283
0.453651
-0.398531
0.188783
-0.657762
-0.0310789
0.636061
-0.604982
1.10268
-0.114113
-0.988565
-1.12488
-0.377413
-0.30726
0.0543874
0.252872
0.693148
-0.822025
0.128877
2.18817
-0.0607862
-2.12739
-0.221809
-0.0742441
0.296053
-0.988971
1.345
-0.356026
1.04048
1.20322
-2.2437
-0.245881
0.107322
-0.56321
0.900354
-0.337144
0.465869
0.193095
-0.658965
-1.81039
0.889
0.921394
-0.0621091
0.00319995
-1.69111
0.285753
0.653598
-0.386929
-0.26667
0.89754
-1.19606
0.298522
-0.20761
-0.396709
0.278569
1.83997
1.64523
-0.285854
-1.35937
-1.64346
0.234955
0.66241
-1.10821
1.5547
-2.68924
1.13453
-0.226283
0.601887
0.0192802
-0.766027
0.594073
-0.339435
0.452396
-0.130176
-1.46179
1.59197
0.682481
1.03498
-1.47823
1.56021
-0.0819828
-0.154049
0.316013
-1.41711
-0.448694
-0.256184
0.287888
-0.0317032
0.746354
-1.24656
0.500203
-0.171922
0.576349
-0.404427
-0.201295
1.09883
-1.86454
-0.252125
2.11666
-1.55528
-0.485276
2.04056
0.910541
-0.737405
-0.173135
-0.462546
0.0302729
0.432273
-0.167783
-0.180539
0.348321
-1.9203
0.071214
1.84908
0.0459672
0.411339
-0.457306
1.56623
-1.74995
0.18372
-0.956073
1.03377
0.39676
-1.43053
0.0272908
-0.283475
-0.0475658
-1.21543
1.263
1.496
-2.01209
-1.893
1.6495
0.243506
0.311644
-0.0482081
0.444374
0.673616
-0.147283
-0.37927
0.526553
-0.0225739
0.326945
-0.304371
-0.725899
1.9338
-1.2079
1.50627
-2.82369
1.31742
2.03535
-1.94309
-0.0922574
1.50326
-0.648935
-0.854323
0.0829528
-0.483459
0.400506
-0.614587
-0.0247235
-2.00389
1.76675
0.237136
0.110732
-2.11462
-1.18434
2.59807
-1.41372
-1.1138
-0.66768
0.42472
-0.352157
-0.072563
-1.59371
-0.45145
-0.399926
0.277459
0.122467
0.219363
-0.13604
-1.86175
1.78588
0.075872
-0.28737
-0.0820483
-0.0276273
0.409981
-0.0344747
-1.16695
0.211502
0.3182
-0.359658
0.0414577
-1.14048
1.16891
-0.0284329
0.779422
-0.0618446
-0.489566
1.18632
0.226186
0.732599
-0.551264
1.25576
-0.704494
-0.242154
1.05152
-1.2721
0.811487
0.460609
-0.0435575
-0.0185517
1.68467
-1.00219
1.45423
-0.732527
-0.380408
-0.37083
0.751239
0.548557
-1.26864
0.720079
1.1182
-1.21811
1.77586
-0.775855
-1.00001
-0.0109252
-1.06226
-0.209838
-0.562905
0.951304
-0.3884
-0.00116429
-0.504076
1.79445
-2.10215
0.508439
0.150915
0.137356
-0.247859
-0.255463
0.286475
-0.00858051
-0.867682
-0.924489
1.77119
-0.499616
0.0243001
-0.00646522
-0.0178349
0.109288
0.458481
-1.58678
-0.769507
2.35629
-0.0343086
0.922136
-0.0107148
-0.306644
0.317359
1.64173
-0.117788
0.0027278
0.11506
0.164342
-0.195421
-0.725874
-1.96446
0.338691
-0.460654
0.0249749
0.435679
1.49847
1.43242
0.926723
0.333976
-1.2607
1.94396
0.0913921
1.20475
-1.70748
0.50273
-1.6351
-0.0100211
1.64512
-1.61357
2.08472
-0.471151
0.302128
-0.0134032
-0.288725
-0.573753
2.06975
0.299779
-0.075834
-0.223945
0.0682458
-1.54648
0.305069
-0.134769
-0.170301
-1.86744
2.39265
-0.525203
-0.47223
1.10554
-0.633313
2.32326
-1.02453
-1.29873
0.0316849
-1.19905
1.16737
-0.0260576
0.00481539
-0.927706
1.96819
0.228432
0.0452041
2.2641
-0.750325
-0.387912
0.329696
-1.70321
0.0681102
2.41275
-0.736592
0.0119582
-2.32753
0.545901
-0.0134428
-0.377976
2.09711
-1.71914
1.10613
-0.289294
-0.816831
0.517857
-1.19483
0.67697
-0.323599
0.0197849
0.303814
-0.415789
-0.96205
1.37784
0.728784
-0.540001
-1.4417
-0.34192
1.78362
0.279179
0.486442
-0.765621
0.158862
0.265858
-2.18549
2.57822
-0.392724
-0.146088
0.0309523
0.891239
0.427506
-1.31874
1.00814
0.740992
-1.74913
0.347962
0.973231
-0.0514099
2.28907
-0.00872462
1.57216
-1.56344
0.111768
-0.0454093
0.0519337
0.053403
-0.105337
1.55189
-1.41067
-0.141214
0.798265
0.9776
0.120754
-0.141948
0.0211943
-0.533021
1.58244
-1.04942
0.00605464
0.355027
-0.361081
0.990241
-1.28125
0.291012
-1.05392
-0.541465
1.59538
1.55503
-0.237844
0.55757
0.548556
-2.8572
0.898092
1.95911
0.586456
-1.61223
-0.106179
0.0686132
0.037566
0.391363
-0.115846
-0.275517
-0.0034247
-0.0226329
-0.133598
1.36244
-1.22885
-0.217741
1.97352
1.51081
-1.24525
-0.265562
1.27024
-1.07493
-1.01736
0.374881
0.642476
0.0757755
-0.834058
0.505833
-0.423305
-0.0825279
0.136241
0.288101
0.291171
1.46003
-1.7512
0.47442
0.345222
0.248519
-1.8038
-0.896944
0.2149
0.682044
-0.660526
-0.481344
1.14187
0.993146
-0.490548
-1.67529
1.09681
0.650282
-0.524423
-0.125858
-1.28047
0.921611
0.358854
-0.86006
0.928365
-0.857565
0.953424
-0.0958593
-3.40204
2.30289
1.09916
-0.0431838
0.441332
-0.398148
-0.268582
0.281352
-0.207687
-2.13023
4.38168
-2.25145
-1.08088
1.38209
0.998367
-1.04971
0.0513439
-0.172356
0.120886
0.0514697
-2.20523
1.63109
0.574139
0.000949937
0.0276469
-0.0285969
0.0435624
1.14484
-1.87073
1.08736
-0.538807
-0.929953
-0.964249
-1.40002
1.3913
0.944303
0.0442414
0.662024
0.294896
-0.95692
-0.683927
0.637491
0.046436
0.0340052
-0.265176
0.231171
0.0990064
-1.2834
1.1844
0.534463
1.44355
-1.97801
-1.47603
-0.389706
1.86574
-0.234261
0.0619054
1.27962
0.272268
-0.335536
1.13338
-0.797849
0.111481
0.193176
-0.304657
0.0110456
0.390246
-0.491631
0.101385
-1.12372
-1.24606
1.34507
0.291413
0.41881
-0.335858
1.15615
-0.4098
0.337185
-1.39222
0.0612678
0.576498
-0.339247
0.34773
-0.00848317
-1.33499
-1.08888
2.42388
-1.76332
-1.09388
-1.01552
-0.133837
1.14935
0.219674
0.410054
-0.629728
-0.019032
2.22487
-1.43524
-0.789626
0.354224
1.291
0.0789976
1.10803
-1.55189
0.44386
-0.604786
1.5417
-0.93691
-1.12111
-0.428772
1.54988
-0.92662
0.36341
-0.731553
-0.285805
1.94878
-0.941868
-1.00691
-0.0428874
0.231252
-0.188364
0.700332
0.159132
-0.859465
-0.356257
0.402224
0.00655441
-0.00140436
-0.00515005
-0.175422
-0.0514697
-0.432782
-0.0142743
1.08229
0.866488
-3.03186
2.25189
-0.655536
1.72687
0.115754
-0.158641
-1.63791
0.516803
1.43638
-1.24183
-0.241064
-1.26699
0.278023
1.45641
-2.64075
1.34482
-1.38346
1.6294
-0.047165
-0.392954
-0.247999
-0.448263
-0.190865
0.639128
-0.613465
-0.06599
1.48094
0.280243
-1.76118
-0.00613225
-0.497902
0.504034
-0.0865348
0.490799
-1.07087
0.580068
1.68064
-0.114407
-1.95747
1.81048
0.146993
0.422064
-0.310549
-2.06354
-0.141683
-0.595546
1.82359
-0.0568384
-0.44263
2.32823
-0.910234
-1.41799
-1.17709
-0.122663
1.29975
0.23349
0.998212
-1.2317
-1.38155
0.0853408
-0.372904
-0.198275
0.57118
-0.936418
1.19215
0.302501
0.988218
-1.29072
-1.06718
0.383183
0.683997
-1.78128
0.162766
1.61851
0.363124
0.72424
-0.495133
0.993271
0.509987
-0.485808
-0.28383
1.78553
-2.09453
0.25459
-1.00418
0.749589
-0.299592
0.0537111
1.33773
0.0728452
-1.41057
1.1157
-1.77124
0.00805281
-0.0139068
-1.05696
1.67461
-0.617652
-1.27578
1.22822
-0.0453825
0.578163
-0.532781
-0.140655
-0.269794
0.41045
0.161236
0.371855
-0.517144
1.17955
-0.0201663
0.0234743
-0.318053
0.345344
0.69658
-0.352095
-0.00167774
-0.0189013
-0.398307
0.381456
0.0168508
0.421955
-0.469425
0.0474693
-1.05559
1.6912
0.197812
-1.21333
-0.0830407
-0.566426
0.0105119
1.10358
-1.1141
0.643859
-0.722325
0.515824
-1.50637
0.990542
-1.38196
0.44608
0.93588
1.55593
-2.82374
-0.473749
-0.0466318
-1.84637
0.475288
1.2959
-1.45763
-0.217653
0.252709
-0.837959
-0.84279
0.357493
0.176965
0.103448
-0.280413
2.72055
-1.22208
1.4603
-0.289929
-0.460803
-0.322353
0.783156
-2.00479
0.789783
1.21501
-0.0561388
-0.2581
-0.375342
1.40911
0.33108
-0.18626
-1.85864
0.402813
-0.103034
-0.257919
0.185365
0.0725547
-0.241664
1.7226
-0.266232
0.0800549
0.186178
0.443624
-2.66283
1.26688
1.39595
0.401461
0.426949
-0.828409
1.67654
-1.45111
-0.225428
-1.04197
0.569741
-1.10462
-0.0441318
0.744464
1.76655
-1.94656
0.82486
-0.358991
-0.756412
1.34287
-1.14694
0.679684
0.467255
1.00438
-1.35431
0.349935
-1.3638
1.45646
-0.0926606
0.744515
-0.986669
0.0275357
0.388918
0.521623
-0.0715216
-0.411589
-2.22736
-0.824332
0.152656
0.671676
0.47431
-1.6514
1.40639
-0.0588105
-1.16428
0.245082
0.273239
2.03078
-0.681351
-1.34942
-1.00119
0.514567
-1.17509
0.324255
-1.84609
1.72343
-1.37725
0.713809
0.924231
-1.74296
2.34895
-0.605992
-4.47108
2.09543
2.37565
-0.180218
0.330104
-0.399661
-1.93363
1.35836
0.575262
1.52782
-2.10157
-2.16031
-0.0251861
2.69186
-1.13716
0.319943
1.29223
-1.61217
-0.0464812
-0.29852
0.345001
-0.116838
0.829839
1.04649
-2.72215
0.979195
0.295471
0.433313
0.411294
0.705331
-1.11663
0.769111
-0.444349
-0.143192
-2.13086
2.27405
-0.670925
0.873165
-1.58214
-1.10933
-0.829165
1.93849
0.483481
-0.647531
-1.33931
0.426749
0.91256
0.0625885
-0.147059
0.0844703
1.64993
-1.78011
0.461984
-1.51894
0.673882
0.816707
-1.49059
0.000517455
0.0237827
-1.58466
0.451372
1.13329
-1.63444
0.580525
0.937361
-1.54215
1.11746
-0.862871
-0.000792963
0.0633815
0.00634858
1.69297
-1.16782
1.4688
-0.300986
1.42491
0.0131149
-1.43803
-1.36032
-0.0101985
-0.472863
0.104
1.49396
0.256343
0.0616382
-0.785285
-0.167657
0.99811
0.977787
-0.230982
0.264987
-1.75106
-0.110692
-0.800976
2.84086
-0.710766
0.354164
0.368564
-0.722728
2.93599
-0.0774207
-2.85857
-0.226285
0.212882
-0.663877
-1.43795
-1.50033
-0.227417
-0.673883
1.78959
-0.642127
0.912075
-0.269948
-1.96155
0.626552
-0.563429
0.974723
-1.3632
-0.770299
-0.552832
-0.536491
0.64451
-1.38522
0.244745
2.0917
-0.268107
0.567905
-2.1667
1.5988
0.0788621
0.663069
0.522118
1.95712
-1.83686
-0.0319328
-0.436734
0.647248
-0.933452
1.01179
-0.90016
-0.687994
0.426301
0.34699
-0.773291
-1.6449
0.0469403
-0.236569
1.46874
-1.23217
-0.395908
-1.56156
-1.31688
1.48119
2.344
-0.999532
-1.34447
-0.200966
0.563957
1.56694
-0.903883
-0.663056
0.521106
-0.572576
0.11102
-0.0590867
-0.336309
0.0148328
0.321476
-0.271667
0.93369
-0.69954
2.22736
-0.0340858
-0.318071
-0.5279
-0.184797
0.712697
0.0404393
1.6095
0.483637
0.414968
-0.898605
-0.727954
1.11348
0.775426
0.807013
-0.799152
-0.0977923
1.02144
-0.37142
-0.650018
-0.06676
-0.0252969
0.0920569
0.174889
-1.43093
1.25604
-1.75883
0.258505
0.427315
1.60274
1.23812
-0.0139735
0.535079
0.266333
-0.90846
-1.61245
0.815783
-1.86817
0.633319
-0.885476
0.121451
-0.809641
-1.13199
1.94163
-2.56304
-0.0634994
0.288864
-0.225365
1.72833
-1.34925
1.35191
-1.11842
0.272687
1.01118
-1.28387
0.315993
-0.688898
0.463813
-2.06552
1.60171
0.201314
0.241496
-0.442809
-0.698589
1.64366
-0.945076
1.51021
-0.880869
-0.629345
1.14039
-0.242203
-0.898187
-1.041
-1.62183
-0.610823
-0.0709486
1.8431
2.21349
-0.0229129
0.195339
-0.172426
-1.26892
-0.315734
1.29944
1.20017
-1.01227
1.23695
-0.224687
-0.210784
0.213512
0.133019
0.734282
-0.867301
-0.144867
-0.121365
-0.20863
-1.725
-1.42912
0.661934
-0.0116518
-0.152854
0.123155
0.144102
1.37996
-1.52406
-0.971565
-0.195385
1.46201
-1.6001
0.135562
-0.498084
-0.207635
-0.174982
0.382617
0.136942
-0.675164
0.538222
0.394137
2.22394
0.14616
1.58765
-0.731842
1.75619
-0.883026
-0.231073
-0.483319
0.714391
1.41331
0.16363
0.0255591
-1.29586
0.880069
1.24629
-1.20585
-0.941845
-0.825646
1.76749
-1.14167
-0.863122
-1.87443
1.89611
-0.0216797
-0.319833
-0.657835
0.466971
1.07075
0.516898
0.0464177
-0.208124
0.161706
-0.510554
-0.428142
-1.65232
0.392478
1.25984
0.835227
-0.869536
-0.192712
0.0865329
1.12555
-1.78942
0.831907
-0.692606
-0.488743
1.42865
-0.939902
0.986078
0.95802
0.558485
-1.5165
1.94163
-1.18508
-0.756549
-0.685968
-1.56397
2.30788
-0.743915
2.20585
-1.63795
-0.558649
0.544675
0.808562
1.5147
-0.420514
0.374032
0.0633429
-0.0263957
1.80071
-1.00408
1.19462
1.52593
-0.796339
0.430592
0.365747
0.440954
-0.821363
1.40893
-0.0711968
2.24514
-1.9252
-1.27261
-0.151027
1.42364
0.36721
-0.0491755
-0.318034
0.305973
0.140819
0.246727
-1.8603
-0.541878
0.617155
1.29252
-1.15022
-0.142304
0.307435
0.714003
-0.297252
0.148805
0.496244
0.429829
-0.926072
-0.903421
1.69725
0.062148
-1.02399
2.29998
-1.27598
-0.461881
0.74106
-0.493358
-0.573823
2.06112
-1.02714
-0.644669
1.98877
-0.312235
0.567874
-0.650914
-0.336239
0.293055
-0.550407
-0.279597
-0.01425
1.05425
-0.291429
1.53602
-1.24459
-0.0958101
0.147843
-0.575248
0.195978
-0.638069
0.0272456
-1.9326
1.63027
0.456109
0.444245
-0.0139204
-1.0417
1.05562
0.416611
0.158929
1.56204
0.934369
-2.49641
-0.210415
-0.0308619
0.241277
-1.35661
-0.335294
1.51371
0.830291
1.46483
-1.32073
-2.34332
0.0653886
0.0442604
0.30117
0.853118
0.979019
-0.0126654
-0.966354
0.741666
-0.0978068
-0.0536213
-0.601733
-0.194606
-2.06746
-0.839688
0.915463
-0.917882
1.47389
1.06464
-1.03965
-0.024981
0.367315
0.0141412
-0.120114
0.483936
-0.0619808
1.42089
0.353144
-1.77404
-0.443648
0.185729
-0.441898
0.272505
0.169393
-0.656015
-0.00553181
0.661547
0.709232
0.861437
-1.57067
0.421581
0.571566
1.28075
-0.0292324
-0.511726
0.972478
-1.14013
0.252713
-0.423588
0.170876
-1.50506
1.01616
1.56336
-1.23906
-0.324307
0.0297134
-0.279861
0.250148
1.5927
-1.7263
1.54114
-0.705914
0.479759
0.872153
-0.26324
-0.0163562
0.0278564
0.0484189
-0.0762753
-1.05766
-0.244729
1.99756
-1.02343
-0.974138
3.18418
-1.37393
-1.81024
0.770966
-1.31949
0.548522
-0.0678273
0.945084
0.0213998
-0.701921
1.36743
-0.66551
0.128204
-0.100348
1.12647
0.234803
-0.154748
1.52193
0.0184409
-1.54037
-0.276876
-0.371217
0.0319699
-0.143786
0.00183833
0.69787
0.97674
-0.699986
0.528064
-0.0134588
-0.0945004
-0.186927
0.268082
-0.730064
1.00275
0.0162338
0.480745
-0.353297
-0.616879
1.33789
-0.0322491
1.09688
-0.196241
-0.233328
-0.420895
0.917139
-0.389499
1.52852
-1.13902
-1.47879
-0.21231
-0.984099
1.39165
-0.407551
0.1815
0.0533021
0.594444
-0.114661
-0.0357995
-0.458668
0.494468
-1.52153
0.494393
0.24218
-0.258481
0.810481
-2.39726
0.348187
-1.98905
-0.506049
1.40595
-0.56938
0.943567
-0.513739
0.0229721
-1.16047
1.33536
0.00218476
-0.297143
0.200429
-0.937834
-0.191859
-1.09264
1.2845
-0.0650459
-0.937586
2.63073
-1.67563
-0.955099
-0.416489
0.128348
0.423968
0.0416682
-0.465637
-1.45207
0.284253
0.368316
0.0230462
-0.011406
-0.249268
0.260674
0.527867
-1.51197
0.162938
0.809705
0.0929111
-0.902616
-1.69293
1.30343
0.279685
0.0733
-0.352985
2.31351
-4.44374
-0.274685
-0.00139534
0.27608
0.360727
-0.0810419
0.014248
1.32542
-0.977453
1.07793
0.923915
-0.502334
-1.61755
0.508225
-1.2131
1.0023
0.2108
0.802825
-1.74467
-0.900355
-0.557806
1.45816
0.0737674
0.705298
-0.559896
0.485943
1.95962
-0.249314
-1.71031
-0.014027
-1.73703
0.489219
0.65117
0.669947
0.896993
-0.302805
-0.00383984
0.284995
-0.493683
-0.623761
0.0596053
-0.100497
0.0408918
0.0701318
-1.24494
1.1748
-0.187266
0.619221
-0.431955
-0.142494
-1.43659
1.57909
-0.144013
-0.983652
-0.0529819
-0.0274424
1.19981
-0.621089
-0.360059
0.981148
-0.639795
-0.736183
0.823613
-0.476624
0.0579541
0.0648245
-0.122779
-1.24117
1.22725
-1.18851
-0.216513
-0.108678
0.32519
0.243712
0.453035
-0.696747
1.38921
-0.804348
-0.584864
0.091549
-1.01757
0.276467
-2.14391
-1.02149
-0.767833
1.78933
-1.69117
0.0722235
1.61895
-2.4411
-1.41518
0.0513818
-0.547016
0.541001
0.00601497
-1.80474
-0.633592
2.05449
0.699108
-0.351093
0.173799
-0.594694
-0.291921
0.863487
0.282464
0.188578
-0.716478
0.0317677
-0.258158
0.22639
-0.336563
0.0526045
-0.179438
0.209151
-0.490602
0.892063
-4.18429
2.08801
2.09628
-1.49899
0.893631
0.988044
0.385618
-0.0184088
-0.412098
0.458515
-0.858753
-0.480556
-0.989337
0.352169
0.637168
-0.004909
0.262836
-0.257927
-0.733145
0.870087
-0.162371
1.29833
1.48693
-1.00329
0.993461
-1.63326
0.789096
-0.994514
0.205418
0.215475
-0.0120817
-0.140938
0.0167892
-1.92098
1.11134
1.75168
1.4325
0.0275056
-0.370383
0.342878
-2.49443
0.949552
0.34133
-0.335826
-0.35539
-0.0300452
-0.408671
0.438717
-1.0182
0.397111
-1.86044
1.65181
1.56932
-0.895442
-0.405236
0.372086
0.0331509
0.274489
0.0568469
-0.286091
-1.97174
1.18761
0.784131
-0.272838
0.241976
-0.0618872
0.587068
-0.525181
0.613333
0.927808
0.0828797
0.05069
-0.13357
-0.505026
0.521259
0.0523646
0.0682868
0.827023
-1.4731
1.83369
0.110271
0.664277
-1.90064
1.6786
-0.0673626
-1.61124
0.0323577
-0.386407
0.35405
0.912444
-1.78013
0.291465
1.22052
-1.51199
-0.0115183
-0.0378695
0.0493879
-1.01299
0.99707
0.0159228
-0.63646
1.15228
-0.693686
2.19996
2.63097
-0.599621
-2.03135
0.0439644
0.369584
-0.413548
-0.207354
-0.580338
-0.0342489
-0.562789
-0.0175494
0.104032
-0.580864
0.476833
-0.151076
1.66765
-1.51657
-1.5718
0.613503
0.958297
0.510873
1.59525
0.0569451
0.100787
-0.157732
0.99864
0.449589
-1.44823
-0.0786559
0.255621
-0.592631
1.64382
-1.05118
-1.43292
0.160306
1.16503
0.504468
-1.40482
-0.00103717
-0.198983
0.20002
1.64091
-0.352124
-1.28878
0.527112
0.405532
-1.86873
0.944244
1.7792
-1.92239
-0.900951
0.1691
0.731851
-0.0562367
0.0225881
0.238666
-0.261254
-0.344338
0.0965151
0.247823
-0.0146483
0.222644
-0.207996
0.434475
-0.422396
-0.0120795
-1.00651
2.13206
-0.546319
0.533597
0.3866
-0.448487
0.643948
-0.985505
0.341557
-0.654647
-0.492292
-0.286678
0.118895
0.0848577
0.0115509
-0.0964087
1.10484
-0.548652
-0.55619
0.171682
1.12084
-0.441647
-0.24228
-1.02806
0.185571
0.607459
0.903562
-1.51102
-0.015272
-0.0294361
0.0447081
-0.0289369
0.635948