/*--------------------------------*- C++ -*----------------------------------*\
| =========                 |                                                 |
| \\      /  F ield         | OpenFOAM: The Open Source CFD Toolbox           |
|  \\    /   O peration     | Version:  2306                                  |
|   \\  /    A nd           | Website:  www.openfoam.com                      |
|    \\/     M anipulation  |                                                 |
\*---------------------------------------------------------------------------*/
FoamFile
{
    version     2.0;
    format      ascii;
    arch        "LSB;label=32;scalar=64";
    class       volScalarField;
    location    "0.5";
    object      p;
}
// * * * * * * * * * * * * * * * * * * * * * * * * * * * * * * * * * * * * * //

dimensions      [0 2 -2 0 0 0 0];

internalField   nonuniform List<scalar> 
13486
(
2.17153
1.77939
0.267539
-0.944966
0.402076
0.24845
-0.0530628
1.03628
1.38894
0.910915
-0.476707
0.496261
2.30425
0.0544911
0.408757
0.991007
-0.987241
0.31557
0.654586
1.94527
-0.653114
2.27548
1.71262
-0.0959332
0.87601
-0.0763547
-0.598354
0.0770585
-0.0407442
0.00507035
0.0222259
0.443596
-0.164219
0.0634763
1.04617
0.0196426
0.155136
1.74056
0.167736
1.39856
-0.951955
2.41
-0.0210117
0.886859
0.862755
0.4893
-1.02566
0.126582
0.158304
0.042678
1.3437
0.135733
0.413224
1.76191
0.2925
0.488783
0.0861063
0.101527
-0.141036
0.151885
-0.410709
0.0798636
-0.66736
-0.599398
0.0568673
0.162335
-0.742753
2.18974
1.37712
0.0387877
-0.755117
0.296786
1.44148
-3.25661
0.19627
0.0812146
0.102255
0.380311
-0.902912
0.189687
-0.055338
1.80253
-0.713673
0.230417
2.18424
1.16057
0.203309
1.22963
1.47469
1.02704
0.452631
0.826223
2.07452
1.8586
1.43828
0.042113
-0.586885
-0.52099
1.35306
-0.955626
-0.110662
0.108139
-0.489895
0.108401
1.37137
-0.951376
1.45112
0.187055
-0.961124
0.616603
1.29109
0.270384
1.7603
0.0955956
2.61316
1.37494
0.864282
0.0839375
1.50029
0.122045
0.311975
-0.419945
1.51714
0.155096
1.28616
0.109653
0.928854
0.631247
0.0778837
0.0790812
0.110413
-1.02668
-2.51413
-9.79225
1.34026
1.25673
2.82205
0.682398
0.127055
1.08925
-0.151091
0.381393
0.490429
0.197426
0.124499
-0.44034
0.325264
2.15603
-0.0164063
-0.102315
0.850568
0.209841
-0.071606
1.85161
0.622346
0.234865
0.302461
-2.08464
1.5374
0.217363
0.104446
1.53612
0.372642
2.39831
0.150676
-0.129961
0.262597
3.11203
0.331623
-9.26449
-2.18672
0.583592
1.11042
0.773912
0.081157
-0.198305
-0.230008
-0.244966
1.51362
0.497095
1.30779
0.0948453
0.610282
-0.392966
0.348586
0.075732
-0.105569
0.0115249
-0.795934
1.48168
0.11954
0.226087
0.19033
2.04114
0.170464
-0.491501
0.0831838
-0.000897161
1.96257
-0.0863192
0.0554657
0.618695
1.74421
-0.133662
0.174655
0.181657
0.282697
1.55945
0.104664
0.376351
-0.0506592
-0.0303233
1.92302
1.52241
0.282103
0.136132
-0.00701362
1.05127
1.95229
-0.833718
-0.991227
-0.109115
1.14855
0.0141503
0.449472
2.13564
0.05482
-0.0351172
0.127989
0.202749
1.28477
-2.86304
-0.136321
2.46806
-0.418027
2.04706
0.0601902
0.162637
2.072
0.638417
-0.157224
1.04638
0.117827
1.94467
0.204045
1.66364
0.723193
-0.0612713
-2.74517
0.943744
-0.350129
2.65137
1.30384
0.17567
0.171758
-0.218365
0.438443
0.17314
-1.69937
-0.117556
1.61186
0.196677
0.399785
-0.229191
0.399905
-0.392947
0.122764
-0.101719
1.32569
0.310425
1.61584
1.46785
-0.0189492
0.427782
2.14151
-0.0829691
0.19702
0.20647
0.139165
0.291282
0.207204
1.12914
1.46187
-0.218764
-0.418922
-0.769853
-0.183845
0.119124
0.458694
1.38165
-0.471924
0.281639
1.44684
1.31571
0.0746973
0.0357353
0.0503791
0.510321
1.57999
-0.482708
0.358737
0.288827
0.284887
0.439556
0.120387
-0.10622
-2.90935
0.719118
0.208212
0.128986
-7.11632
-1.03983
0.000657796
0.301807
-0.372224
1.29362
0.25342
1.49936
1.54558
0.14513
0.134687
0.164876
1.45126
1.8711
2.75655
0.437464
0.785789
1.10437
0.352683
0.704488
1.27042
0.755531
0.42936
2.0557
-0.146565
1.36391
2.71358
0.273089
1.0355
0.204345
0.066365
1.84242
0.657921
0.602517
-0.382683
0.0170813
0.882543
2.60331
-0.801361
0.264497
0.948139
0.451402
0.416338
-0.569
1.55324
-0.00544525
-3.53867
0.92094
0.261823
-0.0123499
0.583121
0.436148
1.61357
1.47604
0.0194867
0.0209074
0.0507069
-1.12421
1.97008
0.953922
-0.0399911
0.872736
0.434341
-0.343885
0.255458
1.34762
1.53591
0.236206
-0.365859
-2.08485
1.36842
0.704606
2.30395
1.68632
-1.10867
0.176285
0.441215
1.01038
-1.29391
-0.29171
1.88073
-0.0163778
0.79347
2.06022
2.19574
0.110046
-0.885467
-0.352248
-1.20719
-0.172482
-1.2591
0.547041
1.24125
-2.97218
0.0257817
0.283445
1.82508
-0.237998
0.926564
1.67359
0.863061
-0.996278
-0.0340839
1.5531
1.50526
1.98621
-0.393586
0.422288
-1.95355
0.647328
1.51134
0.191703
2.61222
1.07989
0.0664031
0.0320001
0.612691
1.45555
-0.625591
0.314346
2.2519
1.19303
0.809149
0.417948
0.168813
-0.0330363
2.30233
0.253008
0.746776
2.15434
-1.19933
-0.0391396
-10.8932
0.000400082
0.209087
1.67293
1.86305
2.26813
-1.95496
0.134087
-0.382555
1.03966
1.47777
0.0219126
-0.885556
1.423
-0.386692
-0.183676
-0.224827
-0.418618
0.103592
1.81601
0.0627685
0.377652
-0.943617
1.46687
0.0116409
2.90381
2.10295
1.42572
0.945031
-0.0529289
-0.030656
2.69399
0.0884777
0.130097
0.0821864
1.36698
-0.794433
0.479592
1.1511
0.130884
-0.147206
1.70203
-0.503862
-1.14571
1.03682
-0.162387
3.09961
1.015
1.47078
1.54364
-0.221361
0.268446
2.47588
0.276504
1.88832
-0.370142
0.626684
-0.0810493
0.2589
0.012038
-0.905045
1.49865
1.33686
-0.337458
-0.117342
0.290017
2.20515
1.67609
0.198094
1.37173
0.93531
-0.158078
0.337383
1.38585
-2.0821
2.25885
0.126612
0.0463829
2.38093
0.701466
0.20714
0.855511
-0.0154999
-0.420715
0.579888
0.536259
1.54848
2.07967
-0.449404
0.166451
-0.473223
0.0355798
2.02899
0.737014
-0.396836
-0.446991
0.211555
-1.7624
1.0023
0.0615644
-0.787308
1.37626
2.0238
0.181846
1.58317
-0.464654
-0.340841
-1.4794
0.862159
-0.398524
1.57445
0.36016
-0.387241
1.11839
1.6558
-0.132546
-0.455169
1.39114
2.0082
0.645362
2.17888
0.272244
1.1275
0.533445
1.58546
0.0946291
1.96008
-0.578981
0.517518
1.27677
0.0959579
0.00993186
1.47596
-1.2528
0.459017
1.81477
2.28033
0.127943
-0.89724
0.62092
0.410441
1.29372
1.14058
-0.335209
-0.524257
0.442286
2.16278
0.542325
0.38029
-0.0706044
2.29637
0.131654
0.111224
1.37978
0.901144
0.244557
0.0734794
1.05198
0.336623
0.267924
0.832769
-0.647961
2.20615
1.33471
0.974845
0.949441
0.346985
-0.245584
2.51056
0.573195
2.51575
-0.0482346
1.40937
-0.0147821
-2.8034
0.470152
0.920892
2.65016
-0.0129806
0.651968
0.722342
-0.847508
0.912989
0.301485
-0.311193
1.35982
-0.454234
0.0243362
-0.0426219
-0.0486404
0.0994005
1.51832
0.0139713
2.44682
1.37099
0.220451
-0.345943
-0.0301641
0.753043
-0.434176
-0.096141
-0.913526
2.03166
0.0119377
0.188737
-0.312041
2.31603
-0.0776939
0.36484
2.38576
1.2999
-0.376047
0.20632
0.942692
0.448566
1.26729
0.109696
0.103924
0.810926
1.28454
0.670419
1.14879
2.42736
0.115132
-0.182469
1.48354
0.156465
0.334368
0.820517
1.17408
0.786997
-0.389964
0.380478
0.223478
0.443728
2.02597
0.679328
0.403578
0.215845
-1.2399
0.175259
1.51377
0.196152
1.22905
1.31379
2.05202
0.334251
-1.07019
2.49616
0.0747683
-0.395353
1.48734
-0.044093
1.62977
0.12796
1.51398
-3.08842
-6.40505
-0.0685268
0.00737739
-1.0826
0.932098
2.57787
0.168102
-0.34955
0.0239427
1.57025
0.297501
0.809127
-0.333721
2.56495
-0.386541
0.856554
-0.0324964
0.950635
1.44775
0.724696
-2.01595
-0.69096
2.34765
1.51869
0.127211
1.19724
-1.05924
1.02914
0.982241
1.04179
-6.96375
0.184849
1.8113
0.0340526
0.184854
1.0143
-0.415529
0.145517
0.149637
1.51059
1.58048
-0.188892
0.316816
-0.380312
-0.724846
0.320922
0.0991998
0.415538
1.50637
0.228449
-1.11815
1.63389
0.212084
0.105238
0.255607
-0.0397536
-0.226401
-0.0406495
0.217893
-0.223207
1.25908
2.29759
0.117214
0.0917663
2.39383
2.2224
0.128581
0.080631
1.40686
-1.20106
0.177133
0.28621
0.339602
0.497152
-1.11418
0.87003
1.09574
-0.0163246
0.181721
-0.126779
0.202045
1.13278
0.785319
0.919964
-0.22757
1.37738
2.17631
-0.654779
-0.224823
1.55673
-0.260724
0.854027
0.192484
0.0208131
-0.246792
0.269652
1.5194
2.52272
1.51041
0.380633
0.295577
1.47154
2.1107
-0.0180159
1.46821
1.42527
2.23947
0.0529206
0.186127
0.524846
0.0881064
2.21316
0.37162
0.268346
0.900278
0.176923
0.480601
0.308959
-0.234514
1.44808
1.31092
1.13861
0.86728
-0.730631
0.183779
0.110896
0.519736
-0.695746
-0.60863
0.137834
-0.162232
-0.375178
0.890525
0.0267499
-3.03812
-0.743914
0.125686
0.820763
-0.537296
-0.176014
1.6039
-0.0612091
2.2882
0.000716036
-2.78579
1.67555
2.03652
0.20736
0.390193
-0.597008
1.5015
0.448243
-0.598902
0.207814
0.13684
0.211385
1.41465
0.131305
1.02056
0.194969
1.37929
-0.632006
0.121977
0.00187727
1.71438
-0.0791548
-0.45269
-0.0918436
2.25398
0.293056
-0.152553
-0.491734
1.38266
-0.262486
0.183192
0.522037
0.555209
0.302641
0.839923
0.0699674
1.31753
1.46054
1.62852
0.847101
0.0955544
0.13742
1.16833
-0.223493
1.7079
1.10057
0.19182
0.11252
0.13371
0.284351
0.121012
1.65543
0.825159
0.196933
1.49237
0.303311
1.04541
2.61675
0.330541
-0.542624
1.13286
0.307138
0.154023
0.175456
-0.835937
1.44127
0.118697
0.155958
0.0980239
0.322274
1.84244
-0.376711
0.0303096
1.48334
0.319289
2.12123
1.65041
1.90994
0.624528
1.03381
0.505953
0.287649
0.882825
1.35335
-4.79958
0.152934
-0.792681
0.0406698
-0.314434
1.44135
-0.352475
-0.134978
-0.151279
-5.43947
0.101078
1.49067
-0.00790176
0.429114
-8.69013
1.49851
2.58036
0.249917
-0.345032
0.937121
0.227578
1.39553
0.225585
0.194714
1.70637
0.0711116
2.43598
0.830342
1.42933
0.0122592
1.83257
0.186696
1.66505
0.124998
-0.126668
-0.258036
-0.0091366
0.963303
0.294359
-2.95786
2.26614
1.49596
1.59854
2.04723
1.61324
1.72027
0.116733
1.42577
1.58601
1.50849
0.115318
0.0853884
-0.0380352
-1.36497
0.438162
1.55422
-6.79645
2.49198
-1.07549
0.121801
2.50634
2.06012
0.150888
-0.0236388
1.39696
0.926951
-1.17883
1.24851
-8.07327
-0.0382031
1.43462
1.9879
0.17293
1.52648
1.8208
0.0178548
0.0747561
1.84903
0.670891
0.129456
-0.486602
0.260014
-0.203533
1.41393
1.24487
0.190736
0.221036
0.00870761
0.485346
0.0753684
0.549288
2.13854
0.128193
2.83213
1.45925
0.630763
1.62107
-0.371675
-2.86068
-0.275963
1.4119
0.170372
-6.34246
0.112448
0.902082
0.950129
0.201677
0.740564
-1.22211
0.556181
0.31166
0.237942
1.078
0.537864
1.84967
1.49362
1.56892
1.33439
0.132381
-0.110018
-0.103449
0.33748
0.109528
0.074168
1.0569
0.0633547
0.134203
0.234454
0.371978
-0.319826
0.79515
0.818559
0.271533
0.0020755
0.667961
-0.0365173
-0.0582039
0.445853
0.289817
1.52593
1.06715
1.84441
-11.0164
1.39529
0.106289
2.0059
0.00768152
0.860221
0.340067
0.273028
2.37811
2.55522
1.04824
0.365326
1.1038
1.21856
2.40907
0.788224
-0.132511
-0.330839
0.433363
-1.33718
-0.776428
1.53199
1.40085
0.320908
-0.443276
1.01414
1.27043
2.64625
-0.40443
1.25519
-1.2082
0.270249
2.09452
0.137953
1.11525
0.17998
0.909063
0.618787
2.77921
0.270115
-0.0708603
0.902408
0.45084
-0.394572
-8.17764
0.322415
1.61131
0.297809
0.413671
2.21298
2.00094
0.186079
-1.79548
0.20028
0.48062
1.65294
1.33236
2.0058
0.874643
-0.477351
2.11363
1.18992
-0.558517
0.947782
1.49318
1.79191
-0.318656
-2.57537
-0.0674904
1.33021
2.35251
0.816407
0.355332
-0.258426
2.65999
-0.608111
-0.165115
2.46586
1.40648
0.34472
1.02276
-0.788618
0.639958
0.0669925
-0.596908
0.204256
-0.271628
0.461456
0.129941
-1.22927
-1.06017
-0.687766
-0.69686
-1.2314
-0.35476
1.58613
1.39784
0.268963
-1.19591
0.416103
0.468573
0.056221
2.81465
0.734791
-0.0973515
1.2753
0.0964755
-0.259694
0.989584
0.968039
1.46831
2.86156
-0.116089
0.0834445
-0.0786956
0.350579
0.803506
1.29834
-0.0203177
2.15558
1.09875
1.55282
-0.0165146
0.219972
0.0987047
1.39482
1.49962
1.47442
1.46378
2.59798
2.53516
0.0978981
1.35316
1.8414
-0.025384
2.01686
0.149234
2.49986
1.99726
0.493774
1.65463
0.875542
0.947338
0.277729
1.50457
-0.093102
1.16964
0.248716
0.681622
0.265965
1.45097
0.0763878
0.432809
2.40451
2.40362
0.868565
-10.5771
0.538342
-1.27687
0.176305
1.22379
2.12693
-10.5403
1.51119
1.30102
0.680234
1.39979
-0.301401
0.172571
0.194929
2.69467
0.292158
0.29529
1.66939
0.19685
0.112702
0.876675
0.428858
1.19432
-0.0856162
0.00875449
0.891263
0.972674
0.720429
0.912248
2.54651
2.03691
1.7736
2.25447
2.35483
0.566417
0.143409
0.271125
-1.38418
2.3689
0.0893733
1.39619
1.18759
-0.360127
0.576891
1.5538
-0.00126261
0.704776
1.00079
2.90212
-0.559061
0.651943
0.349668
1.60271
0.274861
-0.35115
2.32082
1.95717
1.30288
1.37903
0.0397427
0.0804616
-0.930823
2.52718
0.123421
2.75492
-2.04605
0.383647
-1.78209
0.300443
-4.33837
0.41124
0.168694
0.849182
0.250107
0.695025
-0.373737
0.0177142
0.155983
-9.55912
-0.0160657
-0.627613
0.245905
0.141582
-1.50543
-0.411657
1.38019
1.41017
1.96755
1.50224
0.579525
0.537473
3.15476
1.35268
-0.648717
-0.0307797
0.297364
1.17831
1.16824
2.16223
-0.218795
-0.181069
0.9645
0.00854998
0.61682
1.827
-9.2741
-0.365976
-0.997345
2.56399
-0.573065
0.763823
1.85079
-2.35762
1.01225
0.221425
-0.515382
-0.514427
0.19401
1.09038
1.6722
1.7999
-0.534281
-9.44339
0.624237
-0.836126
0.0186308
0.113772
0.449921
0.124765
0.266361
-0.413225
-0.542254
-0.102239
2.23673
-0.620029
2.46246
-0.390059
0.186774
0.48091
0.278374
2.04381
1.29834
1.72412
0.237583
0.0979541
-0.514908
1.98139
-9.53995
1.18118
0.212804
1.79942
2.03738
0.193413
1.42923
2.35024
1.5065
1.50213
-2.58779
0.206827
0.596766
-0.0473429
0.20931
0.652422
0.741993
0.344937
-0.521162
0.506952
0.239045
1.09614
0.825057
0.00961194
2.48972
0.350603
-0.0356466
0.435261
1.48469
0.0836089
0.00960419
1.50542
-0.24808
0.143779
0.234112
1.44125
1.50319
1.4266
0.256079
1.40512
1.66077
1.56611
0.0952299
0.124131
0.584997
1.13625
-0.218544
-1.73332
-0.134002
-0.666325
-0.76216
-0.117455
0.193712
0.113695
-6.67422
-0.00327109
-0.311256
0.219804
0.0889472
0.740331
-0.433052
1.53916
3.14524
0.653117
0.168404
0.807568
0.464049
0.555793
0.158167
0.0275028
-0.11022
0.307588
1.87756
-0.0826709
2.30171
0.021781
1.51398
1.01847
0.619916
-1.57984
0.386675
2.63126
-1.71386
1.40925
1.44128
2.14876
0.395757
1.94355
1.47392
-1.86533
1.59807
-0.56618
-0.718657
2.00588
1.35089
-0.587205
0.225303
1.86053
-1.02554
0.00588268
0.146405
0.0943551
1.19062
1.03364
1.481
1.22874
1.20877
-1.74022
-0.0816517
0.128447
1.42566
2.75432
0.0241861
-0.633436
-1.66363
1.33731
0.387323
0.287163
0.122137
0.296274
0.988097
-2.60191
0.3386
2.49296
0.818386
0.318639
-0.0632584
-0.456145
-0.0431643
-1.16765
-0.0830457
-0.358363
1.7433
0.920019
0.00522161
2.42331
-0.0287804
-0.481673
0.167436
-0.694838
1.50085
-7.21658
0.691587
1.3354
0.264617
0.0924903
0.261537
-0.644309
-0.0287927
1.58396
-0.325764
0.149164
-0.971964
1.44719
1.52218
-0.542353
1.78177
1.64324
2.21462
2.26059
1.51754
0.48554
2.71166
-0.984009
1.28797
-0.303246
-0.208524
1.79151
-0.178214
2.24857
0.890327
-0.477095
-1.3431
-1.07956
1.56637
-0.105981
0.0829951
0.336973
-1.06119
0.29447
1.03359
0.62687
0.900727
2.55948
-7.00858
-0.0949081
-0.453891
1.40915
1.16993
0.0246877
3.09861
0.13233
0.225018
1.02889
-0.685444
1.49021
1.40456
1.61991
1.62794
0.327094
0.62286
1.31576
0.609471
-2.81258
0.00356445
1.48621
1.58455
1.98838
-2.04508
0.276477
0.196596
1.0436
0.425535
-0.154971
1.27461
0.14006
1.26924
1.50899
-1.01715
2.3075
-0.00501837
2.58647
1.58577
-0.287277
-0.0535206
0.127692
0.773511
1.53955
-0.248699
1.94235
1.45848
0.321804
0.103411
0.451511
0.0189103
0.310647
-1.02041
0.618724
0.0179896
1.46199
-1.72653
-2.00227
0.146523
1.77145
2.08593
0.904827
-1.61785
0.877156
0.186842
0.31462
0.911591
-4.36482
-1.9586
2.45856
-0.284273
0.259816
-0.0815466
-0.652337
-3.13357
1.54339
-1.02549
0.101367
1.56268
0.77332
1.53451
-0.384835
0.612186
2.51307
-1.50643
1.4434
0.492192
-2.44584
0.822394
0.583958
-0.632969
2.55701
1.60352
0.323698
2.52041
1.84851
1.77863
-0.869211
-1.66548
0.560262
-0.595935
-2.29903
-0.43454
-0.599377
-0.444573
1.03692
0.615639
0.675577
0.83133
-2.43185
0.848822
1.44999
-0.551678
1.42029
1.05391
1.49828
0.183002
0.236376
-0.51373
-1.16335
-0.408079
0.101398
1.43364
-0.217949
2.23401
-0.366636
1.48176
0.55369
0.265221
-0.354256
1.42333
0.80961
0.584319
1.20056
0.331033
0.287287
2.10898
1.75562
-0.019351
-0.30411
-1.51132
1.31826
0.334922
-0.00976449
-0.495518
0.426145
0.0766902
0.282105
1.14551
1.01735
0.376679
0.804115
0.303354
0.165414
-0.167437
1.78596
-0.491734
1.49904
-0.00879166
1.32189
1.51839
0.95635
1.27678
-1.16132
-0.325035
0.226169
-2.10604
-0.197775
0.0110982
0.298575
-4.305
1.27842
0.357198
1.47605
-0.141327
0.289308
-0.884278
0.156264
1.42645
-0.520581
1.33382
0.586311
-0.108795
-1.85044
-0.44579
0.854862
1.48842
0.146164
0.470129
-3.01274
1.64731
-0.196825
0.458441
-0.376008
1.77093
0.721397
0.114268
1.53279
1.41557
1.69163
0.640502
1.82997
-1.67116
0.212838
0.220504
1.27009
1.02721
0.569483
-0.778646
-0.135361
-0.311957
0.638774
0.24937
-0.275411
2.44824
-2.83313
1.68239
0.915703
0.0827329
0.119499
0.232423
0.219232
0.486077
0.446791
1.39289
0.233593
1.46494
-0.825852
-0.0787176
-1.58845
0.262496
-0.134477
1.77101
2.51273
1.56661
0.401729
-0.561834
1.0468
-0.634797
0.0802911
0.24598
0.179317
-0.0199928
-0.293141
-0.159174
0.0092402
1.1849
1.29818
-0.572981
0.531856
1.62885
-0.0886651
-0.528525
1.56286
0.136505
-0.444807
0.0929247
0.29537
-0.0544514
2.43104
0.246982
1.27403
-0.521084
-0.146217
-0.0525115
1.34408
0.30691
1.08931
-0.645993
-0.061878
0.262476
-0.0653806
1.69014
1.17923
0.584518
0.221974
0.0630306
2.61767
-1.78118
1.58423
1.76883
0.128425
0.0609262
0.668296
-1.63772
0.0767031
1.33174
0.949968
1.34121
-0.198559
1.59215
0.565259
2.07407
0.0186818
1.33417
1.81456
1.25111
0.450606
-0.382737
0.702866
-0.731499
1.05701
0.81968
1.68418
0.439889
2.20587
0.500428
2.36908
0.304728
1.78547
0.236073
0.996105
-0.406541
1.42348
0.633463
0.745974
2.32239
1.45937
0.476957
-0.0438596
0.82239
1.44829
0.148943
-1.17928
0.865436
0.26044
1.85012
-0.532602
2.24303
0.584781
3.20462
2.28785
0.809593
0.587367
-0.394567
0.413001
2.42265
0.357347
0.356629
0.185912
2.60448
0.855546
1.12726
2.31823
-0.157648
1.53018
0.106416
1.65956
0.15189
1.55334
1.39797
2.00942
0.0927355
-0.877829
0.553635
-0.450899
0.62411
-0.803031
0.22141
1.92377
2.10849
0.0682781
-0.0698334
0.113064
1.87181
1.12061
1.23849
1.06461
0.241618
-1.94191
-0.495812
1.50646
-0.942752
0.254611
0.397794
0.868791
0.662927
-0.0197682
2.59413
-4.41728
2.23363
-0.27079
2.41546
0.0365975
0.367332
0.196106
0.132048
1.20734
1.44157
0.387464
0.268398
0.326111
0.239705
2.10238
0.000326515
0.4229
-3.69143
0.26299
-0.281513
1.72521
0.36603
0.202782
0.118194
1.46896
2.76213
-0.423275
0.239447
1.29761
0.179908
0.897657
0.216312
0.751625
0.265021
-1.28751
-0.141277
0.153455
0.193042
0.32229
-0.388645
0.0026506
0.301158
1.2487
1.4868
1.34513
2.67323
-0.41622
2.55751
-2.53072
2.34705
-0.229675
-0.17543
2.57176
0.786252
0.107232
1.34327
0.130941
1.49748
-2.70481
-0.980618
0.479359
0.00526555
-0.0320996
0.0694594
0.14445
0.777186
1.76479
-0.171925
0.839286
-0.777055
0.461337
-4.29684
0.145857
0.32723
-1.65282
-0.634689
2.0475
0.0661671
2.20059
0.61999
-0.533845
0.692404
-0.619227
0.199103
1.38045
1.76635
2.72566
1.19574
1.27389
0.403205
-5.85685
2.6199
2.77829
1.58008
-0.209553
-0.22656
-0.710245
1.2413
0.737541
0.548906
1.31923
0.106859
0.15826
-0.525645
2.29251
0.377506
0.437415
-0.308331
1.26187
0.657493
3.0425
2.81985
1.213
0.31812
0.261961
-1.99368
0.747633
2.8979
-0.42467
0.159128
0.888866
0.0272833
0.457199
0.182158
0.252091
0.463665
0.398167
0.689464
0.129656
0.588049
2.00166
-0.371805
1.45449
-0.226942
0.156402
2.47972
-0.279923
0.344302
-0.339144
0.784765
0.423576
-0.515261
-0.602801
0.151
0.408074
3.09832
-1.58356
-0.536504
-0.0475349
-0.604408
-0.890942
-0.369824
-0.624673
-0.421646
0.120083
-0.72077
-0.541087
-0.0317423
0.433286
0.30171
0.450787
2.99524
0.42384
0.578299
0.169502
0.648702
-9.90229
0.0963695
2.00381
1.455
0.596055
0.283301
1.37017
1.51253
0.118956
-0.30016
0.246818
2.00375
-0.0160682
1.48341
0.457196
2.21141
0.438663
-0.161266
0.360314
1.60045
0.00373535
1.32782
-0.175652
2.83398
-0.585448
0.213292
-0.521496
0.812557
-0.433805
-0.178257
-0.502209
0.402838
0.0531472
-0.173619
-2.91974
0.133806
0.469238
0.0342064
-0.549061
1.03942
-0.753148
1.14911
-0.41844
1.56685
2.58655
1.23522
-8.35073
1.36742
0.384996
0.370371
0.128687
0.153371
-0.841381
0.302939
0.0527628
0.0376264
0.345966
-0.832183
-2.23318
-0.386278
0.712632
1.54242
-1.53737
-0.456643
0.0257514
0.121166
0.266543
0.750653
-3.55132
-0.416756
1.47896
-0.280877
0.400371
-0.122183
-0.418934
-0.438351
-0.403626
3.11999
0.436069
-0.0237234
0.595952
2.45088
2.4873
-0.110399
0.105381
1.44755
0.145457
0.306772
2.5103
0.780348
1.10481
3.13076
-0.0264635
-0.243846
0.503097
2.18048
1.48591
1.39317
1.86722
1.18606
0.130784
0.177291
0.778186
0.515568
-1.24282
2.53275
-0.510329
-0.415119
0.126748
0.0320514
0.661827
-0.253335
0.106633
0.503051
1.43192
1.55596
1.58528
-0.664357
2.17202
2.45613
-0.463845
0.900105
0.181119
0.253489
0.316849
0.971823
-3.45269
-0.0288074
-0.435057
2.7639
-0.575141
1.60781
1.45891
1.90552
0.917506
1.07005
0.261797
0.125798
0.434201
0.165231
-0.643788
-0.654381
0.254358
-0.681054
1.75448
-0.142098
0.184426
0.593978
-8.49095
-0.292061
-1.04815
1.14832
0.113604
0.306488
0.861796
-0.093137
0.519311
-0.570344
0.209384
1.54505
-0.501545
2.56013
0.126071
2.78773
-0.0143673
0.243644
0.388927
1.37933
1.12977
-0.983918
0.201271
0.0542538
0.41458
0.886409
3.17458
1.91721
0.32004
0.0341054
0.605173
0.283419
1.58931
0.247622
0.972257
-0.340903
-0.415854
-6.86174
-0.157483
0.12756
-8.16036
0.913304
0.939538
2.4169
2.66621
-1.13716
-0.825197
0.394595
-0.503825
2.54453
-0.754214
-0.274054
0.832836
1.20175
0.0787932
-0.472614
0.454607
0.13032
1.1768
0.12908
-0.176258
0.337447
-0.213066
-0.849994
0.0680658
-0.955249
-0.763412
1.51783
-0.0782551
-0.181023
0.12792
0.312428
2.81494
0.810086
1.41805
0.128716
0.694302
0.332178
0.465981
0.657865
-0.593255
-1.52251
2.544
1.51427
0.325932
-1.63662
2.94871
-0.343193
-1.88743
-0.397065
0.474645
-0.402421
0.0280067
2.16348
0.275529
1.23035
0.762569
-0.807236
0.230168
0.300249
0.691512
-1.04563
0.348925
0.626743
1.35278
-0.421448
-2.08369
-0.794075
0.0618794
-0.677034
-0.491853
2.76059
1.0423
-0.277298
0.40677
0.647041
2.35374
0.681275
-1.53915
0.635188
1.84623
1.51118
-0.00902827
1.33146
0.264817
2.52065
0.131032
1.50002
-0.437789
-0.0107734
0.112107
-0.324637
0.519476
0.752536
-1.5321
-0.373421
1.66405
0.242462
0.307642
2.0111
1.18298
1.95867
1.31576
-0.0590013
0.0590879
0.381929
1.33211
-0.0548751
1.74139
0.905174
2.48084
-0.646545
1.91362
0.226552
2.54767
-0.905395
-0.175396
2.58336
-0.552249
0.855172
-0.581781
2.19664
2.4938
1.58095
-1.52907
1.49462
1.84832
0.0259526
0.776897
-0.0654935
1.98667
-0.462899
-0.868716
-0.853336
-0.867471
1.79215
0.2848
-0.772347
0.717455
2.47289
-0.404379
0.123274
-0.87807
-0.245448
1.0115
0.171266
1.42092
1.28007
-0.767723
2.84303
0.148566
2.10061
2.05982
0.237438
0.116061
1.19459
-0.588661
0.116626
1.11982
0.944185
-0.00147932
1.27315
-0.725202
2.38041
1.59608
0.493653
-1.365
1.54712
0.176735
0.989904
1.89716
0.55024
0.112297
1.82084
1.46611
-0.0448478
-8.36236
0.881283
1.54227
2.50738
-2.17343
2.66456
2.77448
2.71246
0.223221
1.77261
-0.411796
1.45602
1.94721
1.8921
1.54027
2.12515
3.03131
1.31718
-1.91202
-0.954004
-1.47268
3.00008
0.745662
0.259856
-0.481738
1.37281
2.18656
1.33566
0.526065
0.192088
2.13888
-0.521984
1.49022
-0.443394
0.855203
0.160795
-0.300908
0.88515
-0.378572
-0.359842
-4.39783
0.0719141
0.266345
1.73789
0.0985331
0.405213
1.2677
-0.383625
0.534123
0.104726
-0.369094
-0.45871
-1.71566
2.0207
2.19719
-0.377238
0.903713
1.84202
1.81253
0.0790709
-0.111541
1.52223
-1.32614
1.99458
-0.32552
1.92379
1.02056
0.552278
1.80877
0.94913
1.87704
0.567148
0.809827
0.00951194
-9.09836
-0.480021
0.241863
1.81884
-0.153525
0.0318514
-0.147096
2.18162
1.84046
0.694009
0.939643
2.09889
-0.702135
1.2694
0.270927
-0.0244254
1.29018
-0.12093
-0.606089
-0.439043
-1.12096
0.110004
-0.266476
0.273322
-0.687147
-3.37683
1.06397
2.54281
2.80703
2.38695
-0.162827
1.50142
-0.440638
1.26255
2.11381
0.486345
1.78614
-0.146589
0.525534
0.0125346
0.313812
1.9761
-0.640894
1.57293
-0.695301
0.0944239
-1.07071
1.64358
1.55959
1.49079
-0.54436
1.28464
-3.78579
-0.830514
-0.888698
0.489106
2.55107
-0.920185
0.146288
-0.397527
1.47782
1.42938
0.155956
0.924353
-0.592467
2.13905
2.0517
0.0356916
0.156263
2.06665
-0.059249
-0.385281
0.405077
1.88911
2.12723
-0.419776
0.77375
0.104887
2.48833
-0.696854
0.0239619
0.361966
2.31189
0.332411
0.0197859
0.239605
1.96182
1.2779
1.9416
0.276322
-0.796136
1.54898
2.9523
-6.17884
1.1444
0.36824
-0.778617
0.317198
0.55367
-0.444571
0.733938
-0.953888
1.10184
0.143689
-0.0445779
1.77996
2.16573
1.27748
-0.533021
0.0302364
1.62338
-0.621954
0.229134
-0.0358513
0.728322
-0.594618
1.59002
1.6179
0.277763
1.50566
2.45686
0.16256
0.985723
1.61142
-0.94256
0.991154
0.0590578
0.698412
0.038013
1.20821
-0.0280853
0.529342
0.164803
-3.69615
2.02636
0.127291
0.347063
-0.0316799
0.170944
1.50542
-0.604868
2.69921
-0.548863
-1.1077
-2.07468
1.85107
1.56808
1.92874
-1.30921
2.35474
-0.235178
0.919175
0.409066
-0.447912
1.38704
0.6172
0.0625103
0.878086
-1.64275
1.22922
-1.06837
-0.0814835
0.00506048
-0.305848
-0.390415
1.15229
2.41546
0.256375
-0.414996
1.81906
-0.441904
2.17546
0.106662
0.413337
0.994838
1.48261
0.691125
0.205418
-0.590677
0.364209
0.600263
0.731353
-0.449374
-0.35211
0.184643
0.459296
0.0189249
3.04279
1.48894
1.50511
2.21031
0.532851
1.60023
-0.118412
-1.09536
-0.104497
1.51571
2.93886
1.29958
-0.264616
2.01298
1.22712
1.25914
0.247507
0.295156
0.749854
2.71636
-1.45383
-0.0501101
2.22052
2.0746
1.44028
1.36981
1.73161
0.930125
-2.98996
-0.175795
1.52188
-4.61842
-8.86109
1.44636
-0.116578
-1.47486
-0.0928632
1.48967
1.56757
1.58512
0.184826
1.90867
1.97606
0.364815
1.68627
1.43348
1.46439
1.22618
0.670798
0.706127
0.0988067
1.82194
1.67809
0.328885
1.19492
0.194976
0.174988
2.38921
1.7469
0.0331177
-0.358666
0.413695
1.82025
0.827625
0.512583
0.149041
0.392293
0.127955
0.488794
-0.380306
0.25729
0.799258
0.191279
-0.260604
-0.554936
2.25592
-0.462562
-1.91695
-0.326532
2.42318
0.1992
0.430293
0.541379
-0.806589
1.24189
1.42676
0.68257
2.12197
1.04919
0.370957
-1.48486
-0.35441
0.153647
1.68422
0.341125
-0.431712
-0.705445
0.119123
-1.79537
-0.339296
-0.594232
0.0840512
0.738578
1.43258
1.86891
0.154498
0.275204
2.11695
1.57593
-0.414802
0.0495511
-1.44199
0.75149
0.426145
0.755821
1.4342
0.244197
0.177926
0.133629
0.637306
-0.187941
-1.4839
0.322516
-0.109082
-1.20085
-0.77291
-0.326005
0.330988
-1.30856
0.692245
-0.452402
1.47492
1.35251
0.335974
1.86441
-0.263781
2.43745
-0.00953604
0.453734
-0.448256
1.36945
0.890456
-10.9854
-1.19281
1.51144
1.76508
2.53502
-0.376024
-1.2859
-0.212028
0.116716
-0.000566086
-0.570429
0.0546788
-0.773335
0.865306
-0.429379
0.8637
-0.593204
0.0848847
2.17805
1.16657
-0.824219
0.184647
-0.537382
-1.77586
1.9107
2.81259
-2.79154
1.73523
1.34045
0.00498762
-2.70365
1.82042
1.75611
-0.632575
0.204529
-0.117388
-0.234356
-0.445089
-0.661365
-0.494914
1.07541
0.269505
1.61193
-0.49277
-0.750697
1.40495
-0.449655
-0.843036
0.383152
1.2036
-0.857254
-0.0358423
-0.751008
-0.53827
-0.832575
2.58537
-1.17429
0.215143
-0.41542
1.55156
-1.01583
0.22636
-0.471101
-0.414919
-0.094071
1.55913
0.0691711
-0.590112
1.1728
0.0498184
0.0436158
-0.437933
-0.560946
0.81765
1.07618
1.47059
-0.993985
2.18033
0.0837348
-0.0415963
0.242807
-1.3141
-0.193898
-0.57531
-0.156926
0.467564
0.800726
0.286986
0.149451
-0.129453
1.2566
-0.347212
1.46948
-0.359011
1.04355
0.104003
0.0425383
0.309627
3.1307
-2.71307
-0.861975
-0.885484
-0.0887544
1.49298
0.251048
0.334201
0.177375
-0.698038
-0.370678
-4.90437
-0.676072
1.51477
-0.58733
0.504546
-0.750967
0.323621
1.17404
0.242977
0.348953
0.118565
1.87463
-1.08969
-0.0281275
2.04011
0.569581
-1.03818
0.127962
-0.368302
-0.0868067
0.118031
1.81572
-0.140218
0.788875
-1.27546
-0.331999
-0.493919
-0.539484
-1.79153
0.495498
0.175874
1.52419
0.704311
-0.275277
0.558131
-0.21138
1.76812
2.16332
-0.824489
0.346921
1.47056
1.56612
0.917259
-0.10908
-0.258241
-0.276883
1.4593
0.657624
-0.0902052
-0.438113
0.610223
1.72588
0.156732
0.303992
0.377883
1.993
-0.601679
-0.678198
0.170345
1.32689
0.336498
0.27433
2.19162
1.7923
0.253972
-0.140586
1.79846
0.838628
0.259361
1.18864
0.0528781
-0.162374
-0.305701
-0.113837
1.76732
1.45305
0.0608054
-0.0907026
0.285929
0.0436859
1.51123
-0.133003
0.831982
1.89037
2.05409
0.127279
1.47295
1.14276
1.5401
1.65131
0.199522
1.65399
-0.0103643
1.48787
0.944615
1.56604
-0.371458
1.79256
1.68792
1.45241
1.0466
-0.000898519
0.862817
0.232727
-0.0317123
1.9558
2.04767
-0.094326
2.03622
-0.123821
-5.69157
1.47677
1.52495
-0.406076
0.324106
-1.242
-0.0957082
-1.01771
-0.247212
-0.379723
0.0427169
1.21542
2.74619
1.79711
0.145725
-0.370205
1.44719
0.859265
-0.896833
-0.172811
0.0436116
-0.76787
-5.04959
-6.86366
1.43828
0.301444
0.834555
0.1207
0.114728
0.277319
0.116052
0.459608
0.498031
1.13342
-0.00756729
0.137215
-0.814909
-0.31589
0.915038
0.912266
0.0909116
-0.575172
1.07614
0.0748087
0.7252
-0.0283502
1.53017
1.12982
2.31835
1.45657
-0.0797153
0.0780482
0.0199368
0.0560872
0.154446
0.180851
0.176765
-0.0928448
2.8105
0.342089
0.228684
2.14186
-0.407796
-0.439816
-3.88965
-0.365882
-1.23812
-0.138032
-0.379966
1.2848
0.168347
-0.0571637
0.328352
0.0955708
-0.126154
0.0412147
0.333482
1.20309
-0.565759
-0.304475
-0.467637
0.594987
-0.105877
1.53211
2.21369
0.0668332
1.5402
0.704219
1.15034
2.44955
-0.398038
0.992922
0.719459
0.937268
2.08633
-0.119906
0.189611
0.184253
1.48507
2.20992
-0.0544369
0.246376
-0.107317
-0.0794268
0.918321
-0.0233709
-0.487403
0.0365409
0.73599
-1.37505
0.545742
0.50378
1.31302
0.471148
-2.11158
0.323314
0.194664
0.229341
2.37194
2.68978
1.93062
2.91566
1.3372
1.56761
1.57724
1.28895
1.41253
-0.0522631
1.4301
0.0815174
-4.51885
2.13128
0.13264
-0.124974
2.5626
0.388929
-0.296186
0.922387
0.851478
1.76068
-0.803535
1.382
2.39605
-0.413806
-5.72135
-0.487722
0.814499
-0.453534
1.83544
0.330674
1.7444
1.4559
-0.34805
1.64549
-0.0590806
-1.65943
-1.86318
-0.146404
1.70134
-0.0882061
1.53996
0.133363
-0.602798
0.331775
0.262223
-1.26794
-0.00351248
-1.14335
1.72478
0.521925
-0.890575
-0.0815874
1.06338
0.57715