/*--------------------------------*- C++ -*----------------------------------*\
| =========                 |                                                 |
| \\      /  F ield         | OpenFOAM: The Open Source CFD Toolbox           |
|  \\    /   O peration     | Version:  2306                                  |
|   \\  /    A nd           | Website:  www.openfoam.com                      |
|    \\/     M anipulation  |                                                 |
\*---------------------------------------------------------------------------*/
FoamFile
{
    version     2.0;
    format      ascii;
    arch        "LSB;label=32;scalar=64";
    class       volScalarField;
    location    "5.8";
    object      p;
}
// * * * * * * * * * * * * * * * * * * * * * * * * * * * * * * * * * * * * * //

dimensions      [0 2 -2 0 0 0 0];

internalField   nonuniform List<scalar> 
13486
(
2.5186
2.03394
0.0832524
-0.471076
0.844151
-0.216084
0.38761
1.43556
1.71845
0.932529
-11.4223
0.428566
2.65477
-0.242646
0.663111
1.03107
-5.15037
0.113197
0.595166
2.27402
-0.288613
2.62412
1.99557
-2.51731
0.888328
-2.27663
-6.00914
-1.07601
0.0026977
-0.951711
-0.182385
0.491771
-2.07812
-0.664695
1.43864
0.0134053
-3.60283e-05
2.07138
-0.134647
1.71211
0.274564
2.7561
0.0356601
0.885745
0.847218
0.403732
-4.08569
0.00508023
-0.000177419
-0.997796
1.49013
-0.150779
0.322493
2.10345
0.0549385
0.909031
0.0515954
-0.154525
-1.97172
0.00673428
-12.4491
0.0104629
-3.11472
-0.256717
-1.34146
0.00409235
-0.655241
2.52137
1.70859
-0.0363691
-0.668577
0.0723374
1.71877
-4.78908
0.0124381
0.0538672
0.0122701
0.648275
-4.3949
-0.230445
0.00537983
2.05859
-3.1748
0.089251
2.52913
0.90066
-0.16753
1.4109
1.69028
1.02113
0.365715
1.25079
2.41909
2.16981
1.78846
0.00353742
-6.15806
-1.02739
1.6852
-5.11519
0.0276683
-0.147425
-1.04283
-0.149462
1.08884
-5.09073
1.70074
-0.143522
-4.39087
1.13756
1.65812
0.396282
2.10181
0.0509873
2.94798
1.73538
0.891063
-0.619023
1.73427
0.00357827
0.112832
-11.9452
1.86769
-0.140646
1.65171
-0.139161
1.21964
0.426564
-0.545091
-1.01205
-0.134837
-3.64728
-5.53736
-4.24073
1.56327
1.38801
2.92139
1.18192
0.00290134
1.47678
-1.62467
0.317939
0.496168
-0.236903
0.047094
-4.71293
-0.0924511
1.73742
-1.0842
0.00168882
0.998353
0.623392
0.00672765
2.09959
0.506263
0.0767829
0.947973
0.0699579
1.88064
-0.161072
-0.738925
1.88109
0.241808
2.74798
-0.155935
-0.520556
0.00729265
3.37047
-0.109131
-4.24296
-5.59608
0.521052
1.19116
0.916543
0.00416651
-4.18946
-0.454323
-1.88916
1.70354
0.507251
1.60945
0.0512652
0.73972
-6.29572
0.0777235
-1.07231
0.000590965
-0.874554
0.343073
1.82177
0.00341437
0.0749257
-0.183065
2.16883
-0.215583
-11.0338
-1.06628
-0.779423
2.27609
-0.431552
-0.204065
0.402288
2.0758
0.705073
-0.116595
-0.22257
0.0815176
1.84654
-0.171611
0.0881354
-0.973254
-1.69617
2.2445
1.70093
-0.214719
-0.466852
-0.998114
1.05131
2.29465
-2.14808
-5.13308
-1.10892
1.5141
-0.791548
0.209151
2.46387
-0.519627
-0.800147
-0.376997
-0.179811
1.58971
-0.115194
-1.70086
2.80914
-0.676758
2.36848
-0.7423
0.0753584
2.39221
0.77107
-2.10681
1.1688
0.0559511
2.25769
-0.132245
1.93835
0.802134
-1.48121
-4.18229
0.994256
-3.25215
2.98026
1.67739
-0.150422
-0.295461
-5.68711
0.476981
-0.446591
0.0898031
-2.03524
1.86503
-0.12528
0.649705
-5.20858
0.948673
-6.45025
-0.385388
-0.257057
1.59188
0.0782582
1.70227
1.66518
-1.03592
0.318207
2.46784
-1.38528
-0.297023
-0.188633
-0.16419
-0.0470316
-0.223418
1.40985
1.71832
-4.82696
-10.951
-5.29241
-1.55152
-0.568908
0.200202
1.60641
-0.602316
-0.0679696
1.79447
1.57937
-0.704906
-0.803603
-0.742484
0.288033
1.75115
0.353252
0.224951
0.0829266
-0.0715929
0.522325
-0.00565412
0.734778
-0.141982
0.838339
-0.177057
0.00301116
-4.16265
-0.432453
-0.171723
0.39771
-11.5026
1.41802
-0.072008
1.69387
1.85519
-0.444264
0.00372668
-0.0680656
1.68973
2.18415
2.8917
0.388566
1.08764
1.3804
0.159507
1.00859
1.42323
1.19783
0.330633
2.33135
0.379421
1.68842
3.05718
0.664517
1.06758
-0.125375
-0.412633
2.16285
0.973322
0.759104
-6.99304
0.00320809
1.14092
2.9527
-2.16104
-0.0812766
1.10207
0.208624
0.297784
-6.40848
1.73826
0.000656373
-4.93869
1.1929
-0.185535
-1.60607
0.612254
0.343954
1.89351
1.66987
-0.99418
0.0036779
-0.765581
-3.47068
2.29716
1.20472
0.0263852
1.1598
0.173638
-4.08827
-0.141999
1.52407
1.731
-0.0975916
-11.0035
-3.34968
1.57124
1.16561
2.65275
1.80186
-3.73493
-0.315515
0.132217
1.0408
-5.15058
-0.079591
2.2077
-1.12454
0.749425
2.41031
2.48043
0.0100528
-0.527745
-3.84508
-5.18082
-1.63635
-5.18228
0.474352
1.50034
-0.210255
0.42614
-0.0386363
2.13762
-1.83679
1.22
1.92375
1.01678
-1.12052
-1.21776
1.756
1.71485
2.09198
-5.939
0.974645
-5.61971
0.797827
1.7039
0.216509
2.96221
1.11656
-0.634589
-0.831546
0.392565
1.71645
-5.88699
0.116314
2.6018
1.50565
0.731278
0.163261
0.792541
-1.62826
2.63961
-0.0783207
0.961062
2.48151
-5.23755
-1.05365
-4.20792
-1.24142
-0.51765
2.00641
1.98119
2.61618
-3.45752
0.00048502
-7.30138
1.08935
1.724
-0.97898
-1.31629
1.69053
-2.9456
-4.22707
-5.33351
-4.43532
-0.0438829
2.12093
0.00406983
0.145053
-0.324084
1.62986
0.00528799
3.21486
2.44908
1.72072
1.38472
0.0164229
0.00237952
3.04032
-0.329279
0.00503102
-0.624477
1.70401
-5.24728
0.267523
1.21853
-0.00113793
-0.688168
1.97454
-1.93775
-5.17394
1.12861
-0.0979231
3.35858
1.15081
1.50587
1.84541
-4.62724
0.140932
2.72966
0.857363
2.19514
0.408167
0.501706
-0.308123
-0.230872
0.0349552
-5.08787
1.75748
1.69744
-3.33616
0.00231347
-0.274187
2.50412
2.01289
-0.313595
1.72898
1.2449
-0.649846
0.95853
1.531
-5.5917
2.60981
0.0186276
-0.0301122
2.73323
1.18013
-0.00134846
1.12159
-0.400224
-2.28502
0.693087
1.08907
1.89442
2.42566
-6.97518
0.783317
-7.05199
0.00275563
2.36323
0.497345
-6.13951
-1.18552
0.209827
0.0833303
1.38134
-1.22583
-1.24807
1.73437
2.30699
-0.171002
1.8578
-4.57205
-4.86363
-1.69835
0.730026
-7.77189
1.86028
0.118979
-12.5677
1.45115
1.99816
-2.0887
-6.86492
1.51088
2.36533
0.56938
2.53903
0.128002
1.16055
0.418135
1.87827
0.0468574
2.30265
-6.24097
0.451199
1.6466
-0.505052
-1.30595
1.68667
-5.29225
0.304102
1.94968
2.6208
-0.48976
0.0844719
0.50365
0.259737
1.5008
1.2404
0.597089
-8.00478
0.0484734
2.50533
0.303104
0.177701
-3.25677
2.63728
-0.590038
0.0526745
1.65521
1.36448
-0.234399
-0.431794
1.46216
0.117979
-0.16199
0.688692
-1.55921
2.5561
1.69197
1.17825
1.21297
0.074802
-1.54786
2.85933
0.541266
2.86822
-0.68427
1.61003
0.0118577
-4.81652
1.04732
0.988178
2.99441
-2.38051
1.11935
1.04961
-2.30671
0.949965
0.11106
-0.604783
1.65447
-6.8836
-1.23596
-1.69769
-0.199887
-0.54985
1.83126
0.00486288
2.7897
1.6919
-0.100774
-4.5398
-0.960055
0.579825
-10.7593
-0.312086
-5.12374
2.34979
0.000744049
0.0563684
-9.63057
2.66119
0.00253209
0.231108
2.73209
1.51026
-5.40152
-0.174343
1.19424
0.171754
1.63681
0.053178
-0.721886
0.674171
1.53059
0.530357
1.37719
2.77111
0.0527432
-2.27383
1.6854
0.230286
-0.279833
1.1638
1.27981
0.773265
-5.65633
0.121871
-0.0955327
0.186487
2.35951
0.551675
0.137947
0.0977692
0.185234
-0.243179
1.72892
-0.00612017
1.60134
1.59994
2.33763
0.133883
-1.18883
2.84549
0.0197142
-2.72067
1.77004
-1.63791
1.92022
0.0458742
1.65412
-0.207874
-4.53414
-2.07873
0.00474917
-5.16429
0.935911
2.92386
-0.535157
-4.24816
-0.597402
1.76997
0.0412753
0.780801
-10.854
2.88864
-5.50631
0.899919
-1.05643
1.01334
1.70593
0.684164
-3.08397
-0.187092
2.70365
1.73108
0.747715
1.49928
0.152734
1.33011
1.35806
1.02104
-4.13376
-0.295979
2.11779
0.388074
-0.170137
1.42586
-2.27592
-0.5133
-0.0955505
1.82387
1.81519
-1.35277
0.096275
-4.99971
-0.21683
0.127865
-0.532125
0.345706
1.64703
-0.0452705
-1.46466
1.98205
0.0032484
-0.733613
-0.0978403
-0.752173
-1.33412
-1.84451
-0.102998
-7.08592
1.62541
2.6506
0.00864027
-0.737826
2.73939
2.57129
-0.442553
-1.10581
1.75621
-4.53526
0.0524031
0.0262679
0.0999263
0.953179
-5.17077
0.81785
1.17034
-0.665934
-0.307964
-2.30421
-0.187374
1.46286
0.783314
1.08825
-1.80833
1.47926
2.51949
-7.93076
-6.48073
1.90648
0.63222
1.12626
-0.129983
-0.91428
-1.99616
-0.142368
1.73528
2.87473
1.85303
0.0717753
-0.14117
1.69467
2.44942
-0.391658
1.81641
1.66831
2.55553
0.419824
-0.0882813
0.277251
-0.432597
2.54382
0.102426
-0.134219
1.15333
-0.297356
0.411727
-0.116912
-1.58255
1.62508
1.26043
1.20258
0.83934
-3.80591
-0.392986
-0.493037
0.95918
-1.65796
-0.791472
0.0460182
-7.44294
-12.9579
0.922879
-0.92325
-4.14649
-3.29738
-0.596179
1.26913
-9.97656
-3.70792
1.89519
-0.456896
2.63021
-0.783867
-4.24553
2.01136
2.37786
0.0155134
0.135481
0.428701
1.7528
0.977942
-2.60722
-0.226105
-0.0061706
-0.283433
1.66194
0.0541961
1.02323
-0.0774471
1.70677
-6.01887
0.0513249
-0.00115153
2.0548
-1.33834
-11.8505
-3.19497
2.60431
0.0646071
-2.29701
-11.7746
1.67112
-2.97149
-0.067906
0.385754
0.80625
-0.0349199
1.1676
-1.27653
1.41513
1.67843
1.9613
0.799812
-0.0455617
-0.605716
1.30651
-0.520646
2.04072
1.19091
-0.236463
-0.152798
-0.334021
-0.0762324
-0.00266144
1.91955
0.715835
0.243931
1.68924
0.0949914
1.34881
2.96369
-0.115846
-1.99616
1.18892
-0.0868393
-0.0948518
-0.354475
-0.317195
1.66513
0.0545047
0.0227558
0.0442386
0.164887
2.17123
-5.06172
0.00503869
1.69605
-0.0773048
2.39843
1.9441
2.25478
0.425164
1.09773
0.532534
0.0596842
1.27365
1.65158
-0.167959
-0.51475
-2.95977
-0.892399
-9.12064
1.67214
-3.8688
-2.47354
-6.81589
-0.156455
2.80109e-05
1.71
0.0094206
0.348379
-4.34795
1.72427
2.92945
-0.0504507
-10.642
0.982773
0.0175474
1.61645
-0.139031
-0.134553
2.03477
-0.164539
2.77961
1.15946
1.68545
-0.892697
2.18907
0.0508919
1.95572
0.0185081
-2.12473
-0.444067
-2.66162
1.12548
-0.0879904
-0.0582886
2.61973
1.71935
1.83864
2.38736
1.87335
2.04855
-0.481464
1.76778
1.73564
1.73962
-0.447081
-0.516714
-1.10414
-1.42691
0.452765
1.90482
-4.58163
2.50445
-1.46838
0.0532418
2.84927
2.40754
-0.507476
-2.36347
1.69699
0.910167
0.132538
1.59089
-4.44183
-0.636286
1.68379
2.33539
-0.129947
1.87415
2.16678
0.00534879
-0.715358
2.17901
0.757069
-0.00030528
-8.06718
0.0839127
-1.53136
1.59579
1.2078
-0.0171364
-0.0605933
-1.10084
0.455887
-0.0796047
0.400564
2.46145
-0.125293
3.16255
1.68245
0.573631
1.89585
-5.51017
-5.03591
-2.64623
1.66089
-0.133072
-4.03623
-0.18553
0.867085
1.02727
-0.118503
1.2207
-3.56055
0.878028
0.0701543
-0.0875979
1.35228
0.53965
2.19153
1.73167
1.78912
1.62093
-0.51452
-1.7357
-1.32394
0.109919
-0.619547
-0.203002
1.32691
-0.347317
-0.0450483
-0.0166075
0.224065
-11.1372
1.1853
0.842831
-0.274854
-1.16292
0.818593
-1.05524
-1.69432
0.238619
-0.0951573
1.87043
1.28152
2.17392
-4.22453
1.54774
0.0493662
2.35233
-0.133511
0.923075
0.142674
-0.197963
2.72702
2.80368
1.39667
0.944758
1.18132
1.55238
2.75852
1.16367
-1.85681
-10.1848
0.33355
-1.39736
-3.26745
1.71372
1.61639
-0.0409551
0.484654
1.42899
1.52634
2.99471
-4.55897
1.35637
-5.21224
-0.31974
2.41615
-0.338619
1.40896
-0.311718
0.580491
0.671716
3.11445
-0.507771
-1.11926
0.884894
0.259804
-7.46902
-4.45009
0.132797
1.88747
-1.09226
0.94898
2.56767
2.3604
-0.236027
-2.90555
-0.6799
0.334243
1.98943
1.58506
2.34719
1.032
-12.0552
2.46002
1.54407
-2.38185
1.30572
1.74361
2.12991
-10.1301
-0.167029
0.00128801
1.46163
2.69535
0.902632
0.237469
-1.53849
3.00714
-9.07114
-1.58958
2.80821
1.50668
0.0305968
1.34592
-0.580872
0.93896
-0.745674
-9.34957
-0.110021
-3.42474
0.0892086
-0.582028
-4.90285
-5.1607
-3.62054
0.152293
-5.17425
-3.48381
1.33676
1.5815
0.913848
-3.72477
0.454769
0.299356
-0.523068
3.14692
1.12353
-1.18018
1.50521
-0.737458
-3.80493
1.39978
1.3895
1.61291
3.17789
0.00458672
-0.332028
-2.59601
0.0819462
1.15674
1.66421
-0.622307
2.48694
1.20721
1.79408
-0.320705
-0.224411
0.0596547
1.75339
1.70045
1.81973
1.69841
2.92533
2.87997
-0.763507
1.5137
2.14937
-1.13969
2.34071
-0.097536
2.84658
2.31915
0.0880208
1.92429
0.867988
1.29376
0.0127615
1.73223
-1.66558
1.46883
0.627952
1.15435
-0.217958
1.61285
-0.0731031
0.444965
2.75241
2.74687
1.12784
-4.28108
0.409369
0.151741
-0.306871
1.39781
2.46719
-4.27223
1.743
1.61662
0.830263
1.74223
-7.18813
-0.323396
-0.020291
2.96683
0.500686
-1.09927
1.95828
-0.222897
0.0585135
0.884377
0.33217
1.31657
0.706845
-0.905458
1.01219
1.3631
1.12263
1.27053
2.8966
2.38238
2.10713
1.92086
2.6952
0.81236
-0.110293
0.0671251
-1.69886
2.71839
-0.357725
1.6753
1.51586
-5.40786
0.888336
1.86029
-2.25655
0.847318
1.1099
3.21694
-6.4683
0.752474
0.0136609
1.93751
0.0745155
-0.688028
2.67518
2.29058
1.63117
1.65238
-0.837874
0.829213
-5.07277
2.87378
0.0251967
3.09202
-0.0750442
0.247991
-5.06709
0.927504
-4.83082
0.329119
-0.173562
0.640007
-0.14248
0.610143
-0.92258
0.00130095
-0.440375
-4.17466
-1.06183
-2.69022
-0.181554
-0.230579
-0.260752
-11.4725
1.73254
1.76544
2.1498
1.68256
0.688425
0.659617
3.35476
1.63332
-6.01443
0.00491175
-0.142035
1.32585
1.4808
2.4922
-1.48312
-1.4909
1.38824
0.00287717
0.432599
2.1187
-4.35243
-6.52426
-5.07776
2.90633
-1.0031
1.16944
2.14746
-0.133806
1.33809
-0.0594071
-7.77893
-6.83116
-0.0579641
1.16636
2.00846
2.10727
-2.83054
-4.26231
1.12791
-5.04701
-0.980641
-0.519991
0.363191
-0.711217
-0.178166
-1.19477
-6.63148
-2.34787
2.58194
-0.326036
2.8073
-8.08765
-0.308512
0.646524
0.0422177
2.38895
1.66479
2.00249
-0.130369
-0.75593
-8.42558
2.30255
-4.15843
1.2641
-0.087851
2.05124
2.37943
-0.0958182
1.65706
2.70046
1.85583
1.80979
-3.12184
-0.0630075
0.709068
-1.53759
-0.171696
1.03
1.21775
0.0777804
-9.80699
0.398898
0.011537
1.47905
1.26248
-1.01192
2.837
0.0823646
0.000875445
0.227602
1.6697
-1.04506
0.00645276
1.83087
-0.834849
0.0551591
-0.349911
1.79252
1.67592
1.60106
-0.180843
1.6045
1.9489
1.89781
-0.731851
0.056607
0.425676
1.45301
-1.49562
-5.30299
-1.93957
-2.07233
-0.570992
0.0402126
-0.159128
0.0508645
-4.53818
-1.10478
-12.0892
0.000441309
-0.776408
0.667324
-7.10365
1.79834
3.38691
0.621216
-0.436875
0.798549
0.235569
0.409025
0.0228628
-0.920125
-5.9948
0.147339
2.22187
0.00521602
2.65513
0.0237182
1.59703
1.38699
0.747609
-5.26605
1.00031
2.91305
-0.263224
1.70014
1.63736
2.48122
0.14966
2.28097
1.81914
-4.9456
1.93396
-6.62654
-6.65427
2.33123
1.50807
-2.51768
0.0901914
2.17912
0.2307
-1.95191
0.0481632
0.0487656
1.33736
0.944595
1.71034
1.58567
1.42792
-3.28283
-1.07961
-0.682844
1.67321
3.09184
-1.03421
-8.27489
-5.19989
1.69829
0.117119
0.124005
0.759662
0.12019
1.31002
-0.139879
0.396376
2.57024
0.791286
0.0919287
-0.215736
-1.69197
-1.63968
-5.1956
-2.28538
-6.76947
2.01444
0.940849
-1.21429
2.69333
0.00536729
-8.51356
-0.499141
-7.06867
1.82244
-4.13249
0.600289
1.68132
-0.238155
-0.750929
-0.188709
-6.27354
-0.575092
1.84924
-11.9044
-0.0743013
-5.03632
1.63851
1.80187
-1.08865
2.12683
1.96815
2.55908
2.6169
1.87894
0.278103
2.96772
-5.07144
1.64369
0.349404
-8.44318
2.05769
-1.63297
2.56563
0.835465
-1.7927
-3.99289
-2.89801
1.81456
-1.93261
-0.832699
-0.12068
-1.21788
0.0908297
1.08081
0.336934
1.23045
2.90336
-4.40796
-2.21154
-0.866212
1.76168
1.30773
-1.49135
3.34731
-0.102293
0.0149281
1.13138
-1.63868
1.63145
1.7331
1.93265
1.96266
0.113229
0.915765
1.6055
0.365347
-0.187146
0.0041004
1.82861
1.88328
2.323
-0.183205
0.0734516
0.895814
1.06171
0.323859
-5.53709
1.42306
-0.415697
1.491
1.74744
-5.15273
2.65149
-2.00623
2.85987
1.92076
-10.7612
0.00388116
0.00679302
0.714189
1.78879
-8.58712
2.28533
1.6177
0.887737
0.04197
0.333554
-0.337484
0.888747
-5.0989
1.05274
-0.499198
1.65615
-5.32417
0.0358623
-0.653466
2.08225
2.41007
0.879441
-5.05376
0.863862
-0.249623
0.0616951
0.981891
-0.148103
-0.145363
2.81042
-0.808088
-0.0817241
-1.58878
-7.72102
-0.0239425
1.7409
-5.12663
-0.550579
1.78135
1.08256
1.8092
-3.17674
0.774001
2.83492
-3.16849
1.65075
0.535011
-0.101372
0.622976
0.382241
-1.12719
2.89323
1.92489
-0.0578999
2.80459
2.18812
2.06809
-4.82376
-5.1874
1.10069
-1.94719
-0.0107812
-3.74261
-1.693
-3.43218
1.32781
0.653858
1.02519
1.13098
-0.125103
1.28367
1.68242
-10.5082
1.77119
1.08775
1.69025
-0.250273
-8.07801e-05
-1.13047
-5.21465
-2.50325
-0.644364
1.66504
-9.20575
2.57425
-5.26125
1.63889
1.05673
-0.0194175
0.313751
1.71815
0.817672
0.438478
1.51267
0.213236
0.0934869
2.43802
2.01024
-1.59721
-4.92391
0.0669644
1.5121
0.0584812
0.795992
-2.781
0.0462858
-0.288085
-0.947485
1.45857
1.42818
0.243991
0.810138
0.00669679
-0.0643158
-8.20404
2.08903
-1.51998
1.60926
0.00323274
1.47423
1.77964
0.99857
1.56052
0.101023
-0.933578
-0.0458154
-5.43891
-1.88192
-1.85874
0.0374705
-0.0470811
1.37602
-0.0538549
1.66159
-0.0289359
0.103931
-2.46767
-0.0927993
1.74279
-6.82059
1.63021
0.431204
-5.38665
-0.0419688
-1.69522
1.19163
1.78283
-0.062988
0.316815
-5.13523
1.98489
0.12382
0.522316
-6.70713
2.10704
0.836862
0.0117263
1.79382
1.74272
2.03532
0.326043
2.08528
-3.3639
-0.03591
-0.230337
1.63909
1.11627
0.458999
0.227752
-4.04707
-7.50619
0.928447
0.0707148
-8.44774
2.61161
-3.40297
2.00702
1.20736
-0.848676
-0.115016
-0.433942
-0.215372
0.232967
0.249693
1.59977
-0.0348509
1.69499
-2.53998
0.727478
-0.137645
0.415371
-4.54871
2.10349
2.84433
1.83593
0.97326
0.394102
1.14998
-5.89654
0.0681456
-0.22282
-0.295079
-1.82224
-11.4902
-4.90231
-1.16481
1.49354
1.66687
-3.70088
0.431772
1.90535
-1.01048
-2.30964
1.81939
-0.118366
-11.0581
0.0395588
-0.332494
0.00565348
2.66828
-0.239715
1.62114
-1.59882
-1.04764
-0.979694
1.63873
0.441813
1.39262
-1.27841
-1.34952
-0.357361
0.32744
1.94928
1.47117
0.344784
-0.146538
-0.697773
2.95575
-0.176361
1.90554
2.10062
-0.0345423
-0.153284
0.783598
-5.17775
-1.00715
1.49118
1.01724
1.61314
-2.641
1.84405
0.245166
2.39739
0.33369
1.51151
2.11984
1.42409
0.347842
-5.61189
0.590772
-6.16035
1.46558
0.809834
2.0268
0.180865
2.55035
0.293455
2.71395
0.00831508
2.12315
-0.197083
1.25732
-8.82872
1.62811
0.816354
0.749669
2.515
1.68079
0.433595
-1.05996
0.967786
1.61045
-0.088052
-5.17828
1.2184
-0.967086
2.17876
-1.18962
2.59634
0.464561
3.38669
2.60982
1.25113
1.11563
-9.74213
0.131531
2.77641
-0.101293
-0.0524091
-0.262111
2.73196
0.879821
1.43845
2.32686
-1.10603
1.81728
-0.534455
2.00405
0.0577235
1.8994
1.69939
2.32682
-0.113346
-4.01119
0.501561
-1.9103
0.788763
0.321747
-0.905342
2.16255
2.44152
0.0246838
0.595702
-0.492891
2.19986
1.37514
1.54118
1.08009
-0.203734
-5.17887
-0.370587
1.73487
-2.54526
-0.0191306
0.15338
1.19428
0.810199
-1.05967
2.92338
-0.0693091
2.57373
0.536117
2.61063
-0.904055
0.388624
-0.00633896
0.0558348
1.41146
1.66807
0.112231
-0.0118795
0.0149977
-0.0305895
2.43252
-0.482044
0.0369634
-0.110346
-0.0101366
0.617555
2.06093
0.819725
-0.0708297
0.0245979
1.68156
3.09929
-2.06036
-0.3475
1.63794
0.078376
0.897607
-0.102929
1.21871
-0.00854206
-3.56302
-0.366153
-0.403265
-0.311474
-0.12963
-3.74992
-2.10642
0.0363865
1.34068
1.78515
1.48758
3.01682
-12.7615
2.72198
-4.96372
2.58287
-8.59851
-1.25921
2.91855
0.736278
-0.819264
1.71663
-0.114133
1.84592
-0.216303
-5.08083
0.28438
-1.12684
-1.37784
0.00379251
-0.311419
0.714741
2.09611
-8.24434
0.788413
-2.49433
0.44386
-0.0899499
-0.0817734
0.203899
-0.106002
-2.07252
2.20401
-0.0326156
2.41932
0.65371
-6.6748
0.618335
-1.363
-0.00098716
1.46946
2.09746
3.01421
1.30347
1.45184
0.811216
-4.32681
2.91236
3.11484
1.84432
-0.997228
-2.59679
-6.49762
1.55279
1.11336
0.627143
1.40467
-0.227414
-0.0565238
-10.931
2.5077
0.238656
0.231928
-0.805569
1.626
0.406377
3.3109
3.1102
1.48058
0.214119
0.466377
-3.92697
0.716576
3.18902
0.169652
0.00266264
1.24807
0.00666382
0.353199
-0.227732
-0.450989
0.358335
0.266963
0.784207
0.0170157
0.577703
2.34225
0.565031
1.7741
-0.962363
-0.551188
2.82471
-4.44096
0.29972
0.475075
0.772172
0.342101
-1.28836
0.392382
-0.0746047
0.318558
3.33175
-5.25548
-3.65018
-2.74827
-0.999979
0.144152
0.473572
-0.921103
-3.32663
0.0127541
-3.04278
-1.26078
-1.50033
0.336538
-0.231849
0.185846
3.26219
0.207811
0.499367
-0.306437
0.380223
-4.17941
-0.665321
2.30366
1.64983
0.510213
-0.0160897
1.57429
1.78283
0.0863779
-10.6093
-0.226136
2.29725
-1.09943
1.58753
0.0893732
2.56932
0.180663
-1.14752
0.174656
1.83104
-1.00213
1.5179
-1.11841
3.16335
-0.80754
-0.380813
-10.5287
0.816597
-1.3498
-1.35514
-0.9148
0.176395
0.792369
-3.17801
-0.138122
-0.213798
0.357201
-1.47091
-1.28504
1.34913
-6.26613
1.45802
-1.04614
1.84964
2.8987
1.58173
-4.28582
1.70176
0.154791
0.318552
-0.242103
-0.616306
-5.22068
-1.06578
-0.760161
0.771795
0.0372361
-1.03568
-0.0298229
-8.32026
0.8691
1.7173
-1.6061
-1.535
-0.542456
0.0117764
-0.0315269
1.00236
-3.02601
-1.71397
1.72561
-0.0521962
0.988312
-1.76769
-10.1221
-7.36911
-13.1791
3.24835
0.545024
-1.34906
0.538651
2.73341
2.83135
-1.37637
-0.553548
1.67944
-0.0537322
-0.751972
2.80666
0.947193
1.49924
3.31498
-0.436667
0.536766
0.296792
2.51025
1.74691
1.74585
2.11662
1.22635
0.0403766
0.0727855
0.827404
0.412023
-5.25522
2.87194
-0.730893
-0.836846
0.0183658
-1.37951
0.838875
-0.812456
-0.60784
0.428475
1.75663
1.82305
1.93286
-5.66313
2.47462
2.79815
-3.86183
1.0597
-0.224746
-0.130148
0.30629
1.02653
-0.0420628
-1.02354
-1.01577
3.0994
-6.62939
1.94473
1.67891
2.2293
1.281
1.32284
-0.0251661
0.0347249
1.01901
-0.151466
-8.24014
-2.37588
0.0572222
-0.636114
2.06439
-2.7233
-0.0411758
0.397326
-4.15301
-1.09516
-5.09798
1.49426
-0.538963
-0.211175
0.828094
-3.59215
0.613118
-3.86179
-0.225367
1.80874
-7.79156
2.85912
0.0132395
3.02903
0.0050801
-0.224534
0.217867
1.49724
1.43934
-3.00702
-0.27968
-0.279331
0.195253
1.19387
3.3142
2.23645
0.582201
-1.03919
0.902987
0.07047
1.93595
-0.0674462
1.03638
-0.42784
-0.80444
-4.08913
0.659069
0.0389372
-4.15681
1.14092
1.07417
2.77052
2.96197
-5.17497
-5.21073
0.138531
-1.49628
2.89225
0.136589
-0.60405
0.779978
1.2514
-0.440248
0.126281
0.169071
-0.108736
1.55329
-0.294984
0.538679
-0.0441222
-1.15327
-2.75022
-0.401513
-2.80182
-2.56218
1.86589
-1.62419
-0.969445
-0.586991
0.13071
3.1413
1.26827
1.59487
-0.635609
0.872426
-0.0525967
0.707682
0.556783
-0.909606
-4.83003
2.88421
1.78126
0.0124759
-4.64864
3.24794
-1.22952
-5.59235
-0.362909
0.880967
-1.53607
-0.412393
2.49813
-0.0804227
1.55536
0.722125
-0.507907
0.181901
-0.355195
0.841682
-2.9943
0.054516
0.574862
1.64804
-1.88476
-5.57773
0.142866
-0.843317
-1.73267
-1.59636
3.05664
1.14566
-9.223
0.837058
0.473215
2.70427
0.965185
-4.93737
1.03668
2.13278
1.84436
-1.15678
1.51468
-0.0244604
2.86098
0.0359408
1.73779
-7.92196
-1.06131
0.0157247
-0.573296
1.03072
0.622615
-5.14873
-1.96246
1.9839
0.00760721
-0.114017
2.34445
1.35963
2.28304
1.58914
-1.41039
0.0208207
0.0916396
1.6686
0.00137298
2.09078
1.33027
2.83233
-0.720171
2.22317
0.881898
2.85609
-0.459848
-1.0581
2.92289
-0.805521
1.30387
-6.99517
2.53294
2.81676
1.82119
-2.54476
1.68492
2.17415
-1.36599
0.789346
-0.961366
2.3226
-0.919076
-0.12736
-5.15184
-5.14942
2.13422
0.85579
-6.19304
0.889971
2.81352
-0.763709
-0.199737
-5.18166
-1.35013
1.43681
-0.336172
1.61933
1.57488
-5.94622
3.14074
-0.151961
2.40407
2.38558
-0.148021
0.000154585
1.49879
-2.30215
-0.446932
1.49075
1.27764
-0.551508
1.5835
-0.35043
2.47886
1.83673
0.674243
0.0973654
1.88223
-0.18009
1.0762
2.23383
0.360799
0.0161709
2.16158
1.80037
-1.0959
-4.33644
1.30623
1.88553
2.85601
-4.93201
3.01125
2.93899
3.05424
-0.124485
2.09277
-7.89555
1.69089
2.26506
2.20111
1.86569
2.47006
3.30939
1.48998
-5.14036
0.243211
-4.6094
3.27716
0.919319
-0.0313064
-1.38503
1.61385
2.49108
1.57102
0.599196
-0.260043
2.47039
-3.40625
1.80631
-1.53272
0.815408
-0.066199
0.5844
1.10377
-6.12727
-5.82673
-0.0607398
-0.804289
-0.0869367
2.05047
-0.296845
0.178197
1.56433
-7.48004
1.07936
0.012934
-6.29752
-7.54806
-5.17588
2.36121
2.53602
-1.06236
0.716229
2.16577
1.9893
0.0252911
-4.91457
1.84082
-5.28022
2.31862
-5.2447
2.25843
1.10778
0.289496
2.10897
1.12141
2.20788
0.634646
0.834237
-0.999932
-4.31904
-10.4668
-0.186765
2.16552
-6.08749
-0.636365
-5.24935
2.41254
2.18959
0.661377
1.26024
2.43072
-2.50341
1.60199
-0.123554
-1.07011
1.59417
-1.15358
-6.30499
-1.48836
-5.17064
-0.60635
-10.1007
-0.132581
-7.34873
-4.2971
1.38258
2.88109
3.1386
2.74042
-6.84167
1.8266
-8.5789
1.55159
2.42807
0.30055
2.12502
-4.49033
0.621591
-1.05621
-0.0862595
2.31449
-1.10717
1.9099
-5.68403
-0.392671
-5.12884
1.94241
1.89277
1.69126
-7.70305
1.58444
-0.128888
-5.6
-5.23247
0.577535
2.9021
-2.88251
-0.62109
-1.73164
1.60711
1.62811
-0.142327
1.0938
-7.42752
2.46572
2.25132
-0.513912
-0.316574
2.40553
-1.13783
-13.327
0.0446403
2.19963
2.47204
-7.07353
1.22202
-0.155023
2.83028
-7.17401
-1.6713
-0.105291
2.6645
0.0290026
-0.977667
-0.0421457
2.30293
1.36235
2.2795
-0.159944
-2.69121
1.86891
3.24471
-4.49539
1.53315
-0.0184839
-5.53598
0.0077861
0.640096
-1.88576
1.19599
-0.36215
1.14249
-0.229962
-1.4884
2.08386
2.50166
1.57231
-2.16084
-1.62725
1.96119
-6.62992
0.659349
-1.04323
0.848266
-9.16906
1.84191
1.96224
-0.0377725
1.84833
2.80384
-0.43744
1.39083
1.9109
-5.09556
1.08001
-0.658076
0.843681
0.653123
1.35744
0.0046703
0.600752
-0.455604
-3.04011
2.35532
0.713978
0.233623
-1.32884
-0.41156
1.74604
-8.34599
3.04301
-6.84538
-5.19209
-0.0489442
2.14581
1.90898
2.25472
-3.96331
2.70149
-7.80043
1.35144
0.0852051
-6.09017
1.57613
0.784415
-0.515746
1.16108
-5.01894
1.39297
-5.1508
-1.37131
0.0119635
-4.3518
-5.06309
1.51424
2.76482
-0.464268
-8.26424
2.16122
-3.09
2.52007
0.815363
0.0839754
1.00394
1.70589
0.890294
-0.102318
0.163733
-0.00241871
0.480006
0.675782
-7.46657
-1.76901
0.0659617
1.02993
-0.121106
3.28816
1.81894
1.68427
2.54891
0.333961
1.88607
-3.76526
-2.71947
-2.2698
1.69962
3.21511
1.5583
-1.16416
2.35651
1.60208
1.62321
-0.254471
-0.0271577
0.906383
3.05957
0.112849
-1.46849
2.25648
2.40568
1.78971
1.65537
2.04079
1.17785
-0.17437
-4.88841
1.84411
-4.89425
-4.20222
1.62621
-3.15269
0.0732299
0.598656
1.83515
1.90544
1.92618
-0.0864117
2.24819
2.30231
0.356788
2.02511
1.7637
1.44151
1.32678
1.16894
0.873173
-0.152281
2.14081
2.01399
0.113627
1.54757
-0.109274
-0.0202541
2.74032
2.08763
0.0101703
-7.27867
0.251755
2.15139
1.22194
0.441177
-0.069327
0.182544
-0.696722
0.312613
-2.98872
-0.270414
1.26337
-0.332562
-4.88371
-7.77633
2.59804
-1.79392
-4.8768
-3.82577
2.77339
-0.289045
0.425713
0.401567
-5.59378
1.37062
1.59448
1.07833
2.45417
1.3379
0.0581376
-4.71542
-6.4632
0.0241412
1.96676
0.152507
-7.63379
-6.75675
-0.721832
-5.0749
-3.07172
-3.36533
-0.412033
0.678127
1.66842
2.19435
-0.563327
-0.117048
2.46224
1.86413
-6.80666
-0.149801
-4.50422
1.04261
0.103623
0.934755
1.45528
0.0234305
-0.355147
-0.502594
0.509874
-7.35342
-4.97932
0.0667607
-4.6302
-5.27822
-6.18667
-5.50821
0.099957
-3.68471
0.868872
-7.3502
1.67272
1.51188
0.467346
2.17153
-9.34205
2.78425
-1.2365
0.126611
-1.39528
1.65643
1.02207
-4.26412
-3.04756
1.72716
2.04552
2.88419
-7.99533
-5.36603
-7.79643
-0.365112
0.00704263
-6.96359
0.648642
-5.28915
0.99353
-8.26481
1.30843
0.222054
-0.201704
2.52298
1.48737
-1.06561
-0.0260258
-1.9842
-5.13891
2.19408
3.14465
-5.44284
2.06812
1.55596
0.00285837
-0.131686
2.11461
2.03793
-3.54622
-0.242747
-2.70175
-9.30531
-1.28871
-6.22426
-1.1273
1.16168
-0.0533456
1.86538
-8.71519
-6.49762
1.59132
-1.16608
-5.18096
0.140349
1.33041
-5.20992
-0.700748
-6.34381
-6.83194
-5.15744
2.92722
-3.08067
-0.256577
-9.05896
1.82566
-5.1062
-0.0828134
-3.29771
-13.2633
-1.03766
1.90014
0.00827645
-6.35117
1.4496
0.0201354
-1.32994
-6.36776
-8.3195
1.21156
1.38667
1.69417
-2.85281
2.51298
-0.911058
0.00306857
-0.196906
-2.61779
-5.64652
-7.40361
-3.88333
0.410092
0.759567
-0.201542
-0.30999
-1.76757
1.57907
-13.4684
1.77369
-8.61569
1.09999
-0.590198
-0.0675675
0.0707694
3.21225
-0.202687
-5.29432
-2.51816
-1.76507
1.69611
-0.222584
0.0912917
0.0456558
-6.33403
-7.55349
-4.36448
-5.75229
1.84949
-9.50837
0.270848
-6.06266
-0.0570964
1.45282
-0.0980702
0.777996
-0.663232
2.21168
-5.13642
-2.2203
2.36509
0.691397
-5.0861
-0.326995
-7.0027
-1.6825
-0.442881
2.15471
-1.63934
0.776624
-5.24854
-5.86628
-11.6234
-10.3634
-5.25571
1.0262
-0.379306
1.66326
0.701206
-9.70083
-0.50398
-7.11324
2.08052
2.49252
-5.53009
0.181872
1.7873
1.67172
1.34223
-3.05815
-4.42299
-4.06229
1.70467
0.534123
-1.95533
-8.36995
0.979103
2.01138
-0.239131
0.106998
0.124572
2.33632
-1.8019
-1.94318
-0.0393011
1.47184
0.207695
0.0483393
2.5285
2.08898
-0.191493
-5.39488
2.12902
0.885785
-0.0698113
1.56889
-0.878691
-3.97287
-4.8174
-4.63102
2.05514
1.80417
-0.278257
-1.06788
0.00689904
0.02065
1.83983
-6.1244
1.29321
2.22659
2.38226
-0.593738
1.67359
1.4926
1.87761
1.98812
-0.13823
1.99657
0.00427666
1.69552
0.991785
1.8194
-5.90407
2.10795
2.00921
1.53499
1.15533
-1.93223
1.19965
-0.0242334
-1.39242
2.28
2.25965
-4.59114
1.90705
-3.95102
-4.71353
1.81667
1.81306
-3.10855
-0.107709
-5.30898
-5.44136
-1.26552
-1.11537
-3.45735
-0.386416
1.53204
3.02232
2.12716
-0.644347
-0.488383
1.79227
0.931286
-0.156476
-4.19726
-1.55314
-1.90015
-4.6379
-4.34111
1.62264
-0.0221024
0.880748
0.0304724
0.0298706
0.0131875
0.0308704
0.421529
0.887164
1.19639
-1.16837
0.842538
-2.88006
-12.7011
1.16855
0.971121
-0.213669
0.124749
1.16922
-0.109017
0.71603
-1.13971
1.66863
1.38868
2.66974
1.69094
-3.11935
-0.399992
-1.07602
-1.35631
-0.0609284
-0.030831
-0.341382
-4.44803
3.07824
0.0772989
0.0594964
2.48611
-1.90282
-0.952199
-0.120073
-6.10759
-4.3344
0.541123
-1.56363
1.64754
-0.44342
-2.75319
0.107517
-0.834569
-1.37092
-0.136806
-0.091351
1.34622
-0.90947
-1.25642
-1.68923
0.676394
-1.8123
1.80617
2.55135
-1.2902
1.84134
0.969289
1.2565
2.80477
-2.48955
1.07005
0.896438
0.81958
2.4118
-0.377441
-0.363478
-0.128995
1.77652
2.54884
-1.59607
-0.11678
-2.26126
-1.67092
0.917618
-2.19656
-2.63174
-1.58624
0.726261
-5.23267
0.386955
0.563223
1.49876
0.295171
-5.08075
-0.0757708
-0.109662
-0.247082
2.71607
3.03581
2.26608
3.18264
1.52841
0.838908
1.90932
1.65818
1.57489
-2.11991
1.71997
-0.387587
-4.51399
2.48382
-0.472138
-1.70218
2.90215
0.0807086
-9.8457
0.94587
0.822041
2.05425
-2.77425
1.57945
2.68366
-2.07288
-4.72399
-2.16757
1.1885
-7.85001
2.16899
-0.157743
2.06306
1.68589
-1.39047
1.96558
-0.940467
-5.12225
-5.21799
-3.66724
2.03928
-1.84359
1.74437
-0.128463
-6.63937
-0.119166
-0.0327441
-1.46423
-1.91811
-4.30786
2.0667
0.390066
-5.0892
-0.622839
1.1365
0.454826
-5.80603
0.871484
-0.198409
0.891082
-5.0986
1.04012
0.498093
1.05493
-0.267087
1.56515
1.04106
0.567698
-5.17719
3.17233
-1.32473
-5.74357
1.5689
1.38365
-5.46413
-1.61183
-5.20222
1.07428
0.907467