/*--------------------------------*- C++ -*----------------------------------*\
| =========                 |                                                 |
| \\      /  F ield         | OpenFOAM: The Open Source CFD Toolbox           |
|  \\    /   O peration     | Version:  2306                                  |
|   \\  /    A nd           | Website:  www.openfoam.com                      |
|    \\/     M anipulation  |                                                 |
\*---------------------------------------------------------------------------*/
FoamFile
{
    version     2.0;
    format      ascii;
    arch        "LSB;label=32;scalar=64";
    class       surfaceScalarField;
    location    "5.8";
    object      phi;
}
// * * * * * * * * * * * * * * * * * * * * * * * * * * * * * * * * * * * * * //

dimensions      [0 3 -1 0 0 0 0];

oriented        oriented;

internalField   nonuniform List<scalar> 
20045
(
0.245193
-0.262984
0.0177914
-0.531083
0.186481
0.344603
0.190594
0.957172
-1.14777
0.0114296
0.00158046
-0.01301
-0.421324
0.409837
0.0114869
-0.298572
1.12251
-0.823936
-0.509362
0.22174
0.287622
0.0339032
0.215542
-0.249445
0.238515
0.205983
-0.444499
-0.419863
-0.0495607
0.469424
-0.0737067
-0.210605
0.284311
1.13687
-0.544975
-0.591892
0.175641
-0.177893
0.00225195
-0.644039
0.551771
0.0922681
-0.164378
0.53264
-0.368261
-0.546287
0.126424
-0.0105718
-0.0336295
0.0442013
0.37981
-0.297096
-0.0827143
-0.843799
1.23766
-0.393857
-0.375504
0.02914
0.346364
0.0417284
-0.0662199
0.0244915
0.0588379
0.116803
-0.0624657
-0.468618
0.341492
0.559801
-0.901293
0.412929
0.109134
-0.522063
-0.582264
0.923756
-0.142988
0.166261
-0.023273
-0.641967
1.21975
-0.577787
0.871118
0.127335
-0.998453
-1.18802
0.651462
0.53656
-0.140198
-0.0302682
0.170466
0.718331
-0.506943
-0.211387
-0.398477
0.824797
-0.42632
1.17427
-0.684285
-0.48998
-0.277829
0.311732
1.06214
-0.519169
-0.542968
0.727069
0.0732232
-0.800293
-0.0298282
0.184125
-0.154297
-0.944892
0.405626
0.539266
0.293545
0.261568
-0.555113
0.0250853
0.197563
-0.222648
0.0635629
-0.0914019
0.027839
1.07212
-1.07284
0.000719035
0.747487
-0.278163
-0.469323
0.348088
0.399399
0.516378
0.620489
-0.150914
0.253519
-0.102604
0.638494
0.275047
-0.913542
0.886396
-0.159327
0.0718243
0.966257
-1.03808
0.650005
-1.09998
0.449975
0.879794
-0.641357
-0.238438
-0.602306
-0.425058
1.02736
-0.0456241
-0.150087
0.195711
0.389578
-0.116297
-0.27328
-0.347254
-0.0740698
-0.0361373
0.804525
-0.768387
0.774925
0.0609147
-0.83584
0.520704
-0.919181
1.02059
-0.637806
-0.382783
-0.0144485
-0.17286
0.187309
0.462192
0.558397
0.257174
-0.882501
0.625327
0.0804072
-0.0386788
0.549828
-0.0715463
-0.478282
0.827685
0.0670461
-0.894731
0.0219568
-0.015076
-0.0068808
-0.33346
0.0798472
0.253613
0.423319
-0.184804
0.860925
-0.875816
0.0148907
0.0263965
-0.00443972
-0.0323506
0.421928
-0.124791
-0.523826
0.648617
0.0380845
-0.132283
0.0941984
0.917825
-0.207163
-0.710662
0.684088
-0.720225
0.0232815
0.894544
0.21681
-0.381188
-0.0715445
-0.256503
0.328048
0.189986
-0.604791
0.414804
0.522286
0.601395
-1.12368
0.45083
-0.347146
-0.103684
0.732135
-0.474961
-1.29767
0.242468
1.0552
0.0134336
0.231759
-0.276304
0.31159
-0.0352867
0.242132
-0.644536
0.402404
-0.803828
0.0358897
0.767938
0.519148
0.0740075
-0.593155
-0.42722
0.394134
0.0330857
-0.721497
-0.103565
0.825061
0.362871
-0.0638946
-0.298977
0.199668
-0.281683
0.0820144
-0.0782417
-0.406578
0.48482
0.29314
-0.312347
0.0192076
0.754672
0.190673
-0.945345
-0.18611
0.0431219
-0.0722571
0.0711595
0.00109759
0.606309
-0.312764
0.00153943
-0.0461279
0.0445885
0.717649
0.344488
-0.23362
-0.410419
-0.017349
-0.0549081
-0.153086
0.928011
-0.002793
-0.273511
0.0387416
-0.0372021
0.230573
0.60166
-0.832233
0.536359
-0.865689
0.32933
-0.222459
-0.207045
0.1806
0.0264451
-0.0982121
0.125303
-0.0270905
0.623312
-0.455687
-0.167625
-0.246027
0.200403
0.651434
-1.11134
0.459908
-0.0806326
0.155293
-0.0746608
0.0226961
-0.121859
0.0991625
0.583766
-0.170837
0.850716
0.323549
-0.584697
0.459906
0.691585
-0.967572
0.275987
0.259792
0.120019
-0.226179
0.211731
-0.386225
0.31293
0.0732949
-0.408533
0.0484021
-0.291608
0.243206
0.624267
0.255528
0.555665
-0.713684
0.158019
0.8146
0.0918103
-0.906411
-0.987969
0.746346
0.241623
-0.0606151
-0.4908
0.551416
0.92821
-0.303943
0.108017
0.145502
0.1183
-0.0795115
-0.0387885
-0.0630053
0.0456315
0.0173737
0.569154
0.402712
-0.971867
0.599036
-0.580087
-0.0189496
-0.17544
0.108302
0.0671383
-0.14852
-0.0585245
1.09032
-0.398734
-0.324089
0.345487
-0.0213974
0.641779
-1.12549
0.483711
0.172536
-0.774842
0.567733
0.22613
-0.793863
0.67232
-0.482334
0.968485
-0.13228
-0.836204
0.517879
-0.998529
0.48065
1.10314
-0.68686
-0.41628
-0.127012
0.236702
-0.109691
-0.00386823
1.06192
-1.05805
1.07694
-0.205819
-0.826358
0.0272312
0.799127
-0.475802
0.416037
0.0597651
1.01104
-0.488754
0.171877
0.278953
-0.636078
0.780906
-0.144828
-0.807616
0.99821
0.0105684
-0.151594
0.141026
0.0230399
-0.0312229
0.00818301
-0.0168699
-0.185709
0.202579
1.10473
-0.36473
-0.740002
1.35105
-0.669419
-0.681633
-0.220289
0.203419
0.363337
-0.674671
0.311333
0.0747946
-0.0112317
-0.794443
-0.477421
0.691287
-0.213866
-0.675966
0.49467
0.181297
-0.0129903
-0.0204386
0.0334289
0.522981
0.580159
-0.0352718
-0.0277335
0.0216722
0.0966278
-0.71117
0.0750921
-0.732336
0.932188
-0.199852
-0.657365
0.757331
-0.099966
-0.596294
-0.428931
1.02523
-0.378886
0.205892
0.172994
0.457396
-0.476795
0.0193988
0.923316
0.0735761
-0.996892
0.016283
-0.758992
0.742709
-0.362108
0.92984
0.191398
-0.541886
0.350489
-0.446231
1.09767
-0.831582
0.542993
0.288588
0.231314
-0.267372
0.0360583
0.47459
-1.25941
0.784815
-0.967551
0.325584
-0.613611
-0.419083
1.11519
-0.674585
-0.440601
-0.266022
0.291107
0.122713
-0.129682
0.00696843
-0.77144
-0.150239
0.921678
-0.853401
1.1988
-0.345395
0.904237
-0.658121
-0.246116
0.0868992
-0.252512
0.165613
-0.267658
-0.463647
0.731305
0.229347
-0.303054
-0.487208
0.426593
-0.683155
-0.226375
0.90953
0.0884298
0.0243875
-0.112817
0.13425
-0.611671
0.0304636
-0.170661
0.872644
-0.0580437
-0.138442
0.108614
-0.12877
0.156995
-0.0282247
0.1514
0.953332
-0.781964
0.514306
0.239034
0.00602426
-0.245058
-0.700646
0.132866
0.567779
0.292623
0.611614
1.31562
-0.841026
0.745991
-1.27141
0.525422
0.213284
-0.85827
0.644986
0.0274715
-0.402975
-0.484832
0.715405
0.661753
-0.960324
0.351449
-0.757385
0.405936
-1.2928
0.736789
0.556015
-0.0164766
-0.410743
0.179347
0.133969
-0.313316
0.721392
-0.222797
-0.498596
-0.0566997
-0.734016
0.730148
-0.252252
-0.0718376
0.667897
1.08704
-0.873783
-0.213257
-0.0103785
-0.125337
0.135715
0.678591
0.114612
-0.793203
0.253992
-0.143229
-0.110763
-0.174685
0.692557
-0.517872
-0.461237
0.70337
0.56466
-0.373263
-0.0539594
0.151958
-0.0979988
0.947503
-0.305724
0.087946
-0.00805666
-0.0798893
0.106605
-0.109192
0.00258731
-0.102439
0.106307
-0.00386788
1.09795
-0.697219
-0.40073
0.241511
-1.09491
-0.111895
0.00945569
-0.87504
0.285826
0.589214
1.22102
-0.396224
0.249223
-0.981559
1.2995
-0.584018
-0.715478
-0.01162
0.10005
0.792952
-0.387551
-0.405401
-0.612161
0.142258
0.469903
-0.945539
0.949639
-0.0040995
0.308846
-0.907746
0.598899
0.0274818
-0.0555053
0.0280235
-0.468337
0.632492
-0.164154
-0.156597
0.246438
-0.0898413
-0.140718
0.0600855
-0.113978
0.0157658
-0.553639
-0.31205
0.416984
-0.795559
0.378575
0.335298
0.0200835
-0.355381
0.408852
0.309479
0.683566
-0.332116
0.00542059
0.0176193
0.700823
0.520198
-0.489946
0.0105709
0.479375
0.29107
0.501882
0.380924
0.151715
0.0604549
0.274843
-0.283456
-0.0204984
0.303955
-0.0412982
0.272612
-0.733344
0.558659
-0.165519
0.135009
0.0305101
-0.925506
0.88859
0.0369165
-0.345826
0.561651
-0.215825
-0.221256
-0.105203
0.326459
0.764972
-0.828747
0.0637759
-0.786586
-0.506218
1.29761
-0.826166
-0.471442
-0.0918432
0.0814647
1.00208
-0.693233
-0.402343
0.819327
-0.17557
-0.177807
0.353377
0.816715
-0.176825
-0.63989
1.17738
-0.336211
-0.841171
-0.393391
0.217821
0.829203
-0.489667
-0.339536
-0.157988
0.781577
-0.62359
0.685148
-1.04728
0.362132
0.293428
-0.0338669
-0.259561
0.145979
-0.0631804
-0.0827982
1.25767
-1.02193
-0.235747
-0.521626
-0.466344
0.725533
0.361508
-0.843912
-0.081594
0.0647892
0.0418154
0.0771951
-0.651162
0.573967
0.00402297
0.118691
-0.540257
1.10941
0.423545
0.674404
1.21161
-0.738337
-0.473272
-0.766535
0.54016
0.729369
-1.21478
0.485406
-0.627372
-0.0366095
0.663982
-0.231339
-0.175064
0.406403
0.560814
-0.197477
0.0198153
0.219219
0.490523
-0.0280137
-0.47893
-0.698839
0.945443
-0.246604
-0.147787
0.0190168
-0.0600459
0.00608647
0.117265
-1.0628
0.317165
-0.778402
0.114956
-0.201157
0.278941
-0.0777833
0.00531014
0.00611943
-0.510021
0.379019
0.131002
0.351309
0.272002
0.133139
0.37458
-0.507719
0.493911
0.105126
-0.594114
0.671309
0.571576
-0.0524281
-0.202654
-0.497991
1.01775
-0.781916
-0.235834
0.900908
-0.779302
0.222912
0.55639
0.7989
-0.86364
0.0647393
-0.431751
0.353509
-0.109955
-0.0654849
-0.119873
-0.601624
0.282973
-0.540653
0.257679
0.417812
0.411391
0.715954
-1.14575
0.429794
0.224223
-0.534162
0.309939
-0.972117
0.168289
0.0101804
0.352691
-0.574826
0.86782
-0.292994
-0.255658
0.303114
-0.0474564
-0.403101
-0.106261
-0.126062
-0.223036
0.349098
0.0792801
0.000932739
-0.0802128
-0.329103
-0.146699
0.377208
0.445535
-0.822744
0.733172
-0.442102
0.284407
-0.449888
0.0181372
0.460918
-0.236695
-0.66505
-0.166532
0.194493
-0.308632
0.11414
0.978258
-0.339763
-0.455201
0.747153
-0.291952
-0.112514
0.12998
-0.0174662
0.743514
-0.022122
-0.146402
-0.50476
-0.50161
0.923801
-0.422191
0.639683
-1.14289
0.503206
0.592541
0.705067
0.167778
-0.203804
0.0360261
0.0867329
-0.714105
0.674438
-1.02133
0.346893
0.0937866
-0.0557021
-0.0753377
0.631003
-0.353392
0.670557
-0.626531
0.839815
0.190331
-1.03413
-0.882279
0.482086
0.400193
0.634885
-0.0976922
-0.537193
0.934055
-0.169084
-0.451233
-0.532955
-0.476347
0.514391
-0.124261
0.124851
-0.000589333
0.316474
-0.287334
-0.713791
0.638454
0.848065
0.224053
-0.784517
0.329316
1.07459
-0.34906
-0.0412715
0.226454
-0.185183
0.0130861
-0.625093
0.612007
-0.902487
0.170329
0.732158
0.725934
-0.725934
-0.227315
0.714547
-0.487232
0.562186
-0.429046
0.682938
-0.392849
-0.290089
-0.950524
0.987212
-0.0366878
0.335863
-0.045579
-0.290284
0.255175
-0.109176
-0.145999
0.105664
-0.326919
-0.016245
0.455723
-0.858066
-0.857414
1.01256
-0.155148
-0.283087
0.660295
0.112905
-0.00507072
-0.107835
-0.103966
0.120201
-0.0162358
-0.376322
0.403794
1.15389
-0.937081
-0.216811
-0.0843138
-0.527059
0.611373
-0.225664
0.246134
-0.0204698
0.117714
-0.273009
0.155295
-1.01763
0.396471
0.621157
-0.0083212
0.00990166
-0.177548
0.136276
0.0310951
-0.0954027
0.0643076
0.567264
0.690411
0.0823283
0.0305769
-0.0484915
-0.292507
0.340999
-0.505943
0.800872
-0.294928
-0.00517719
0.0754034
-0.0702262
0.430994
-0.209254
0.748802
-0.247205
-0.501597
0.00727849
-0.413857
0.0984895
0.824827
0.425567
0.300311
-0.725878
0.45972
-0.410748
-0.0489721
-1.01272
0.186357
-0.429779
0.180184
0.249596
0.46066
0.595472
-1.05613
-0.625011
0.588402
0.0449585
-0.913411
0.868453
-0.122169
0.209068
0.227969
-0.271216
0.0432465
0.0210654
-0.304522
0.0209474
-0.0100624
-0.0108851
-0.671973
-0.203067
0.617943
0.079474
0.0230712
-0.102545
-0.116512
0.00399768
0.17065
-0.709921
0.539271
0.227937
0.545572
-0.773509
0.376849
-0.715278
0.870797
-0.155519
-0.715881
0.557893
0.117668
0.0485934
-0.396704
-0.279263
-0.249727
0.0659511
0.183776
-0.870715
0.364772
0.669111
-0.753425
0.431159
0.643433
-0.296834
0.300879
-0.00404463
0.393663
-0.985556
0.591894
0.14241
-0.259912
0.117502
0.495924
-0.642326
-0.637997
-0.0193678
-0.306215
-0.0272451
0.0211728
0.0165807
-0.0377535
0.367306
-0.0116855
-0.0250067
0.0366923
0.991726
-0.531066
-0.268035
0.655564
-0.387528
0.262478
0.17382
-0.436299
-0.365199
0.243031
-0.206891
-0.0428364
0.41187
0.271068
-0.219524
-0.748048
0.340722
-0.14623
0.616185
0.403645
0.167931
-0.918145
0.989969
0.110822
-0.467579
0.356757
-0.08552
-0.828223
0.913743
-0.162719
0.158744
0.00397503
-0.0694774
-0.309409
-0.397515
1.08266
1.03455
-0.516667
-0.433259
-0.0767615
0.0126408
-0.409326
0.396685
0.408409
-1.0047
-0.122477
-0.474402
0.596879
-0.0224663
-0.0243162
0.0467825
-0.65232
0.054815
0.597505
0.958715
-0.683667
-0.0194924
0.0787976
-0.0593051
-0.208981
-0.0166831
0.173931
0.358419
-0.53235
0.0949642
-0.120385
0.0254211
0.62174
0.359536
-0.981276
-0.389792
1.14446
0.0772667
0.00201343
-0.261393
-0.573181
0.834574
0.363707
0.726612
0.934022
-0.706085
-0.345567
0.219505
0.0316843
0.114294
-0.446336
1.17571
0.137186
-0.767628
0.630441
0.919466
-0.14326
-0.776206
-0.47571
0.714448
-0.238738
0.397254
-0.405648
-0.457751
0.863399
0.0519313
-0.0744746
0.0225433
-0.285102
-0.485188
0.77029
0.00427071
-0.108236
0.0263062
-0.0392965
0.505518
-0.79062
-0.708094
-0.205612
0.913706
-0.0650792
-0.476541
0.541621
0.266347
1.1956
-1.21531
0.019713
0.204849
-0.147926
-0.0569232
0.00746466
-0.304299
0.25751
0.22731
-0.312888
0.0815494
-0.815884
1.02358
-0.207699
-0.0908945
-0.0746247
0.309788
0.362533
-0.823447
-0.249389
-0.0425816
0.0650052
-0.0224236
0.534263
-0.130618
-0.193597
0.213824
-0.0202269
0.0568379
-0.213435
-1.17239
0.558782
0.937358
0.185149
-0.128442
0.246156
-0.194743
0.457222
0.841275
-0.385552
-0.201412
0.00781529
-0.0998516
-0.61394
0.215577
0.204118
-0.193549
-0.9182
0.0157129
0.0426197
0.204019
-0.0616093
-0.972394
0.647801
0.324593
0.72653
0.134395
0.180363
-0.0576413
-0.122722
0.27374
-0.257113
-0.0166267
-0.804632
0.285464
-1.02657
0.524957
-0.0825383
0.181579
-0.0990404
-0.045788
0.135059
-0.0892706
1.03157
-0.00251282
-1.02905
0.139432
0.00777227
-0.147204
-0.1338
-0.252426
0.216915
-0.0172468
0.233057
-0.228832
-0.00422533
0.383123
-0.0589564
-0.324167
0.00449245
0.228565
0.842387
-0.651714
-0.0282789
-0.13823
0.166509
-1.01943
0.203547
-0.0394027
-0.106366
0.0890167
-0.073775
0.153249
0.00762508
-0.00220449
0.241914
0.153934
-0.395848
0.454957
0.0948715
0.440012
-0.329189
0.188305
-0.165609
0.0616035
-0.317261
0.629825
-0.0227224
-0.607102
0.53152
-0.0310453
-0.500474
-0.629896
-0.368633
-0.105932
-0.160791
0.266723
0.4017
-0.441452
0.0397519
1.1126
-0.0413165
-1.07128
-0.259426
-0.10129
0.360716
-0.49284
0.654858
-0.162018
0.552197
0.661671
-1.21387
-0.0288109
-0.14405
-0.263021
0.425523
-0.162502
0.207294
0.0953111
-0.302605
-1.07309
0.567258
0.505832
-0.202081
-0.0267509
-0.844043
0.135949
0.290589
-0.181747
-0.108842
0.485335
-0.615728
0.130393
-0.0761897
-0.186794
0.187755
1.00784
0.819688
-0.133526
-0.686162
-0.846729
0.131451
0.337845
-0.540499
0.713413
-1.12683
0.413417
-0.0932967
0.272644
-0.0183327
-0.391407
0.342915
-0.157774
0.206176
-0.122958
-0.777497
0.900456
0.420998
0.581081
-0.744782
0.773591
-0.0288088
-0.000880074
0.0220528
-0.622234
-0.259536
-0.109184
0.121914
-0.0127298
0.308903
-0.293824
-0.0150791
0.0288627
0.0127224
-0.0415851
-0.0716407
0.556976
-0.794213
-0.0970626
0.891275
-0.720425
-0.246913
0.967338
0.475719
-0.348557
-0.127163
-0.163722
0.0187243
0.144998
-0.322408
-0.00581397
0.328222
-1.01181
0.0446965
0.967116
0.0263509
0.178808
-0.205159
0.808399
-0.907002
0.098602
-0.519181
0.846808
0.0340688
-0.880877
0.0106571
-0.119841
-0.158554
-0.499954
0.658508
0.615191
-1.06142
-0.948327
0.823084
0.125243
0.110259
-0.0152949
0.687337
-0.377549
-0.0484513
-0.250468
0.29892
-0.00799923
0.12075
-0.112751
-0.22342
0.932158
-0.708739
0.790451
-0.386987
-0.403464
1.03573
-0.979961
-0.0557649
0.796427
-0.312545
-0.483882
0.0436539
-0.215942
0.172288
-0.282204
-0.00940452
-0.925419
0.814057
0.111362
0.053159
-0.978578
-0.312165
0.525579
-0.213414
-0.595139
-0.426789
0.1764
-0.156409
-0.019991
-0.797915
-0.221517
-0.168802
0.11018
0.058622
0.173797
0.0801959
-0.888436
0.853258
0.0351783
-0.182893
-0.141215
0.00893182
0.150518
-0.0110859
-0.602973
0.134636
0.119808
-0.148626
0.0288184
-0.714503
0.363558
0.350945
0.352012
-0.016149
-0.251189
0.660703
0.0828116
0.354328
0.0484906
0.235868
-0.284359
-0.0952502
0.552646
-0.600408
0.388777
0.21163
-0.228116
0.0260353
0.982633
-0.561635
0.840324
-0.446661
-0.241713
-0.161619
0.403332
0.40297
-0.845874
0.442904
0.545666
-0.610745
0.983531
-0.433303
-0.550228
-0.00345592
-0.507581
-0.0928267
-0.914411
0.917587
-0.00317636
0.120522
-0.303236
1.04923
-1.06716
0.269245
0.29969
-0.00626166
-0.0977762
-0.00384
0.109208
-0.0029015
-0.494275
-0.513867
1.21625
-0.532158
0.0306304
0.218568
-0.249198
0.0650982
0.190077
-0.664685
-0.379267
1.04395
0.240638
0.320176
-0.00330802
-0.131699
0.135007
0.820334
-0.209474
-0.050399
0.259873
0.622315
0.00750946
-0.358951
-1.03089
0.173473
-0.201254
0.00873343
0.192521
0.56962
0.729876
0.383497
-0.133656
-0.249841
0.981518
0.0542084
0.604306
-0.850638
0.246332
-0.830783
-0.0109387
0.841722
-0.750467
0.975944
-0.225477
0.126297
-0.00467505
-0.121622
-0.430133
1.04532
-0.279169
0.188253
0.090916
0.0208138
-0.765596
0.127997
-0.0275135
-0.100484
-0.953733
1.23727
-0.283535
-0.238618
0.531364
-0.292746
1.16155
-0.51081
-0.650741
-0.00714634
-0.594882
0.602029
-0.245754
-0.0254617
-0.522152
1.07435
0.472041
-0.699356
1.11878
-0.479095
-0.173445
0.145166
-0.867775
0.0369911
1.21355
-0.497601
-0.0284472
-1.26922
0.219039
-0.0214763
0.305496
0.51645
-0.821946
0.546366
-0.119668
-0.426698
0.803086
-0.971428
0.168341
-0.122103
0.00933236
0.112771
-0.192347
-0.475683
0.66803
0.34065
-0.279047
-0.39887
0.151117
0.247753
0.127671
0.289098
-0.416769
0.0758805
0.100519
-0.868856
1.02044
-0.151589
-0.118022
-0.0446977
0.445573
0.196717
-0.642289
0.558613
0.463386
-1.022
0.148376
0.48651
-0.0165777
0.985062
0.00331967
0.78302
-0.78634
0.00163704
-0.00681423
0.0716227
0.0135785
-0.0852013
0.871514
-0.82787
-0.0436436
0.448149
0.535382
-0.0562216
0.03555
0.0206716
-0.287167
0.805551
-0.518384
0.0155076
0.140119
-0.155627
0.460103
-0.800132
0.340029
-0.51508
-0.524363
1.03944
0.835009
-0.156418
0.300577
0.245788
-0.430327
-0.110087
0.540413
0.281848
-0.808907
-0.189742
-0.0430876
0.232829
0.175618
-0.0761699
-0.0994485
-0.0230996
-0.222655
-0.0700058
0.627441
-0.557436
-0.132701
1.09896
0.770557
-0.618575
-0.151982
0.617844
-0.543836
-0.523535
0.156985
0.36655
0.0839803
-0.476829
-0.0605433
0.0796112
-0.0190679
0.0536815
0.126682
0.137315
0.735107
-0.872421
0.203067
0.180056
0.121532
-0.841957
-0.416228
0.169689
0.246539
-0.313617
-0.234145
0.547762
0.464813
-0.222899
-0.840504
0.557418
0.276602
-0.224764
-0.0518384
-0.463312
0.812794
-0.349482
-0.427781
0.435059
-0.422351
0.54818
-0.125829
-0.568418
0.869763
-0.301345
-0.0204003
0.191324
-0.170924
-0.13426
0.0884715
-0.297282
-0.590915
0.897218
-0.306303
-0.540067
0.672934
0.499993
-0.501974
0.0019806
0.195984
-0.185572
-0.0104125
-1.24559
0.855413
0.390182
-0.0269449
0.219946
-0.193002
0.0198638
0.682135
-0.905554
0.791507
-0.388537
-0.357351
-0.524928
-0.696666
0.699986
0.50009
-0.00542029
0.38624
0.132569
-0.518809
-0.313968
0.289523
0.0244446
0.195138
-0.19894
0.00380199
-0.0327714
-0.371939
0.404711
-0.184387
0.502158
-0.317771
-0.757217
-0.243597
1.00081
0.134964
0.0610198
0.736632
0.134881
-0.788112
0.584109
0.204003
0.269574
-0.345105
0.0755305
0.00319911
0.162443
-0.212503
0.0500606
-0.653921
-0.483323
0.450551
0.122989
0.18603
-0.142376
0.292761
0.0161423
0.0578045
-0.548605
0.0288664
0.264273
0.0373279
0.0643128
-0.101641
-0.597348
-0.464175
1.06152
-0.065507
-0.36482
-0.508456
-0.0946369
0.603092
0.127925
0.17231
-0.300234
-0.00429027
1.13105
-0.738668
-0.392383
0.16755
0.652137
0.0777917
0.35286
-0.413979
0.0611188
-0.409441
0.933443
-0.524002
-0.569545
-0.245723
0.815268
-0.437629
0.174608
-0.412846
-0.110689
0.892293
-0.427774
-0.464519
0.147502
-0.253197
0.105696
0.387316
0.0452964
-0.432612
-0.153409
0.17976
0.333117
-0.380859
0.0477421
0.289658
-0.0229477
-0.197342
-0.00672707
0.479971
0.412321
-0.396292
0.801919
-0.382916
1.03438
-0.0154206
0.162922
-0.854959
0.285414
0.711807
-0.625074
-0.0929213
-0.615357
0.122517
0.19834
-0.510504
0.717014
-0.703928
0.815718
-0.0168177
-0.184591
-0.0970913
-0.284803
-0.0700391
0.354843
-0.280824
-0.0315232
0.709374
0.14691
-0.856283
0.0290469
-0.243557
0.21451
0.00864289
0.286675
-0.810055
0.52338
0.872746
-0.0643466
-0.934481
0.986464
-0.0519825
0.204537
-0.124689
-1.0865
-0.159095
-0.333255
0.842593
-0.0285365
0.377963
1.126
-0.415434
-0.710571
-0.629486
-0.0454246
0.674911
0.176276
0.51581
-0.692086
-0.681785
0.0294652
-0.162042
-0.14799
0.310032
-0.463482
0.600668
0.12918
0.514084
-0.643263
-0.300389
0.321048
-0.0206589
-0.950762
0.102684
0.848079
0.292647
0.49886
-0.21933
0.552386
0.244041
-0.301385
-0.128395
0.758855
-0.891135
-0.223972
-0.375287
0.599259
0.0882678
-0.117079
0.666228
0.0465788
-0.712807
0.670324
-1.05324
0.0158761
0.0116057
-0.512081
0.642802
-0.13072
-0.641561
0.483007
-0.0136536
0.261029
-0.247376
-0.344538
0.109204
0.235334
0.271986
-0.341463
-0.241461
0.579306
0.0934354
-0.175974
-0.138212
0.148869
0.156642
-0.299871
-0.00829189
-0.0472134
-0.17138
0.165298
0.0060813
0.186158
-0.210372
0.0242137
-0.689458
0.482295
0.128336
-0.636792
-0.0116127
-0.254409
0.0266152
0.535936
-0.562551
0.304794
-0.325293
0.193021
-0.797484
0.604463
-0.290475
0.695259
-0.404784
0.201342
-0.900181
-0.040531
-0.0256517
-0.922675
0.519187
0.697058
-0.739628
-0.100876
-0.565626
-0.213676
-0.388564
0.165528
0.238154
-0.0153144
-0.22284
1.16982
-0.600197
0.884969
-0.210531
-0.224584
-0.138642
0.363226
-1.12027
0.465296
0.654977
-0.304202
0.0935971
-0.00319922
0.850007
0.144856
-0.0860183
-0.455912
-0.0175835
-0.261586
0.266494
-0.230653
-0.0358405
-0.113521
0.822895
0.134865
0.121112
-0.255977
0.718836
-1.29129
0.586234
0.705055
0.225845
0.188632
-0.414477
0.603157
-0.277598
-0.325559
-0.497853
0.259235
-0.558755
0.0160777
0.371238
0.88609
-0.97161
0.378541
-0.171247
-0.393254
0.675102
-0.913261
0.649751
0.26351
0.500643
-0.839693
0.33905
-0.688064
0.721326
-0.0332621
0.419411
-0.514661
0.0127454
0.235476
0.240244
0.0954329
-0.700224
0.263076
-0.940366
0.480648
0.459718
0.235397
-0.864883
0.725919
-0.0465716
-0.565589
0.132639
0.151069
1.01316
-0.333467
-0.679698
-0.329447
0.250137
-0.563753
0.135315
-0.958237
0.912812
-0.760847
0.355199
0.468706
-0.753572
0.374912
0.37866
-0.834298
0.554946
0.279352
-0.247809
-0.055556
0.0330898
-0.992089
0.693231
0.298858
0.603815
-1.03395
-0.854499
-0.0143564
1.11436
-0.400951
0.303582
0.086336
-0.389918
-0.0196134
-0.122168
0.141782
-0.236419
0.478085
0.528333
-0.443076
-0.310497
0.168553
0.172097
0.224221
0.331342
-0.555563
0.344603
-0.210634
-0.0430122
-1.06788
1.11089
-0.310812
0.411259
-0.773367
-0.563201
-0.406808
0.970009
0.233435
-0.29733
-0.647754
0.197427
0.450326
0.000136399
0.00373224
-0.00386864
0.745657
-0.868615
0.017558
-0.529639
0.454914
0.388666
-0.84358
-0.154049
0.18468
-0.7888
0.221297
0.567503
-1.0046
0.489524
0.531025
-0.940466
0.495187
-0.719158
-0.00114122
0.00127762
-0.034437
0.953903
-0.58762
0.724474
-0.136854
0.896772
0.000976006
-0.897748
-0.67839
-0.0108623
-0.190295
0.0636138
0.662321
0.102616
0.0273637
0.305726
0.124627
0.437559
0.48339
0.0220238
0.173114
-0.832392
-0.0560435
-0.763011
0.31659
-0.704141
0.15362
0.1783
-0.33192
0.798423
0.049949
-0.848372
-0.0900753
0.0854003
-0.322126
-0.704441
-0.756955
-0.106685
-0.403902
1.07423
-0.317384
0.427144
-0.10976
-0.866621
0.269273
-0.256927
0.481149
-0.344944
-0.627449
-0.372267
-0.306721
0.326119
-0.497695
-0.216808
0.965796
-0.123202
0.604507
-0.285177
-0.319329
0.0801725
0.0717857
0.228394
0.985705
-0.940747
0.0100473
-0.204918
0.286932
-0.47259
0.483161
-0.419327
-0.489269
0.197635
0.158769
-0.356404
-0.763645
0.0377109
-0.108388
0.729485
-0.621097
-0.0757684
-0.858713
-0.680536
0.795148
1.323
-0.572048
-0.750948
-0.134044
0.314228
0.786374
-0.422659
-0.363715
0.237973
-0.26092
0.043238
0.0283847
-0.197453
0.0527756
0.144677
-0.121085
0.507325
-0.445597
1.04941
-0.0333851
-0.123024
-0.254372
-0.0684717
0.322844
-0.0145036
0.760161
0.0452644
0.383169
-0.428433
-0.358942
0.532873
0.409874
0.395677
-0.319577
-0.0966511
0.479324
-0.174507
-0.304817
-0.0658017
0.0595265
0.00627518
0.126811
-0.772964
0.646153
-0.878988
0.122033
0.197292
-0.396075
0.712665
-0.00612204
0.244095
0.105607
-0.422991
-0.95671
0.480363
-1.00094
0.331516
-0.413318
0.0369959
-0.399001
-0.545534
0.944535
-0.898286
0.0777475
0.258825
-0.336573
0.963301
-0.720834
0.75002
-0.573744
0.151395
0.494889
-0.646284
0.205307
-0.36735
-0.676357
-0.15874
0.835097
-0.0244111
0.187636
-0.163225
-0.43367
0.963564
-0.529894
0.772948
-0.489038
-0.28391
0.723495
0.0214924
-0.744988
-0.530913
-0.760376
-0.298385
-0.00782931
0.339098
0.589111
-0.0137975
0.0744868
-0.0606893
-0.637133
-0.151667
0.662759
0.574896
-0.501012
0.596554
-0.095542
-0.273862
0.223463
0.01676
0.351546
-0.368306
0.225415
-0.0905503
-0.112534
-0.879555
-0.792368
0.270592
0.00601052
-0.158933
0.189397
0.0670326
0.697155
-0.764188
-0.47668
-0.126293
0.488595
0.244577
0.0624617
-0.210982
-0.0193771
0.148444
-0.129067
0.0914073
-0.338624
0.247217
0.293552
0.268099
0.148921
0.77558
-0.357768
0.848292
-0.437033
-0.0929781
-0.230156
0.323135
0.710478
0.0710998
0.0322893
-0.624879
0.432532
0.376046
-0.39055
-0.502355
-0.526177
1.02853
-0.615695
-0.504579
-1.04002
1.08554
-0.0455146
0.0896728
-0.358311
0.288272
0.522575
0.253005
-0.0826023
-0.11364
0.196242
-0.293707
-0.582109
-0.0724986
-0.708707
0.781206
0.441969
-0.201331
-0.00646772
-0.183274
0.548471
-0.870597
0.446217
-0.337083
-0.215643
1.12051
-0.904869
0.548963
0.476479
0.273149
-0.749628
1.05873
-0.630511
-0.428221
-0.426944
-0.664712
1.10232
-0.437603
0.298263
0.306244
-0.255277
0.249155
0.398818
0.762733
-0.183229
0.163615
0.024259
-0.0359445
0.902314
-0.499601
0.431747
0.73807
-0.366953
0.188317
0.178636
0.209977
-0.45169
0.713292
-0.0470639
0.492429
-0.188847
-0.65103
-0.107093
0.758123
0.162786
-0.0329637
-0.129823
0.114966
0.0898833
0.129013
-0.87948
-0.252787
0.273853
0.65607
-0.5718
-0.0842698
0.143842
0.335482
-0.125423
0.0677817
0.218375
0.217517
-0.435892
-0.469636
0.99034
0.17548
-0.540336
1.11635
-0.576012
-0.275415
0.403086
-0.292777
-0.00761157
1.04932
-0.513945
-0.329967
0.306237
0.296919
0.266636
-0.278248
-0.137231
0.116831
-0.266409
-0.115321
-0.00119059
0.510183
-0.132066
0.760323
-0.628257
0.107032
-0.0759366
-0.32755
0.0770818
-0.286164
-0.0122214
-0.846223
0.58483
0.210494
0.215029
-0.0645718
-0.195874
0.260446
0.273109
0.0384811
0.787207
0.423835
-1.21104
-0.0757015
-0.0198518
0.0955534
0.388062
-0.656097
0.864977
0.458019
0.73384
-0.666807
-1.11105
0.0812968
-0.0225637
-0.139078
0.433828
0.882643
0.0222539
-0.904897
0.331624
-0.0268297
-0.032166
-0.291671
-0.0752821
-0.476468
-0.435413
0.519393
0.503352
0.152212
0.53403
-0.546141
0.0121109
0.158081
0.00721755
-0.0619344
0.217855
-0.0316972
0.677929
0.173016
-0.850944
0.210424
0.0560697
-0.19535
0.118376
0.0769733
-0.30458
0.00191933
0.302661
0.319734
0.520258
-0.839993
0.207382
0.257431
0.644459
-0.0162015
-0.229825
0.628656
-0.504029
-0.0297745
0.0361897
-0.00641515
-0.931131
0.512047
0.777988
-0.623904
-0.154084
0.0113124
-0.111721
0.100409
0.770463
-0.840469
0.500541
-0.0585718
0.308375
0.441644
-0.101258
-0.014063
-0.387355
0.106708
0.280647
-0.558227
-0.098132
0.998602
-0.510254
-0.488349
0.540697
-0.0780199
-0.462677
0.368966
-0.636151
0.267185
-0.0233972
0.468574
-0.00765581
-0.269665
0.66022
-0.390555
-0.266135
-0.12122
-0.299517
-0.0957929
0.216905
0.675967
0.00551114
-0.681478
-0.299489
-0.0652259
0.102554
0.0399087
-0.00435877
0.464913
0.177889
-0.123759
0.152622
-0.0130744
0.068891
-0.133287
0.130494
-0.350194
0.501588
0.0125941
0.191524
0.105474
-0.288114
0.696965
-0.0440826
0.578112
-0.122269
-0.089499
-0.215418
0.433793
-0.194779
0.839971
-0.645192
-0.744873
-0.0991693
-0.527093
0.850096
-0.323003
-0.249903
0.15411
0.272612
-0.0570706
-0.0191187
-0.203971
0.223089
-0.764433
0.250488
0.0816998
-0.101192
0.457597
-1.12228
0.322998
-0.89618
-0.286791
0.846591
-0.403992
0.447501
-0.229984
0.0125697
-0.591454
0.718266
0.000599247
-0.125936
0.140497
-0.489054
-0.0822257
-0.550954
0.63318
0.0906841
0.396862
1.18674
-0.776398
-0.41034
-0.190929
0.0567264
0.17748
0.0193101
-0.19679
-0.718639
0.131019
0.147983
0.027635
-0.00605537
-0.0983205
0.104376
0.378701
-0.905794
0.0754602
0.399167
0.0237704
-0.422937
-0.929215
0.734436
0.116182
0.0317461
-0.147928
0.293501
-0.884416
-0.112823
-0.00284266
0.115665
0.148756
-0.0325741
0.000749631
0.640662
-0.492286
0.539053
0.434672
-0.227289
-0.798389
0.235188
-0.606013
0.480273
0.12574
0.50342
-1.00578
-0.441422
-0.26562
0.707042
0.074636
0.341401
-0.25867
0.213091
1.04361
-0.145375
-0.898236
-0.00706365
-0.825329
0.66032
0.0631755
0.373816
0.412558
-0.127441
-0.00425779
0.113239
-0.25117
-0.289483
0.0624187
-0.0524167
-0.0100019
0.0219702
-0.672222
0.650252
-0.0407789
0.236669
-0.19589
0.331059
-0.848763
0.517704
-0.102946
-0.477141
-0.0301733
0.0374119
0.60342
-0.293899
-0.167003
0.460901
-0.308471
-0.363501
0.381006
-0.222237
0.27041
-0.20435
-0.0660601
-0.31894
0.254368
-0.748855
-0.117922
-0.0159226
0.133844
0.101038
0.272469
-0.373507
0.18607
-0.51862
0.33255
0.0109999
-0.479618
0.144603
-1.09834
-0.406643
-0.646793
1.05344
-0.847506
0.0377309
0.809775
-1.16257
-0.701873
0.0138091
-0.227524
0.23501
-0.00748612
-1.07849
-0.312386
0.990315
0.322305
-0.168371
0.0697167
-0.285135
-0.147066
0.404497
0.120128
0.0701398
-0.324512
0.0125262
-0.0973729
0.0848467
-0.205251
0.0782397
-0.0647473
0.0760598
-0.225439
0.451284
-0.882603
0.559955
0.322648
-0.276588
0.296403
0.534268
0.161427
0.00135934
-0.23148
0.148878
-0.425243
-0.22251
-0.466772
0.166614
0.300158
0.0929452
0.188618
-0.281563
-0.342059
0.433467
-0.0637968
0.631576
0.718845
-0.67358
0.489642
-0.798113
0.378144
-0.518577
0.140433
0.0769721
0.00182543
-0.189765
-0.0140386
-0.937746
0.538745
0.105883
0.434813
0.0131519
-0.160027
0.146875
-1.37544
0.567828
-0.108228
-0.000964305
-0.158822
-0.0169786
-0.181083
0.198062
-0.478573
0.184675
-0.96097
0.848436
0.924204
-0.46929
-0.146322
0.130972
0.0153497
-0.0194233
0.0844285
-0.118878
-0.958097
0.334149
0.623948
-0.109497
0.089645
-0.0555134
0.230927
-0.175414
0.330477
0.170064
0.140297
-0.149711
0.00941336
-0.215501
0.228096
0.0631495
0.0306371