/*--------------------------------*- C++ -*----------------------------------*\
| =========                 |                                                 |
| \\      /  F ield         | OpenFOAM: The Open Source CFD Toolbox           |
|  \\    /   O peration     | Version:  2306                                  |
|   \\  /    A nd           | Website:  www.openfoam.com                      |
|    \\/     M anipulation  |                                                 |
\*---------------------------------------------------------------------------*/
FoamFile
{
    version     2.0;
    format      ascii;
    arch        "LSB;label=32;scalar=64";
    class       volVectorField;
    location    "9.5";
    object      U;
}
// * * * * * * * * * * * * * * * * * * * * * * * * * * * * * * * * * * * * * //

dimensions      [0 1 -1 0 0 0 0];

internalField   nonuniform List<vector> 
13486
(
(1.57591 -0.303627 3.7396e-19)
(1.71597 0.17032 2.33076e-19)
(2.69108 0.0213226 0)
(-0.501139 -0.0699159 -2.2915e-18)
(2.64463 -0.173599 -3.62587e-19)
(2.40424 0.169575 -4.01016e-20)
(2.48903 0.47205 -3.34498e-20)
(2.29357 -0.720597 1.44121e-19)
(2.11263 -0.351989 0)
(1.91336 0.606282 0)
(-0.220081 1.46802 -4.1664e-19)
(2.38117 -0.068903 0)
(1.44036 -0.502569 -3.59717e-19)
(2.29008 0.691903 -6.9292e-20)
(2.39382 0.153417 -1.34601e-19)
(1.88155 0.593832 -2.20574e-19)
(1.2431 -0.558518 3.85019e-19)
(-0.129486 -0.460268 2.97695e-19)
(2.07575 -0.00721017 8.95525e-22)
(1.72381 -0.121236 -3.91834e-19)
(-2.64641 1.06234 -1.18781e-18)
(1.46108 -0.520628 4.64646e-19)
(1.73163 0.16249 -1.86234e-19)
(4.16303 0.510796 0)
(1.97889 0.492444 7.78205e-20)
(4.08839 0.370145 -3.7022e-19)
(0.279988 -0.0887529 4.65936e-19)
(3.22539 -0.167266 3.96073e-19)
(1.98098 0.222224 0)
(3.24217 -0.376162 -4.81982e-19)
(-3.1531 1.593 -7.2255e-19)
(2.10655 0.0514511 4.15127e-21)
(3.21579 0.321267 2.19226e-19)
(2.50162 -0.227748 0)
(2.2996 -0.682756 0)
(1.61503 0.018336 3.62001e-21)
(1.61209 -0.121867 -6.3267e-20)
(1.66631 -0.773463 8.10591e-20)
(1.92193 -0.242911 -1.00927e-20)
(2.09042 -0.214695 8.94452e-20)
(3.45461 -0.519433 0)
(1.00901 -0.501032 -4.39065e-19)
(1.96912 -0.00451026 0)
(2.00266 0.407831 -3.59054e-19)
(2.01366 0.408541 1.48165e-19)
(2.38175 -0.0695169 4.13387e-20)
(-1.46608 -1.03321 8.70704e-19)
(1.94144 0.209947 6.96394e-22)
(1.59984 -0.103771 4.78316e-20)
(2.79397 0.0705953 6.62772e-20)
(1.99941 0.00624797 2.84223e-19)
(1.99041 -0.0584201 0)
(2.28636 -0.212319 -1.11939e-19)
(1.81841 -0.657119 -1.39553e-19)
(-0.275415 -0.836224 0)
(2.59446 -0.202472 1.88882e-19)
(2.7757 -0.224255 9.25383e-20)
(2.01579 -0.121337 -5.59889e-20)
(3.2135 0.355377 2.9316e-19)
(1.6495 -0.271221 0)
(-0.616421 2.32205 -5.08744e-19)
(1.6515 -0.276178 0)
(3.35042 0.508249 -1.84124e-19)
(-2.5705 1.13897 -1.4947e-20)
(1.4839 -0.874356 0)
(1.59464 -0.150007 -3.32494e-20)
(-0.73933 0.119177 -1.8305e-18)
(1.53187 -0.0586077 1.48286e-19)
(2.11677 -0.372544 -2.26194e-20)
(1.49389 0.0115991 1.513e-20)
(-0.593488 0.0716794 2.10538e-18)
(-0.247381 -0.719543 8.17941e-21)
(2.07947 -0.111971 9.19305e-20)
(-0.563836 0.495548 -2.37331e-19)
(1.53574 -0.219142 -8.07604e-21)
(2.74405 -0.0837447 -1.93931e-20)
(1.49645 -0.194474 3.05701e-20)
(2.41475 0.174786 6.08071e-20)
(-1.22643 -0.925853 -4.54833e-19)
(2.00131 -0.962667 0)
(1.89563 0.0424405 -4.62963e-23)
(1.65623 0.245899 -1.53112e-20)
(3.0823 0.31289 -6.10367e-20)
(2.74021 -0.00482754 -1.96899e-21)
(1.57079 -0.312553 -7.30031e-19)
(1.30136 1.25325 0)
(1.58542 -0.455024 2.52722e-20)
(2.00091 0.0147432 -4.48739e-19)
(1.89694 0.12418 -1.88777e-19)
(1.74846 0.806571 -2.86902e-19)
(2.01656 -0.11387 -5.99047e-20)
(2.44015 -0.513485 1.1687e-19)
(1.64272 -0.393065 8.62507e-20)
(1.73184 -0.00529865 1.12568e-20)
(2.06266 -0.588749 6.28842e-21)
(1.91956 0.169834 -2.93553e-22)
(0.304639 -0.110405 0)
(-2.03048 0.686257 8.25039e-19)
(2.10147 -0.206373 -1.7179e-19)
(1.18932 -0.548447 4.21209e-21)
(1.76938 0.0258808 0)
(2.26786 0.68531 -2.89407e-20)
(-2.39225 0.790777 6.54524e-21)
(1.99859 -0.100049 6.55441e-20)
(1.25656 1.18837 0)
(0.989943 -0.55683 5.04823e-21)
(2.00683 0.0263683 -1.0971e-21)
(1.93398 -0.278473 -2.11334e-20)
(-1.2424 -0.893293 5.86568e-19)
(2.23696 -0.952349 0)
(1.53126 -0.720864 0)
(2.02854 0.297479 6.53976e-20)
(1.82879 -0.637045 4.44952e-21)
(2.8209 0.372498 -5.01165e-21)
(1.21487 -0.182894 0)
(1.44921 -0.705869 2.57603e-20)
(1.97089 0.507193 0)
(2.66452 -0.20512 0)
(2.07274 -0.111475 0)
(1.60607 -0.0301685 -3.11792e-20)
(0.082041 -0.587368 -1.35137e-19)
(-0.705804 2.18458 0)
(2.02034 -0.530793 0)
(1.93527 -0.245095 3.31986e-20)
(2.14177 -0.691176 0)
(1.99148 -0.0553924 0)
(2.29238 -0.127608 -6.08291e-22)
(2.16127 0.0584618 1.76852e-19)
(2.03116 -0.137617 -6.18094e-20)
(2.28865 -1.66652 -1.19253e-18)
(1.9458 -0.0396717 -7.04497e-21)
(-1.59832 -1.18733 -2.24891e-19)
(0.455741 0.759826 5.25223e-19)
(-0.208629 0.163712 2.88747e-19)
(2.00015 0.00164377 -4.49383e-20)
(1.88521 0.307581 -2.57621e-19)
(0.802498 0.465978 -1.58179e-19)
(2.23883 -0.918674 0)
(1.60682 -0.0137363 9.07481e-21)
(2.28302 -0.524197 2.67763e-20)
(3.04622 0.261722 -2.23481e-19)
(2.25939 -0.213471 9.70031e-20)
(2.18761 -0.0685505 0)
(2.04927 -0.910265 0)
(2.10251 0.0111174 -7.27166e-21)
(2.48521 0.569804 8.07985e-21)
(1.94635 -0.289144 -6.08679e-21)
(0.465008 1.16167 0)
(2.80203 0.115608 0)
(1.99566 0.210314 0)
(2.00688 0.00612887 5.74998e-21)
(2.57256 0.120051 0)
(1.87984 0.0294055 4.85917e-23)
(1.63002 0.24201 -1.33138e-19)
(2.13652 0.272331 0)
(2.89989 0.0274381 0)
(2.16192 -0.910294 0)
(1.63958 2.53679 8.899e-19)
(1.95219 -0.753796 7.51561e-20)
(1.80107 -0.211324 -2.493e-20)
(2.69128 0.0489847 6.24827e-21)
(1.96115 -0.725537 -1.0586e-19)
(1.69605 -0.12209 1.10938e-19)
(0.905999 -0.431639 1.88916e-19)
(2.02826 -0.0760019 0)
(2.38628 0.704525 5.12473e-20)
(2.2359 0.617063 2.02659e-19)
(0.645871 -0.259063 -6.03386e-19)
(1.92874 -0.27638 1.33722e-20)
(-0.221613 0.190223 7.84431e-20)
(0.44653 0.737752 3.01073e-20)
(2.13161 0.246903 1.39707e-19)
(1.99696 0.042736 -4.15789e-19)
(2.29612 -0.0229278 -2.00592e-21)
(1.87686 0.0859597 -9.75933e-22)
(-2.18755 2.11121 0)
(2.22779 0.953776 -1.3192e-19)
(3.05655 0.366067 2.73904e-19)
(2.01538 0.0284344 -3.90033e-19)
(2.20876 -0.080798 0)
(2.15498 -0.239388 9.86316e-20)
(2.77442 0.365342 -8.53785e-21)
(2.25875 -0.0137257 3.87044e-21)
(0.383108 -0.176957 0)
(2.59161 -0.084082 1.0983e-20)
(2.923 -0.146087 -1.75043e-19)
(2.12986 0.208025 1.19854e-22)
(3.06589 -0.345495 -1.18544e-19)
(3.36128 -0.490031 0)
(1.30777 -0.623719 -2.74825e-21)
(1.5812 -0.0699761 0)
(2.59581 0.050925 0)
(2.07532 -0.192349 0)
(1.32851 0.598165 -3.10842e-19)
(2.14186 -0.243164 0)
(-0.0985266 0.991072 -1.13989e-19)
(1.75598 -1.56205 2.63687e-18)
(2.64554 0.020313 8.47544e-21)
(1.25616 -0.617611 -5.29246e-20)
(2.37323 0.668133 5.01974e-20)
(-3.15701 1.43176 7.32391e-19)
(2.17021 0.0774614 -5.53648e-21)
(1.5462 -0.738718 -9.37554e-20)
(2.42971 -0.924984 -2.74838e-19)
(1.78262 -0.213873 3.06823e-20)
(2.17911 -0.229957 -5.58028e-20)
(-0.679365 -0.149628 4.38736e-20)
(1.99403 -0.0746594 2.47592e-19)
(2.05384 -0.195943 0)
(2.61216 -0.0696152 0)
(3.29939 -0.236769 3.36373e-19)
(4.34115 -0.191279 1.19384e-18)
(1.73964 -0.111281 3.5841e-19)
(1.99887 0.0253338 -8.93065e-22)
(2.39833 0.20314 4.61931e-20)
(2.728 -1.26789 9.57033e-20)
(3.22404 -0.290013 0)
(1.75388 0.792793 6.58889e-19)
(1.73603 -0.403131 0)
(2.90494 0.842848 0)
(1.10742 -0.600899 -7.19136e-19)
(2.83236 0.157422 0)
(2.25328 -0.521987 -7.3386e-20)
(2.63097 0.0584242 0)
(2.32191 -0.295685 -2.4106e-20)
(1.41424 -0.667075 1.10553e-19)
(2.48892 0.371843 3.11818e-21)
(-2.89582 1.16599 4.72088e-19)
(2.48914 -0.819783 1.66118e-20)
(1.6354 -0.453351 -2.66676e-21)
(2.15834 -0.22833 -3.36968e-20)
(3.70601 1.23976 1.90191e-18)
(3.07522 0.291097 2.78691e-19)
(1.03609 -0.506755 1.54674e-19)
(-3.09015 0.986182 0)
(1.21869 -0.591738 1.14538e-20)
(2.93441 -0.34955 2.15994e-19)
(2.62168 0.0434472 5.76258e-21)
(1.07892 -0.519467 3.22909e-19)
(2.28591 -0.0245834 0)
(3.29393 0.397931 0)
(2.00015 0.0291453 6.36545e-19)
(2.72676 0.185295 0)
(1.08389 -0.536203 9.04602e-20)
(1.85882 -0.290375 -1.51903e-20)
(1.87493 0.0127716 0)
(2.14247 0.0026502 -7.55407e-21)
(3.78178 -0.176725 1.04346e-18)
(-0.390361 0.21812 4.82486e-19)
(1.97778 0.381457 0)
(-1.89765 1.49724 -2.52978e-19)
(1.18301 -0.157425 6.66308e-20)
(1.26507 -0.614356 -5.50407e-20)
(1.94841 -0.28252 0)
(2.26955 -0.789224 5.19393e-20)
(-1.91003 2.35163 2.16794e-19)
(2.08952 0.0332338 2.52522e-20)
(2.68324 -1.34719 -1.2131e-19)
(2.192 2.20589 -8.97294e-19)
(3.33664 0.348174 2.4197e-19)
(1.81928 0.132034 0)
(1.84708 -0.284525 -1.38639e-21)
(2.3526 0.160618 3.00602e-19)
(-2.00516 2.21169 -2.66509e-19)
(2.68426 -0.595772 3.97259e-19)
(0.403499 -0.182723 0)
(2.5184 -0.775671 -1.44563e-19)
(-3.40151 1.54931 -1.16769e-18)
(2.21161 -0.00139381 -1.16748e-19)
(0.834424 -0.739193 0)
(1.52874 0.683836 2.43609e-19)
(1.99723 0.0275213 -1.12309e-19)
(3.25323 -0.306829 0)
(2.36567 -0.145538 4.69947e-20)
(1.34165 -0.646135 1.4355e-19)
(3.729 -0.300382 -5.86596e-19)
(2.27658 -0.720236 0)
(0.198596 -1.79084 0)
(1.96817 -0.324325 -2.44102e-20)
(2.03766 -0.287312 1.68994e-20)
(0.105451 -1.99259 8.99197e-19)
(2.21944 -0.122923 -3.21873e-20)
(1.97983 0.0334252 2.37739e-19)
(2.31416 1.03431 -3.1147e-19)
(-0.704746 1.94289 6.10775e-19)
(1.28964 -0.236974 8.30118e-19)
(2.98169 0.34012 1.92295e-19)
(1.98808 -0.168626 8.10305e-20)
(2.41536 -0.293427 3.69509e-20)
(2.17169 0.00965092 0)
(-3.11571 0.933224 0)
(1.75445 -0.249865 1.6903e-20)
(1.48053 -0.702285 3.26315e-21)
(1.99969 0.00563401 -4.38237e-20)
(3.02803 -0.349002 2.02479e-19)
(3.00871 -0.355879 0)
(2.16499 -0.0162597 -1.39577e-20)
(2.41131 -0.128637 -3.80307e-20)
(1.97916 0.0228271 -2.13415e-19)
(3.02252 0.326589 -6.07679e-19)
(1.61947 -0.175753 -1.29959e-19)
(-0.683687 -0.116622 2.74419e-20)
(2.10157 -0.275362 -1.45193e-20)
(2.13644 0.0608547 3.7725e-21)
(1.63889 -0.0501232 1.0006e-20)
(2.07609 -0.902379 0)
(3.5301 1.08956 0)
(2.13457 -0.00774868 1.41531e-20)
(1.64396 -0.483155 -1.85466e-20)
(1.59122 -0.0897519 0)
(1.65039 1.17531 -5.35884e-19)
(-0.0362416 -0.209131 0)
(2.14907 0.915739 9.56769e-20)
(2.00852 0.268212 2.08192e-20)
(0.208511 2.22517 0)
(1.87429 0.301121 -1.6371e-19)
(1.74986 -0.244358 -2.51823e-20)
(1.88651 0.118237 -1.62402e-20)
(1.98196 -0.0708 -2.83929e-19)
(2.63683 -0.775145 0)
(1.57259 -0.134459 6.07772e-20)
(1.76707 -0.232051 6.04653e-22)
(2.01884 0.0281831 4.97518e-20)
(1.71907 0.0359525 -2.17446e-19)
(0.881386 0.444342 2.8363e-19)
(2.03352 -0.0769508 1.37774e-19)
(2.37908 -0.140335 3.35265e-19)
(2.23385 -0.125388 0)
(2.50804 -0.139535 -4.11825e-23)
(2.41258 -0.110114 1.08532e-19)
(2.00067 0.00622325 6.49277e-19)
(2.48696 -0.492149 0)
(1.94083 -0.149206 -4.75229e-20)
(1.51166 0.226201 0)
(2.56944 0.496231 8.85845e-19)
(2.13175 -0.517561 5.54773e-21)
(0.843147 -0.404539 2.06113e-19)
(2.58408 0.0902985 3.434e-19)
(2.00377 0.127742 0)
(1.83418 -0.283659 -2.21944e-20)
(2.57201 -0.77873 1.57647e-19)
(1.7217 0.0406129 2.05339e-19)
(2.44015 -0.0963293 -3.37711e-19)
(2.26353 -0.00764918 -1.75243e-20)
(-0.507056 0.934437 -4.61466e-19)
(1.94536 0.194987 1.61027e-22)
(2.28456 -0.0611718 0)
(1.18836 -0.454192 4.77187e-19)
(2.91944 0.829915 0)
(1.764 -0.244822 -6.17245e-22)
(2.30245 -0.0337235 3.86374e-20)
(2.45772 -0.154771 -4.09603e-20)
(2.37998 -0.140383 3.96358e-20)
(0.237055 -0.139417 -5.35698e-19)
(1.98579 0.0251612 2.6471e-19)
(1.78185 0.0259267 0)
(-0.437028 0.591966 -2.28234e-19)
(2.28704 -0.116148 1.11989e-20)
(1.67629 -0.461964 7.66265e-21)
(4.12603 -0.501192 8.99112e-19)
(2.2733 -0.0133525 0)
(2.06457 -0.17992 1.17217e-19)
(1.84857 0.0744151 4.47981e-19)
(1.99439 0.0309557 3.43478e-19)
(3.26977 -0.39024 0)
(1.87728 0.0181817 -5.62635e-23)
(3.07198 -0.350936 -2.02873e-19)
(-1.39758 -1.00787 1.19189e-19)
(1.70721 -0.129091 4.99203e-20)
(2.28677 -0.105434 -1.0648e-20)
(2.01865 0.0061132 2.15546e-21)
(2.281 -0.0761867 0)
(2.35166 -0.311989 -8.53189e-20)
(-1.79476 1.67795 2.15705e-19)
(2.34482 0.39286 -9.83147e-20)
(1.99877 0.00693699 2.36737e-19)
(1.39809 0.0274915 0)
(1.79271 -0.246782 -2.71015e-20)
(0.369114 2.15262 0)
(2.91517 1.28088 -1.24562e-19)
(2.22475 -0.0189682 0)
(2.50974 -0.630383 -1.10518e-20)
(1.4661 -0.215382 -1.13777e-19)
(1.51927 0.629382 5.57322e-19)
(-1.58574 -1.02438 -5.45905e-19)
(2.33381 -0.707619 0)
(2.32788 0.0560646 -1.64968e-19)
(2.00787 0.134179 -1.81172e-19)
(0.360068 -0.393039 -1.45049e-19)
(-2.07601 2.10258 1.3284e-19)
(1.7639 -0.119047 -5.30811e-19)
(3.23842 -0.236715 1.92365e-19)
(2.06315 0.148058 1.45975e-19)
(1.6304 -0.526123 0)
(1.45665 0.16045 2.63435e-19)
(1.58799 0.0207195 -2.88898e-20)
(-0.308561 -0.0892534 1.29752e-18)
(-1.74869 1.51166 -7.59907e-19)
(0.591725 -0.55906 -3.33849e-19)
(3.02049 0.31355 0)
(0.327254 -0.480328 0)
(1.87295 0.973988 0)
(2.19978 -0.0592946 0)
(3.39179 0.25747 -1.1781e-18)
(2.43202 0.487773 0)
(1.41684 -0.385895 0)
(1.75399 0.0149251 8.16966e-20)
(3.07247 0.384048 -2.84278e-19)
(2.26515 -0.0788556 -1.40755e-20)
(1.74685 0.203612 8.10316e-19)
(2.00384 0.00877965 -9.193e-20)
(2.04361 1.44012 0)
(3.19093 -0.121562 0)
(1.97141 0.0233543 2.28754e-19)
(2.0345 0.0440252 4.14494e-20)
(1.34791 0.63492 0)
(0.326808 -0.15771 5.11711e-19)
(2.6718 -0.627487 -4.47743e-19)
(0.0439939 0.541249 0)
(2.29128 -0.0236207 1.28311e-20)
(2.01019 0.0239055 -2.64083e-19)
(1.04683 0.623636 -1.05761e-19)
(1.18088 -0.443793 0)
(1.99606 0.137995 3.24884e-19)
(2.56408 0.244014 0)
(3.08144 -0.346525 0)
(2.17174 0.171582 -2.6176e-20)
(1.97257 0.0357815 1.27954e-19)
(0.365543 -0.0932681 -6.03367e-19)
(2.20364 0.603534 7.03777e-20)
(1.50457 -0.427803 -1.76213e-19)
(2.20835 -0.0516205 1.29326e-20)
(2.06626 0.145315 1.17103e-19)
(2.47732 -0.31241 2.10481e-19)
(2.82769 -0.527342 0)
(3.67777 -0.039721 4.34968e-19)
(1.46833 -0.159376 0)
(1.76397 -0.249758 1.53152e-20)
(2.29005 -0.0359087 0)
(1.55422 -0.0437745 3.14586e-19)
(-1.16401 -0.934454 -6.4404e-19)
(3.20463 -0.233066 0)
(-0.18645 0.102405 1.27413e-20)
(3.2191 -0.132876 -3.69393e-19)
(1.6709 -0.321638 1.09779e-20)
(1.92927 -0.285055 3.38668e-19)
(1.42178 0.600854 -3.55171e-19)
(1.49157 -0.419941 -5.23617e-19)
(3.04412 1.26611 0)
(1.60734 -0.0447069 2.79073e-20)
(-0.555985 1.0858 -1.11226e-18)
(1.99923 0.143112 0)
(1.87479 0.133256 1.76817e-20)
(2.94223 0.0334216 -1.46229e-20)
(2.46022 1.06105 0)
(2.00436 0.00947858 0)
(-0.445041 0.361479 0)
(-2.06922 2.09307 1.15331e-18)
(2.41046 1.36433 3.70814e-19)
(2.61714 0.673601 -3.1728e-20)
(2.12663 0.875732 0)
(1.84881 -0.213938 2.90435e-19)
(1.86151 0.0829372 1.95907e-21)
(2.20709 0.556641 -1.65754e-19)
(-1.54779 0.345462 2.48552e-18)
(1.93328 0.0913415 0)
(1.95702 0.212847 0)
(0.928324 -0.249477 -3.63325e-19)
(1.60051 -0.519108 -1.11157e-19)
(2.0825 -0.15919 0)
(1.65321 -0.773752 1.73615e-19)
(1.78008 0.0258749 -1.1908e-21)
(1.92703 0.153196 4.60795e-22)
(0.937475 -0.448573 0)
(2.0502 -0.0873412 8.99145e-20)
(1.61126 -0.000528305 2.53447e-20)
(2.56367 0.220675 -3.27725e-20)
(2.12054 -0.547309 0)
(1.35133 -0.270834 -1.2607e-18)
(2.42156 -0.147884 4.14751e-20)
(1.99793 0.0454157 6.37484e-20)
(1.7357 0.0258572 1.04082e-20)
(2.45027 0.705962 0)
(1.72762 0.202996 -2.15537e-19)
(2.92101 0.616153 -8.4188e-20)
(0.831325 -0.597552 7.63037e-20)
(2.00402 0.0216549 0)
(-2.39172 1.88431 -1.39248e-19)
(0.693086 -0.233523 0)
(2.0024 0.021967 -2.55888e-19)
(1.99475 0.0240776 9.53082e-20)
(1.94947 -0.00233481 -4.41317e-20)
(-2.0474 2.1414 0)
(2.23862 0.0117297 -1.06051e-20)
(1.20597 0.258916 7.51253e-19)
(2.76009 -0.531588 0)
(1.73353 0.00432852 2.51714e-19)
(2.99693 0.193781 6.92082e-19)
(2.18261 -0.0215427 0)
(-3.32443 1.39177 5.26491e-19)
(2.02823 -0.867403 -7.73052e-20)
(2.04195 0.00135565 0)
(0.854307 -0.461175 8.08652e-19)
(1.86662 0.125352 0)
(1.95904 -0.864117 -3.216e-20)
(-2.0464 1.60441 4.84194e-19)
(2.12121 0.230924 -1.30401e-22)
(2.42551 0.167169 6.74233e-20)
(1.45718 0.142836 1.36735e-19)
(1.92248 -0.307141 -1.22217e-19)
(2.33385 -0.643802 -5.51827e-20)
(1.99123 -0.862781 4.91557e-21)
(2.26826 -0.113797 6.94812e-22)
(2.43413 0.709301 -8.69703e-20)
(2.39171 -0.977386 0)
(1.99898 0.00404017 -2.10016e-19)
(0.185237 0.629857 -2.90443e-19)
(1.49707 -0.17068 0)
(1.4632 0.0380561 -1.39203e-20)
(1.45463 0.00843258 0)
(1.38651 -0.449304 4.64337e-19)
(2.49013 -0.755265 0)
(1.63907 0.00414753 -8.83519e-21)
(2.32095 -0.0447675 -2.32246e-20)
(-3.20364 1.26247 9.16553e-19)
(-0.740052 0.519005 8.19307e-19)
(2.18952 -0.00097615 -3.23931e-22)
(1.80831 -0.83035 -3.71539e-19)
(1.99825 -0.526881 5.99498e-20)
(1.64257 -0.393883 0)
(0.355683 -0.20535 -3.02047e-19)
(2.82639 -0.383031 8.79977e-20)
(0.377771 -0.225845 -3.53161e-19)
(1.92799 0.17821 -2.959e-22)
(1.6249 -0.640406 0)
(2.2006 -0.028823 -1.93476e-21)
(0.34856 -0.161211 0)
(-2.43635 0.936278 1.28824e-20)
(1.00569 0.576132 1.18777e-19)
(2.14417 2.13605 0)
(2.33076 -0.438466 -3.02322e-20)
(1.33318 -0.982032 0)
(2.47903 0.995093 0)
(1.72856 -0.798709 4.05511e-20)
(1.53941 0.205154 2.13893e-19)
(1.68128 -1.15747 0)
(1.85069 0.0961885 -1.27039e-19)
(2.42855 0.488072 -3.23914e-20)
(-1.6766 1.76758 9.24745e-19)
(2.40719 1.27657 0)
(2.16759 -0.0507016 0)
(-0.36182 0.898607 -4.75911e-19)
(1.99537 -0.123695 0)
(2.64443 -0.0143649 0)
(-0.819768 2.51857 -4.83033e-21)
(2.25884 -0.283315 3.56997e-20)
(1.93403 -0.440032 7.67195e-20)
(3.44195 0.363934 3.6589e-20)
(0.36341 -0.190373 6.42864e-19)
(1.99569 0.0204363 1.07239e-19)
(1.67832 -0.42025 0)
(2.10186 0.408271 -6.77069e-20)
(1.5591 -0.287338 0)
(2.36091 0.0195268 0)
(1.99539 0.0631548 0)
(2.16121 0.152041 -2.13964e-20)
(1.9669 -0.0711299 1.33864e-19)
(2.6679 0.157981 1.22969e-20)
(1.72863 -0.416362 0)
(0.205029 -0.0908496 -4.39064e-19)
(1.90886 0.919181 1.48499e-19)
(2.1416 -0.702586 -4.72878e-21)
(2.23903 -0.209029 -1.39978e-19)
(3.6698 -0.33586 9.95465e-19)
(2.06431 0.0631963 -1.48831e-19)
(-1.14945 -0.84312 0)
(2.39648 -0.133061 0)
(1.4487 0.620017 0)
(1.37956 -0.628205 -3.04098e-19)
(-1.66721 -0.208831 -1.27483e-18)
(2.07527 1.75714 0)
(2.12366 0.422101 0)
(2.28108 -0.299465 1.04226e-19)
(1.979 -0.0190457 -2.1151e-20)
(1.85431 0.498002 3.01271e-19)
(2.51698 -0.921414 0)
(0.512793 -0.306815 -1.64857e-19)
(2.36363 0.0664008 9.18233e-20)
(1.5643 -0.485227 -2.77501e-19)
(2.20809 0.0545028 -1.35482e-19)
(2.19912 0.562389 2.2007e-19)
(3.12378 1.02994 1.04431e-18)
(1.3734 -0.635689 5.35143e-19)
(3.1147 -2.18058 8.75773e-19)
(2.80115 0.293155 -9.06663e-21)
(2.00136 0.00429529 -4.98513e-20)
(1.53071 -0.686578 6.90619e-20)
(2.05376 -0.809363 3.24859e-20)
(1.45217 1.60966 -1.28701e-19)
(1.64526 -0.761774 -7.16763e-20)
(2.52577 -0.126052 0)
(1.53867 -0.401458 -7.24943e-21)
(2.19511 -0.0494064 -3.01472e-19)
(2.70095 0.808934 2.8797e-20)
(1.53268 -0.453537 -2.63902e-19)
(2.11407 -0.675075 1.40451e-20)
(1.93531 -0.00666473 1.14934e-19)
(2.37576 -0.0406614 -6.56143e-20)
(1.27031 -0.369016 -8.91788e-20)
(2.95974 0.339616 -1.0584e-19)
(1.30457 -0.26678 -6.99899e-19)
(2.1157 -0.0353742 -2.5255e-19)
(1.29493 -0.329942 0)
(-3.13692 1.24016 -1.94785e-18)
(1.93602 0.0370972 2.86684e-19)
(1.44676 0.0020744 1.75091e-22)
(-0.601728 0.48795 0)
(2.07662 -0.889247 0)
(1.98666 0.351721 2.69856e-19)
(1.17851 -0.27392 4.50128e-19)
(0.50778 1.02104 -2.38498e-18)
(2.53864 -0.614048 1.63072e-19)
(2.4037 -0.13981 -1.90762e-19)
(2.97895 0.801218 0)
(1.98888 0.386841 1.53962e-19)
(-0.364638 -0.309835 -2.23996e-20)
(2.276 0.963391 -1.04158e-19)
(2.13073 -0.225162 -8.46483e-20)
(0.418575 -0.223102 -1.04549e-18)
(3.60871 -0.417689 -9.18209e-19)
(3.70589 -0.0533885 2.11556e-19)
(2.0691 1.04135 0)
(2.82511 -0.667396 -1.22193e-19)
(1.96071 -0.00283636 3.85157e-20)
(1.87994 0.0574243 -8.55771e-22)
(0.940361 -0.457518 5.33597e-19)
(2.10856 -0.228882 1.29691e-19)
(1.82322 -0.242813 1.59273e-20)
(-1.65485 1.61561 -5.29587e-19)
(2.72798 -0.23944 -1.67976e-19)
(2.24792 -0.0320559 2.25972e-19)
(-0.498141 1.66127 -7.57053e-20)
(2.20312 0.905406 2.54301e-19)
(1.0424 -0.47993 -8.76878e-19)
(1.11249 -0.541405 -1.23582e-19)
(1.90731 0.0476906 0)
(2.81213 0.00450794 8.61895e-20)
(-1.3194 2.54941 -3.87331e-19)
(1.46407 -0.239538 6.04698e-19)
(2.23796 0.177075 0)
(1.70114 -0.276155 1.36773e-19)
(1.34124 -0.577592 1.30015e-19)
(1.99831 0.0130078 -4.6292e-19)
(-0.0744361 0.298839 -5.06032e-19)
(1.68543 -1.10776 -1.44887e-20)
(2.27101 -0.0771468 7.62533e-21)
(2.28586 0.0593277 2.4712e-19)
(1.99381 -0.875683 8.46154e-20)
(2.7014 0.186018 -2.13648e-20)
(-1.52031 -0.0588305 -3.30918e-18)
(2.10618 -0.0488555 2.82896e-19)
(2.20445 -0.0457575 -5.85584e-20)
(2.12345 0.0765013 -3.8812e-21)
(2.14548 -0.021843 -1.02962e-19)
(1.27946 -0.583525 -2.51982e-19)
(2.7569 0.296375 0)
(-2.67216 1.76052 1.03153e-18)
(2.12925 0.0685074 2.89132e-20)
(1.29851 0.643867 -8.09487e-20)
(2.39384 0.044064 6.85304e-20)
(2.37596 -0.202916 9.17111e-20)
(2.00035 0.00708421 -4.04958e-19)
(2.05868 0.261485 8.82881e-20)
(0.322782 -0.144074 -5.2627e-19)
(2.68184 -0.0108096 0)
(1.79395 -0.251045 1.44323e-20)
(2.47387 -0.17051 4.19269e-20)
(1.63483 -0.624925 0)
(2.11718 0.0554769 1.86605e-19)
(2.51774 -0.148292 4.5525e-20)
(2.64518 -0.00347874 1.6692e-24)
(3.58785 -0.550512 6.86199e-19)
(2.24266 -0.226878 0)
(1.79692 0.243712 4.13945e-19)
(1.89648 -0.283998 -2.69824e-20)
(1.5775 -0.744737 -7.18308e-20)
(2.14167 -0.144555 0)
(1.53858 0.16793 -6.13964e-19)
(0.317896 -0.525012 -1.60444e-19)
(2.20221 1.30737 3.67099e-20)
(1.31553 -0.290287 6.76509e-19)
(2.19006 0.00871249 -9.5111e-21)
(-0.62495 0.514057 6.03968e-19)
(2.05051 -0.10378 -1.69071e-19)
(3.54274 0.0347764 -5.30435e-19)
(1.84161 0.074848 -2.60729e-19)
(1.95851 0.0168563 0)
(2.00454 0.0129714 -1.862e-19)
(1.98667 0.421887 5.66482e-18)
(-0.332063 0.443394 0)
(4.10019 0.0920075 0)
(1.87986 0.0558838 0)
(1.0448 -0.599043 0)
(2.02012 0.250026 0)
(1.24319 -0.262744 0)
(2.90624 -1.18943 -1.08703e-20)
(2.79844 0.838153 -4.61835e-20)
(2.51162 0.400251 0)
(1.77894 0.241969 6.24303e-19)
(0.891448 -0.902549 2.31504e-19)
(2.05417 0.150114 3.38134e-21)
(-1.15517 2.57801 -1.54859e-19)
(1.2354 -0.0579984 2.26954e-21)
(0.266511 -0.086453 4.54686e-19)
(1.65876 0.0077969 -2.15268e-20)
(2.84177 0.0722309 1.1776e-20)
(2.00253 0.230651 -1.81446e-19)
(1.89939 0.109421 -3.68655e-19)
(1.86381 0.838579 -2.83085e-19)
(2.91842 1.21863 0)
(-2.31493 1.40176 5.77307e-19)
(1.41215 -0.46668 -5.0816e-19)
(2.01251 0.0215792 -5.68734e-19)
(2.82867 -0.412602 8.16401e-19)
(2.01504 -0.0136824 2.00163e-20)
(3.37301 0.284661 -9.14019e-19)
(2.27433 -0.179571 5.11949e-21)
(2.33528 -0.418899 1.0646e-19)
(2.0103 0.12018 1.88643e-19)
(1.59711 1.05617 0)
(2.29398 -0.569995 -4.68659e-20)
(1.77356 -0.0050367 -7.83325e-20)
(2.33687 0.471412 0)
(1.9967 -0.285531 0)
(2.10894 -0.916761 -7.38281e-21)
(-1.17961 0.749577 6.75158e-19)
(2.84865 -1.29272 -5.09728e-19)
(1.87636 -0.0503527 0)
(2.00758 -0.0704691 -2.57322e-19)
(1.84337 0.130405 -7.13795e-20)
(-3.02689 1.43779 6.19648e-19)
(2.57097 -0.0850696 1.41532e-20)
(0.165426 -0.00266216 0)
(-2.34473 1.26967 6.07237e-19)
(2.555 -0.120909 0)
(2.80417 -0.723483 1.32186e-19)
(2.027 -0.172191 -7.9051e-20)
(2.0037 0.00929546 3.58574e-22)
(2.24398 0.631354 -3.60119e-19)
(2.41702 1.17672 -2.13522e-20)
(1.9429 -0.514022 1.5031e-19)
(-1.95074 1.1602 0)
(1.156 -1.83661 -2.55889e-18)
(1.00709 -1.81947 0)
(2.56802 0.404387 5.74051e-21)
(-3.04382 1.47568 1.26864e-18)
(4.48474 0.00887252 1.09908e-18)
(1.81708 -0.251986 -1.47398e-20)
(-1.68429 2.4787 -1.26313e-18)
(1.37291 -0.667137 8.30007e-20)
(1.45351 -0.46912 -2.81613e-19)
(1.58208 0.00304644 1.02762e-20)
(1.75952 -1.85192 2.1009e-18)
(1.32141 -0.599477 2.08432e-19)
(1.50973 -0.487882 2.96214e-19)
(-1.86543 0.157615 1.47195e-18)
(2.6148 -1.46001 -1.22332e-18)
(2.08317 -0.586002 9.51807e-21)
(-1.57732 -0.960891 5.27596e-19)
(2.51095 0.0453342 -1.03387e-20)
(0.864603 -0.980625 -1.92691e-19)
(2.25787 0.401394 -9.75434e-20)
(2.60769 -0.240084 0)
(0.884125 -0.574127 -7.36082e-19)
(2.10231 -0.0454391 -3.4342e-19)
(1.99299 0.0695314 0)
(2.54419 0.380143 0)
(0.183838 -1.94148 -1.32411e-18)
(3.64137 0.452165 -4.1549e-19)
(2.38225 0.231493 -1.89279e-19)
(2.25012 -0.277803 -4.97792e-20)
(1.85597 0.810212 2.44803e-19)
(1.38121 -0.0207093 6.07212e-20)
(-2.86327 1.61171 -4.20314e-20)
(1.76556 0.489171 0)
(1.54255 -0.515396 2.72617e-19)
(-0.216341 0.282199 1.24591e-19)
(-1.75132 2.37942 9.77709e-19)
(1.94914 -0.708258 1.26201e-20)
(2.25642 -0.963764 3.22599e-19)
(1.57361 -0.0130331 4.20211e-20)
(1.90104 -0.242219 1.02487e-20)
(3.1879 -0.434735 4.90261e-19)
(-2.72086 1.62357 -7.34426e-19)
(2.36601 0.220866 1.42669e-19)
(1.99412 0.0220394 1.2956e-19)
(1.28595 -0.320991 -2.77262e-19)
(2.00172 -0.10197 1.51636e-19)
(1.14552 -0.379708 0)
(2.344 0.385696 1.7525e-19)
(2.01674 0.0299129 2.93239e-20)
(1.62082 -0.3681 -9.0702e-20)
(1.65264 1.48465 -1.03397e-19)
(2.0446 -0.578888 2.8684e-20)
(2.13566 0.0308819 4.82903e-20)
(1.47002 0.0150051 -4.44641e-19)
(2.3944 0.424642 0)
(1.80808 -0.229961 -3.08594e-20)
(2.22078 0.076409 1.83814e-19)
(2.45542 -0.234667 0)
(1.50666 -0.0750697 2.43733e-19)
(2.58093 -0.0876231 0)
(1.56136 1.47307 4.60471e-19)
(2.31311 -0.0214306 0)
(2.29114 -0.628341 0)
(2.41832 -0.0452212 1.88421e-20)
(2.36309 0.173084 1.14948e-19)
(2.88105 0.426446 -1.22055e-19)
(1.93971 0.0787402 -1.69912e-19)
(1.51487 0.931735 -1.71235e-19)
(1.99643 0.0494798 -8.00678e-20)
(2.04174 0.259192 0)
(-0.979018 -1.08901 -2.74245e-20)
(2.47385 0.168312 -6.9528e-20)
(2.73211 -0.720962 -2.63668e-19)
(2.58317 -0.234404 0)
(2.73376 0.800041 5.50086e-20)
(1.9372 1.4189 -1.69332e-20)
(2.47197 0.0317267 -4.23072e-20)
(0.149351 2.53176 0)
(-0.665707 2.5659 4.55402e-19)
(2.02673 0.120871 0)
(3.14588 -0.354341 -2.32453e-19)
(-0.342586 0.189382 0)
(1.71599 -0.192913 0)
(3.00322 -2.23942 0)
(2.41443 -0.763637 0)
(0.303263 0.341833 -7.25467e-20)
(-2.18397 2.02525 -2.63008e-19)
(1.95793 -0.0624108 -2.01764e-19)
(-3.31367 1.25535 -1.14685e-18)
(1.40379 -0.623641 0)
(-2.85668 1.0316 -8.75163e-19)
(-0.490017 0.252504 -4.76448e-19)
(1.69535 -0.784684 0)
(1.63442 -0.586911 -2.51045e-19)
(1.52493 -0.247583 -1.12642e-20)
(2.24772 0.383306 2.52288e-19)
(3.25151 -0.603139 -5.63369e-19)
(1.89329 0.0966817 0)
(2.66014 -0.555393 0)
(3.09792 0.559828 7.53336e-20)
(2.04423 -0.714734 7.07926e-21)
(1.64326 -0.0647501 -2.02608e-20)
(0.278872 -2.04916 5.36622e-20)
(2.00009 0.00313268 1.39163e-20)
(2.85294 0.0618341 4.78832e-23)
(2.01043 0.119984 2.69944e-19)
(1.78128 -0.231492 1.5502e-20)
(2.1218 -0.495513 0)
(0.72088 -0.0992538 0)
(2.69876 0.174137 0)
(1.65252 0.0237811 0)
(1.89812 -0.338989 9.22183e-20)
(2.97194 0.164359 0)
(-0.489962 1.83156 8.4539e-19)
(2.65798 1.05282 1.19328e-19)
(1.48043 -0.504851 -4.50805e-19)
(0.797136 -0.814397 -1.19244e-19)
(-2.6068 1.67727 -5.37111e-19)
(-0.374703 1.64609 -4.1201e-19)
(1.88836 0.0525333 3.84558e-20)
(-2.50621 1.79359 -5.96429e-19)
(1.76724 -0.230088 2.51585e-20)
(2.46556 -0.0348328 0)
(2.41578 0.0391328 0)
(1.34855 -0.6482 0)
(2.38771 -0.221937 -5.49787e-20)
(2.15786 -1.18818 0)
(1.78229 0.49891 0)
(2.00252 0.00549459 0)
(1.95591 -0.4459 7.16712e-20)
(2.05509 0.15233 -2.91929e-19)
(1.5431 0.030747 0)
(3.05467 -1.0941 -4.36251e-19)
(1.9751 0.114475 -2.30722e-19)
(2.28987 0.892953 2.14345e-19)
(1.73027 -0.796278 7.41912e-20)
(1.84728 0.551149 2.88809e-21)
(2.01885 -1.0183 -7.35415e-21)
(1.94831 -0.314502 2.40855e-20)
(2.37358 -0.806249 -1.1453e-19)
(2.34303 0.177124 -1.54057e-19)
(1.63502 -0.0398927 -4.56015e-20)
(1.88543 0.0165009 -2.32819e-19)
(2.11174 -0.0473593 0)
(1.23079 0.574441 5.85281e-20)
(1.99762 0.0274277 2.49088e-19)
(-0.20274 -0.58634 -1.30583e-19)
(2.26364 -0.1758 7.19706e-21)
(1.20739 -0.289605 -4.91217e-19)
(2.36241 0.158082 2.58637e-20)
(2.93311 0.649434 1.20869e-19)
(1.99547 0.0429012 0)
(1.46486 -0.374004 -2.40648e-20)
(1.86881 -0.100926 -1.18475e-20)
(2.42385 -0.820583 2.5071e-19)
(-2.04087 0.557088 -2.79221e-18)
(2.12151 0.0324954 1.00427e-19)
(2.76849 0.236274 8.10001e-21)
(2.25657 0.0163634 7.10891e-21)
(2.64151 0.17553 0)
(0.725067 -0.437219 0)
(1.53635 -0.730253 1.30052e-19)
(-0.106694 0.276141 5.44776e-19)
(1.89996 0.0280734 1.34198e-22)
(1.99902 0.0298219 4.90658e-19)
(1.46321 -0.381185 7.67946e-20)
(1.51515 0.151732 0)
(1.86065 0.0276212 0)
(1.76128 -0.40352 -8.96309e-21)
(2.33752 -0.0146696 2.90201e-20)
(1.88375 0.542782 4.25442e-19)
(2.22084 -0.0655737 0)
(2.13197 0.00830896 0)
(2.41482 -0.474628 -2.87097e-19)
(2.11744 -0.140339 9.60071e-20)
(0.480082 -0.527708 -6.82741e-19)
(1.75905 -0.119095 0)
(1.39929 -0.271248 1.06418e-19)
(3.59543 -1.0425 -1.98993e-19)
(-1.35848 2.43701 -4.30387e-19)
(2.10667 -0.0278803 -1.9075e-19)
(3.17191 0.766574 0)
(3.64093 0.477433 3.41351e-19)
(0.502556 2.42272 -1.40863e-18)
(0.121729 -0.375517 0)
(1.69185 0.024788 -3.19999e-20)
(1.9512 0.0548268 -1.68492e-19)
(1.63185 0.018365 -1.63751e-23)
(1.97929 -0.102044 4.53859e-20)
(1.19501 1.03675 1.78404e-19)
(1.87335 0.0444032 0)
(1.20306 -0.476604 -6.73029e-21)
(1.41968 -0.376399 -7.18473e-20)
(0.586617 2.23379 -5.15676e-19)
(2.01026 0.233803 2.15334e-19)
(-1.67569 1.22105 3.13972e-19)
(2.07505 0.0266995 -4.40891e-19)
(1.78558 -0.239683 -7.37651e-21)
(1.8737 -0.29314 1.67034e-20)
(1.90793 -0.411732 0)
(1.72741 0.0234767 -7.25876e-20)
(1.24905 -0.587402 1.65951e-19)
(2.2914 -0.0455637 -5.83335e-20)
(2.01724 0.0296617 -2.2016e-19)
(3.11867 -0.383985 2.01835e-19)
(1.79475 -0.210762 4.54947e-19)
(2.40129 0.0365925 1.27259e-20)
(1.84521 0.0329263 1.42462e-19)
(1.45461 0.00517875 -4.99493e-20)
(3.40563 0.412927 -3.96445e-19)
(2.21492 0.979028 1.83147e-19)
(0.85202 1.07575 1.89022e-18)
(1.86279 -0.011087 0)
(1.49239 -0.571909 0)
(3.40708 1.21215 0)
(1.47608 -0.474416 3.57573e-19)
(2.16311 0.0657196 -3.60186e-19)
(1.82858 0.141409 0)
(1.66691 -0.378298 -2.51306e-19)
(1.82727 0.115386 0)
(1.90459 -0.30903 -1.50109e-19)
(2.71233 -0.760075 -2.9613e-19)
(2.08349 -0.470547 -2.46964e-20)
(1.94974 0.0444293 0)
(2.00358 0.0170008 0)
(2.50974 -0.25018 1.2719e-19)
(2.49449 0.341218 -3.11061e-21)
(2.94181 -0.00962848 1.14316e-19)
(2.0621 1.50982 -9.18702e-21)
(2.11036 -0.0583932 0)
(1.95892 -0.687561 -1.69295e-20)
(-0.249865 0.45609 0)
(0.930178 0.672373 -3.04779e-19)