/*--------------------------------*- C++ -*----------------------------------*\
| =========                 |                                                 |
| \\      /  F ield         | OpenFOAM: The Open Source CFD Toolbox           |
|  \\    /   O peration     | Version:  2306                                  |
|   \\  /    A nd           | Website:  www.openfoam.com                      |
|    \\/     M anipulation  |                                                 |
\*---------------------------------------------------------------------------*/
FoamFile
{
    version     2.0;
    format      ascii;
    arch        "LSB;label=32;scalar=64";
    class       volScalarField;
    location    "5.5";
    object      p;
}
// * * * * * * * * * * * * * * * * * * * * * * * * * * * * * * * * * * * * * //

dimensions      [0 2 -2 0 0 0 0];

internalField   nonuniform List<scalar> 
13486
(
20.7371
16.9119
4.94285
-13.1231
7.10179
-0.0631348
2.72558
11.7158
14.5356
9.20383
-39.636
7.11933
21.6908
-0.0509115
6.28516
9.65054
-37.9015
-18.2379
8.41458
18.8809
-8.27099
21.4912
16.6016
-13.6157
8.00833
-12.7397
-38.9189
-2.52462
0.0856897
-0.56334
-5.76909
7.22078
-10.8246
3.6846
11.7591
-0.0242305
-3.32128
16.9457
-45.9753
14.6864
0.892959
22.4549
1.13927
8.16308
8.0143
6.97045
-38.2843
0.0906521
-3.23545
-4.71637
12.7373
-4.32032
5.05016
17.3119
-21.7694
7.47543
2.12563
-11.4843
-10.512
-4.0975
-43.5472
-3.45321
-25.3898
-7.34559
-17.4305
-3.11641
-16.4373
20.8244
14.437
-10.5125
-16.564
-20.7693
15.0427
-36.2914
-2.2981
2.24718
-1.18688
6.01578
-38.0851
-8.97317
-0.017602
17.0949
-26.6037
5.35127
20.8041
9.94454
-18.4672
12.1295
14.4344
10.6817
6.7698
10.3303
19.9101
18.0211
14.7989
0.0592487
-39.3342
-22.3593
14.6832
-37.9229
-0.00952522
0.516821
-22.3293
-10.0722
12.8105
-37.7027
14.4429
-32.8836
-38.3502
9.28014
13.8292
6.16405
17.2906
1.75796
24.2466
13.9867
8.2763
4.13257
15.139
-1.66183
-20.7265
-43.6576
15.5084
-34.9395
13.6067
-7.12354
11.2147
4.56412
5.80113
-14.0369
-6.02907
-38.8902
-36.2892
-35.8948
13.2572
12.0375
24.4263
9.49685
-1.76412
12.2325
-8.39257
5.59297
7.44357
-8.12636
2.31826
-24.9301
2.3815
20.8517
-5.15534
0.0812893
8.7821
5.17313
-0.0209008
17.5085
5.16377
4.97907
7.39897
-4.69645
15.4417
1.27266
-3.2823
15.4411
6.77701
22.2693
-5.11442
-2.47481
1.86357
28.1064
2.75033
-35.9336
-38.757
5.21874
10.3073
9.50118
-0.0373681
-54.9017
-1.40375
-10.8784
14.5188
7.52909
13.9861
1.47061
8.6616
-43.9409
5.80357
-2.50565
0.0275497
0.522521
1.54609
15.0031
-2.14704
4.1249
-9.53416
19.343
4.21614
-39.595
-16.168
-2.78191
18.8947
-1.54686
-6.12122
4.43643
16.9238
5.77528
1.49282
1.8558
-6.17744
15.8396
-5.95099
5.78612
-0.747449
-12.1905
18.6628
14.4291
-0.0730088
1.37972
-1.54004
10.8843
18.963
-15.1928
-37.7411
-5.32228
12.5042
-3.39121
3.33122
20.0949
-2.21964
-18.3889
5.29353
-16.1602
13.8654
-10.3926
-9.04032
22.9813
-15.8758
19.4372
2.35951
4.35892
19.676
9.15777
-11.1404
10.2042
1.94695
18.5802
-54.2134
16.303
9.61442
-6.92837
-36.5416
9.01017
-41.5494
24.4809
13.2924
-24.2043
1.51814
-60.8228
7.31893
0.338161
-4.49919
-10.9946
15.6895
-71.7104
6.40796
-58.4973
7.42572
-44.6503
4.43308
-6.83643
14.3244
-64.14
15.6048
14.1417
-2.21435
6.18815
20.1893
-6.2364
2.01271
-18.3588
-15.7173
2.40093
-20.6601
12.7684
14.6205
-22.7036
-44.933
-37.7424
-8.92704
5.3761
3.05673
14.3817
-14.3354
-35.0581
14.7851
13.2785
3.55616
2.06781
-3.2093
6.02396
14.9285
1.17104
6.78954
-6.50327
2.57952
7.32938
-3.59986
5.05124
-6.69155
9.62663
-19.3395
-2.24943
-26.0911
-12.039
0.952119
6.5161
-34.8023
12.2017
-27.5235
14.427
15.8809
4.29169
-2.81359
-62.3733
14.3834
18.13
24.9238
6.93747
9.69573
12.5975
5.59507
9.08696
12.2218
9.8766
6.58153
19.5015
2.24889
14.0862
25.114
5.4653
9.44351
-68.8188
6.38553
17.9196
8.78893
8.69676
-46.9882
0.0461766
10.9827
24.1782
-15.3202
-44.1104
11.1531
5.53797
5.97716
-39.6935
14.8285
-1.14226
-36.3016
11.2444
-19.5378
-9.16961
8.5179
6.62829
15.9124
14.1817
-1.04007
0.0102325
2.30349
-39.4267
19.062
11.417
0.906471
11.1171
2.36521
-45.4183
0.644406
12.8569
14.3902
-80.379
-34.6193
-22.9308
14.1615
9.36091
21.7784
15.8783
-39.2644
4.28623
2.5695
9.26971
-37.4001
-3.64545
18.3631
-2.56557
6.89247
19.7771
20.6382
-0.703268
-14.0475
-44.5436
-37.6143
-9.08541
-37.5573
5.83198
13.6532
-4.33348
3.38077
-14.6022
17.8801
-10.2909
11.5228
16.1881
8.8828
-4.18439
-3.72322
14.9458
14.3099
18.5145
-44.6218
7.68491
-38.1271
9.2442
14.505
2.2982
24.2354
9.8382
-2.86778
1.21607
4.29023
14.6077
-38.8182
2.42462
21.3756
13.6879
6.74359
2.44829
6.04821
-6.98627
21.6797
-49.0303
9.67386
20.4927
-37.8675
-2.27881
-35.3057
-3.8206
-6.80532
16.8366
17.5833
21.4406
-23.1613
-2.40617
-47.1296
9.65455
14.6197
-4.36033
-7.22173
14.0433
-38.504
-55.0558
-23.5927
-24.0524
1.60711
17.7803
-0.0327439
2.66842
-9.54821
13.8658
0.162696
26.4302
20.0644
14.8824
11.0291
-0.0508946
0.056265
25.0033
9.09978
-1.27218
-3.04274
14.1534
-37.8681
5.82252
10.5651
-1.88986
-3.50862
16.4269
-12.8959
-37.6887
9.91889
-3.16858
27.8608
10.0297
12.8264
15.6372
-56.9567
5.34963
22.8007
6.56694
18.218
1.8397
5.20281
-8.5354
-7.6679
1.13195
-37.6106
14.7998
13.836
-43.0132
0.143871
-0.442695
20.8189
16.8818
5.53576
14.0994
11.5725
-3.26945
7.44312
12.9146
-36.2949
21.4471
-0.0112035
-10.7983
22.3759
9.48611
-0.337149
11.2506
-10.3901
-34.7202
8.85435
8.66787
15.6543
19.9955
-42.2046
5.91812
-41.9751
0.00742044
19.3622
4.9303
-44.8559
-24.5917
2.69364
-6.3615
11.4854
-17.2434
-7.19053
14.1157
19.2827
-42.2775
15.6513
-25.2703
-47.5649
-10.7367
6.58598
-46.5989
15.9002
5.52364
-45.6163
12.4638
16.5684
-11.2588
-42.1958
12.8932
19.4602
5.72785
20.8869
5.2317
10.0516
4.40527
15.9128
1.67192
18.9932
-39.3629
6.20361
13.5696
7.02981
-4.31981
14.3786
-37.8545
6.14488
18.0088
21.4128
-14.5416
-4.22771
5.28764
2.77798
13.7014
10.9138
3.95155
-40.6106
1.82622
20.5472
3.708
2.83978
-23.4287
21.4853
-13.1824
1.63421
13.8435
10.628
-7.65128
3.60461
11.9335
5.77786
-12.3261
6.29326
-9.69789
20.9758
13.9236
11.3023
12.1616
-19.0161
-9.24766
23.4567
5.52594
23.4808
-16.4847
14.429
-0.100172
-36.3196
8.49186
8.91405
24.558
-27.1027
9.02739
9.37268
-16.2683
8.79186
-8.97463
-2.12892
14.3606
-42.5831
-5.76893
-8.24053
1.57775
5.95181
15.5719
-0.0583175
22.7848
14.5277
-0.259235
-46.571
-0.00802711
5.65877
-43.6711
-0.219026
-37.8221
19.3602
-0.00831788
1.98139
-57.7454
21.8784
-0.0281438
5.08648
22.3413
12.8231
-45.5252
-33.0876
11.3463
2.75859
13.4224
1.79297
-16.3744
6.2114
13.8262
5.32004
12.9563
22.6189
1.76082
-38.7725
14.3173
3.73254
-0.334284
10.2435
10.9918
7.16234
-44.856
5.46817
-84.196
5.37062
19.3233
5.41359
5.47614
5.28142
-0.261124
6.08904
14.8445
1.31478
12.9607
14.0982
19.542
-22.9524
-5.66407
23.3114
0.800625
-37.2417
15.2406
-7.68411
16.1265
2.24933
13.8816
-6.32308
-35.7091
-11.1893
-0.0392158
-37.7191
8.41537
23.9549
2.87269
-22.3501
-2.77038
14.9996
-94.2317
7.15273
-54.6019
23.7472
-44.4145
10.1709
-4.70942
8.9669
14.424
7.7846
-20.6483
-6.09862
22.1543
14.2377
5.6652
13.7368
-0.805246
11.836
11.386
9.11193
-32.2949
6.32225
17.6383
3.56586
-14.7637
11.5791
-34.8533
-0.659191
-15.6287
15.6041
15.2553
-27.0683
5.85146
-44.256
-6.83866
5.69484
5.90684
6.19123
13.8358
1.69411
-8.60475
16.4308
-2.56946
-14.0838
-61.638
-3.88653
-27.3325
-11.3496
-94.5707
-64.7466
13.4181
21.722
-1.09134
-14.9694
22.3616
21.078
-13.7053
-13.4656
14.5695
-38.3537
2.79408
-86.1934
2.17772
7.6479
-37.7017
7.06936
10.1333
-3.27177
-16.1348
-12.1426
0.177635
12.5722
8.21986
11.1337
-33.2447
13.0571
20.5773
-35.6485
-62.8049
15.6897
4.51567
11.7483
-55.0042
-0.768393
-35.8627
0.338276
14.8307
23.5679
15.8427
-22.5642
0.504067
14.4186
20.1511
1.92685
15.0047
14.6397
21.265
3.682
-99.2363
3.51824
8.41251
20.892
5.86454
6.7473
11.6656
5.9478
7.34708
0.719875
-9.38524
13.8206
14.0684
10.4604
7.6982
-36.9852
-1.26761
6.32388
7.67334
-10.4035
-1.94919
2.28684
-46.3752
-45.6873
8.26612
-0.383742
-36.4179
-31.2231
-9.51692
10.2398
-38.8208
-50.9848
16.0544
-11.442
21.5163
-18.3965
-36.5402
16.4325
19.4944
-0.852402
2.46445
2.52729
14.8434
7.80952
-18.2096
-7.17009
-3.60093
-16.6969
13.8667
2.03186
9.06006
-79.3541
14.2235
-38.525
1.88689
-1.04471
17.1864
-6.51223
-40.5096
-21.602
21.3732
-70.8921
-38.5186
-36.663
14.5937
-44.4744
-57.909
7.07795
7.40975
-69.288
10.1935
-17.0962
12.6558
13.9871
16.3681
7.30346
-9.99244
0.243221
11.2643
-1.83478
16.6889
10.9217
-8.91307
-26.8842
4.39216
0.986138
-2.60802
16.1713
6.5747
5.88433
14.3277
-14.5139
12.0548
24.2985
0.664499
-13.2572
10.2516
-8.89778
-31.9052
2.74045
-9.34307
14.6157
1.74424
0.792875
1.50232
-24.5165
17.8825
-44.9384
-0.000316743
14.3742
-12.1401
19.8709
16.2834
18.6461
7.25117
10.3547
7.70427
4.89118
10.5161
14.4845
-6.6533
6.95416
-33.5693
-4.90081
-58.1536
14.7307
-21.1426
-13.9154
-42.8784
-6.67999
-1.74991
14.4962
-0.405747
7.23587
-35.0468
14.3879
23.9698
-11.6599
-35.1956
8.80225
-2.62679
14.5712
-0.252106
-57.7239
16.8725
5.41753
22.6834
11.4386
14.321
0.288078
18.2349
2.87102
16.3616
-0.124525
-11.3533
-1.40767
-28.522
11.0024
-38.1974
-6.52924
21.516
14.3554
15.4749
19.698
15.7979
17.149
5.51856
14.7095
14.3742
14.8857
6.80565
-2.32051
-4.41612
-5.06492
7.25995
15.6858
-35.8184
23.8786
-8.85832
1.84654
23.3776
19.9066
6.71222
-19.2418
14.7792
8.29377
-1.7438
13.4459
-35.6169
-3.1212
14.2915
19.2501
-59.0354
15.4183
18.0865
0.0415281
-3.1147
18.1625
9.09524
-2.48575
-41.9861
5.27379
-9.03967
13.5285
12.2913
-14.5854
-4.46706
-2.68761
7.39581
-8.39289
7.18765
20.3285
-7.94636
26.0282
14.7752
8.33483
16.1735
-45.988
-34.2475
-41.0282
14.6346
-55.4504
-35.4559
-6.39611
7.7019
9.15299
-77.9229
9.81947
-38.9936
7.88324
-68.4585
-67.2235
12.4873
7.70993
18.1593
14.7492
15.1103
14.2343
6.65021
-8.84307
-6.5301
5.38284
-16.1584
2.28087
12.3211
-9.71465
-12.0408
-12.3617
5.99861
-55.4363
11.7767
7.80647
4.17932
-5.45366
9.02488
-5.22337
-7.89132
5.37434
-34.9046
15.4098
11.0182
17.8487
-36.4312
13.1001
1.73531
19.4311
2.31721
8.26527
-28.0349
0.041647
22.2895
23.3469
12.573
7.32395
10.3441
13.2234
22.5455
9.76584
-9.65148
-55.2364
6.52882
-7.35948
-38.494
14.3411
14.4192
-51.9791
3.07993
11.5084
13.8022
24.5384
-23.5619
11.6413
-37.5936
0.91964
19.9913
9.45879
12.0388
-12.4843
8.50247
8.81911
25.5251
-4.98046
-4.23013
7.8491
5.56898
-46.5621
-35.4656
-19.9969
15.8762
1.55486
7.54077
21.0456
19.4951
5.34528
-20.1462
-4.90903
3.80658
16.2474
14.224
19.2415
10.8822
-36.2833
20.1652
12.803
-16.5271
10.9326
14.7942
17.4959
-34.5279
-6.58803
0.0752015
12.4333
22.0417
10.1356
2.07479
-9.10366
24.6058
-35.7919
-8.31878
22.905
12.7818
-25.191
12.0062
-15.1309
8.50874
-3.89498
-35.683
-90.3628
-46.4334
2.24362
-1.02395
-38.1633
-37.8305
-31.2632
-6.06692
-37.5346
-42.6816
15.761
13.4341
7.11784
-37.9721
7.3016
3.58142
6.72646
25.8481
9.33997
-5.54051
12.7826
-0.757668
-49.8613
11.4476
11.2534
14.4128
26.2238
-0.0212089
9.63507
-14.0181
5.83609
9.77694
13.6562
-2.97082
20.3381
10.7556
15.2394
-8.23938
-8.35787
3.25116
14.5857
14.4833
14.9018
14.418
24.018
23.579
-0.541055
12.8285
17.9606
-5.28977
19.23
-21.0105
23.2606
19.1307
2.15478
16.1407
7.91422
10.9016
4.2549
14.6751
-8.4253
13.1279
5.38843
9.25976
0.0679487
14.3697
-5.44992
7.12444
22.4849
22.365
9.97661
-35.4817
7.3721
-0.165737
9.25087
11.9146
20.2218
-35.8638
14.9089
13.8593
9.41786
14.5382
-56.8923
-13.1472
-15.7832
24.6669
5.42308
-3.22065
16.4269
-0.153969
2.2325
7.75089
6.33493
11.3114
5.22207
-0.0706298
10.9477
11.3884
9.4647
10.623
23.7484
19.7173
17.2102
23.7696
22.176
7.53859
-14.0606
-9.63735
-10.2809
22.2366
-10.1703
14.6528
13.0527
-46.7946
8.03618
15.9369
-19.5718
9.55331
9.94894
26.508
-39.8643
9.05239
-26.4914
15.8257
5.11077
-15.747
21.9048
18.7903
13.9842
14.5919
-2.70676
5.68785
-37.6313
23.5037
0.380405
25.3521
-4.00529
1.42601
-37.2831
7.27543
-35.4218
5.70474
-14.0942
5.87739
-19.7346
5.79798
-20.052
-0.00868136
-15.829
-37.2654
-2.57181
-19.1866
-10.2602
6.72615
-8.57737
-45.1309
14.2648
14.5399
18.6976
14.0906
8.42652
8.81711
28.147
14.4085
-38.3615
-0.0526296
0.469311
11.3801
13.2314
20.3212
-8.47505
-8.46223
11.2417
-0.0157667
7.35112
17.6898
-35.9477
-47.3434
-37.6582
23.7911
-21.8658
11.6976
17.9499
-2.98266
11.5043
-11.7196
-40.8903
-40.9053
0.870058
10.1996
16.5785
17.6618
-19.8555
-36.7313
9.05963
-37.3624
-1.62377
6.21351
7.07882
-9.35479
-21.2332
-24.4308
-40.188
-12.4134
21.0784
-8.81027
23.0368
-47.4893
-10.4285
7.77307
-75.7843
19.627
13.6545
17.0206
-10.4722
-4.61119
-40.7302
19.0202
-35.9771
10.9544
-98.4247
17.2768
19.6441
-106.151
14.4886
22.1118
15.4752
15.5286
-21.0497
-4.15432
8.46184
-6.49203
-16.9627
8.62806
9.85324
5.1248
-39.4812
7.10611
1.19832
12.1128
10.2656
-0.957738
23.1893
5.8197
0.00422163
5.57649
13.9984
-14.332
0.144442
15.415
-4.67264
4.91432
-0.928493
14.6603
14.0503
13.4878
-18.7057
13.6244
16.3575
15.9969
0.162938
2.01901
4.55814
12.8272
-8.8136
-39.0009
-34.981
-14.5121
-14.7432
0.233237
-16.8637
1.63953
-34.9803
-5.45271
-53.6636
1.34965
-7.90039
6.2047
-43.9373
15.2878
28.2202
6.0439
-16.6079
7.35365
3.07251
7.27448
0.664042
0.150568
-41.6927
5.40006
18.4059
-0.0331336
21.7641
0.738782
13.4522
11.6908
8.77172
-37.3459
8.0208
24.1397
-8.78112
14.075
13.8806
20.2609
5.03025
18.738
14.8847
-37.0325
15.7997
-39.7341
-36.7601
19.0941
12.8068
-17.7162
3.30915
18.1833
0.436854
-20.4473
1.52544
1.78204
11.6546
8.42388
14.5709
13.0686
13.044
-22.4078
-2.77371
1.31405
14.226
25.3913
-2.51673
-34.8146
-37.4821
13.9105
5.44656
5.09345
5.76625
-6.39807
11.4673
-4.66403
6.84596
23.3524
6.9901
-34.1798
-6.56264
-30.101
-7.21686
-37.6955
-12.657
-49.0417
16.8554
8.32675
-3.67559
22.3968
-0.0297177
-41.7321
-13.7264
-36.8849
15.3257
-33.4709
5.71333
14.2732
-13.6816
1.83428
-22.8681
-38.3772
-14.4073
15.554
-53.6364
-20.8094
-37.6321
13.8953
15.5016
-22.8836
17.799
16.574
20.9282
21.5825
15.6244
6.09977
24.6774
-37.5497
13.6466
1.41461
-38.5615
17.1709
-31.2965
21.1591
7.65556
-11.8253
-39.7269
-39.7324
15.3348
-34.4584
-12.5849
3.94127
-6.0909
-26.5244
9.40876
4.0015
10.8008
23.7686
-35.9982
-12.7032
-0.148122
14.3944
11.4154
-9.62306
27.9165
-27.4116
1.17897
10.1311
-10.3355
13.7135
14.7172
16.3223
15.9824
-34.9401
8.37926
14.1634
6.82448
-11.1914
-0.663909
15.2622
16.0923
19.0414
-7.31104
4.99523
6.8615
9.21827
5.40248
-27.9709
12.119
-14.3976
12.7234
14.8168
-37.7415
21.6755
-17.7215
23.6912
16.103
-59.0304
0.050312
-2.30296
8.10661
15.1384
-65.0288
18.8118
13.7081
6.94387
1.44493
7.01584
-0.840547
6.85448
-37.715
8.72746
-13.4274
14.054
-38.8207
-6.22913
1.07865
17.3947
19.6225
9.25849
-37.5113
7.79734
4.9799
5.72577
8.70417
-5.69782
-6.32569
23.0407
-4.47752
-55.1961
-7.66452
-37.1639
-10.745
14.2617
-37.8475
5.38783
15.0722
9.75634
15.5024
-39.5029
9.22286
23.3683
-22.2447
14.0416
7.63998
-7.64624
5.83926
6.97543
0.253314
23.758
16.2074
-19.0395
23.2507
18.1504
17.3093
-37.7214
-37.6365
9.06625
-13.2141
-7.32753
-22.7591
-11.7445
-21.3264
11.9106
8.82216
8.66572
9.93386
-6.41998
10.4012
14.2322
-35.7495
14.5609
9.47325
14.174
3.73941
-1.90807
-23.8793
-37.6513
-35.8594
3.79338
14.1008
-40.3879
21.1497
-45.8089
13.7724
8.55057
-14.4943
1.11315
14.9907
7.63263
4.84751
13.1921
3.81874
-12.1916
19.9212
16.9306
-9.55672
-23.1216
-6.77569
12.8643
1.88806
5.6643
-18.7756
1.85908
8.69956
-4.49929
13.1239
11.6059
-1.59443
7.54258
1.52246
-14.2115
-45.0863
17.3651
-28.4605
14.4429
0.0691079
12.5244
15.3676
8.8532
13.6322
-3.28441
-20.0158
-23.1606
-34.7501
-34.0195
-15.9275
-78.83
-9.5407
11.7076
1.07324
13.9478
-2.02562
-6.24528
-18.1383
-23.6807
15.2199
-40.6824
14.3575
7.23208
-37.1868
-3.42868
-30.2038
11.5318
14.4776
-20.6209
6.36397
-34.469
16.172
0.155592
7.55394
-47.2148
17.6604
9.60301
-0.089855
15.4106
14.8265
17.0609
9.11875
17.5187
-22.9774
0.679889
-17.9285
13.3552
9.73881
7.38761
-0.691632
-21.6653
-56.4725
8.55203
4.88289
-61.9813
22.9479
-23.717
16.7393
11.4879
-14.062
0.883081
3.16367
-7.11059
3.05886
5.75664
13.5857
-19.1798
14.3965
-18.9048
5.57964
-5.79401
6.07845
-23.6982
17.1525
23.412
15.6981
7.57943
1.77218
10.212
-38.696
-0.154149
-16.7748
8.38794
-11.5024
-56.1142
-25.4908
-3.42141
13.09
13.7247
-25.0647
7.44189
16.0591
-4.11597
-15.8043
15.3723
-11.0322
-42.4492
1.37911
-0.652899
0.031872
22.3901
-16.0352
13.5527
-10.808
-6.14052
-3.91733
14.2083
6.29308
11.8519
-7.79082
-6.32461
4.02378
2.78849
16.3105
13.2225
4.05403
-18.1414
3.79054
24.2651
-6.70911
16.1458
17.1969
1.76305
3.18374
9.26553
-37.2952
-3.46925
12.7214
9.03542
14.276
-41.2458
15.5924
3.15984
19.7878
3.24092
12.8933
17.7349
12.1758
5.94399
-45.4899
5.66976
-37.3169
11.8133
7.42133
17.0094
2.95869
20.8173
6.18661
22.1658
-75.1695
17.4685
0.0503331
11.7531
-31.7653
13.7883
9.09509
7.19288
21.6507
14.2728
6.95187
-2.97384
10.2755
13.5477
-17.6923
-37.6247
11.6511
1.39621
18.1689
-24.4803
21.2741
4.75786
28.1283
21.5317
10.108
9.06344
-33.2251
2.57078
22.8199
3.60326
1.16149
6.28399
23.5012
8.09969
12.7113
20.061
-6.54784
15.5885
5.64913
16.6434
2.32109
15.6651
14.8562
19.1508
-0.621607
-39
7.8802
-31.5376
8.84356
1.56447
-4.8206
18.2099
20.083
0.45921
3.96976
7.54854
18.0469
12.6777
13.4919
9.37832
-21.8747
-34.956
-9.82792
14.7085
-18.563
-6.00705
5.39839
10.5806
9.49542
-3.51043
23.9757
-7.375
21.1038
3.52673
22.5656
-0.633074
7.12634
-6.64095
3.09983
12.9712
14.128
-8.13441
-7.67718
-83.4745
-4.75505
19.9133
-1.8946
1.87417
-7.23849
-10.9673
4.1828
16.9686
6.89045
-0.70452
0.248441
14.2618
25.4229
-33.159
3.51828
13.9521
-0.640483
7.85338
-92.1029
9.80771
-8.83575
-38.3612
2.78283
-13.2007
-5.06778
-0.323841
-21.329
-22.2066
1.81416
11.6212
15.3621
12.6365
24.6911
-41.6372
23.1576
-33.163
21.9394
-64.9617
-7.30485
23.8917
6.88823
-17.6192
13.7786
6.60472
15.1533
-6.94068
-37.8152
6.22473
-2.19598
-5.01435
-0.0175115
0.720999
6.58437
17.1474
-47.4334
7.08959
-18.2569
7.26272
-7.30142
-19.2224
6.62916
-5.28463
-14.3965
18.8696
-11.8593
20.6753
8.71387
-40.4026
6.06966
-8.88306
-6.68875
12.5712
17.5471
24.8474
11.2111
12.6511
6.84616
-35.9788
24.0563
25.584
15.5737
-5.82043
-41.4506
-37.1884
13.607
9.39507
7.78258
13.0131
-7.20803
-13.339
-34.6277
21.1744
-2.51577
3.20001
-18.5425
13.5032
7.87736
27.4178
25.7071
13.5193
3.59131
5.28274
-26.4604
7.24533
26.2791
-1.28095
-5.12027
10.5234
0.184342
6.10086
0.0669531
-2.03777
6.9956
5.17913
9.5396
-0.0368852
5.66448
19.3391
3.83468
15.3072
-21.2314
-2.35597
23.0811
-21.8341
7.52278
2.69656
7.13649
4.80511
-25.313
1.72822
1.0454
4.13084
27.5787
-37.6829
-23.4759
-17.418
-5.47287
-4.25191
2.9533
-20.7462
-20.2169
-0.0014019
-24.8102
-7.90967
-5.84178
4.88283
4.93705
2.97855
27.099
2.93699
7.79339
-2.20967
4.15972
-36.3297
3.36707
19.3133
14.584
8.03073
-17.8258
14.2361
15.3625
0.215576
-58.3527
-20.182
19.1969
-3.94821
13.3702
2.21727
21.1307
3.85273
-24.5916
-19.8154
15.5951
-1.00143
12.9454
-6.75375
26.0469
-18.9995
-1.13232
-38.466
7.8434
-26.4825
-7.61012
-20.3739
5.89663
6.01644
-46.4237
-6.46516
6.00148
6.10618
-8.91681
-7.93604
12.7629
-36.7663
12.8437
-22.2749
15.7676
23.8457
13.1416
-35.7972
14.2274
4.88139
7.29151
7.71575
-2.80123
-37.968
-0.175976
-1.33288
5.94171
1.70428
-4.98152
-6.09187
-31.1604
9.95565
14.2959
-6.06483
-28.512
-2.41653
-0.590162
-16.9223
9.61165
-22.0694
-30.4176
14.5967
-2.69407
7.82984
-9.13699
-33.802
-43.8287
-41.4406
27.1306
7.31148
-5.72224
6.54201
22.7536
23.139
-27.7001
5.90574
14.2365
-12.1946
-1.29638
23.1545
10.027
12.1609
27.8905
-1.84308
3.6117
3.66804
20.6524
14.8573
14.4612
17.9517
10.6974
1.12555
3.81219
7.52727
6.89332
-37.6294
23.5199
-0.591046
-4.1847
0.0765567
-9.82722
8.73657
-18.1669
4.07575
6.78411
14.8304
15.4338
15.9359
-38.4145
20.5267
22.9578
-23.6011
10.9466
-13.4684
-64.5473
7.30787
9.02176
-9.28856
-4.32291
-3.67577
25.4224
-39.4585
16.268
14.6792
18.3018
10.7008
12.2759
-11.4298
0.869543
8.00667
-15.0978
-35.391
-16.756
4.81857
-15.8074
17.3323
-43.5044
-38.4576
4.28729
-35.3768
-23.1202
-37.7685
13.4661
5.52294
-15.2142
7.06309
-21.8135
7.83889
-26.1985
-13.2429
15.4974
-41.2449
23.6472
-0.158717
25.1619
-0.0564097
-16.6528
6.36558
12.7376
12.6439
-23.8341
6.6357
-0.565667
6.35735
10.5833
28.3512
18.2787
5.89994
-3.51683
8.39929
-27.0379
15.9223
-19.8142
9.11141
-11.1688
-18.2266
-37.8168
4.64121
1.07847
-40.8712
9.90391
10.992
22.676
24.4652
-37.6769
-37.9367
-9.68604
-9.85039
23.6788
-3.72502
-2.68373
7.02099
10.8684
-12.4173
-0.439473
3.39483
4.78125
12.7531
-9.92601
3.21883
-19.3277
-6.98777
-21.262
-1.46203
-21.1328
-18.8664
15.569
-31.1327
-20.9945
0.474803
-10.9109
25.7733
10.2785
13.5296
-6.82428
9.10038
1.0479
6.99699
5.40263
-20.3917
-38.7173
23.5935
15.3084
1.51959
-37.0698
26.8458
-24.7993
-38.0911
-9.27703
7.54068
-28.7545
-10.9921
20.6675
0.897061
13.3469
6.67451
-13.754
-0.472015
-6.23436
9.72414
-22.4897
1.81403
5.83445
14.4286
-31.6785
-36.9874
-3.82938
-0.698126
-11.2074
-10.4551
25.2689
9.95827
-61.759
7.10749
5.00774
22.157
8.861
-38.0021
8.48245
17.8171
15.0137
-2.71621
12.9465
-8.20889
23.4322
0.969277
14.7141
-44.0233
-2.18601
-0.35422
-13.8093
8.35585
5.95178
-38.357
-33.0263
16.7093
-3.59348
0.636705
19.419
11.6787
18.9527
13.3728
-6.83976
0.00654406
2.08264
14.2696
0.0658941
17.2575
10.9002
23.1978
-17.467
18.502
6.73705
23.5307
-12.3882
-6.2691
23.9767
-18.6899
10.5618
-39.194
20.7157
23.156
15.509
-16.6359
14.1398
18.0902
-8.16172
7.24532
-21.5585
19.1519
-20.166
-4.96582
-37.8164
-37.5757
17.7914
6.6402
-36.4842
9.41645
23.0841
-3.71765
0.0288866
-37.3062
-7.91743
11.6601
-0.940424
13.708
13.8405
-36.5471
26.0015
6.65065
19.9897
19.5834
4.27769
-1.30751
12.8195
-16.0128
3.45766
12.4085
11.0483
-2.85291
13.8663
-9.82808
22.2166
15.5016
7.93066
-0.697944
15.3821
-7.11549
9.59431
18.3243
6.94497
0.173442
17.8598
15.1873
-5.02654
-35.7954
10.6981
15.8104
23.3249
-36.9025
24.6984
24.9886
25.0311
-18.7218
17.5197
-45.5697
14.403
18.5826
18.3913
15.694
20.2382
27.3624
12.7442
-37.9454
0.339882
-38.5195
27.1822
9.69812
-6.7669
-26.8013
13.8107
20.6516
14.1729
7.66421
7.09045
20.3539
-22.2411
15.106
-28.6811
7.27621
-16.0712
3.97293
10.8498
-46.129
-47.4996
-9.99994
0.692853
-72.5149
17.2181
-0.619821
5.60088
13.8084
-29.483
8.70746
-0.562422
-27.0923
-43.0111
-37.5291
19.443
20.9428
-22.429
9.39919
18.0747
17.1346
0.434232
-40.1216
15.5471
-37.5753
19.2392
-24.6077
18.7379
9.82722
3.39683
17.6548
11.3374
18.3446
7.86286
7.56883
-1.08608
-35.6819
-33.7136
-15.0479
18.0443
-34.569
-15.6022
-28.2584
20.4364
18.1015
6.46132
11.1476
20.1376
-18.0628
14.0015
-40.8611
-3.15829
13.962
-24.2195
-38.8832
-9.57242
-37.7581
5.26375
-61.4354
-33.1845
-36.4334
-36.4699
12.3162
23.6413
25.841
22.4514
-40.1667
15.1938
-44.2211
13.7612
20.1394
3.55227
17.7598
-25.5758
7.9968
-2.11643
0.750974
19.1053
-5.78467
15.9877
-37.9324
-1.48017
-37.6644
16.4075
15.9087
14.2139
-40.0909
13.9458
-7.44477
-36.7988
-37.0614
7.71729
23.771
-22.7573
-9.22743
-30.8761
14.4581
13.7957
6.99913
9.5421
-38.9677
20.4123
19.4747
-13.4677
-0.829167
19.8291
-24.4043
-43.6115
1.70732
18.3314
20.3495
-44.5537
9.92009
0.456104
23.2539
-35.5632
-16.9866
0.809053
21.8183
1.58354
0.0511827
-5.53709
18.9143
11.663
18.8712
0.412568
-20.1976
15.7448
26.6841
-34.6503
12.4753
1.34035
-37.0983
1.45507
8.18853
-31.7275
9.6319
-10.4718
9.90079
-8.23694
-7.24777
17.4629
20.4321
13.8885
-14.9193
-14.9196
16.0436
-38.5861
5.27352
-4.0285
9.16774
-35.5375
15.4407
16.1735
1.20109
15.1202
22.9202
-15.5216
11.3528
16.2229
-37.4172
9.50335
-3.12551
8.85956
4.62974
11.6949
0.109817
7.97109
7.9469
-18.6659
19.3169
5.21891
6.98705
-26.7617
0.395253
14.943
-37.7854
24.9556
-40.1118
-37.8073
-5.90147
17.906
16.0301
18.5407
-38.5958
22.0783
-31.4199
10.9561
3.62002
-28.9134
13.3958
8.97075
6.03588
10.2977
-36.6735
12.0258
-37.735
-27.4809
-0.124047
-22.0561
-24.8258
12.604
22.6431
-4.48498
-45.4683
17.8722
-20.123
20.6495
6.08553
1.9932
9.81614
14.4824
9.55229
-6.0914
-2.41251
1.52948
5.06081
6.49727
-30.4086
-31.6166
3.18185
8.24116
2.16231
27.3856
15.1998
14.4264
20.8419
3.87653
15.9228
-22.0254
-40.4645
-38.2089
14.2897
26.7758
13.8396
-7.09094
19.3391
13.0626
13.4237
-15.1739
1.27324
9.91608
25.1101
-4.93614
-6.13377
19.2701
19.7318
14.6364
14.558
17.1617
11.6382
-7.25686
-57.6583
15.6077
-35.7128
-34.3359
14.4355
-45.8977
-0.745638
4.1081
15.1061
15.5701
16.0876
0.867541
18.4884
18.8709
7.16988
16.6742
14.9005
14.2491
11.8809
9.46004
9.19335
5.91893
17.8915
16.484
-38.9903
12.8867
0.701567
-16.7524
22.4639
17.1846
0.244435
-48.8599
-3.21116
17.6286
10.219
5.49426
-22.3268
5.86765
-15.4589
6.4192
-38.8463
-0.222897
10.2046
-18.7778
-22.8631
-39.7757
21.2758
-30.9017
-31.6373
-45.4453
22.7722
-13.5954
7.12959
4.35757
-37.0228
12.268
13.5331
8.93011
20.0789
12.3903
1.92769
-37.2996
-49.4258
0.875546
16.5173
-20.5317
-44.1842
-36.1585
-13.02
-36.1773
-41.596
-23.6789
8.64207
6.30845
14.1099
18.0075
-12.2611
-64.5832
20.1676
15.9163
-44.3459
0.911806
-38.9264
9.48295
3.31898
10.1021
12.3354
-4.21351
-13.5952
-14.6944
5.28878
-33.3202
-37.6909
5.735
-35.1395
-37.6916
-36.6282
-50.4712
5.24498
-37.9466
9.35703
-43.1899
14.2114
12.8509
6.36482
18.0899
-63.4856
22.7485
-4.06083
2.26775
-8.89492
14.5856
10.6142
-35.9009
-38.6601
14.6357
17.0546
23.5812
-48.625
-37.6336
-64.7894
9.07264
0.0236503
-39.5005
4.65768
-38.1217
10.4203
-44.5284
10.5986
-0.815156
6.87563
20.8204
13.109
-5.38712
-8.81041
-13.2109
-37.5595
18.4747
25.8505
-37.1602
16.9131
14.0829
0.0423713
-5.18532
17.6681
17.0752
-25.1268
-12.7267
-42.6905
-62.8593
-8.18537
-37.9839
-6.70797
10.3734
-93.4459
15.7285
-41.4177
-36.4169
13.527
-7.17024
-37.5934
2.38602
11.8899
-37.3581
-3.72192
-36.2066
-40.3236
-37.7568
23.9469
-39.5227
-0.48228
-45.6426
15.6561
-37.5493
-18.2616
-21.2699
-39.6249
-1.59616
16.054
0.0414015
-39.1066
13.2336
-0.0677265
-13.0228
-28.484
-39.2192
10.1643
11.933
14.4686
-39.6599
20.5705
-13.4319
-0.0618391
4.12406
-17.8046
-61.4331
-39.2902
-21.0568
7.00291
6.84019
-16.2968
-0.851528
-9.40286
13.5138
-45.7461
14.4294
-30.9246
9.55089
4.07832
-2.89858
-41.828
28.4264
-4.08669
-37.1428
-34.7682
-8.63367
14.2398
-23.0231
-45.6299
1.8208
-36.7008
-48.5028
-36.2893
-38.1241
15.0948
-34.9089
3.53499
-36.2431
1.12796
13.3244
4.33023
6.31012
-2.96942
18.1445
-37.6867
-17.1961
19.4337
7.93386
-37.6581
-0.841989
-28.7653
-8.5102
-1.82078
17.8968
-31.1721
7.24749
-37.4905
-25.9886
-35.758
-35.0477
-37.792
8.2602
-11.5508
14.4781
6.64646
-34.7748
22.6264
-65.0113
17.4114
20.2381
-36.9252
2.94487
15.4226
13.9503
11.0125
-19.345
-21.6343
-20.4091
14.3364
5.28396
-10.3862
-32.0592
8.30414
16.8158
-0.338491
-8.86828
2.31807
19.1733
-12.3381
-13.8344
-34.7492
12.5076
3.58393
-35.7939
20.6456
17.4969
-18.0212
-30.9329
17.6603
8.03039
0.995057
12.7754
-6.34597
-20.5298
-23.243
-25.8982
17.1591
14.8475
9.15534
-3.77998
-107.12
-1.09281
15.4238
-36.6128
10.7068
18.2873
19.5751
-15.4596
14.6583
12.4636
15.3251
16.2638
0.370837
16.4333
-0.0538458
14.4079
9.37902
15.5541
-46.3481
17.6657
16.9405
12.9858
10.1954
-15.193
10.4527
1.78307
-5.67589
18.6681
19.2094
-41.3391
19.3284
-21.8049
-35.9375
15.4167
15.5729
-19.1498
0.707302
-37.5893
-34.935
-7.10264
-23.0535
-20.2831
-1.16872
13.4854
25.1364
17.4144
-16.5006
-12.2472
14.9977
8.16471
-5.67413
-21.7413
-17.1819
-13.3121
-36.1564
-36.5864
13.7114
-84.9427
7.39095
0.783078
0.709953
-30.2406
1.37587
7.11946
7.72928
11.2367
-3.52832
6.57286
-13.3071
-51.1557
11.2645
8.56398
7.04656
-3.59174
10.3976
-1.62873
6.92332
-2.96486
14.5297
12.734
21.8519
14.4393
-19.2855
-1.42727
-3.53807
-14.8978
-17.4528
-26.4346
-6.24502
-37.1116
25.496
5.25499
-2.29584
20.3423
-32.2716
-5.42148
-9.58836
-47.2222
-38.1782
3.47059
-10.0891
13.6898
-8.87281
-18.6857
-51.2888
-17.8209
-7.4767
-4.31396
-1.13022
11.6188
-20.6137
-25.4441
-11.1186
8.43903
-9.27908
15.5246
20.871
-15.6221
15.7395
9.05239
10.833
22.9658
-36.1063
9.40641
9.92452
7.10939
19.6544
-0.815394
9.11218
-5.88273
15.3581
20.8901
-30.4855
-71.3426
-11.6632
-7.80926
8.23577
-17.7818
-17.657
-17.1243
6.94769
-37.4167
7.28319
7.72595
12.7848
6.31709
-36.674
-14.9918
-93.423
-22.6443
22.2081
24.9262
18.5939
26.2395
13.0283
17.1395
15.5916
13.5425
14.0658
-12.0968
14.8924
-1.35334
-36.0071
20.4522
7.96001
-8.86176
23.8175
2.04293
-59.6553
8.37588
7.31999
17.2216
-34.8206
13.4155
22.2692
-33.5035
-35.8275
-14.6905
11.5498
-43.2377
17.824
0.358804
17.2816
14.3191
-26.9683
16.5811
-3.94288
-37.9616
-37.1359
-50.3072
16.7564
-9.30986
14.321
5.16819
-38.9212
4.22188
-20.5501
-8.59352
-18.7271
-38.4339
17.0929
4.32848
-37.7423
-3.02159
10.1351
7.64623
-43.8356
7.97002
-25.148
7.92151
-37.4343
9.5604
5.17692
8.48555
8.75649
14.1557
10.7944
5.57413
-37.6789
26.129
-7.28314
-36.6905
14.1922
12.7474
-37.8153
-7.93547
-44.2575
9.02253
8.54106
-7.38277
0.743082
-0.483534
26.2951
-82.03
-33.7622
4.75745
-1.31254
9.89521
6.26155
13.7182
10.1438
-42.3315
11.0456
-37.5201
10.8282
8.93795
14.4175
10.6681
0.121259
0.176083
8.05793
15.6126
7.15081
5.64433
-37.3223
-3.95594
-3.37289
12.7132
-37.0345
8.84187
-38.2529
16.6864
-38.625
-0.941644
18.3802
16.7993
8.50142
-40.454
-38.8261
15.8629
-0.459687
17.5266
8.6405
-34.3703
14.6866
7.75185
5.48388
5.63913
-0.555747
-11.3424
10.419
-2.25918
18.8258
8.20403
26.6848
1.43804
5.2683
17.0307
3.46207
7.69499
15.4165
12.0563
10.5239
-10.8456
-71.742
14.0961
10.9205
6.17379
-40.9517
-1.57988
-50.3842
-37.9496
-2.67702
13.1242
2.53278
11.9774
1.23339
22.7569
18.2736
6.5732
12.0594
6.2874
-37.6639
13.6182
11.7732
2.59026
8.69815
17.4213
15.6976
-14.9092
-29.6321
-16.9142
12.9653
7.61912
-26.3824
15.349
-61.7101
13.079
-23.2378
14.4583
7.78304
-17.9895
7.31444
16.3614
7.03223
14.642
18.0163
6.3855
-1.5854
9.26488
4.33234
21.1281
-29.9169
19.2766
16.3387
-38.9013
-12.4459
-0.0682725
-0.498171
-44.4501
-21.0597
13.8834
19.597
15.9497
19.7427
10.5355
18.1632
7.18248
5.85076
7.6708
4.94252
3.19609
13.0218
0.964435
20.7445
7.33913
-36.7788
10.9251
20.2518
21.3285
-43.7411
9.34878
-17.1518
-36.2443
8.175
3.14733
-26.8899
8.8346
21.8579
-38.159
-27.2646
-47.267
7.37244
4.56958
3.93838
13.7957
14.0806
-5.73492
3.78686
-34.883
-43.5084
13.6786
13.5641
14.3775
8.46316
0.220794
9.45554
4.78661
-20.757
7.21722
12.9026
10.12
10.5107
-4.89824
5.24303
-3.47258
14.7366
-33.9988
7.63314
17.3767
11.8365
-11.636
-40.4026
-49.161
-6.67937
10.382