/*--------------------------------*- C++ -*----------------------------------*\
| =========                 |                                                 |
| \\      /  F ield         | OpenFOAM: The Open Source CFD Toolbox           |
|  \\    /   O peration     | Version:  2306                                  |
|   \\  /    A nd           | Website:  www.openfoam.com                      |
|    \\/     M anipulation  |                                                 |
\*---------------------------------------------------------------------------*/
FoamFile
{
    version     2.0;
    format      ascii;
    arch        "LSB;label=32;scalar=64";
    class       volScalarField;
    location    "5.2";
    object      p;
}
// * * * * * * * * * * * * * * * * * * * * * * * * * * * * * * * * * * * * * //

dimensions      [0 2 -2 0 0 0 0];

internalField   nonuniform List<scalar> 
13486
(
18.9602
20.3162
2.97464
-87.065
-24.0195
4.78007
-40.0328
-10.1025
1.51444
17.8202
-38.1882
0.853896
19.5575
9.05092
-22.6859
18.2279
-18.0963
-20.547
-0.496188
17.3917
-138.349
19.0497
20.0521
-42.3282
15.3758
-38.5841
-16.7512
-8.91809
-1.57467
-11.0028
-191.423
-13.4872
-18.2838
-3.86133
-9.722
-6.33992
-2.40714
6.29067
5.98517
4.2443
-57.2284
21.0239
3.12609
14.91
14.9239
1.19942
-17.8023
-6.77472
-0.0581127
-4.92803
14.3522
7.12459
1.79204
7.56994
-16.629
-22.088
-6.6632
6.49027
-17.6135
-20.5784
-44.3727
-19.0294
-14.5349
-141.45
-53.998
-3.90478
-70.7779
22.3363
1.05578
13.6358
-66.9038
-13.5875
7.52468
-17.6438
-3.73351
-5.79897
-12.3694
-24.2725
-18.9819
3.69165
-2.78084
21.7927
-14.3726
2.77258
18.8938
26.3355
-4.82315
14.3714
16.6834
21.5267
-8.07537
-13.9874
16.1036
18.5746
0.528506
-7.05228
-17.2397
-56.5924
4.32654
-18.0177
-5.64273
9.50093
-60.8154
8.70129
28.898
-18.0422
13.641
4.56656
-18.5676
-19.3881
-3.55145
-25.4783
7.56978
3.96509
27.4989
-2.9389
16.0183
-1.64706
7.73158
-1.18819
-13.7875
-42.6429
2.93622
6.28533
-3.68398
7.32401
-5.32866
9.61059
0.138498
-35.5258
8.13336
-17.6952
-19.9763
-15.9372
14.243
17.4783
35.855
-18.3802
2.06935
-7.34934
-11.6043
1.3113
-5.07771
3.22592
3.50776
-23.7253
4.60164
37.8691
-5.43286
-1.26165
12.9325
-29.7716
-3.74022
22.4381
11.0604
2.47028
-27.622
-82.4852
1.93512
-106.005
-1.52951
1.92685
-14.3243
20.3369
7.07192
6.56377
10.2202
35.1338
3.34711
-15.7769
-23.2897
11.003
13.8224
-7.72086
-6.10931
-59.2187
10.096
-12.3776
13.3755
-4.36317
1.3835
4.60761
-7.55089
-19.7289
3.22042
-8.79051
0.370993
-7.68301
-60.6138
0.264129
-2.31994
1.34448
6.80619
29.0906
5.33208
-34.8171
-31.5696
-1.81292
11.2635
7.06628
-190.965
9.4774
6.20149
-34.1803
-124.482
5.40319
-43.0408
11.3183
7.03493
3.17735
-8.09372
-43.1151
17.1819
13.7242
4.75971
-0.679753
-11.4167
21.3881
13.5742
-5.25778
-18.0506
-5.44916
-6.38268
-1.87506
3.95597
14.9803
3.45045
-131.102
0.650574
-4.26394
1.25856
-114.216
-12.5963
22.3436
-108.72
13.0115
-5.26613
2.02249
13.5598
-4.02625
-19.9489
13.7692
4.70445
10.7591
3.82992
15.7782
-2.05043
-24.5418
-16.3991
15.4908
-26.6361
28.1614
-4.9876
5.07247
2.7494
-56.0412
-12.328
0.316158
-77.8619
-20.4312
18.1821
2.66765
-22.1212
-57.1624
-25.965
-20.1139
1.30281
-181.503
8.09419
-6.55429
25.2972
14.0664
-11.9609
2.27037
15.1457
-22.4525
3.20425
5.38183
4.48826
5.71898
-0.847807
-0.304297
14.261
-50.6487
-39.3084
-17.093
-9.98808
-0.846499
4.33859
8.41612
-105.746
-13.1862
-0.425774
14.1504
-4.45206
-6.67482
-2.04149
3.26064
13.9545
-49.8164
-14.5765
-49.5874
7.42229
-13.6464
3.84069
-36.9128
-114.73
-2.11949
-3.62918
-2.31739
-4.60056
-91.3107
12.3313
-24.0023
-53.836
17.7653
-17.1256
16.9232
11.8194
-0.0629919
-4.92554
-4.31053
13.4463
19.1822
35.154
-8.40715
-11.9645
-0.734135
5.01668
-13.9155
14.3791
-15.768
-8.34086
24.6986
-41.4067
-1.31568
27.4566
-28.697
13.8806
1.19922
0.534197
19.2138
-15.4064
-7.9029
-25.006
-5.97181
-4.72186
25.4523
-5.58567
-9.63448
-2.52009
4.53786
2.66113
-17.2377
13.8531
4.65198
-17.9686
-5.33878
-2.99048
-37.8922
-0.675864
-4.60139
17.1461
14.1222
-11.9124
-1.64545
-6.10289
-16.5355
17.784
-4.89809
2.79845
-4.18594
4.40353
-24.9712
7.12556
14.2091
13.4704
-4.09194
-53.7483
-8.76899
7.2809
-18.3996
22.1798
25.6337
-16.7043
2.43573
7.47888
13.766
-18.6132
-174.743
16.4577
-11.9223
11.989
14.7479
25.4884
-11.083
-86.7387
-24.526
-18.4263
-10.9263
-18.5546
18.0806
3.79858
-110.283
-37.4795
-2.49336
18.3734
-12.3874
-3.06153
20.1197
12.9804
12.714
-12.2906
14.1694
13.4489
28.4651
-19.1428
-25.4225
-20.4528
-4.20724
13.4795
-53.341
25.7393
14.1771
1.38354
-7.38499
9.69307
14.4663
-16.9105
10.7136
19.2085
4.02541
11.8258
5.03058
-30.4072
-22.4944
22.725
-7.39319
-7.49734
21.9558
-18.0256
-11.7249
-15.4008
-12.9645
-3.07928
9.1955
27.8079
19.5308
-9.26219
2.74124
-25.4899
14.0673
17.1325
-5.21512
4.62392
13.9055
-17.6073
-65.2888
-53.5142
-29.7658
12.6736
12.9788
-5.02424
10.6289
-117.458
15.8498
-5.70543
31.6068
15.5272
5.53884
-12.725
-8.91954
-3.00695
27.1999
3.72905
-3.71831
0.924873
-1.17593
-17.6963
3.12428
14.0477
7.30239
5.11361
20.2924
-6.02079
-18.3278
13.6129
-175.166
34.7579
13.6762
14.4222
14.0296
-55.17
3.36234
30.0835
-29.1191
18.5721
-46.6452
10.1174
-180.163
2.71036
3.09285
-18.055
17.2132
-3.35043
-27.1561
0.0239347
4.16566
25.3229
9.19562
2.30386
-2.53127
-4.39066
5.6166
-26.8217
14.2181
-20.1036
22.1
-21.8498
12.9332
21.4987
-18.3522
-7.83332
-2.06088
-169.251
-20.6726
-1.80131
-21.726
3.4467
16.1008
-20.7746
-31.7969
-20.9096
-5.70087
13.1707
9.63439
-19.1479
-57.7579
-50.3922
-74.313
-9.1776
-55.9275
4.57252
-2.45597
24.1825
0.446447
17.3363
-29.9825
-26.4668
3.41482
11.3231
-27.7179
9.96375
3.01416
-47.7555
-4.41914
6.68215
-23.2452
-20.7303
14.4132
14.7264
12.5538
19.4953
3.06622
13.8217
9.67378
11.9279
4.67399
13.4863
-16.8839
17.96
-3.83739
-0.215741
-21.3819
12.8695
-18.1187
2.68908
27.099
18.3403
-86.9361
-77.7844
12.2437
2.03746
4.92817
18.6141
-42.3818
-21.8924
6.68168
16.8719
8.76767
10.8563
-82.8822
18.584
-5.59364
4.48801
13.9801
-14.5764
2.44144
24.2972
-9.83576
3.54666
-4.51932
11.0478
-0.420574
18.1194
-2.56193
-1.04586
-0.30441
0.227332
-9.42719
25.1326
10.3372
24.633
-138.791
9.73982
-7.9561
-17.941
-22.6582
15.2501
27.4217
-92.7019
-19.419
-13.1955
-6.03206
15.4683
-34.7265
9.06622
2.74209
-20.953
-19.1424
-25.0465
13.9291
-2.44133
13.8204
-5.44407
21.8454
3.30213
-116.565
-25.4458
-7.42618
10.4763
-36.9979
10.9034
-18.0448
12.7483
-2.49382
-1.98248
-46.0909
22.1059
0.753077
-11.2816
20.841
14.3004
-19.0613
-2.62961
-3.65822
7.70771
-4.77758
4.80433
-80.1963
10.9659
4.80144
10.3473
1.98354
21.4867
4.56224
-74.578
12.8728
-48.9368
3.80398
-10.9758
13.9509
12.8873
-18.2078
3.23266
-1.76182
4.01671
13.1154
10.412
4.05747
2.81262
-65.9387
5.88707
19.3853
-134.905
-6.33284
3.5978
23.9193
-11.1211
9.41702
24.6715
2.55142
-18.631
8.46914
-21.0665
17.2299
3.8308
13.9328
-131.158
-16.5022
-44.3609
-2.46147
-18.2218
13.8187
26.2031
-2.628
-31.8625
2.9626
19.6762
-9.37217
12.1749
-47.8464
27.9568
-17.9963
-1.86271
-5.68576
14.1885
16.5711
18.9803
-7.55036
-151.784
20.902
13.8556
-32.2286
5.13639
-65.0734
-4.79019
-9.44107
13.5894
-12.8865
3.08753
17.7022
-36.2213
5.68616
-10.938
-22.0171
-2.39083
7.95763
10.6816
17.6926
-93.4738
3.31655
-17.2127
-146.581
4.0481
-2.50645
-5.78433
13.9537
10.3015
4.64764
5.696
-144.706
-17.2986
7.2896
1.73313
-90.5356
-41.9709
1.68984
-56.847
-4.88175
19.9272
-2.31339
-17.4714
20.8437
18.2497
-88.1971
-37.5709
-0.0795404
-17.0291
3.30907
-8.33857
8.85976
-22.3564
-18.2608
11.8243
13.9438
2.2897
-8.90611
-28.8276
5.38971
-3.8573
18.9702
-1.50568
-76.1629
20.5469
16.8622
-25.0256
-54.1283
2.74629
-41.8684
-0.583652
5.05582
-9.96899
-67.0996
5.55652
13.6813
25.0134
10.0379
0.429154
6.86492
13.4597
16.8585
20.8526
1.25958
11.1671
24.4519
-36.1475
1.20192
8.56668
0.820422
22.5988
3.2056
24.7339
-0.778546
2.32924
0.985026
5.70682
-6.19157
15.6814
26.4261
14.0437
13.322
-18.1806
3.13781
-1.08692
-22.7397
-1.10233
14.9971
3.79233
-86.5836
-48.6207
13.0134
-9.80487
-16.1472
-15.3177
-3.77106
-15.5178
-29.6133
-69.9904
12.1319
-162.17
18.6603
-129.473
-16.7509
4.74989
13.7272
-23.5578
9.06749
-51.8384
16.5297
-23.5689
-12.6945
3.23437
2.75439
5.11198
13.9728
-1.15251
13.4956
-2.93656
-0.726708
-16.2223
4.63584
4.64146
9.55419
-9.19658
-40.4258
-84.2308
18.7546
-7.34925
-78.914
-41.1667
10.9469
-51.2791
-7.19034
1.55642
-18.9592
-19.57
-11.535
-48.8665
20.4215
13.9287
6.29677
12.3481
12.715
-5.14491
14.8237
9.07623
5.47033
19.0236
1.52228
5.45884
2.39903
6.08107
2.08701
15.6672
11.3373
-46.8648
13.9373
-20.6407
-4.14741
26.8077
5.59399
-5.89365
13.7512
-2.6258
7.15976
2.34613
-119.81
10.8489
4.70923
2.63671
4.74899
-6.76614
8.76018
-18.0041
-0.346077
13.9005
-2.43146
24.229
16.2923
12.8504
1.18423
18.5816
-4.26001
4.30004
-13.0056
4.90111
-113.836
-0.792859
-10.0271
-13.9788
-45.2894
9.02399
-26.7747
-30.328
-88.8632
-118.849
10.047
15.1162
3.61846
-8.93994
-15.7796
13.3876
24.9367
-0.454112
-58.9164
14.1328
-133.57
10.1147
-106.765
4.30787
7.88694
8.27942
21.5222
-1.77212
13.5445
-8.85384
14.5135
3.33577
16.5495
-15.2752
-23.0313
10.438
-89.4659
-1.72212
-11.2666
-79.5264
19.3797
13.4312
18.0909
15.6491
17.9776
9.89509
-1.39391
0.964361
13.5363
13.3059
1.20031
3.14973
-8.03037
12.6557
-7.51863
2.78789
-17.2376
35.353
4.01609
4.6714
25.263
18.4226
-0.837541
-76.7658
5.36095
13.7865
-64.6323
-1.80855
-17.0685
3.73095
13.5333
14.0534
4.45066
2.02415
14.3736
-1.13445
-1.02431
16.2903
-2.97548
-0.384459
-23.6876
2.76648
-6.13035
15.8481
24.617
-9.49121
-142.182
-16.1291
-9.77571
10.2527
1.34673
22.1222
8.03855
29.9119
9.35518
-0.146521
11.4897
-20.1656
-21.5701
-50.8927
11.0175
5.11696
-15.0553
-188.632
12.3088
15.2664
0.636906
-18.3732
-15.7334
-18.2769
-7.27921
-3.81081
-0.896918
-3.66691
11.5484
14.1724
17.6532
3.79625
0.323399
-17.1957
-8.58572
3.23331
-87.0017
20.3968
-1.34678
-172.921
11.8663
-16.8893
-12.4741
-50.3501
-1.14631
15.3001
-37.8487
-18.001
-6.91402
-4.37959
-22.5732
3.51113
-7.5117
2.05663
14.0031
8.76965
-16.3813
14.1834
4.8263
16.8092
14.7483
13.0491
-5.55077
6.05137
21.7627
30.7932
2.07248
-26.929
14.5439
-2.58096
21.8824
-14.5064
-16.1828
-45.987
2.10666
8.23151
-16.9894
13.3362
8.82244
-16.7994
-47.0422
-11.4701
4.55211
26.4518
-31.3367
15.083
-18.5186
25.4672
21.6763
2.45744
-5.70313
-95.4922
26.8229
-1.31933
28.9614
-9.53071
-8.22665
12.4385
3.98962
-26.5773
-16.6328
-13.9813
17.3975
-25.5934
-24.5518
18.4634
17.2233
5.03267
-7.07641
-11.61
10.5739
4.20611
7.55606
13.0751
-1.68889
-41.8685
15.3879
-5.69503
-9.98053
-10.9412
16.7656
8.21194
-56.9246
-114.668
0.434714
14.5239
19.9753
-2.06213
-9.54759
-6.96738
26.7525
-28.064
-10.6575
22.0425
14.284
-4.41823
-3.45587
-82.8155
-16.123
-11.8371
-28.6808
1.27727
-47.6289
6.99572
-4.54258
-17.3086
-18.1408
-14.1915
-71.0985
-18.4879
-23.2335
31.0863
15.8754
-27.6828
-15.8643
-12.555
10.5105
-0.768568
29.6857
-16.3013
-6.7039
14.3826
-9.30057
-48.3764
-11.1801
-12.1307
8.95001
31.1479
1.11985
3.56858
-45.5481
3.10496
-14.2357
-4.03554
3.65678
15.5364
18.298
14.2315
-179.605
2.43181
2.83507
0.454222
13.3525
-0.147646
14.958
28.1265
23.8154
-9.71659
14.3459
16.5721
-6.68195
12.4863
7.6715
23.0716
12.1537
7.02063
16.8734
13.5466
-10.4046
-2.91677
17.6027
-15.7244
0.43526
-28.2933
-18.7911
4.44588
10.152
11.1181
-6.67179
21.2271
20.6638
-11.2627
-16.0093
1.31848
-66.9515
3.67124
17.1079
16.0745
-16.741
13.52
-0.0607221
-4.33825
0.631032
-41.2498
-76.6783
-9.3944
31.4182
-25.7627
-10.6603
19.612
4.13935
0.417342
12.2732
2.3008
14.7032
-37.76
-8.38895
-1.6334
-9.68185
-15.9436
-12.19
25.6722
18.2851
6.98237
38.5709
20.3618
-18.1901
7.97676
-37.325
3.55152
21.4243
-167.193
5.47625
-2.3426
-22.3807
-17.5049
11.2764
-76.2891
-3.91622
17.274
31.4552
-17.6896
-3.32595
-4.90626
2.92315
2.02111
-109.883
20.4267
11.804
0.511661
10.9534
-13.3066
-36.0077
-18.2825
23.6384
-24.5445
28.6925
-90.1916
-7.28224
-19.1191
-27.7249
-17.0257
-7.00176
5.6434
10.6481
-4.96755
10.7257
-91.0444
0.0481278
-6.62502
-16.8426
-8.33539
-11.252
-1.26824
6.34764
-117.449
-41.0878
-1.44796
-0.538597
27.0179
13.7557
-7.31496
-1.54963
36.7248
5.10434
-16.9122
-11.7186
6.39051
14.8855
0.967402
15.377
-7.77471
-8.23257
-12.2561
0.552136
1.16694
20.3722
-16.4767
-24.3737
-18.2992
24.2627
-51.1717
-1.17656
13.3837
-91.3963
-7.07235
12.6098
-22.0424
-19.73
-154.394
14.5141
6.29328
13.053
-13.8599
-17.1493
-20.0452
-19.7684
-13.5945
0.0201201
-6.53475
-5.3823
-3.16012
-65.0644
-18.1622
-34.9236
18.0433
-133.913
24.6328
-29.9014
10.8294
-12.1544
-10.2669
14.2516
-3.99586
21.6853
-1.3983
-13.3937
-24.0773
11.7352
-16.7239
14.1341
0.164931
23.5003
15.7497
-0.535632
10.9897
21.4764
3.49991
10.7591
-7.26703
-155.158
-7.79039
-19.8195
6.42622
-17.959
-16.7956
2.15032
-30.2758
1.28757
-116.232
-8.42498
-15.0948
-8.4544
23.0045
2.32702
-2.05371
3.60058
13.8477
-33.6559
-8.64575
4.27291
3.69504
2.07433
3.66911
-0.901117
13.7973
14.0979
-3.30087
15.5759
16.0552
6.33216
-8.38611
4.58267
11.1481
-1.29416
-6.96208
-17.5684
-88.9838
-6.03513
-84.0277
-3.69644
5.76358
3.17575
-17.1372
-5.04823
-54.4906
-144.703
-15.8614
11.3759
-22.8107
14.5937
35.5626
12.5561
0.27844
13.0466
9.504
1.3385
2.23207
-12.5393
-91.3469
3.19355
12.0926
0.9316
20.3731
2.11567
14.0823
-8.16488
-6.87926
-18.7149
-24.3496
30.5025
-111.083
13.8991
14.161
15.402
2.94769
11.7541
-0.0504351
-18.8102
2.86052
-17.8547
-19.6808
12.2781
14.3082
-10.9016
14.3098
16.7641
-62.5669
-76.805
3.61215
4.61712
17.2188
12.8418
17.3501
-4.94055
1.87566
-9.45829
-8.16472
-7.63708
17.6139
28.2659
-15.2687
-26.5975
-18.8823
-3.16037
3.137
3.23425
-32.4342
-53.5649
-6.91616
-88.3733
-20.7053
34.7415
11.7737
-9.73721
-190.558
-28.2724
-25.3098
-18.3181
-33.8368
-27.568
19.4864
12.7431
-11.316
29.1746
-13.3227
-25.9563
-2.74172
-21.217
3.80139
-13.1464
10.8771
0.947963
-5.33646
-8.70265
8.73103
-16.689
-147.41
17.5411
-52.0084
8.36152
-18.2255
14.2178
11.3134
-47.2047
13.7597
8.7627
17.6136
21.9299
3.78781
3.46424
32.0586
-18.4261
-2.37893
-46.6363
-77.231
19.9731
-91.0566
24.57
12.6753
-5.21487
-14.981
-16.2651
16.4619
-89.1782
-20.3983
4.91384
8.45277
-13.1341
13.4719
8.87926
-9.39591
24.2866
-16.3787
-35.8052
19.5624
-1.48675
16.8748
-30.2802
35.3385
7.04082
-109.653
17.6554
-1.60213
14.0113
2.53726
7.83961
3.54756
-11.6176
-16.0899
4.05288
1.86622
-122.344
-5.20257
2.30567
11.6267
12.4604
-121.342
2.74186
-30.8571
13.1851
-4.03757
-74.1734
15.4533
-53.6279
14.3304
14.9512
-18.083
19.1274
-70.0173
30.2635
5.43548
-54.1678
1.1073
-9.84121
19.6932
16.4257
-56.4484
12.9089
15.9098
-26.964
4.54253
2.00149
8.18228
-27.9893
-18.1917
-18.8885
-152.754
14.0961
-15.5107
-78.728
-6.79413
17.4252
13.7418
20.6857
-16.0218
12.7438
3.40956
2.19815
12.9206
-117.672
-128.546
24.021
4.19896
3.59016
-15.0317
-21.534
-100.416
13.8487
-18.1335
-2.4738
16.6499
-11.5716
12.722
-17.1924
-3.66166
27.2022
-9.06923
17.4924
-9.30012
-100.071
10.6337
1.45501
19.6929
27.1293
6.7751
-2.83728
29.3854
11.7085
18.6975
-19.1618
-16.0221
-20.8664
-5.25535
-85.254
-21.4456
-3.14152
-19.6721
-4.15448
-1.2972
-17.475
-11.767
-102.274
-14.8448
18.9007
-34.3952
-1.25721
13.5529
13.6411
4.23861
11.4254
-50.7835
-18.4767
-19.0342
-4.36249
19.0302
-73.8968
17.5931
-20.3876
13.9976
-21.1213
-17.2044
-47.5303
7.68639
13.9789
9.80913
-1.006
14.5249
-26.5752
14.4474
22.952
-35.9575
-40.6573
-75.6111
15.5846
8.03181
-34.6454
-13.973
6.60831
4.30043
-10.1954
0.815163
-10.9318
-7.89599
14.0142
7.83699
8.66134
-82.08
19.9032
-28.67
10.2361
-4.21279
14.575
8.62994
13.3074
0.502032
-68.3453
-98.9649
-17.5291
-17.9624
-77.1915
-61.465
-10.9164
-89.7013
15.1678
5.98592
13.8855
-159.107
-58.0742
-7.75225
7.55742
8.60985
-19.5725
4.67235
0.879876
-93.8411
-84.0082
-31.0803
-1.00296
14.0345
7.46186
2.40806
-16.563
3.94455
-82.0127
-10.6776
-24.2761
13.7614
-2.96816
-115.84
12.0441
3.09098
10.0368
25.5525
22.8086
-9.96754
-145.513
7.98443
-5.01229
13.4521
0.6458
-59.3363
-65.3301
-40.066
-15.3325
0.578319
-48.9717
32.3907
-9.00177
7.64607
-2.96303
-13.3298
8.46073
-58.0584
3.11336
8.39287
3.84999
15.4205
-19.0596
13.6093
-8.15523
-34.9249
-134.199
-25.4293
-64.6225
6.86736
26.5905
13.0304
-25.7181
-51.9858
17.276
-16.9991
-123.211
-0.498107
3.82749
-45.4349
-56.2684
-75.9245
-10.8006
-1.09666
-3.23901
-20.4343
1.18656
15.146
-6.54638
-9.91736
16.2389
7.58177
-37.0946
4.49506
3.30416
0.386973
30.0268
-2.49191
-2.44097
-2.62506
-0.771422
-6.57762
2.02716
-22.6278
-6.50095
2.54995
-10.3749
-36.1402
-41.6701
16.9425
1.30818
9.51365
-11.2924
-4.40907
27.2346
-123.866
7.49141
6.95942
12.3307
8.04293
-2.96793
-17.8066
26.6451
15.3519
14.9883
4.87052
-69.9185
16.0236
8.59946
21.8047
-39.7645
15.8097
16.0017
15.3915
0.761845
-18.7135
10.6343
-18.7343
-10.4176
12.8071
10.1845
7.78771
17.4669
2.77959
20.3504
-12.3527
8.24847
6.2748
-2.61224
-41.803
14.1247
-7.03583
13.7878
30.296
14.9427
-1.05435
-8.17967
-3.2702
14.0707
8.47131
-18.3874
-0.66278
-35.8172
14.9237
-40.2875
18.6646
9.9976
36.7992
23.582
-15.7891
-20.1425
-46.3661
7.43288
23.7011
4.9008
5.98783
4.35076
33.8695
14.5846
-1.93544
31.9451
-1.85198
11.2626
-1.95738
6.85933
-1.7701
2.88663
7.38581
12.2426
8.50983
-18.8014
0.635703
-24.7352
-7.9691
-53.8365
-6.14756
24.4849
16.924
2.61422
-39.2468
0.543979
9.30948
0.619261
0.323042
13.3021
14.9336
-16.564
-133.93
14.9494
-7.83531
-103.281
21.9108
-9.66007
-3.09239
-7.81354
27.746
-95.1658
17.613
-42.1081
31.3831
-12.6821
-19.1622
-20.7125
3.17078
1.85573
13.7865
3.22703
-80.9494
-15.4871
-122.094
14.4578
6.00831
6.56024
-109.025
-44.843
-42.8986
6.78414
-24.7646
-124.139
-22.1832
14.082
28.5313
-24.1215
-44.5082
-0.0771012
-109.358
12.3437
-2.71133
-17.412
-54.7004
-12.9403
18.8611
-72.9562
4.09023
1.8375
-27.7716
-78.36
9.52487
14.4391
9.1521
14.271
26.4876
-45.5057
32.753
-17.7711
29.5529
-59.9666
-3.67822
24.6264
12.3924
-58.5822
-3.81379
9.14211
1.14695
-124.772
-18.1344
3.1382
-10.4584
-17.7857
-6.7278
2.57022
11.6063
6.84958
-81.5066
11.8089
-8.32904
-8.61384
-111.889
7.66865
-20.209
-134.292
-6.2446
28.0956
12.1778
28.504
-1.62838
-18.9359
12.7455
0.852461
-21.2213
14.2777
12.277
30.8612
14.649
17.7025
-23.9065
-16.1248
29.8194
28.8167
16.2135
0.585039
-64.0748
-18.5916
0.931635
-15.2405
-11.5751
23.0312
-176.456
8.25716
-37.5658
29.2206
-5.35671
8.15983
-107.717
-2.87843
24.0993
34.1698
31.786
3.31834
15.2547
-27.2826
-13.109
15.8712
32.3469
-84.7901
-18.4099
-11.5964
1.09357
2.20746
4.17003
1.43305
1.83707
0.495649
-1.51082
-21.0011
11.2539
15.0905
-43.977
9.31839
-108.671
0.517599
22.5641
-41.2286
-19.6778
-46.8392
12.7304
15.925
-38.0229
-49.9965
-130.586
-2.98981
35.4126
-19.2721
-21.7743
-69.5073
5.99752
-85.2157
-44.6711
-51.5008
-23.0709
-122.34
-13.3228
1.47858
-18.2181
15.4811
-16.2107
7.79385
34.0387
9.21568
0.36162
6.60926
9.02613
-15.9425
-5.06836
23.0261
11.3485
0.638901
-16.3306
7.7341
10.9128
-107.49
-51.3314
-3.88166
23.2958
-8.0751
14.1056
6.98086
19.3169
5.41452
-107.493
-5.80864
13.5077
-6.78151
15.2854
-1.60887
30.2628
-70.6319
3.06054
-32.9094
15.8437
-48.1463
-6.57273
-69.3912
3.84573
-33.8008
-69.9375
-111.807
6.90187
-4.11226
-34.4926
1.08166
1.49679
-19.6725
-1.86038
-74.7613
13.2406
28.5706
-4.07169
-16.8295
-0.342535
3.20418
-17.0785
6.24935
-0.145175
-17.6204
-4.53782
-10.3962
-33.0117
7.66676
8.96934
-87.1573
-42.0925
-1.84042
13.5363
12.156
-33.753
4.08921
-9.2812
-23.822
-9.82186
-5.56678
-36.8752
18.9306
-159.167
-25.4288
-15.1805
-45.4429
-23.25
-47.6846
37.1743
-12.6051
-12.3869
17.7372
28.9064
22.712
-102.509
-2.19665
13.6187
8.27347
-3.34451
28.6091
-4.16388
-9.00316
36.7283
6.62846
-41.5987
8.94118
21.4989
14.2994
-0.263821
23.9506
14.0927
-0.243723
1.92308
12.425
0.885366
-18.4804
26.0959
16.7628
6.24986
-32.7053
-29.3332
-10.6234
-113.301
-3.98118
-1.06193
2.43228
15.7482
3.63935
-16.8864
23.966
24.8382
-27.3543
-2.43908
6.71565
-14.0251
-21.5303
13.9502
-100.5
-6.66489
20.5354
29.0368
-17.4881
6.32987
10.5875
10.0473
-12.0297
-0.418638
-40.5952
-2.96374
-25.0857
7.5426
-25.3879
-9.22722
2.22657
-80.9337
11.831
-76.7038
0.183606
10.7775
-15.3872
-92.6593
-18.1858
4.12664
-1.75294
-1.59182
11.8159
-72.0389
-9.73489
-19.095
1.34444
12.3263
-22.3294
28.9729
-30.2385
32.9311
-4.06262
-1.45822
2.6042
14.5521
-2.54619
-10.3948
3.87696
7.68085
3.07647
-9.32777
37.8602
10.0491
-25.0116
-8.02254
-15.3468
-12.1111
3.5366
-7.59513
14.1102
-137.945
-96.112
-18.9718
-40.0638
-0.433374
-19.023
13.5719
-2.78981
22.9533
30.1017
-18.3628
-17.474
2.32899
-1.62125
24.1201
-68.1248
7.82901
11.7708
14.1349
-144.291
-100.598
5.16482
8.34387
-6.41635
-159.25
-42.6796
-5.54492
-0.979592
-9.74504
5.86366
-9.22817
-8.76672
3.97263
-97.6003
-114.151
-4.69697
-28.6635
30.1854
-15.5054
14.3217
-5.00214
-9.42607
5.73016
-19.8215
10.614
-56.0182
-16.2583
23.7807
12.0158
7.1845
-18.1771
32.582
-75.9973
-17.1895
-146.861
-21.1988
-46.9708
-164.232
20.7947
6.88951
-1.46922
11.6338
-92.4003
-59.3218
-4.3372
-1.92005
-9.48131
7.29802
12.3132
4.43203
-29.6719
-22.7966
-62.1491
-11.421
-2.20132
-3.05294
31.0074
14.0769
-51.3434
-23.4793
9.9212
21.8156
-14.1055
-16.954
-19.531
17.5051
0.749941
-12.4173
15.4199
-68.2094
23.3761
-3.39953
16.2717
-25.3914
-10.5942
-12.4426
-126.507
-21.7412
11.1881
-18.0623
-39.7517
8.5702
-117.066
5.16587
17.5545
14.1602
16.7731
14.0961
-10.6262
3.40986
7.4323
1.3835
-3.71164
8.31264
-12.8089
23.9566
-73.1894
16.0809
-30.4035
28.392
-93.4038
-0.46698
26.5178
-75.2486
-15.0265
-18.1646
16.6321
26.4675
13.2241
-4.38143
13.6942
12.0887
-30.6631
14.4036
-120.386
14.22
-76.8521
-152.141
-17.9036
-18.2145
11.6788
-28.2392
-20.6944
-7.54719
25.6962
6.94637
8.05982
-18.6004
-4.4325
-10.7409
3.79067
14.1423
2.07784
-20.8882
31.7934
7.55433
22.7843
13.4316
-43.2969
11.0972
-3.71592
-8.90964
-0.0363451
-6.53752
-8.72595
4.2957
1.74836
-124.577
32.7524
16.7866
-11.5865
-71.394
1.57857
-156.317
15.6502
10.4759
1.77273
-69.0234
10.4561
3.77499
-6.03161
-16.0404
-13.396
5.10564
23.4019
-18.5683
26.5523
34.898
27.9012
-9.66214
11.3584
-27.118
13.3347
10.7622
17.7711
5.13755
15.8715
33.6718
15.5081
-18.698
-61.3715
-15.0888
33.8187
-6.50084
-86.7502
-37.3722
18.6566
24.3255
7.65798
-12.1382
4.08242
20.8148
-18.4933
2.2136
-40.4459
11.9498
9.18647
-43.875
-4.2584
-21.4961
-24.2539
-110.238
-9.92823
1.91697
10.9621
7.0322
3.93301
2.45236
-37.1813
-21.2266
-14.3741
-35.83
-23.0813
-18.4482
14.8672
21.4094
-80.0398
24.6381
15.3658
25.5336
3.97212
-92.7729
5.13691
-18.7415
17.4196
-35.6514
16.6743
15.6975
8.85168
17.0839
-1.1297
12.6213
-10.4516
12.4073
-7.32698
-16.0883
-41.1149
2.10154
12.221
-87.481
-132.272
-80.7184
27.7542
11.04
13.5455
-7.8329
19.8878
-9.24757
1.9256
-11.8359
-8.69684
2.2823
-107.288
-16.8378
-2.42515
-18.2613
-3.55141
-56.7651
-7.10148
-21.5384
-16.7168
-2.70648
25.9851
29.962
22.8571
-87.8367
2.33034
-27.996
2.74308
23.3856
9.93917
11.9366
-80.1468
-8.70094
-8.72669
6.00953
14.3408
5.11668
5.4625
-17.0506
5.07559
-18.2972
13.6348
5.64619
13.5632
-20.8311
2.62247
-123.307
-19.7194
-18.973
-11.2754
24.481
-10.1015
-7.2002
-41.1947
9.24884
14.1775
7.80249
13.3417
-19.4195
20.5246
27.5323
-149.905
5.35567
16.3814
-113.66
-50.4234
7.04353
15.9708
17.7564
-22.9366
-16.1589
8.91055
25.6451
-22.7846
-60.5581
5.51168
20.719
6.68006
-6.39041
-120.684
12.3156
14.1672
13.8097
5.20738
-9.60804
5.52968
32.6419
-17.6098
-7.9482
6.50369
-20.778
6.99712
-6.95147
-25.5567
-17.5947
-112.382
13.5678
-173.248
-21.5508
11.4725
15.8639
2.95208
-8.11153
-56.7926
3.60855
-17.2393
-29.8215
-7.41324
-7.2823
-29.7475
19.1239
4.43412
6.944
0.684826
22.3686
7.69901
-11.0364
13.113
-18.5717
14.5116
1.50598
-9.8305
-35.93
14.9113
-6.62909
-8.0697
0.651839
-1.01227
12.823
-33.263
-16.3045
-100.774
1.94797
13.1255
-23.0555
27.5578
-18.5147
-18.2184
-79.5085
16.8966
5.021
10.625
-14.9911
20.2124
-65.4611
-13.1505
6.44328
-27.9767
15.1785
-6.39802
0.468232
-10.0742
-13.4676
14.3513
-18.2268
-102.067
-2.88092
-35.1732
-35.5552
-5.67399
22.6462
-3.04318
-28.5019
10.682
-18.2661
17.2693
-33.7565
7.1401
19.7129
14.7888
-6.98
-149.566
-61.9774
6.36278
11.5534
12.9291
-33.2169
-50.8496
-1.33179
-22.7559
14.0128
34.8433
2.65518
12.7658
16.968
10.4248
15.0673
-65.3044
-14.9486
-84.7405
13.3778
33.3831
3.19379
-0.685799
13.5186
-5.97327
-4.15314
-7.07413
7.18287
-3.60604
27.5872
-80.1485
-19.7876
31.8102
13.9448
-0.765561
5.63987
11.1356
-0.934001
-115.741
-65.2158
5.55784
-18.1042
-15.5794
11.2634
-78.7886
-70.9904
-38.9658
1.18825
2.12845
5.07383
9.09311
11.088
11.63
-19.2899
5.95534
2.86351
26.5661
19.4757
-19.4707
-8.31647
7.43993
15.2658
4.91911
-8.67912
-5.32787
8.68857
-3.01562
22.5763
7.47562
1.7861
-28.9726
-3.19074
8.18949
-13.6858
15.7254
7.35399
3.62533
-56.5826
2.55182
-19.7164
4.04226
-16.2875
12.8614
-47.5441
-20.8763
18.0994
-25.6618
-14.8087
-31.1855
23.8944
-47.3258
-6.71176
11.0916
-18.5552
19.5189
14.3828
-17.5092
14.9142
0.284716
6.94553
-15.9637
-28.0814
2.78607
19.273
-11.4628
-24.339
-22.2978
-9.48405
-17.964
-31.118
-17.3932
1.46382
11.3991
13.757
9.20773
-0.190955
-18.9826
15.6056
10.5457
-21.5872
11.366
-14.0287
-12.2645
6.22857
-3.28639
14.1872
-108.413
-50.7804
-46.1478
11.89
-76.9374
-16.9946
2.30612
-94.8859
-18.389
-19.7787
-30.5031
2.96451
-13.6365
-6.83169
-22.628
14.8138
14.5437
-22.9208
17.4085
-54.1608
21.8901
-18.2214
7.40083
-1.25161
6.02826
-2.87711
-15.9306
-14.1664
15.1337
19.033
23.9839
-30.9694
-18.6753
-62.762
2.64942
1.56346
-18.0594
-35.3608
-17.4457
-2.96701
-27.086
-14.2072
-54.4822
6.87642
20.4626
-0.492631
8.14616
14.3521
-6.65833
-18.5862
23.5653
29.4654
-21.5565
6.19102
6.83222
-4.72928
-109.758
16.6513
18.6843
-15.7518
-47.2688
-79.6498
-61.4719
0.086094
-17.1693
2.88439
17.0747
-6.91207
16.8803
-25.7222
-20.3943
15.117
1.57209
-17.846
8.63376
18.972
-18.2147
2.7353
-20.9694
-18.7537
-17.5451
24.6473
-14.3798
5.45926
-31.5904
10.2274
-18.4764
-4.35523
-18.5679
-48.665
-7.37431
6.73458
-58.8225
-17.0049
2.477
-3.23761
-42.4849
-28.7804
-22.7949
-12.9979
-5.8396
13.0649
-16.4747
16.199
-18.0911
0.915095
-44.3382
-5.93041
-63.3972
-19.197
-58.8881
-5.77775
11.5897
-7.18689
6.53423
-14.2537
-1.08639
-55.5121
14.0257
-47.6541
13.3481
-3.69114
-177.067
-7.0465
38.7736
-109.485
-18.749
-10.4959
-19.9794
13.515
0.606756
-8.34978
-17.3133
-22.0898
-28.8591
-16.5006
-16.2502
0.77782
-29.7867
8.44549
-21.4064
5.72248
2.83866
-46.3249
-26.4336
-0.580344
9.91893
-18.3272
-62.8664
13.0029
-12.2592
-18.3373
6.07278
-39.8342
-14.7507
3.66839
11.1616
-93.0121
13.5453
-18.7489
-39.2597
-40.6725
-35.3356
-17.5782
-22.8009
5.74102
12.1602
13.5766
-63.8924
36.5332
-60.9771
18.1132
15.264
-19.104
11.7004
9.92892
13.9215
-12.3674
-65.5727
-44.0882
-36.0619
13.2319
10.5912
-23.271
-37.5218
-18.576
19.0154
6.87059
-38.9835
8.50298
12.9946
-4.13043
-5.072
0.0485279
14.2613
13.971
-9.30795
16.4818
16.1445
-0.690294
-87.109
10.2133
13.3814
7.57204
-6.94723
-14.5943
-53.5348
-38.2031
-84.4107
18.1593
0.351365
6.00371
-7.86261
-10.382
-142.56
3.71164
-88.6237
-14.1467
10.4605
13.4835
-57.1052
10.634
-5.8854
1.34583
4.27765
7.8893
5.18626
-4.00669
14.6751
17.4473
12.9164
-21.3517
14.7217
10.6394
14.2056
15.9149
-58.6688
-10.7877
-159.829
-13.1167
11.1106
26.7486
-95.2292
33.9055
-69.1832
-17.9525
5.16611
10.2441
-20.1759
5.29803
-18.6874
-92.5955
6.41628
-96.687
-24.922
6.65334
0.804152
31.6129
7.62965
-12.6377
-127.496
2.21105
12.4972
-146.413
-59.7711
-57.0243
-3.63185
-17.1789
-14.5963
14.0989
-18.4885
12.1363
-9.60955
-8.69367
-11.5786
3.33046
-5.07497
-20.176
21.1046
-16.4238
-28.4906
26.9786
-55.7558
-3.34527
13.0755
6.38566
-76.5477
16.6732
8.01101
13.5963
-10.638
12.1995
0.941785
20.0486
13.0928
-70.5366
5.65647
-8.62
-48.7358
7.28646
-1.61572
6.19252
-97.6578
32.3581
2.21931
-101.27
15.9057
-32.2001
4.52217
-89.3865
-23.3607
-16.5472
-40.3424
-3.36316
-2.53217
3.75666
-65.8769
-7.40824
-65.6815
-7.27295
-195.175
3.01651
14.976
-61.5614
-82.3999
-4.18621
-6.12276
-17.557
11.7444
16.9777
-48.6142
12.0112
-12.9078
14.0728
23.6363
-21.6586
14.3291
-2.91344
11.7708
13.8321
9.80349
1.15876
-169.15
10.0548
17.0488
-97.4194
-16.9678
-30.0653
-18.8878
13.3661
-68.4018
-12.8592
-63.3292
13.4237
-18.9691
1.60276
-9.31729
15.1643
2.70336
-18.5529
-4.21854
3.77566
16.1901
20.4253
27.0888
11.2034
33.2372
17.6496
35.9344
2.28912
-4.20807
21.7864
-38.9463
5.30832
4.9504
-16.7032
18.4461
0.480734
-13.3171
26.8435
7.92388
-49.3652
12.9832
11.9763
16.2603
-13.3653
15.318
27.9556
-27.1972
-17.2675
-9.40781
-1.60706
-24.5363
9.13199
5.0269
17.6492
13.4272
-67.0774
9.07379
-4.11162
-16.518
-17.9335
-74.0698
6.02427
-21.8288
13.7898
7.78779
-17.2744
3.77632
-8.5792
5.52636
-76.904
-17.1262
8.26101
9.59857
-17.8383
5.27738
16.6665
0.844966
-90.326
14.1608
-0.911131
12.6981
-18.3525
17.0676
10.8135
-23.5034
5.22506
6.97104
-2.51653
11.2765
-18.4101
31.3702
-6.25808
-19.8466
7.36485
1.29405
-16.6715
-13.6018
-17.4981
-16.7726
-14.4574
-17.4542
5.17459
3.20765
34.0263
-18.9377
-43.3826
4.29859
-7.91556
-14.5535
-2.12619
3.00568
17.0994
-22.1204
-2.16272
-18.9457
-13.5663
-1.62793
1.6237
14.6398
-3.27832
1.3168
-15.9827
11.9751
-21.2272
1.49476
-18.6654
6.33016
-1.352
17.7748
-19.0407
-10.6559
-17.513
5.54701
-18.1669
5.06925
12.4769
9.80344
18.3625
-18.2212
-12.9393
12.3918
-99.85
15.0744
12.9151
-4.93187
11.3181
-8.53191
11.0696
1.37039
-9.84178
-35.1835
16.2941
-167.8
13.9299
-0.191301
34.2569
6.20939
10.2123
11.406
8.35605
0.588859
11.7284
-6.95477
-4.6708
-25.3989
4.75192
4.24976
-3.89625
-24.0482
-84.0204
2.74414
-29.5831
-16.6546
-13.2532
14.4729
-102.911
14.3441
9.00088
27.8807
26.1071
12.0485
-4.94973
11.8554
-18.4178
18.2189
-0.963306
8.62563
-6.42021
13.1731
6.32198
3.98291
-77.0599
-7.95252
-2.30757
-17.2343
-4.92188
12.9113
-58.9562
-3.75561
-12.1494
5.78693
12.5491
4.1104
12.1544
8.54166
5.53092
2.73699
9.73908
2.70446
-10.3996
17.0861
3.07712
19.5784
-34.394
15.1717
6.78575
-21.0206
-51.2969
-33.0331
-10.2859
-30.374
-120.288
13.9474
18.6049
16.2397
16.4127
14.4691
14.0492
12.586
3.5037
12.9626
-18.0303
9.35161
2.29981
-81.4771
23.7968
-3.34379
-20.8783
14.9597
17.7675
22.614
-51.6004
-10.7356
-63.91
-16.3515
12.8057
-45.2469
-61.3824
17.3473
28.5016
-17.6828
-33.3038
-31.6135
12.0453
2.57247
9.15184
0.124698
-0.597968
-119.725
1.56666
-9.97816
-21.1313
15.182
14.0706
17.2892
-17.766
-57.3237