/*--------------------------------*- C++ -*----------------------------------*\
| =========                 |                                                 |
| \\      /  F ield         | OpenFOAM: The Open Source CFD Toolbox           |
|  \\    /   O peration     | Version:  2306                                  |
|   \\  /    A nd           | Website:  www.openfoam.com                      |
|    \\/     M anipulation  |                                                 |
\*---------------------------------------------------------------------------*/
FoamFile
{
    version     2.0;
    format      ascii;
    arch        "LSB;label=32;scalar=64";
    class       volVectorField;
    location    "5.2";
    object      U;
}
// * * * * * * * * * * * * * * * * * * * * * * * * * * * * * * * * * * * * * //

dimensions      [0 1 -1 0 0 0 0];

internalField   nonuniform List<vector> 
13486
(
(6.94775 -1.66642 9.36329e-21)
(7.14088 -0.0175489 5.79404e-21)
(10.4036 0.1566 0)
(10.2809 -5.97894 -6.13973e-20)
(11.5396 -1.08886 -1.22771e-20)
(8.94826 0.483506 -9.38194e-22)
(12.7628 1.28973 2.81425e-22)
(9.86385 -3.22969 4.36961e-21)
(9.04397 -1.65808 0)
(7.40619 1.36728 0)
(-2.971 4.73972 -1.31821e-20)
(8.29787 0.207319 0)
(6.56001 -2.40841 -9.10585e-21)
(8.43419 1.88684 -2.31627e-21)
(11.1693 0.766238 -8.00601e-21)
(7.31574 1.40831 -6.13856e-21)
(0.657372 -0.257746 5.98566e-21)
(6.01015 8.13372 -2.06838e-20)
(7.7813 0.0953785 -3.11303e-24)
(7.3798 -1.0032 -9.56728e-21)
(6.18134 -5.99473 -4.21087e-20)
(6.6206 -2.4543 1.17313e-20)
(7.18041 -0.051224 -4.6414e-21)
(13.5167 -0.390038 0)
(7.74027 1.13563 2.06393e-21)
(13.6591 -0.353033 -7.23075e-21)
(-0.367751 0.283378 6.45739e-21)
(10.7329 -0.178896 8.01561e-21)
(6.59343 -4.29399 0)
(11.0001 -0.870942 -6.66272e-21)
(0.927942 1.07411 -4.89816e-20)
(9.58683 1.9776 7.44594e-21)
(11.5262 0.78689 7.47028e-21)
(10.0801 -0.616662 0)
(9.88958 -3.0431 0)
(4.3938 0.394637 3.99089e-21)
(5.67805 3.92303 -1.50639e-21)
(7.7194 -3.56301 1.96088e-21)
(6.85011 -2.0809 9.38134e-22)
(8.85334 -1.01138 1.58969e-21)
(13.8955 -3.01113 0)
(6.00226 -2.88094 -1.13146e-20)
(8.57079 -0.1933 0)
(7.8127 0.954433 -9.44238e-21)
(7.79789 0.971898 3.83945e-21)
(8.35936 0.225332 5.51698e-22)
(-0.193465 -0.0489172 1.15767e-20)
(7.20273 -5.92894 2.03725e-21)
(5.42053 3.90202 8.39402e-22)
(10.1828 0.322763 2.03367e-21)
(7.97974 -0.00230709 6.75401e-21)
(6.29995 -0.346509 0)
(7.64638 0.863912 -1.1109e-21)
(7.97754 -2.92846 -3.38724e-21)
(3.42752 8.98822 0)
(11.2825 -1.30917 6.4701e-21)
(9.00643 4.92282 2.87154e-21)
(7.04912 -0.988774 4.47911e-21)
(11.627 0.889182 9.11617e-21)
(1.93444 4.64341 0)
(-3.25675 3.71087 -1.7364e-20)
(2.47413 4.97056 0)
(12.2225 3.55197 -4.22412e-21)
(6.74042 -5.12614 -5.16784e-22)
(-0.472573 -4.32553 0)
(4.45193 4.3656 -1.48164e-21)
(7.02073 -5.78954 -4.41244e-20)
(6.71435 -0.864418 3.69462e-21)
(9.04962 -1.76702 -2.78937e-22)
(7.48171 0.617869 -3.72315e-21)
(7.92198 -5.00699 5.09528e-20)
(4.6281 8.02483 -6.86379e-22)
(8.58041 -0.639222 1.94897e-21)
(-1.58714 -0.89664 -5.1976e-21)
(2.29893 4.16677 -4.27626e-22)
(9.20807 4.90087 -5.29909e-22)
(6.39237 5.28692 3.81944e-21)
(11.3297 0.754396 3.29727e-21)
(0.0234585 1.077 -6.42333e-21)
(9.84558 -2.73815 0)
(8.23134 -0.25895 -1.65887e-21)
(6.94935 0.156481 -3.91496e-22)
(10.7808 3.39476 9.60559e-22)
(10.2067 -0.362832 -4.25451e-22)
(6.96016 -1.68101 -1.81692e-20)
(5.67725 3.02448 0)
(8.65619 -5.5898 -2.06391e-21)
(7.9647 0.0421266 -1.08369e-20)
(7.67516 0.0177213 -4.6727e-21)
(6.7606 1.90799 -8.56705e-21)
(8.39519 2.34177 3.57585e-21)
(10.4685 -2.41688 3.7489e-21)
(7.23123 -1.97961 2.11814e-21)
(7.31204 -0.589231 2.75002e-22)
(8.91994 -2.61852 7.42324e-23)
(9.16184 -6.20973 -9.14515e-22)
(-0.780806 0.691803 0)
(2.52069 -5.86676 1.86229e-20)
(8.84303 -0.958199 -3.10048e-21)
(0.828645 -0.238307 3.77951e-23)
(4.28611 0.446869 0)
(8.42109 1.86448 -9.23693e-22)
(1.95781 -6.30675 4.52979e-22)
(5.99599 -0.704523 -5.31753e-21)
(5.33446 2.6427 0)
(0.88702 -0.184283 2.00115e-23)
(8.03601 -0.142179 -2.50605e-23)
(7.23861 -2.30493 1.67481e-21)
(0.186851 0.469775 8.03874e-21)
(10.1847 -4.54305 0)
(8.37479 -3.85204 0)
(10.8723 2.74972 1.55539e-20)
(8.01364 -2.85815 1.55279e-22)
(8.37633 2.25097 1.29626e-22)
(5.67678 -1.40181 0)
(8.21223 -3.8268 1.15036e-21)
(7.63801 1.21056 0)
(10.2596 -0.579262 0)
(8.54689 -0.610285 0)
(7.35115 5.65435 -4.20647e-22)
(4.4768 7.06677 6.11611e-21)
(-3.8167 3.95528 0)
(8.70924 -2.40273 0)
(6.17091 -2.04929 -2.98633e-21)
(9.24111 -3.0747 0)
(6.892 -0.712605 0)
(9.74045 -0.465434 -5.50097e-23)
(8.28028 0.193577 4.27628e-21)
(9.30972 -0.47089 -6.34685e-23)
(4.47152 -4.07139 -6.46293e-21)
(6.0799 -0.418 6.34953e-22)
(-0.424987 -0.0673372 -2.9607e-21)
(-0.189871 0.286098 9.94471e-21)
(-0.847212 0.163689 6.75626e-21)
(7.99407 -0.00636939 -1.06177e-21)
(7.53212 0.628041 -6.55325e-21)
(4.13147 0.559233 -4.25355e-21)
(10.1584 -4.22084 0)
(6.48883 5.44901 1.1699e-22)
(9.7909 -2.40984 9.78183e-22)
(10.9318 0.854269 -6.70221e-21)
(7.49339 1.03857 1.00979e-21)
(8.81867 1.38739 0)
(9.64956 -2.78669 0)
(8.41236 -0.161433 4.69492e-22)
(11.4296 2.59179 -1.41898e-20)
(8.57528 -4.05933 -1.02156e-21)
(2.10196 1.44048 0)
(10.1367 0.466467 0)
(7.0612 -3.99827 0)
(8.01269 0.00409906 1.38043e-22)
(11.9314 0.236179 0)
(6.75493 0.142754 1.73613e-21)
(6.83831 0.144243 -3.3939e-21)
(8.21076 0.71485 0)
(11.5812 -0.0214914 0)
(10.6495 -4.45057 0)
(5.87388 0.989502 3.47991e-20)
(8.52271 -3.26993 1.48748e-21)
(10.217 -8.41457 -7.38209e-20)
(9.49107 0.190745 4.30055e-22)
(8.54184 -3.2129 -1.94389e-21)
(8.3165 4.07245 -4.48394e-21)
(5.34529 -2.70175 4.78422e-21)
(7.06125 -0.744825 0)
(8.72904 2.00155 1.85826e-21)
(8.31076 1.6602 6.1862e-21)
(3.88562 -1.71139 -1.62219e-20)
(9.40459 -4.07171 2.41595e-21)
(-0.887995 0.0560747 1.81828e-21)
(-1.32982 -0.32771 2.17529e-23)
(8.21179 0.627403 3.48368e-21)
(7.97852 0.0695305 -1.00096e-20)
(9.78528 0.317614 -1.90165e-22)
(11.8904 -3.72788 -1.21693e-21)
(-9.11847 -2.93398 0)
(8.15905 2.65532 -4.96663e-21)
(11.1023 1.28402 8.38221e-21)
(8.06198 -0.154658 -9.16986e-21)
(8.82913 1.25135 0)
(9.13915 -1.09747 8.97506e-22)
(8.27532 1.89922 3.42675e-22)
(9.66818 0.693562 2.2933e-23)
(-3.59478 1.68316 0)
(8.74922 -1.01959 1.05107e-21)
(10.3791 -0.139755 -3.60959e-21)
(6.84263 -1.66461 -1.16143e-22)
(10.4553 -0.76931 -1.5486e-21)
(14.185 -3.34756 0)
(7.55736 -3.60651 2.21951e-23)
(5.92645 4.7785 0)
(10.4853 0.395764 0)
(7.42501 -1.64073 0)
(5.76042 1.13997 -8.48176e-21)
(7.98131 -1.50542 0)
(-3.5013 5.20762 -3.49918e-21)
(-0.195467 -3.16046 1.62793e-20)
(9.60579 0.117041 3.51806e-22)
(6.97049 -3.38667 -1.40848e-21)
(8.68936 1.86336 1.68507e-21)
(-0.517561 -1.43604 5.32998e-20)
(8.33985 0.245531 -1.34576e-22)
(7.67397 -3.63103 -2.27228e-21)
(11.8726 -4.37926 -7.33679e-21)
(10.181 -8.34811 8.95755e-20)
(8.0046 -1.52836 2.25598e-21)
(5.04727 9.39948 -1.95218e-20)
(8.22157 -0.564876 5.77502e-21)
(7.48878 -1.35761 0)
(8.97166 -0.860614 0)
(10.6799 -0.331313 5.2313e-21)
(13.7718 -1.85591 1.65363e-20)
(7.42799 -0.906151 8.77992e-21)
(7.9938 -0.109804 -2.31902e-23)
(8.96851 0.580788 1.08195e-21)
(10.325 -2.48308 1.52599e-23)
(11.0908 -0.632956 0)
(6.83162 1.83882 1.94863e-20)
(7.5705 -1.98007 0)
(10.0883 2.65329 0)
(0.879353 -0.320087 -1.14259e-20)
(10.2773 0.559548 0)
(9.70466 -2.42975 -2.54918e-21)
(10.3054 0.240235 0)
(6.92781 0.522129 -4.86471e-22)
(6.73452 -3.14638 2.83222e-21)
(9.17048 1.10586 8.11341e-23)
(-10.0448 -3.95983 1.70904e-20)
(10.297 -2.06895 4.88137e-22)
(9.22897 -6.24181 2.3739e-22)
(9.13814 -1.0344 -3.38671e-22)
(16.7929 0.60315 6.13761e-20)
(11.1339 0.90613 8.34057e-21)
(5.93038 -2.86143 3.98455e-21)
(0.975812 -7.4186 0)
(6.40779 -3.10343 2.95535e-22)
(10.2093 -0.758715 2.23029e-21)
(10.6638 0.255481 -2.58592e-22)
(6.54406 -3.113 8.44144e-21)
(9.2356 0.447906 0)
(11.9009 0.899222 0)
(7.99906 0.0730056 1.54445e-20)
(9.35331 1.03766 0)
(6.27296 -3.08951 2.37127e-21)
(5.70383 -2.88475 1.3923e-21)
(7.72438 -0.457847 0)
(9.09035 0.159702 2.19107e-22)
(12.1928 -0.750004 1.90025e-20)
(0.410682 -0.985856 1.15273e-20)
(7.74358 0.856421 0)
(-3.96833 -2.40943 -3.79576e-21)
(5.579 -1.32261 1.72649e-21)
(7.79247 -3.77505 -2.28e-21)
(6.62773 -2.21184 0)
(9.73417 -2.38106 -5.7685e-22)
(-8.29379 -1.37945 3.99276e-21)
(9.66099 1.9965 -5.94275e-21)
(10.2393 -2.59129 -1.92831e-23)
(11.1067 1.87437 -3.6435e-20)
(11.8275 0.719707 7.37671e-21)
(7.44111 -0.0439246 0)
(6.05172 -3.11931 3.32275e-22)
(11.1881 0.80255 1.79544e-20)
(-8.94114 -2.53001 -4.98538e-21)
(11.4699 -2.91979 1.17121e-20)
(-3.80864 2.06653 0)
(9.76567 -1.94694 3.88062e-22)
(0.813883 -3.74847 -6.1958e-20)
(8.61796 -0.077107 -2.63597e-21)
(3.77888 4.60623 0)
(6.58086 1.46296 6.90017e-21)
(8.00173 -0.0922148 -2.66801e-21)
(11.0184 -0.768676 0)
(7.92561 0.0884049 9.4532e-22)
(6.97209 -3.28325 3.7289e-21)
(12.1575 -0.993321 -1.0598e-20)
(9.23731 -2.26026 0)
(-2.5416 1.43539 0)
(7.03592 -2.38886 1.73617e-21)
(7.63957 -3.18348 3.13182e-21)
(-2.40952 4.0542 -1.7293e-21)
(9.26077 -0.503597 6.89942e-23)
(7.97548 -0.16643 5.69596e-21)
(11.3111 1.23798 -1.38327e-20)
(-4.35892 4.01847 1.91416e-20)
(0.35675 0.354879 1.10753e-20)
(10.8505 1.07934 6.09815e-21)
(9.74509 -0.64473 8.34585e-23)
(6.58433 0.596616 1.14232e-21)
(8.53839 -0.0931813 0)
(1.38007 -5.95615 0)
(3.31866 -2.00997 5.49974e-21)
(8.07635 -3.73118 1.98169e-23)
(7.99545 -0.000996277 -1.02968e-21)
(10.2206 -0.750351 1.56435e-21)
(10.3448 -0.805954 0)
(9.42312 -0.0247734 -7.11118e-22)
(7.89003 0.0977154 -1.19786e-21)
(7.98749 -0.224541 -5.08608e-21)
(13.7062 -0.121325 -2.05353e-20)
(8.59658 4.17509 5.62919e-21)
(4.95659 9.74259 9.10372e-22)
(9.19737 -3.23063 -2.66887e-21)
(9.87026 1.83685 -6.81281e-21)
(5.95716 4.05201 -5.77093e-22)
(10.5541 -5.21992 0)
(13.4469 1.95774 0)
(8.32539 0.111448 -4.3846e-22)
(8.50695 -5.77556 1.48753e-21)
(5.64214 5.03527 0)
(6.97542 4.88143 -7.81782e-21)
(9.44472 -6.23888 0)
(7.90355 2.50382 3.2917e-21)
(10.6559 2.62741 1.43969e-20)
(2.1997 4.26418 0)
(7.52758 0.500729 -4.18498e-21)
(2.2256 -1.52598 -8.54832e-21)
(7.62171 -0.00178104 -4.00991e-22)
(8.1537 -0.564629 -6.65275e-21)
(9.88731 -1.95574 0)
(5.28732 3.73523 3.29689e-21)
(4.43259 -1.14844 -7.68215e-22)
(8.06405 -0.0702195 1.16652e-21)
(7.26385 -0.475853 -5.36591e-21)
(4.49529 0.164523 7.70422e-21)
(8.79305 2.37192 -6.4696e-21)
(10.3777 -0.65342 1.48225e-20)
(9.31754 -0.471455 0)
(8.2134 -0.687805 -3.27455e-23)
(10.552 -0.515836 4.18345e-21)
(7.99389 -0.0289778 1.56422e-20)
(10.6274 -2.37742 0)
(8.15677 2.68152 1.78662e-21)
(6.48258 0.0415742 0)
(12.7634 1.50488 4.24912e-20)
(9.1782 -2.34951 4.83974e-22)
(4.87843 -2.37154 5.48539e-21)
(11.8786 -0.0455439 1.40468e-20)
(7.93556 0.266506 0)
(5.31261 -3.5737 8.86341e-22)
(9.96604 -1.87869 8.90141e-25)
(7.25151 -0.465602 5.07421e-21)
(10.6884 -0.510288 -1.39307e-20)
(9.55114 0.791224 -4.36894e-21)
(-5.74427 1.57857 -9.07578e-21)
(7.88003 -5.87152 -8.82324e-23)
(9.59762 -0.0982657 0)
(5.65173 -2.27913 1.23497e-20)
(10.114 2.67776 0)
(3.08565 -1.45357 6.76049e-22)
(9.11426 0.0279296 -1.63639e-21)
(7.90437 -0.366043 -1.91867e-21)
(7.65576 0.286312 9.6594e-22)
(-1.15806 1.22803 -7.70307e-21)
(8.01105 -0.196719 6.30443e-21)
(12.2119 -1.46839 0)
(-1.85624 -0.96328 -4.57527e-21)
(9.70004 -0.404531 1.15513e-21)
(7.95275 -4.54302 -6.65623e-22)
(12.6707 -2.0396 1.26122e-20)
(9.23035 0.0793918 0)
(8.07719 2.37707 -2.57549e-21)
(7.57623 -0.238412 1.10446e-20)
(7.98815 -0.101182 8.13204e-21)
(11.0727 -0.956047 0)
(5.76268 0.320957 3.72975e-22)
(10.4602 -0.723286 -2.09466e-21)
(-1.02548 -0.609805 1.51227e-21)
(7.33143 -0.991897 1.22929e-21)
(9.65912 -0.331244 -1.10177e-21)
(8.97196 -0.188689 -3.95264e-22)
(9.53309 -0.138073 0)
(6.65485 0.308458 -2.80187e-21)
(-4.44427 -2.23364 3.10374e-21)
(8.71527 1.08523 -2.72187e-21)
(8.01496 -0.0111643 5.59399e-21)
(6.49255 0.00712506 0)
(4.74746 -1.9715 -2.3153e-21)
(3.03932 3.93499 0)
(10.0687 3.5716 -2.0564e-21)
(8.69051 -0.106978 0)
(10.7752 -2.90147 -3.62096e-22)
(6.58823 -1.40516 -2.86027e-21)
(6.88385 1.25163 1.5602e-20)
(-0.750691 -0.453562 -6.47263e-21)
(9.76213 -2.09119 0)
(8.47925 0.161109 -4.01103e-21)
(7.95532 0.282325 -4.46354e-21)
(1.66835 -0.482382 -4.03751e-21)
(8.66673 0.165529 8.66704e-21)
(7.51452 -0.951844 -1.28433e-20)
(10.9965 -0.604545 3.35585e-21)
(8.07523 0.345466 3.5572e-21)
(7.25474 -2.4548 0)
(6.29725 -0.253412 6.79694e-21)
(7.77982 7.54228 -3.64485e-21)
(8.77045 -6.23821 3.47931e-20)
(-3.5559 -1.4831 -1.10482e-20)
(1.45108 -0.339812 -7.4996e-21)
(10.8512 1.07569 0)
(1.81331 -0.406381 0)
(7.21527 2.49678 0)
(9.05966 -0.257131 0)
(14.7758 -0.816522 -3.16671e-20)
(12.2842 1.64295 0)
(5.84421 -5.03835 0)
(7.37245 -0.505863 2.01128e-21)
(11.0903 1.26487 -8.61269e-21)
(9.44432 -0.197784 1.63053e-21)
(7.14546 0.0959059 2.0562e-20)
(7.99824 0.0577959 -2.19235e-21)
(7.24779 4.00009 0)
(10.9901 -0.275052 0)
(7.96799 -0.220929 5.46817e-21)
(8.11336 0.0285892 9.38338e-22)
(4.43322 0.866833 0)
(-3.21087 1.33715 7.55262e-21)
(11.395 -2.98975 -1.3138e-20)
(-1.98241 -2.06092 0)
(9.18351 0.487482 -2.27474e-21)
(8.06744 -0.112074 -6.20661e-21)
(11.6436 6.68123 1.79943e-20)
(5.61873 -2.24385 0)
(7.9454 0.289284 8.0245e-21)
(9.39789 0.751232 0)
(10.5996 -0.675009 0)
(8.34434 0.447693 -6.41781e-22)
(7.94312 -0.159255 3.06332e-21)
(-0.36159 0.569227 -8.45876e-21)
(8.27982 1.58745 2.0433e-21)
(6.76311 -2.12224 -4.41548e-21)
(8.91501 -0.231693 2.26136e-22)
(8.1166 0.398549 2.84768e-21)
(6.53173 0.107024 8.58931e-21)
(11.9112 -2.59227 0)
(12.0482 -0.461334 8.67949e-21)
(6.55805 -1.21352 0)
(3.61215 -2.11316 2.96078e-21)
(9.75848 0.222479 0)
(6.76636 -0.829295 7.89892e-21)
(-0.427998 0.232601 -1.00722e-20)
(11.1543 -0.47955 0)
(-0.205274 0.0550806 3.08366e-22)
(11.2418 -0.335752 -7.30221e-21)
(8.24297 -6.46016 -3.49968e-21)
(8.25499 -1.42599 7.70224e-21)
(6.19532 1.06491 -9.83545e-21)
(6.72277 -2.10279 -1.31488e-20)
(10.4045 3.52042 0)
(5.67609 4.52861 -8.15128e-22)
(-5.62519 1.9624 -2.36302e-20)
(7.94002 0.284796 0)
(7.60759 0.0144272 4.39323e-22)
(9.74483 0.191542 -4.62649e-22)
(8.77649 3.01496 0)
(7.99805 -0.0186287 0)
(0.102215 -1.22138 0)
(-9.41091 -2.95426 2.1135e-20)
(8.82258 1.42188 1.63829e-20)
(11.0048 2.89641 -1.03793e-22)
(7.88019 2.35262 0)
(7.87044 -1.23039 6.89107e-21)
(12.8301 -3.99224 3.10893e-21)
(8.29813 1.4641 -4.7166e-21)
(8.34972 -5.67799 7.42116e-20)
(7.78232 -0.00996919 0)
(7.14482 -5.46937 0)
(4.84991 -1.64943 -9.4226e-21)
(7.15368 -2.44917 -2.78361e-21)
(8.75008 -0.803587 0)
(9.34713 -4.27424 5.21345e-21)
(3.62956 0.317689 -2.58914e-21)
(9.50981 -5.44733 1.0277e-21)
(5.23246 -2.50059 0)
(8.42416 -0.53836 -9.84556e-22)
(8.50292 6.37762 4.29336e-22)
(9.45978 0.735918 -5.67929e-22)
(9.15674 -2.48483 0)
(0.38818 0.335281 -1.67888e-20)
(7.89262 -0.214519 1.3082e-21)
(7.96272 0.122815 1.5416e-21)
(12.6491 0.0247103 -1.88291e-21)
(8.91155 2.01733 0)
(7.13327 0.0945608 -5.45297e-21)
(10.3423 2.23977 -1.5287e-21)
(1.12467 -0.304651 1.57184e-21)
(7.98509 0.0402215 0)
(8.44759 -0.31511 -8.89357e-21)
(3.9843 -1.51418 0)
(8.02019 0.0610139 -6.20505e-21)
(7.97643 -0.00742513 2.27122e-21)
(7.96036 -0.366602 -1.06329e-21)
(-8.33541 -2.40686 0)
(9.19435 -0.199944 -7.73481e-22)
(5.52295 -0.0109753 1.95519e-20)
(11.8116 -2.70885 0)
(7.32617 -0.569631 6.12945e-21)
(13.402 -0.437487 2.36476e-20)
(8.5034 0.040952 0)
(-1.80891 -4.0686 2.76507e-20)
(9.78109 -2.91867 1.25407e-21)
(8.86827 -0.202449 0)
(0.672066 0.0519882 1.10865e-20)
(7.57643 -0.016529 0)
(8.80571 -3.92479 -1.06362e-21)
(-3.84171 -2.53238 7.32244e-21)
(6.58901 -1.79319 1.20606e-22)
(9.01279 0.478085 1.56333e-21)
(6.32529 -0.298372 3.50948e-21)
(8.25834 -1.52165 -2.70043e-21)
(9.25937 -2.0259 4.90849e-22)
(8.80478 -3.76715 1.51864e-22)
(9.64431 -0.394039 -7.68993e-22)
(8.86429 2.00271 -3.29847e-21)
(10.9375 -4.56824 0)
(7.99544 -0.01921 -4.96249e-21)
(-2.73182 -1.48605 -5.56166e-21)
(6.65007 -1.22946 0)
(3.54601 8.051 -4.00284e-21)
(7.50547 0.254343 0)
(6.35028 -2.20959 1.18752e-20)
(10.5969 -3.37127 0)
(3.46467 0.269669 -7.03308e-21)
(9.40044 -0.005375 8.985e-22)
(-5.61282 -3.95939 5.09463e-20)
(0.628315 -1.84894 9.72318e-21)
(9.18393 0.147074 9.01656e-24)
(9.75738 -4.51415 -1.04736e-20)
(8.65666 -2.4228 1.24135e-21)
(7.23703 -1.97434 0)
(-2.68462 1.52171 -5.31698e-21)
(12.0541 -2.39445 2.5329e-21)
(-2.99253 2.024 -6.41691e-21)
(8.69039 -5.97742 -5.52278e-22)
(7.26797 -2.87547 0)
(8.82121 -0.00186754 -4.66059e-23)
(-3.67682 1.62503 0)
(0.471595 -5.82371 1.09123e-21)
(11.6637 7.29903 -2.42002e-20)
(13.6331 3.24956 0)
(10.0487 -2.02824 -1.05539e-21)
(-2.09286 -4.26629 0)
(8.79988 2.91439 0)
(8.4038 -3.91355 1.34016e-21)
(6.53717 -0.0963002 5.51581e-21)
(12.252 -3.10663 0)
(7.56975 -0.162382 -3.14383e-21)
(10.2835 3.10942 1.59691e-20)
(-5.09674 -1.23984 1.55295e-20)
(8.62842 3.76662 0)
(8.59263 -0.0444364 0)
(-5.5797 2.94992 -1.10978e-20)
(8.30285 -0.750859 0)
(9.37117 -0.387561 0)
(-3.51751 3.3482 -5.13992e-22)
(9.64442 -1.34474 2.34197e-21)
(8.38828 -2.0555 1.68679e-21)
(12.1761 0.57647 1.11079e-21)
(-3.01061 1.87661 1.13644e-20)
(7.97277 -0.0150409 2.56052e-21)
(7.39846 -2.03204 0)
(8.07565 1.04612 -1.77484e-21)
(6.90755 -1.59155 0)
(9.11229 -0.0756137 0)
(7.98293 0.150733 0)
(8.33493 0.424146 -5.19958e-22)
(8.15314 -0.599883 3.08384e-21)
(9.32477 0.390741 -1.0787e-21)
(7.56339 -2.04303 0)
(-1.07621 0.897362 -6.23271e-21)
(7.17272 2.34112 4.83287e-21)
(9.25107 -3.08727 -1.58357e-22)
(9.39909 -0.737619 -3.20757e-23)
(11.9365 -0.944122 1.65199e-20)
(8.15397 0.0370128 -3.44392e-21)
(-0.392924 0.298023 0)
(7.88548 -0.0453833 0)
(5.54936 1.10806 0)
(6.47276 -2.93974 -7.81442e-21)
(-11.2877 -0.507646 -2.52842e-20)
(13.3725 2.94007 0)
(8.12866 1.05177 0)
(6.87505 1.04946 6.68035e-22)
(8.32916 -0.0399671 -3.88661e-22)
(7.33491 1.10745 8.10514e-21)
(12.5028 -4.46603 0)
(-4.19191 4.41925 -2.97757e-21)
(8.57657 0.179925 2.16439e-21)
(7.01008 -2.34215 -6.9084e-21)
(8.31616 0.192838 -3.29889e-21)
(8.25569 1.47433 6.13376e-21)
(10.7559 -0.882219 1.93572e-20)
(6.38547 -2.90473 1.36444e-20)
(10.0231 -2.73979 2.15051e-21)
(8.68909 1.90239 3.1993e-22)
(8.00969 -0.0154811 -1.1531e-21)
(8.64726 -4.13198 2.29423e-21)
(9.59441 -2.84379 -5.24579e-22)
(5.46865 4.07849 -6.22473e-21)
(9.06133 -4.16652 -2.02672e-21)
(7.74641 -0.822229 0)
(8.18967 -6.68147 3.16907e-22)
(8.6769 -0.0339624 -7.05607e-21)
(9.55443 2.45656 1.39667e-22)
(6.88102 -2.21958 -6.64118e-21)
(9.13035 -2.97572 7.30694e-22)
(8.6002 0.0492236 -7.82833e-22)
(10.935 -0.0875688 4.49881e-22)
(3.35452 1.22461 -5.67019e-22)
(10.7015 1.17518 -3.27773e-21)
(5.99713 -1.64318 -1.79075e-20)
(8.51082 -0.0239994 -6.13786e-21)
(5.98682 -1.85787 0)
(-8.0773 -4.19498 -7.34733e-20)
(9.0652 0.00659202 6.80768e-21)
(3.20236 0.100163 1.26443e-21)
(-1.64737 -1.08621 0)
(10.2104 -4.39825 0)
(7.78324 0.801736 6.96466e-21)
(5.57446 -1.67062 1.15455e-20)
(-3.17028 -2.80237 -3.44375e-20)
(10.8472 -2.89068 4.91961e-21)
(10.474 -0.611682 -8.32863e-21)
(10.2131 2.61217 0)
(7.75204 0.870189 4.04599e-21)
(5.43547 9.44275 -1.06105e-22)
(8.28167 2.60651 -4.16685e-21)
(9.02014 -1.05116 -1.3203e-21)
(-3.03166 1.98904 -1.8336e-20)
(11.8937 -1.14783 -1.54547e-20)
(12.1777 -0.50424 4.81374e-21)
(7.60824 2.79489 0)
(10.1031 -1.52285 -6.48771e-22)
(7.98047 -0.357883 9.2094e-22)
(9.97743 -1.48156 -1.74492e-21)
(5.37608 -2.6851 1.38804e-20)
(8.93507 -1.10229 2.076e-21)
(3.17701 -5.77708 3.4769e-20)
(-5.94446 -1.99121 -7.69421e-21)
(10.2773 -0.339799 -2.7132e-21)
(8.70166 0.0580898 5.50683e-21)
(-4.26195 3.99679 -2.35373e-21)
(8.0896 2.45394 8.9942e-21)
(0.739403 -0.099785 -1.20461e-20)
(6.66796 -3.19557 -3.18738e-21)
(8.25838 -0.514316 0)
(8.83796 4.34956 5.22643e-22)
(-5.45586 0.377597 -8.94539e-21)
(6.56941 -1.4834 1.51316e-20)
(7.23151 -1.02327 0)
(7.61232 4.06955 -4.35406e-21)
(6.20146 -2.65959 3.33981e-21)
(7.99908 0.00535733 -1.10146e-20)
(-4.21578 0.857315 -7.12735e-21)
(12.0861 -3.03686 -3.14471e-24)
(9.51596 -0.178851 -1.18789e-21)
(8.62564 0.189373 6.02431e-21)
(8.94021 -3.97912 2.56141e-21)
(9.32736 0.979387 1.38129e-21)
(-11.1889 -2.85446 -5.40034e-20)
(8.43454 -0.025801 6.61894e-21)
(8.86752 -0.219617 -1.06692e-21)
(8.24457 0.243302 -7.06826e-23)
(10.0049 0.0452277 -1.08413e-21)
(6.09365 -2.74055 -6.45979e-21)
(8.74883 1.60431 0)
(-9.99312 -5.36453 2.17951e-20)
(8.62563 0.0413067 6.66546e-22)
(11.8658 5.80405 2.34269e-20)
(9.42094 0.149669 1.5344e-21)
(10.2925 -0.932854 3.80838e-21)
(7.99696 0.0441231 -9.68544e-21)
(8.03045 0.635419 2.21759e-21)
(-3.28696 1.22354 -7.76313e-21)
(9.6777 -0.384531 0)
(5.2718 -1.86294 1.02159e-21)
(7.91023 -0.639778 1.96652e-21)
(7.29913 -2.82417 0)
(8.24866 0.17905 4.5082e-21)
(7.91844 -0.874618 2.78171e-21)
(9.58071 -0.2847 2.08353e-25)
(14.4874 -4.02754 1.81996e-20)
(8.2138 -1.25513 0)
(7.264 0.353167 1.05917e-20)
(8.25056 3.93736 -5.45106e-20)
(8.73203 -3.9915 -2.14269e-21)
(8.93269 -0.681134 0)
(6.55136 -0.136733 -1.57802e-20)
(4.85878 6.21083 5.05767e-21)
(7.8921 3.72329 4.07276e-21)
(6.04927 -1.68856 1.74337e-20)
(9.39872 -0.294719 1.80849e-21)
(-0.0587602 -1.43577 6.72897e-21)
(8.50466 -0.6235 -3.68432e-21)
(11.8427 -0.163583 -1.14458e-20)
(7.57353 -0.211576 -6.42807e-21)
(8.21204 -0.138282 0)
(8.01622 -0.0342046 -4.30514e-21)
(2.60009 -0.87552 1.46971e-19)
(-1.38671 -0.473232 0)
(13.334 -1.29816 0)
(9.86927 -1.32112 0)
(0.877554 -0.282681 0)
(7.93843 0.559592 0)
(5.81061 -1.63613 0)
(10.5245 -2.34113 -2.87867e-22)
(12.0352 2.41266 -9.41933e-21)
(9.22365 1.19748 0)
(7.3578 0.23363 1.58514e-20)
(3.71532 5.22916 -8.24966e-21)
(8.06802 0.389774 9.58858e-23)
(-4.67233 1.41366 -4.31531e-21)
(5.71911 -0.98557 7.63108e-23)
(-2.99526 0.955358 6.16715e-21)
(7.73699 0.0853099 5.92376e-22)
(10.2242 0.321086 3.33394e-22)
(7.90705 0.506566 -4.54156e-21)
(7.67804 -0.0379019 -9.13917e-21)
(7.1075 2.0242 -8.65338e-21)
(10.226 3.61913 0)
(8.65851 -4.6561 2.04397e-20)
(6.42377 -2.26797 -1.29791e-20)
(8.02124 0.0155802 -1.27486e-20)
(12.1456 -2.14683 2.4219e-20)
(9.79017 -0.0272697 3.88015e-22)
(14.4974 -0.685684 -2.777e-20)
(9.71854 -0.776027 3.74635e-22)
(10.0826 -1.99672 3.91123e-21)
(7.97018 0.257674 4.62648e-21)
(8.0357 5.61408 0)
(9.05675 -2.07729 6.32799e-22)
(7.4492 -0.57366 -1.92219e-21)
(12.0803 2.03809 0)
(6.86007 -1.90153 0)
(9.53143 -4.14184 -1.3207e-22)
(0.544813 -2.39412 8.32514e-21)
(10.5078 -2.42171 -1.32064e-21)
(6.09769 0.235862 0)
(8.28169 -0.570672 -5.83559e-21)
(7.51078 -0.0246984 -1.77477e-21)
(-7.06604 -6.10045 1.49376e-20)
(8.73863 -0.914522 1.15842e-21)
(-2.58778 0.682994 0)
(7.61401 -5.42884 2.20878e-20)
(7.92024 -0.81709 0)
(10.1807 -1.65186 4.51719e-22)
(7.94218 2.38128 2.31339e-21)
(8.02088 -0.0135484 4.28584e-24)
(8.32645 1.68443 -1.09795e-20)
(8.64397 3.33511 -4.52536e-22)
(8.39956 -2.38803 3.40043e-21)
(5.51164 8.25235 0)
(-1.34824 -4.98644 -9.47493e-21)
(3.88312 4.37996 0)
(9.37755 1.24956 2.0768e-22)
(-7.17867 -6.20858 3.60798e-20)
(14.8781 -1.37447 1.69334e-20)
(5.19468 -2.50072 -2.16655e-22)
(-7.34653 -1.01353 -2.40199e-20)
(7.9814 -3.69314 2.47476e-21)
(6.58293 -2.26142 -7.22307e-21)
(6.67318 6.52181 1.06059e-21)
(2.42422 -3.2452 7.89386e-21)
(6.12259 -2.76937 5.32568e-21)
(6.80432 -2.33526 7.44986e-21)
(-7.91236 1.37969 4.10093e-20)
(3.87129 -4.79419 -8.62603e-21)
(8.98334 -2.61939 -1.3051e-22)
(-1.06316 -0.299621 7.00772e-21)
(9.33291 -0.0373673 5.49872e-22)
(3.42356 4.88912 7.34164e-21)
(8.48654 1.11021 -2.51494e-21)
(11.355 -1.39437 0)
(0.872481 -0.327528 -1.45768e-20)
(8.37702 -0.0308549 -7.78511e-21)
(7.96238 0.120291 0)
(9.31746 1.14719 0)
(-4.61106 3.16662 -1.14714e-21)
(12.5054 0.472449 -1.26278e-20)
(8.89689 0.673731 -4.56054e-21)
(9.61892 -1.3025 -3.11725e-21)
(7.16099 2.0057 7.32362e-21)
(7.18301 -0.0244541 -1.10747e-21)
(-8.20755 -6.18924 1.22617e-21)
(7.04577 0.996235 0)
(6.96251 -2.43104 6.74924e-21)
(-0.653756 6.36773 2.28888e-21)
(-7.02164 -1.57635 1.8439e-20)
(8.47366 -3.12551 2.561e-22)
(11.1033 -5.11472 8.64295e-21)
(8.01137 -0.00458731 -4.68236e-22)
(5.85956 -2.00808 -8.5942e-22)
(10.8313 -1.01722 6.79577e-21)
(-6.20747 -5.32214 -1.6489e-20)
(8.86252 0.6372 3.44984e-21)
(8.02547 -0.21225 3.08587e-21)
(5.93908 -1.83357 -7.14514e-21)
(8.34263 -0.675209 3.42187e-21)
(4.02251 1.12316 0)
(8.7399 1.0687 4.65218e-21)
(8.05526 -0.125898 6.88006e-22)
(7.17406 -1.86641 -2.24799e-21)
(6.13133 3.71266 -5.36653e-21)
(8.8404 -2.60191 4.69325e-22)
(8.15878 -0.0342368 1.12595e-21)
(6.43356 -0.660206 -1.1229e-20)
(12.2938 1.55051 0)
(5.42847 -1.31198 5.5091e-22)
(8.39854 0.225721 4.46026e-21)
(9.60489 -0.798056 0)
(6.63549 -0.916874 6.13356e-21)
(8.71597 -0.83119 0)
(5.54719 3.54779 2.05065e-20)
(10.4194 -0.015387 0)
(9.50024 -2.06806 0)
(8.55666 0.0653455 2.05919e-22)
(8.85645 0.494349 2.78612e-21)
(10.4015 1.50521 -3.36857e-21)
(7.81976 -0.0180909 -4.15096e-21)
(5.97628 1.91605 -5.2418e-21)
(7.94881 0.0605109 -1.93677e-21)
(8.00372 0.595554 0)
(-0.241946 3.14944 -1.58566e-21)
(9.1407 0.508783 -1.59636e-21)
(9.98362 -1.71103 -6.53511e-22)
(11.4003 -1.45668 0)
(9.61368 2.41335 4.49695e-22)
(6.92061 3.85772 -8.90611e-22)
(9.22975 -0.136126 2.80704e-21)
(-2.34168 1.27383 0)
(-3.02332 3.34414 1.49533e-20)
(8.05453 0.279959 0)
(10.9054 -0.739851 -3.31415e-21)
(0.453665 -0.757875 0)
(5.19381 2.04867 0)
(8.31567 -3.0928 0)
(10.3268 -3.37235 0)
(-2.96982 5.57243 -1.76326e-21)
(-9.9939 -3.70357 -4.89331e-21)
(8.15581 -0.581626 -4.63557e-21)
(-3.62818 -4.46813 -5.39258e-20)
(6.45085 -2.83238 0)
(-9.68198 -3.31218 -2.92576e-20)
(0.00865161 -0.954218 -1.14333e-20)
(7.86108 -3.63215 0)
(7.29029 -2.67505 -6.23937e-21)
(5.99334 6.44155 -1.54363e-21)
(8.45528 1.04194 6.60307e-21)
(13.477 -3.2535 -1.62447e-20)
(7.69058 -0.0967613 0)
(11.3026 -2.66532 0)
(11.1123 2.49222 1.72958e-21)
(9.32439 -2.92971 -1.86194e-22)
(6.82786 3.99516 1.08462e-21)
(-2.27687 0.0293238 2.55775e-21)
(7.99808 0.00405538 3.2033e-22)
(8.66582 4.11257 -2.55523e-22)
(7.97431 0.254805 6.56219e-21)
(4.15316 -0.999128 6.76061e-22)
(9.14146 -2.28703 0)
(-1.28945 1.57755 0)
(9.28272 0.757822 0)
(12.1965 -2.45563 0)
(8.14887 -1.68992 2.13125e-21)
(10.6597 0.539981 0)
(-3.38978 4.56352 2.81835e-20)
(5.97562 -1.12051 -2.52215e-22)
(6.70219 -2.38647 -1.13988e-20)
(3.70242 4.74612 3.62504e-21)
(-9.40534 -4.89418 -1.08523e-20)
(-1.47564 6.23939 -1.42978e-20)
(9.00222 0.0549678 8.85086e-22)
(-7.26183 -4.79116 -1.07229e-20)
(4.00476 -0.88629 3.24744e-21)
(8.80482 0.000147426 0)
(10.9341 0.173829 0)
(5.96386 -2.81932 0)
(10.3246 -1.05522 -2.25462e-21)
(2.60636 -3.45362 0)
(7.10036 0.986775 0)
(8.0034 0.00722693 0)
(8.4334 -2.03759 1.59436e-21)
(8.0708 0.341053 -7.11669e-21)
(7.12872 0.352118 0)
(10.6552 -2.16779 -2.39663e-21)
(7.83922 0.230847 -5.63636e-21)
(8.34152 2.49009 8.51587e-21)
(7.94556 -3.58577 1.7705e-21)
(7.25443 1.23607 1.30544e-22)
(9.78362 -2.68744 5.58018e-23)
(7.5026 -2.16723 -1.70632e-21)
(10.0511 -2.13625 9.61768e-22)
(8.80041 0.524147 -3.72429e-21)
(7.59272 4.48979 2.68093e-21)
(7.76167 -0.342112 -5.66671e-21)
(8.36573 -0.0198536 0)
(11.392 5.85767 -1.75243e-20)
(7.98767 -0.108433 5.91257e-21)
(4.20608 8.86231 9.81026e-21)
(9.64121 -0.777179 8.88958e-22)
(5.66386 -1.73191 -1.25601e-20)
(8.83999 0.440082 6.18104e-22)
(10.2631 2.2001 2.21146e-21)
(7.99539 0.0892831 0)
(7.71911 -5.70519 6.55143e-22)
(6.37282 -0.453157 1.23553e-21)
(9.55999 -2.23967 -1.18565e-21)
(7.03115 -6.44909 -8.4681e-20)
(8.34858 -0.0767348 2.35131e-21)
(8.99643 1.58228 -3.56101e-22)
(9.07309 -0.285385 -1.36825e-21)
(8.91047 0.41651 0)
(5.51879 4.69511 0)
(7.46374 -3.50962 3.34453e-21)
(-3.53236 0.496862 7.69856e-21)
(6.56097 0.102296 -3.317e-22)
(8.01625 -0.117268 1.16011e-20)
(6.46067 -5.43773 -1.42674e-21)
(6.49931 -0.251864 0)
(7.66938 -0.382311 0)
(7.67475 -1.92579 -2.0912e-22)
(8.23758 0.00910416 3.59027e-22)
(7.3373 1.16585 1.16058e-20)
(8.75895 1.0929 0)
(9.17261 0.00393095 0)
(10.3694 -2.22817 -9.13749e-21)
(8.81963 -0.656484 1.81425e-21)
(6.18069 -2.5111 -1.89171e-20)
(8.8399 -0.505485 0)
(0.281493 1.1884 1.20493e-21)
(11.4903 -2.17268 -2.05937e-21)
(-5.73465 0.128196 -1.06091e-20)
(8.48625 -0.268448 -4.30851e-21)
(13.3196 2.01686 0)
(12.8162 0.561801 1.01544e-20)
(-0.0917639 1.30066 -3.14064e-20)
(-2.73258 2.41108 0)
(11.0274 0.0687326 7.82774e-21)
(7.87002 -0.147168 -4.07418e-21)
(5.47728 -1.33409 1.86179e-24)
(8.68525 2.74877 -2.30421e-21)
(6.67414 6.63508 2.67304e-21)
(8.78309 0.0488418 0)
(5.70275 -2.34662 -1.76317e-22)
(6.22125 -4.49242 4.65192e-22)
(3.15491 3.82964 -2.81382e-20)
(7.9022 0.522779 5.37796e-21)
(4.80448 8.23837 5.70791e-20)
(8.18041 -0.0164974 -1.04834e-20)
(4.63676 -6.27805 -2.05853e-20)
(6.5368 -2.72139 -1.53255e-21)
(8.28589 -1.91982 0)
(8.40796 -0.0689493 5.11604e-21)
(6.0618 -2.84773 4.26044e-21)
(9.22666 -0.00689806 1.14825e-21)
(8.04839 -0.11142 -5.16735e-21)
(10.6106 -0.857769 2.73715e-21)
(7.68719 -1.20132 1.08708e-20)
(8.8894 -0.0687453 -6.09503e-22)
(7.63409 -0.320845 3.46705e-21)
(6.13194 7.29005 -8.36023e-21)
(12.1388 0.768393 -1.21206e-20)
(8.10882 2.67772 7.04106e-21)
(-0.817792 -2.43451 2.69661e-20)
(8.35826 0.0458223 0)
(8.65043 -6.24079 0)
(15.1399 1.52408 0)
(6.66477 -2.27208 9.01722e-21)
(7.91926 0.0211368 -8.16122e-21)
(7.47331 -0.0386299 0)
(7.32351 -1.89064 -6.17673e-21)
(7.47683 -0.11255 0)
(8.14894 -1.51848 -3.48683e-21)
(10.212 -1.80685 -8.69018e-22)
(8.99525 -2.13723 -6.19072e-23)
(8.87977 0.0475431 0)
(8.06735 -0.235591 0)
(9.39071 -0.829199 -2.27216e-22)
(9.20821 1.03087 -8.07174e-23)
(10.5452 0.145779 3.15985e-21)
(7.09847 4.15402 -5.41507e-22)
(8.88268 1.86099 0)
(8.50967 -3.04986 -3.01581e-22)
(-1.33448 -0.193578 0)
(4.05533 0.921599 -8.50997e-21)
(8.72046 3.35789 0)
(9.09867 1.3455 7.08709e-22)
(6.00201 -1.56439 4.68003e-21)
(7.14701 -1.28276 4.00511e-21)
(9.58337 -0.658145 1.58304e-23)
(5.68353 -1.5194 -7.59915e-20)
(8.76349 -0.827358 4.58928e-21)
(7.93327 0.570987 -1.05816e-22)
(14.9324 -0.611522 3.40663e-20)
(9.35176 -1.67979 4.73488e-22)
(-0.745248 0.445733 5.09193e-21)
(9.12246 1.53051 0)
(8.05323 -0.0522028 -1.40451e-23)
(7.45869 -2.10681 0)
(5.93167 -2.4158 1.78835e-21)
(8.62351 -3.00709 -1.6816e-23)
(7.7266 -1.11374 -3.49806e-21)
(5.07559 0.265873 -4.14082e-22)
(9.77389 0.282479 -5.73672e-22)
(7.55313 -0.847841 8.25765e-21)