/*--------------------------------*- C++ -*----------------------------------*\
| =========                 |                                                 |
| \\      /  F ield         | OpenFOAM: The Open Source CFD Toolbox           |
|  \\    /   O peration     | Version:  2306                                  |
|   \\  /    A nd           | Website:  www.openfoam.com                      |
|    \\/     M anipulation  |                                                 |
\*---------------------------------------------------------------------------*/
FoamFile
{
    version     2.0;
    format      ascii;
    arch        "LSB;label=32;scalar=64";
    class       volVectorField;
    location    "3.7";
    object      U;
}
// * * * * * * * * * * * * * * * * * * * * * * * * * * * * * * * * * * * * * //

dimensions      [0 1 -1 0 0 0 0];

internalField   nonuniform List<vector> 
5098
(
(2.60172 0.864415 0)
(2.12277 0.0405531 -2.68434e-20)
(2.314 0.0444475 -2.63027e-21)
(1.56837 -0.703872 7.52676e-19)
(1.95001 -0.488532 0)
(0.905857 -0.43754 0)
(2.31769 0.0139743 -1.39266e-20)
(2.31204 -0.251038 1.1527e-21)
(2.42765 0.0829297 -5.02051e-20)
(2.1205 -0.249186 9.66133e-20)
(1.20484 -0.745363 0)
(2.24261 0.00210195 1.69985e-19)
(2.50794 -0.434815 -9.21763e-21)
(0.955615 -0.466578 0)
(1.88792 -0.196175 6.30297e-20)
(1.94463 0.0297251 8.45425e-22)
(1.11064 -0.542494 -3.76145e-20)
(0.823568 -0.83484 0)
(-0.532942 0.0840592 5.30788e-19)
(0.981424 -0.480469 4.24791e-20)
(1.8079 0.537848 -7.22826e-20)
(1.94797 -0.0136724 4.64642e-21)
(2.13744 -0.827042 0)
(0.774848 0.0226542 2.86773e-20)
(-0.0379817 -0.159599 0)
(1.50765 -0.603082 0)
(2.00488 0.0262149 1.21775e-19)
(1.87844 -0.796804 1.98326e-19)
(-0.266371 0.3973 -1.60439e-18)
(1.71595 -0.753178 0)
(2.4152 -0.165704 -1.07691e-19)
(0.734894 -0.357648 0)
(1.96365 -0.0459505 -1.36857e-19)
(1.34554 -0.679467 0)
(2.46229 0.24318 -4.59242e-20)
(3.27529 -0.21665 1.4664e-18)
(1.90768 -0.464355 1.45782e-19)
(2.01687 -0.0821938 -1.2412e-21)
(1.36685 -0.449289 5.49613e-19)
(1.40596 -0.652754 0)
(1.57638 -0.718686 -3.54299e-19)
(1.73083 -2.15413 -6.18396e-19)
(1.52284 -0.608628 0)
(2.8033 0.0678674 2.0897e-20)
(2.49506 0.572201 4.62715e-20)
(2.11786 0.0271041 6.00976e-21)
(1.13317 -0.571059 1.39093e-20)
(1.10375 -0.370989 0)
(2.42141 -0.223195 0)
(1.57059 -0.665922 8.02108e-20)
(2.26357 0.106537 4.22007e-20)
(1.64428 0.492129 -4.49246e-19)
(-1.89802 0.854245 -2.96912e-20)
(2.06443 -0.0439114 1.68021e-19)
(0.969918 -0.484802 -3.35085e-19)
(1.61957 0.0969861 0)
(1.90357 0.250106 -2.42001e-19)
(1.66826 -0.689878 0)
(0.871296 -0.430267 0)
(1.93168 -0.0109443 -1.44912e-20)
(1.39677 0.292101 3.40769e-20)
(0.554464 -0.279273 -4.6972e-20)
(2.4781 0.321769 0)
(2.47434 -0.415194 0)
(-2.02187 0.835535 2.112e-18)
(0.823724 -0.413894 4.18405e-19)
(2.07172 0.0231121 6.75285e-21)
(2.29495 0.103047 5.54465e-21)
(2.12958 -0.277395 1.75924e-19)
(1.70745 -0.726799 2.34736e-19)
(1.917 0.178149 1.48481e-20)
(1.52002 -0.481485 -1.64192e-20)
(1.95295 -0.810069 0)
(1.38088 -0.551779 0)
(1.73257 0.0933771 8.07658e-21)
(1.14381 -0.560241 -3.84541e-19)
(1.89024 0.123718 0)
(1.55767 0.202197 4.22774e-19)
(2.68942 -0.248894 4.69737e-20)
(1.644 0.17179 0)
(1.75437 0.00679675 0)
(3.25287 -1.80328 5.53457e-19)
(1.7045 -0.304293 5.13991e-19)
(1.35185 -0.694813 -6.84474e-21)
(0.870327 -0.958053 4.22822e-20)
(1.55359 -0.684669 2.01415e-19)
(0.0969806 0.254807 -2.61582e-19)
(1.8734 0.174357 2.28915e-21)
(2.38002 -0.207021 4.07827e-20)
(1.47923 0.314619 6.23096e-21)
(2.2828 -0.277648 -7.71602e-21)
(-1.46512 1.29007 1.10859e-18)
(2.3806 -0.0407162 -2.11056e-19)
(1.58765 -0.686775 -4.01326e-19)
(1.34668 -0.476207 9.69807e-20)
(1.47378 -0.513051 3.40756e-20)
(1.06084 -0.533464 -3.22761e-19)
(1.46842 0.283259 3.12168e-19)
(1.75627 0.0991116 3.496e-21)
(2.06128 -0.507121 -1.19718e-19)
(1.72109 -0.827292 -5.83428e-20)
(1.02654 -0.506018 -3.97956e-19)
(-0.0406629 -0.0373788 -7.82858e-21)
(2.16118 0.170464 -1.77971e-20)
(1.56027 0.184381 -4.8055e-19)
(2.43854 1.03816 0)
(1.94306 0.216662 2.56776e-19)
(2.2321 0.101143 1.13778e-21)
(1.0552 -0.427157 7.48656e-20)
(1.14923 -0.736546 0)
(1.06925 -0.515644 -8.64606e-19)
(1.77392 0.735777 7.9001e-19)
(1.85372 -0.0143652 -2.54725e-19)
(-2.17587 1.58328 2.7832e-19)
(1.74359 0.631914 1.03139e-19)
(0.532105 -0.265399 0)
(2.95349 -1.72503 8.01051e-19)
(2.78313 1.31878 0)
(1.97846 0.143678 1.11403e-20)
(0.804007 -0.0244774 -4.40878e-19)
(1.68989 0.460039 3.6885e-19)
(1.65194 1.94878 -5.22918e-20)
(2.10196 -0.266339 -6.17479e-20)
(0.958138 -2.15001 -7.78889e-19)
(-1.61998 1.78181 -1.54494e-18)
(0.518093 -0.250853 5.09101e-21)
(2.10405 -0.0260281 1.39822e-19)
(2.12008 -0.790257 -2.35884e-19)
(1.40142 -0.17571 -1.15348e-19)
(-2.28586 1.59422 -5.21646e-19)
(-0.185451 -1.12027 -3.26037e-19)
(1.14747 -0.513172 -5.51755e-19)
(1.17428 -0.511184 4.62028e-19)
(2.65491 1.36883 -1.3625e-19)
(1.62432 -0.701435 -1.43424e-19)
(2.34426 -0.616671 2.37222e-19)
(2.08705 2.45983 6.3558e-19)
(1.92998 0.222912 1.73516e-19)
(0.882963 -0.433086 0)
(2.05975 -0.0684209 -5.48258e-19)
(1.60648 0.58655 -2.96865e-19)
(1.31255 -0.30848 2.87222e-20)
(1.77945 -0.809151 3.79854e-19)
(2.34339 0.0173212 -1.30413e-20)
(2.04109 0.100236 -4.03082e-20)
(2.09433 0.13727 0)
(2.12959 -0.282119 1.81251e-19)
(1.81786 -0.527576 0)
(2.49298 -0.0303936 2.99966e-19)
(1.66145 -0.76208 1.43306e-19)
(2.23201 -1.65267 -2.16174e-19)
(2.5147 0.379429 0)
(1.83482 -0.535201 5.52598e-20)
(1.96187 0.0818239 0)
(0.0858865 0.15321 -3.29528e-19)
(0.83801 -0.327469 -1.83176e-19)
(1.66789 -0.677994 -4.21053e-19)
(1.70026 -0.792353 -4.15156e-20)
(1.51931 -0.711712 -2.90117e-19)
(-0.351033 0.143876 1.64299e-18)
(1.96801 -0.439583 -3.96464e-19)
(1.92841 -0.168493 -8.49924e-20)
(1.68387 0.156791 -5.16601e-19)
(1.84069 -0.188833 -3.17615e-19)
(0.514584 -0.696117 -4.69661e-20)
(2.49964 -0.165861 -1.03982e-19)
(1.91082 -0.532164 -1.91327e-19)
(2.35488 -0.583807 0)
(-0.0410569 -0.223201 9.97503e-20)
(1.71098 -0.558642 -4.59928e-19)
(1.69294 -0.526852 -2.43179e-20)
(1.57739 -0.638266 -2.73161e-19)
(2.26131 0.515731 8.71845e-20)
(1.87269 -0.767417 3.54435e-19)
(2.61911 -0.0734928 0)
(1.959 -0.00905991 0)
(1.71148 -0.285574 -1.99314e-19)
(3.27396 -0.172048 -7.24842e-20)
(1.77413 -0.170898 4.39944e-19)
(0.288099 0.0926654 0)
(1.90619 2.34248 0)
(2.79005 -1.40336 -5.91225e-19)
(1.7764 -0.559454 5.65666e-19)
(0.449432 -0.617719 0)
(1.85114 -0.183926 0)
(2.80526 0.603949 5.55911e-19)
(1.52102 0.30857 0)
(1.91206 -0.437264 5.00786e-19)
(1.00613 -0.492129 7.46582e-19)
(-1.11635 0.382206 -6.98408e-19)
(2.00947 0.882363 0)
(1.53942 -0.26992 9.78987e-20)
(1.97676 -0.827404 0)
(1.73193 0.0548158 8.51476e-21)
(2.47449 -0.179971 1.15979e-20)
(-1.83341 1.47669 -1.2258e-18)
(3.36982 -1.1786 4.31947e-19)
(2.43914 -0.665093 0)
(1.95732 -0.00405245 -5.45737e-21)
(1.73468 -0.540893 -8.34213e-20)
(-0.521935 -0.754132 -6.51792e-19)
(1.69437 0.418972 5.64159e-21)
(2.47736 0.639371 8.10433e-21)
(2.22016 0.030432 4.28315e-21)
(1.59566 -0.0779165 2.03266e-19)
(0.810379 -0.33499 -1.31045e-19)
(2.56538 -0.0218447 -1.64817e-20)
(1.20525 -0.557178 0)
(2.23947 -0.0789411 0)
(1.28076 -0.621961 -3.9469e-19)
(1.94865 -0.171398 -1.6166e-19)
(1.73616 0.370544 3.00022e-19)
(1.65511 -0.277576 -9.88422e-20)
(2.0154 0.0789247 -1.48327e-19)
(2.0979 -0.0230451 -1.69826e-19)
(0.821514 0.311493 -4.51086e-19)
(1.74732 0.0128184 0)
(1.08696 -0.769228 -6.25004e-20)
(-1.66657 1.74079 2.08382e-19)
(1.9487 0.0829191 1.13365e-19)
(2.30849 -0.284397 -2.88105e-20)
(1.61107 -0.339016 0)
(2.02876 -0.00914197 1.47201e-20)
(2.32302 -0.342322 1.48705e-19)
(-2.2535 1.28626 3.32944e-19)
(2.03633 -0.172989 0)
(0.413666 -0.105941 0)
(2.00698 0.045294 0)
(2.02591 -0.506894 0)
(1.73847 -0.692172 4.73843e-21)
(1.82161 0.452177 0)
(0.618644 -0.262577 -4.7876e-19)
(3.17787 -1.32657 -4.34773e-19)
(2.07507 0.0014102 -6.91482e-21)
(2.60514 0.0407155 -6.21327e-20)
(2.3679 0.0686359 0)
(1.50612 1.47367 -1.45661e-19)
(-1.28018 -0.699494 -2.31352e-18)
(2.81421 -0.483645 0)
(1.88449 -0.0134601 3.14158e-19)
(3.0641 -2.05535 -1.92796e-18)
(2.2527 0.601034 0)
(2.18118 0.0992345 0)
(1.03991 -0.232167 8.07707e-19)
(1.77673 0.507338 -3.79455e-19)
(2.32143 -0.117672 -1.96769e-19)
(1.07399 -0.512953 8.93703e-20)
(1.11346 -0.74784 -4.05466e-20)
(1.22122 -0.616055 0)
(2.37951 -0.0865205 5.15197e-20)
(2.26427 0.794395 -4.47629e-20)
(1.88505 -0.792873 3.66227e-19)
(0.242462 -0.0191064 7.7107e-19)
(-0.904571 -0.770014 6.92828e-19)
(2.01178 0.0411362 -2.31012e-19)
(-0.836003 -0.774447 2.2439e-18)
(1.65766 -0.658029 1.25102e-19)
(1.26657 -0.438095 -4.55513e-20)
(1.1328 -0.392115 -3.3898e-19)
(1.92981 0.0149313 2.58966e-21)
(2.79447 0.593558 8.43641e-20)
(-2.21359 1.0003 1.09301e-18)
(-0.247931 -0.0580724 1.99429e-19)
(1.90056 -0.821347 0)
(2.03686 0.0359221 -2.14178e-21)
(0.793672 -0.457162 1.79135e-20)
(-0.269855 0.0870862 -1.91434e-18)
(1.20606 -0.807723 0)
(1.32844 -0.52488 0)
(1.84644 0.00210212 -2.89281e-20)
(-1.77388 0.53829 8.54704e-19)
(1.9171 0.0721706 1.34947e-20)
(-0.0913914 0.163534 -8.60892e-19)
(1.71551 -0.377684 0)
(1.15073 -0.463065 2.36504e-21)
(0.166221 -0.134802 1.36476e-20)
(1.58891 -2.07574 -4.46075e-19)
(2.15724 -1.27428 0)
(2.26712 -0.734784 0)
(1.91977 -0.0992104 0)
(-0.163317 -0.944043 -1.95608e-19)
(2.20919 -0.0601924 1.18937e-19)
(-2.4305 1.29884 -1.36154e-18)
(2.21847 -0.126367 -1.32206e-19)
(2.01846 -0.533701 -2.69422e-20)
(0.953288 -0.506618 0)
(1.98364 0.0250595 0)
(2.13184 0.15858 -4.70517e-20)
(2.50476 -0.119253 8.3623e-20)
(1.88252 0.0238948 -2.60513e-19)
(1.35982 -2.0642 0)
(-0.486417 1.99141 8.04187e-19)
(1.08784 -0.0453412 -2.36121e-19)
(2.43916 0.475342 4.22331e-20)
(1.9948 -0.625995 3.81228e-19)
(1.31095 -0.138769 -4.29778e-20)
(2.44636 0.140593 0)
(2.4493 -0.167275 -9.36055e-20)
(1.99041 0.0413619 0)
(1.94843 0.0220935 -1.36634e-19)
(2.13114 0.170004 3.78352e-20)
(2.48976 -0.050385 1.09424e-19)
(1.61261 -0.442786 5.33483e-19)
(1.84522 0.469133 2.122e-19)
(0.724601 -0.402454 -2.8578e-20)
(1.8033 -0.741401 -2.24279e-19)
(2.63383 1.80871 -1.58709e-19)
(2.03302 0.0111615 0)
(1.85088 -0.444284 0)
(1.16284 -0.610081 0)
(2.28179 -0.268903 3.75468e-20)
(-0.1246 0.463615 7.544e-20)
(0.833687 -0.414746 4.40758e-19)
(1.90084 0.0164156 -2.45683e-20)
(2.55331 -0.430001 -3.65983e-20)
(0.168218 0.0736833 6.46707e-19)
(1.98852 2.29895 -6.89712e-20)
(2.11382 0.00867552 -1.26062e-20)
(2.26757 -0.163653 5.20227e-19)
(0.890099 -0.378192 0)
(2.78144 -0.170964 -4.51758e-20)
(-0.545365 2.02674 -1.59926e-18)
(2.69482 -0.30706 -4.15881e-19)
(-0.586422 0.957704 -1.82912e-20)
(1.7666 0.10115 1.55073e-21)
(1.34905 -0.421088 3.69829e-19)
(2.21313 0.784012 0)
(1.95057 0.104919 -8.87296e-20)
(1.06484 -0.434183 -7.91361e-19)
(1.99726 0.111998 -1.0092e-20)
(1.28246 -0.624083 0)
(2.25288 -0.159372 -1.4845e-19)
(1.03401 -0.499634 2.48589e-19)
(2.30789 -0.731511 -1.0852e-19)
(1.73204 -0.732849 -3.17578e-19)
(2.18757 0.0152084 -4.12918e-20)
(2.40124 -0.363837 8.15402e-21)
(0.960593 -0.4757 4.86777e-19)
(2.23094 -0.111551 2.17419e-19)
(1.83761 -0.387144 0)
(1.80082 -0.820308 -3.5943e-19)
(1.69103 -0.726651 -9.60248e-19)
(2.63752 -0.190389 2.09301e-20)
(2.01239 0.0558189 3.72048e-20)
(2.36605 1.36664 0)
(1.82158 0.181747 0)
(2.07286 -0.0333642 -1.72858e-19)
(0.77869 0.477488 3.829e-19)
(2.79758 1.23488 0)
(2.38161 -0.0261532 1.49637e-19)
(1.53435 -0.682092 -4.24352e-21)
(0.924727 0.323123 -5.78485e-19)
(0.881369 -0.381793 -4.23029e-19)
(-0.347311 -0.864181 2.18548e-19)
(1.84106 0.0481138 1.81844e-20)
(-0.168684 -0.77776 5.58792e-19)
(2.33826 -0.590678 -2.00871e-19)
(2.3229 -0.0424854 0)
(1.42816 -0.125123 -9.93273e-20)
(1.39062 -0.440259 0)
(1.96458 0.122864 -4.27932e-19)
(2.01764 -0.458003 0)
(2.26983 -0.0523158 -1.54508e-19)
(1.92021 0.180445 -6.05105e-21)
(2.81444 0.0916898 -9.64757e-21)
(1.12451 -0.436003 4.47227e-19)
(1.95295 0.142498 -3.4576e-19)
(1.98332 0.215627 -3.79133e-19)
(1.99606 -0.85909 0)
(-0.701533 -1.09466 0)
(1.20015 -0.479215 -4.40858e-19)
(2.88127 -0.0231726 0)
(3.33716 0.273773 -9.15425e-19)
(1.63327 0.334792 0)
(1.47109 -0.495748 2.1975e-20)
(0.704624 -0.356366 4.14582e-20)
(1.75661 -0.577052 6.72171e-19)
(0.782224 -0.359965 -2.40054e-20)
(2.33574 -0.552073 0)
(1.90524 0.190238 6.51975e-21)
(1.86749 0.0246945 -2.21688e-19)
(0.551054 -0.269277 -5.51261e-21)
(1.98112 0.0252993 -1.96741e-19)
(2.44979 -0.106451 -6.63515e-20)
(2.51509 0.182439 -2.97426e-20)
(3.20727 0.802737 3.62306e-19)
(2.44882 0.389122 -6.49697e-20)
(-0.891404 -1.14137 -3.5193e-19)
(1.69183 -0.500938 0)
(-0.0280847 -0.0434812 3.19673e-21)
(1.96949 0.157805 -1.49399e-19)
(2.53757 -0.245148 0)
(2.01223 0.0554221 1.2919e-19)
(1.14212 -0.552316 -3.25098e-19)
(1.67016 1.26144 1.2874e-19)
(3.77101 -0.738733 0)
(1.39236 -0.65994 1.18301e-19)
(2.96973 0.0882973 0)
(2.2843 0.0420801 3.27717e-20)
(2.09835 -0.218967 -9.34547e-20)
(0.150474 -0.23114 1.00849e-18)
(1.04637 -0.0627052 0)
(1.56643 0.281452 2.15044e-19)
(1.95037 0.0640258 1.37403e-19)
(0.549411 -0.293488 0)
(1.72938 -0.0150181 0)
(1.991 -0.168111 0)
(0.105213 -0.0544915 6.8373e-20)
(0.384096 -0.139588 -2.67602e-20)
(2.4784 -0.108379 0)
(1.9944 0.0243706 0)
(1.56175 -0.502888 5.99775e-20)
(-2.07375 0.550279 0)
(2.38128 0.397231 -9.26475e-22)
(2.93637 1.09363 2.03418e-19)
(2.04372 0.0946584 8.97458e-21)
(1.85757 0.44679 -3.89773e-21)
(0.939961 0.398807 6.65331e-19)
(2.99592 1.29726 -2.14735e-19)
(2.39172 -0.252177 6.75273e-21)
(2.06293 -0.0486149 1.49737e-19)
(1.60599 -0.161576 -2.41197e-19)
(1.78777 -0.0667698 -2.12262e-20)
(1.99812 -0.00136019 0)
(-0.0787152 -0.846399 -5.37431e-19)
(-1.64447 1.48675 0)
(1.32477 -0.568033 1.02172e-20)
(1.75692 -0.480397 0)
(2.75517 -0.0162627 0)
(1.28146 -0.612768 -2.67312e-19)
(2.0384 -0.01991 -6.47465e-21)
(-0.325908 0.386686 -1.73364e-18)
(2.0568 0.0252742 6.99718e-21)
(1.80712 -0.716013 3.61973e-19)
(3.07634 0.989899 2.33914e-19)
(-0.634825 1.05316 1.59591e-18)
(2.14856 0.0351456 2.09443e-20)
(2.09384 -0.837181 1.36597e-19)
(2.00941 0.00927751 -2.35739e-19)
(4.04901 -0.924638 0)
(1.80217 -0.127061 -4.5748e-19)
(1.83082 -0.480468 3.73995e-19)
(2.02605 0.185288 -5.1869e-19)
(0.813467 -0.393123 -3.06916e-20)
(1.60275 1.26472 -1.28894e-19)
(2.91124 1.17198 3.06746e-19)
(2.71949 -0.617798 0)
(1.916 -0.183616 0)
(1.05724 0.612424 -6.99006e-19)
(2.12657 -0.138357 9.21171e-20)
(1.21783 -0.630982 0)
(2.28749 -0.128662 -1.33597e-19)
(2.03224 0.0196042 -2.83266e-19)
(1.10617 -0.544084 -1.94105e-20)
(1.24532 -0.686669 8.32221e-20)
(2.57886 0.160261 -4.93661e-21)
(1.49191 -2.14216 3.70913e-20)
(2.38129 -0.367992 -2.8457e-19)
(1.95425 -0.464729 2.60161e-19)
(3.36036 0.837266 8.14722e-19)
(1.53857 -0.627603 3.46208e-19)
(1.9779 0.121033 -1.0238e-21)
(1.01434 0.233645 4.84132e-19)
(2.13171 2.09294 0)
(1.70255 -0.482332 2.16875e-19)
(0.995141 -0.810524 0)
(-2.33302 1.32478 -3.71894e-18)
(2.40885 -2.07806 0)
(0.52373 -0.256454 -1.09034e-19)
(1.63594 -0.702036 -4.86112e-19)
(2.47949 0.741194 -3.81328e-19)
(2.06421 -0.850623 0)
(1.42762 -0.652346 0)
(2.70126 -0.461987 0)
(2.01344 0.122096 1.1277e-19)
(3.53768 -0.317235 -2.64202e-18)
(-0.115394 0.180445 1.36052e-18)
(1.59574 -0.316396 -7.34949e-21)
(3.52916 0.815125 -8.99946e-19)
(2.03312 0.214061 0)
(1.23046 1.97479 2.07574e-19)
(2.55171 1.25066 1.3574e-19)
(2.41242 0.491673 -5.46165e-19)
(1.53909 -0.718051 3.02276e-19)
(2.93024 -0.0794752 -2.62512e-21)
(1.15215 -0.561491 5.4438e-19)
(2.22499 0.40363 0)
(2.12971 -0.176335 9.06275e-20)
(1.31421 -0.418196 4.61138e-20)
(1.98836 -0.0626697 2.85352e-20)
(3.3223 0.494813 -4.7673e-19)
(1.76453 -0.500616 0)
(2.61932 0.636367 0)
(3.63731 -1.07098 0)
(-0.840275 0.908539 0)
(1.90069 0.0131802 0)
(1.42491 -0.532736 1.48639e-19)
(3.73656 0.684227 6.24194e-19)
(1.46017 -0.603094 4.11761e-19)
(2.05789 0.0328798 2.3063e-19)
(0.854039 -0.805112 0)
(2.06045 -0.862657 2.9136e-21)
(-0.556223 -0.00717297 0)
(0.98066 -0.957275 -7.15937e-20)
(-0.560047 0.141473 7.19675e-19)
(4.11138 0.283943 -3.83446e-19)
(1.98082 0.126369 2.62591e-19)
(2.01037 0.133373 -7.95353e-20)
(3.77462 -0.665222 -4.71751e-19)
(2.38334 -0.0284512 0)
(-1.69983 2.08603 1.46705e-18)
(1.98816 0.0418997 0)
(1.56557 0.895173 1.71092e-20)
(2.51237 -0.113195 0)
(2.10916 0.264601 -9.92241e-20)
(2.10772 -0.115235 0)
(0.920962 -0.350389 -2.98579e-19)
(-1.58892 0.361346 1.15869e-18)
(2.0362 -0.139589 -8.43242e-20)
(1.33506 0.401087 4.31547e-19)
(0.196238 -0.106124 -1.41882e-19)
(1.92453 -0.459614 0)
(1.01373 -0.204247 -1.14295e-18)
(1.94635 0.16818 5.47198e-21)
(3.81703 0.18953 -1.34025e-18)
(1.923 -0.0181473 8.54976e-21)
(2.9501 -1.34383 1.05163e-18)
(3.61271 0.531105 0)
(1.76654 -0.795057 -7.75374e-20)
(1.44784 -0.660465 0)
(2.55336 -0.20776 1.13599e-20)
(0.46798 -0.134447 7.32299e-20)
(0.44881 -0.989548 0)
(2.40976 0.346433 0)
(1.62083 -0.745368 -8.23041e-20)
(2.52519 0.628692 0)
(1.76385 1.78263 5.3834e-20)
(3.01235 0.787718 -3.64071e-19)
(-2.31482 1.47106 -1.11976e-18)
(1.27431 -0.638809 -3.33836e-20)
(2.00488 0.0276012 -7.31477e-21)
(0.996882 -0.552109 3.35051e-22)
(-1.77111 0.653672 -8.26311e-19)
(1.85037 0.00182273 4.85216e-19)
(1.02896 -0.504237 2.20427e-20)
(0.395138 -0.194893 0)
(2.41524 0.124417 -9.07223e-20)
(1.53126 -0.717271 9.92734e-20)
(0.398886 0.232513 7.91397e-20)
(3.60793 0.369974 9.67022e-19)
(2.90444 1.56736 0)
(1.82159 -0.515825 -3.75733e-19)
(1.84604 0.522637 4.07145e-22)
(3.26032 0.6423 -1.05236e-19)
(2.48783 -0.0922079 -2.92241e-19)
(1.27081 -0.725392 2.28069e-20)
(0.206585 -1.35198 4.28895e-19)
(1.47644 -0.590429 -9.93326e-20)
(1.20758 -0.679714 8.85544e-22)
(2.35259 -0.205435 -2.41287e-19)
(1.23117 -0.729542 -2.55544e-20)
(1.82355 -0.414764 0)
(1.90041 -0.156105 -4.415e-19)
(-0.426708 1.61758 0)
(1.34519 -0.662799 -2.14173e-20)
(0.166755 0.947144 2.19313e-19)
(-0.390937 0.727796 1.07437e-18)
(1.9708 0.150989 -2.76698e-21)
(-0.0135038 -0.0946824 1.69094e-20)
(-0.353812 0.294993 0)
(2.19635 -0.812858 3.6146e-19)
(2.16603 -0.854225 8.76271e-20)
(-0.572415 1.03353 -8.89695e-19)
(1.75637 0.546501 0)
(1.66921 0.524862 0)
(0.202745 0.345072 0)
(1.57586 -0.545025 -3.37e-20)
(1.89044 -0.0330554 -4.31515e-19)
(1.31497 0.183164 0)
(1.74798 -0.864128 0)
(2.32858 0.203284 -6.44342e-21)
(2.0762 -1.59163 -6.34251e-22)
(2.12756 0.360664 -2.94253e-19)
(1.64984 -0.365569 -3.89795e-20)
(1.79301 0.0482859 3.70107e-20)
(1.94542 0.0155043 -2.5713e-20)
(1.93047 0.203035 -1.68616e-20)
(1.98634 0.546798 -2.45935e-20)
(1.91006 1.19885 0)
(-1.50564 0.516517 4.77081e-20)
(-1.32799 2.12368 0)
(1.03913 0.117672 0)
(2.88066 0.136177 -4.78135e-19)
(0.653905 -0.87494 0)
(2.51094 0.363603 0)
(1.88368 -0.104322 6.78932e-19)
(1.87315 -0.826142 0)
(2.07992 0.32817 3.81147e-19)
(3.38678 0.450116 4.74353e-19)
(3.2161 0.413701 1.63346e-19)
(1.99984 0.11645 1.00811e-21)
(1.15647 1.32457 2.40448e-19)
(2.21142 -0.85185 4.19937e-21)
(1.96167 -0.782013 -6.79306e-21)
(1.17492 -0.456319 4.30878e-19)
(1.08237 -0.566606 0)
(0.946739 -0.468335 0)
(0.211236 -0.450115 -1.98676e-19)
(-1.41693 0.241154 -1.55174e-18)
(1.39744 -0.655728 0)
(1.05339 -0.536999 4.07468e-20)
(-1.74075 0.717706 0)
(-1.39923 1.94238 1.48809e-18)
(1.13281 -0.528518 -5.58198e-19)
(3.37312 0.200213 -2.23998e-20)
(3.13695 0.573921 3.85343e-19)
(1.22196 -0.414505 8.7182e-20)
(2.45951 -0.131971 1.301e-19)
(2.33433 0.934261 0)
(2.44548 0.817468 0)
(1.09805 0.00414013 0)
(0.294075 -0.262431 -7.38905e-19)
(1.42306 -0.538726 0)
(2.35462 0.738809 0)
(2.02704 0.0516039 0)
(2.4514 -0.388781 -5.69022e-20)
(-2.12336 1.86082 5.41383e-19)
(2.03631 -0.779209 -1.97393e-19)
(1.51595 -0.580862 9.03452e-20)
(1.57063 0.25077 0)
(0.393848 -1.2188 0)
(1.99834 -0.594162 -3.47733e-19)
(1.57705 0.592953 6.34492e-19)
(-0.246306 -0.153009 -1.76106e-19)
(2.10891 0.182381 -7.8824e-21)
(1.74223 -0.46345 3.96968e-19)
(1.01972 0.418272 -1.04391e-18)
(-1.54605 0.182844 0)
(1.23972 1.33223 -5.63552e-19)
(0.385235 0.387719 -6.5411e-19)
(3.21101 0.269655 0)
(2.25772 -0.0161186 0)
(1.69251 0.0135426 0)
(2.06318 0.0210682 -4.16106e-19)
(1.40024 0.308212 -4.43178e-19)
(1.67974 0.155226 0)
(3.35741 1.38346 1.74113e-18)
(1.80349 -0.808189 3.63474e-19)
(2.47368 -0.357392 7.00129e-20)
(0.667804 -0.459833 4.49558e-20)
(2.07074 -0.283418 0)
(2.41297 0.0390206 5.45548e-20)
(1.79534 -0.433579 0)
(1.48995 -0.742952 -9.74632e-20)
(1.74394 -0.793495 0)
(2.14078 -0.774182 4.356e-19)
(1.51393 -0.299274 -2.24792e-22)
(2.03582 0.0717291 -1.02146e-20)
(2.48594 -0.38006 0)
(1.82597 -0.784706 0)
(1.61335 -0.687361 -5.07947e-19)
(2.2813 0.364875 1.02322e-21)
(1.10116 -0.899041 3.51695e-20)
(0.872836 -0.420374 4.37412e-19)
(1.90197 -0.0830859 0)
(1.59193 0.219255 -6.71405e-19)
(2.24764 0.0474789 -3.74189e-20)
(1.58228 -0.566058 -3.93626e-20)
(2.0542 0.116687 -1.21854e-20)
(2.05887 0.132742 0)
(1.19176 -0.343592 6.12821e-19)
(0.981615 0.174603 -6.68283e-19)
(3.75883 0.477248 1.03756e-20)
(1.86676 0.23294 -7.54227e-19)
(0.775555 -0.486874 3.61636e-20)
(-0.104775 0.258876 -1.57512e-18)
(1.59522 -0.272076 -1.46002e-20)
(2.04444 -0.0692898 -3.91287e-20)
(1.7027 0.482394 1.5305e-18)
(-0.486792 0.167974 8.29101e-21)
(0.74661 -0.600762 6.95456e-20)
(1.00645 -0.906131 7.55263e-20)
(1.78628 -0.0592999 3.10307e-20)
(2.38831 -0.210956 0)
(3.98086 -0.46773 2.50256e-18)
(1.15256 -0.562086 2.46058e-19)
(1.65541 -0.2314 2.37949e-19)
(-0.633249 0.143347 0)
(1.64423 -0.407391 -6.37661e-20)
(2.00624 0.0182593 9.49761e-22)
(1.95871 0.0694468 0)
(-2.11182 0.733087 8.17743e-19)
(1.3614 -0.983855 2.55715e-20)
(1.69832 0.392396 0)
(1.05544 -0.393426 0)
(1.61804 -0.506615 -5.802e-20)
(1.62317 -0.624917 -1.28679e-20)
(2.78351 0.114079 1.71395e-19)
(0.262704 -0.340088 0)
(1.98612 -0.0832595 -3.85749e-19)
(2.00853 -0.524126 -6.33449e-20)
(2.20464 -0.752459 2.49862e-20)
(1.2259 -0.478305 5.41924e-19)
(0.681306 -0.72667 -7.02214e-20)
(0.831403 -1.03124 6.12142e-20)
(3.62034 0.465715 -8.98602e-21)
(1.98268 -1.23285 0)
(2.52545 0.908794 -1.39436e-18)
(1.6009 -0.631037 2.54205e-19)
(2.09467 2.00231 1.88128e-19)
(0.858272 0.588346 0)
(1.17373 -0.227381 -5.40921e-19)
(1.23316 -0.526965 -6.57519e-19)
(0.327082 -0.64914 1.18083e-19)
(-1.97134 1.99528 -1.65957e-18)
(2.49709 1.61692 0)
(-0.362956 -0.0500126 -8.60175e-19)
(2.28012 0.571268 0)
(-0.612527 1.99612 -1.23622e-18)
(-0.0509748 -0.431741 1.54264e-18)
(-0.724924 -0.318445 0)
(0.485271 -0.800049 3.68091e-20)
(1.64691 -0.109209 -9.82666e-20)
(-1.97792 1.49022 6.43164e-19)
(1.69332 -0.673337 4.61048e-19)
(0.0313189 -0.354036 -3.87497e-19)
(1.20079 -0.551229 0)
(2.01682 0.0143322 1.32942e-19)
(1.61951 0.25533 0)
(2.24851 0.186122 -2.28031e-21)
(-0.443497 -0.213821 -1.60318e-18)
(0.575268 -0.225684 2.85436e-19)
(2.05063 0.135593 0)
(1.90355 -0.760131 -3.47116e-19)
(2.70703 -0.358949 1.17533e-19)
(0.647094 -1.08316 1.71027e-19)
(1.39817 -0.921835 0)
(0.682452 -1.01321 -1.52029e-19)
(3.55275 0.533264 -9.61646e-19)
(1.6498 0.220024 8.59682e-19)
(1.87154 -0.328718 0)
(2.10373 -0.158686 2.15862e-19)
(-0.459904 0.326932 9.89274e-19)
(-2.30598 1.53573 -3.29872e-19)
(2.19111 -0.591753 1.34861e-19)
(0.907086 -0.524879 0)
(1.7268 -0.187149 -2.68178e-20)
(2.00102 0.0674044 4.44927e-22)
(2.53909 -0.366999 1.06159e-19)
(2.19446 0.0139624 0)
(0.437598 -1.36003 1.56784e-19)
(1.67761 -0.466886 -6.25006e-22)
(1.28861 -0.380888 6.72877e-20)
(2.72163 0.238648 0)
(2.06525 -0.797721 -1.54495e-19)
(0.187497 -0.544311 2.49254e-19)
(1.76529 -0.433899 -4.96428e-19)
(0.0257198 0.289624 0)
(1.5497 -0.344123 -1.70311e-21)
(2.08924 -0.775389 1.26634e-19)
(0.667821 -0.536795 -7.51096e-20)
(1.71741 0.4778 0)
(-1.7224 1.16802 2.18855e-18)
(1.60865 -0.52245 0)
(-0.145305 -1.22938 5.44045e-19)
(1.66478 -0.691786 0)
(1.88531 -0.0899149 -2.50326e-19)
(2.14956 -0.239339 -2.55584e-19)
(3.09669 1.26911 -8.76234e-19)
(1.5774 -0.486131 0)
(2.01807 -0.863931 -2.39565e-19)
(2.01941 -0.000402412 0)
(2.32778 0.345532 0)
(2.1002 -0.866715 7.00802e-20)
(0.0957431 -1.16165 1.76658e-19)
(0.578576 -0.0553615 1.79432e-19)
(2.1284 -0.580163 -8.09346e-20)
(1.72273 0.333891 2.79175e-19)
(1.1724 -0.618956 -6.856e-21)
(2.06222 0.335992 1.36732e-19)
(-1.71677 0.238925 -1.62557e-19)
(2.02655 -1.98663 0)
(2.43312 0.135962 0)
(-1.31107 0.0999509 0)
(1.31162 -0.732301 1.01993e-19)
(1.18786 -0.411817 -3.80645e-19)
(1.50911 0.12129 0)
(0.763434 -0.376164 8.97066e-20)
(2.30867 -0.149719 -1.75488e-19)
(0.891354 -0.487467 -3.50724e-20)
(1.40951 -0.506825 -1.23753e-19)
(2.18885 -0.873189 0)
(-2.20952 1.37455 1.86746e-18)
(-2.22893 0.773896 -2.01615e-18)
(-0.851469 -0.165692 0)
(-0.830282 -0.103375 -1.0958e-18)
(2.00301 -0.00921191 -2.83234e-21)
(2.72568 0.149039 2.76376e-20)
(1.97464 0.0283454 2.52e-19)
(2.83162 0.922986 -3.93344e-19)
(2.36016 0.123308 8.06084e-21)
(0.188106 1.48136 0)
(1.96318 -0.7674 0)
(0.617914 -0.296713 8.87689e-20)
(-1.3215 1.96415 0)
(1.64614 -0.365204 -6.45381e-20)
(2.18159 -0.783107 -2.29223e-19)
(1.00343 -0.473946 4.58476e-19)
(2.00069 -0.0775216 -7.9784e-20)
(1.76849 0.385655 -2.75364e-19)
(1.56093 -0.616897 -2.5011e-19)
(1.64671 -0.652984 -4.63723e-19)
(1.61527 -0.60435 0)
(1.74138 -0.686925 4.39414e-19)
(1.9663 -0.0417616 0)
(2.52438 -0.400183 -5.3542e-21)
(2.0427 1.27613 8.22982e-21)
(1.61858 -0.408197 2.03372e-21)
(2.26051 -0.401988 -2.1923e-19)
(-1.19538 1.74728 -1.2107e-18)
(-1.74427 0.504903 0)
(1.57687 -0.889392 -3.44233e-20)
(1.08198 -1.89443 -3.80576e-19)
(2.14933 0.502706 -1.53882e-19)
(1.84839 -0.747083 4.05961e-19)
(2.07798 -0.00395669 -3.97162e-21)
(-1.98772 1.73529 5.76951e-19)
(1.81818 -0.765256 -8.22802e-20)
(0.35698 0.123816 0)
(0.980773 -0.536391 1.01797e-19)
(1.79285 -0.388944 2.6258e-19)
(1.95814 -0.00275231 -2.4865e-22)
(1.20534 -0.531531 9.64761e-19)
(-0.38629 1.16863 -3.52513e-20)
(1.68697 0.613969 0)
(1.31432 -0.710242 -4.03289e-20)
(0.470785 -1.2123 -1.57616e-20)
(1.101 -0.330448 -7.27509e-19)
(1.33707 -0.701756 4.68799e-20)
(3.02698 0.787855 -4.01717e-19)
(2.11198 0.286094 9.80042e-21)
(0.978467 -0.398715 3.29488e-19)
(1.80699 -0.373538 0)
(2.48455 0.124634 -1.47096e-19)
(2.19447 -0.0507093 -3.95457e-21)
(3.14023 0.700533 -3.91495e-19)
(0.904035 1.15455 0)
(3.42299 0.761842 4.02982e-20)
(-0.77526 1.99236 1.19213e-18)
(1.64762 -0.714013 9.83269e-19)
(0.988162 0.731452 1.31539e-20)
(3.02547 0.0217095 -1.37218e-18)
(-2.34781 1.48387 3.98557e-18)
(2.02025 -0.757537 4.03794e-19)
(2.07152 -0.0067091 -4.6265e-21)
(0.320942 -0.0343853 -2.48162e-21)
(2.54371 -0.0820105 3.23038e-20)
(0.343138 -0.0112393 0)
(2.03673 0.0413131 0)
(2.31532 0.535701 0)
(1.78779 -0.700163 -3.81646e-19)
(1.69036 -0.754073 8.53323e-20)
(-0.457341 0.648007 0)
(1.24401 -0.376882 -1.57546e-19)
(-0.179328 -1.1392 0)
(3.1985 -0.697608 0)
(-0.299035 1.13552 0)
(2.00239 0.0206054 0)
(-1.87816 1.40375 -6.94831e-19)
(-1.86634 0.325704 0)
(2.61424 -1.42909 4.6619e-19)
(1.68012 -0.0250097 0)
(1.99116 0.0704869 0)
(1.98467 0.198883 3.08563e-21)
(-1.72539 0.347548 0)
(1.93895 -0.983502 0)
(-0.219664 0.0727219 0)
(2.2591 0.03718 2.33154e-20)
(2.17048 0.551677 0)
(2.18964 -0.853058 -9.01552e-21)
(1.03422 -0.367595 -5.30612e-20)
(-2.28741 1.15011 -6.11416e-19)
(2.04361 0.0767869 6.05884e-19)
(-0.180123 -0.0214971 -2.96351e-20)
(1.11682 0.863009 -5.51582e-19)
(1.52159 0.725838 0)
(2.40793 -0.362697 7.87751e-21)
(1.66979 -0.197572 -2.32315e-19)
(1.61761 1.66009 1.29711e-19)
(1.81259 0.380913 3.85744e-19)
(0.797885 -0.286301 -6.92468e-19)
(1.54628 -0.673205 -3.86385e-19)
(2.4142 -1.84531 7.16716e-20)
(1.48024 -0.990533 0)
(2.35542 -0.487924 2.72668e-21)
(1.5775 -0.943786 4.06013e-20)
(2.57407 0.231108 -8.2219e-20)
(-0.165993 -0.253426 0)
(1.91681 0.0553662 -2.8418e-19)
(3.19146 0.631323 -1.12696e-18)
(1.37902 -0.553525 4.99341e-19)
(1.25818 -0.571542 -6.02829e-19)
(1.68433 -0.780143 0)
(1.79238 -0.792987 0)
(2.30826 -1.30681 3.932e-19)
(2.32192 -0.39362 -1.3616e-19)
(3.20859 0.017602 -5.8997e-19)
(1.83803 0.0217283 1.15319e-20)
(1.22919 -0.345199 -1.46305e-19)
(1.71606 -0.509111 4.20832e-19)
(2.43778 0.240921 0)
(2.33236 0.230952 2.69708e-20)
(-2.34603 1.14173 -2.97342e-18)
(1.76245 -1.08663 2.49577e-19)
(1.06797 -0.215375 -2.68312e-20)
(-0.483237 -0.163029 9.0831e-19)
(3.15429 0.0782611 4.92653e-19)
(2.61241 0.562835 8.79861e-20)
(2.4011 0.595855 0)
(1.19473 -0.832802 0)
(2.25279 -0.857857 -1.8736e-21)
(1.18178 -0.253641 0)
(1.8657 -0.387603 1.74796e-19)
(1.67267 0.278242 4.85817e-19)
(1.66097 0.502152 -1.403e-19)
(1.62039 -0.656389 1.00516e-18)
(1.99375 0.0942859 -3.14827e-22)
(1.70898 0.0178321 0)
(1.89705 -0.0348189 -4.50575e-21)
(-0.246044 0.877056 -8.1504e-19)
(2.16131 0.162107 0)
(2.62124 -0.393106 0)
(1.93446 -0.77763 1.48661e-19)
(1.94008 0.611093 2.06267e-19)
(1.11205 -0.163195 0)
(2.22177 -0.729222 4.80447e-23)
(2.3921 -0.0135867 1.39286e-19)
(2.29568 0.269951 1.38756e-20)
(1.75863 0.477604 4.12265e-19)
(1.27134 -0.679201 -4.67809e-20)
(1.505 -0.452359 0)
(-0.834087 1.55492 -2.87393e-18)
(0.539277 -0.237038 1.03512e-18)
(2.03218 0.0154018 1.53846e-20)
(-0.967446 1.96335 -1.26896e-18)
(1.82252 -0.761231 2.87474e-20)
(2.55664 0.247987 2.22156e-19)
(2.10077 -1.93901 0)
(2.01066 0.14531 1.14454e-21)
(1.85562 0.0535126 8.81362e-20)
(2.23746 0.0145523 -1.54728e-19)
(2.15883 0.367034 -9.66303e-20)
(2.23735 -0.816245 0)
(1.26637 -0.630486 0)
(2.3862 -0.0154443 0)
(2.25759 0.352423 -4.18804e-20)
(1.07634 -0.506258 7.19068e-19)
(2.48777 1.70922 -1.10419e-19)
(1.50142 -0.094551 0)
(-1.04955 0.0520729 -1.60732e-19)
(1.27334 -0.763816 4.71236e-20)
(-0.770366 -0.969769 0)
(1.92575 0.269202 -1.25015e-19)
(1.67713 0.253237 -1.62233e-19)
(2.56308 -0.45135 -6.54552e-20)
(2.04192 0.112662 -8.81013e-21)
(0.698935 -0.248918 0)
(2.18885 0.119019 -1.34864e-19)
(2.03415 -0.437679 0)
(2.04842 -0.280108 9.2876e-21)
(1.00358 0.0511593 0)
(2.25655 0.861987 5.00034e-20)
(1.7137 -0.69539 -4.4917e-19)
(2.49932 0.763878 0)
(1.8365 -0.0937143 -4.40116e-19)
(2.05207 0.119475 1.42083e-20)
(1.71339 -0.267496 0)
(1.15333 -0.546033 0)
(0.533488 0.201289 -8.78413e-20)
(2.53545 -0.212241 -1.13398e-20)
(1.47876 -0.850066 -4.4369e-20)
(0.664359 -0.403127 -1.68077e-20)
(2.44584 -0.148966 4.7791e-21)
(1.79813 0.3339 6.22818e-19)
(1.73559 0.420228 -1.78273e-21)
(2.09942 0.506041 0)
(3.47479 0.61765 5.11794e-19)
(1.7325 -0.791434 0)