/*--------------------------------*- C++ -*----------------------------------*\
| =========                 |                                                 |
| \\      /  F ield         | OpenFOAM: The Open Source CFD Toolbox           |
|  \\    /   O peration     | Version:  2306                                  |
|   \\  /    A nd           | Website:  www.openfoam.com                      |
|    \\/     M anipulation  |                                                 |
\*---------------------------------------------------------------------------*/
FoamFile
{
    version     2.0;
    format      ascii;
    arch        "LSB;label=32;scalar=64";
    class       volScalarField;
    location    "7.4";
    object      p;
}
// * * * * * * * * * * * * * * * * * * * * * * * * * * * * * * * * * * * * * //

dimensions      [0 2 -2 0 0 0 0];

internalField   nonuniform List<scalar> 
13486
(
2.44402
2.07204
0.0136596
-3.18499
0.530721
-0.0786145
0.112318
1.1712
1.54552
1.11211
-6.53125
0.428196
2.55831
0.0121749
0.455966
1.20208
-4.76096
0.322537
0.565958
2.22574
-2.30326
2.52443
2.03588
-3.936
1.05051
-3.57895
-4.86292
-1.32637
0.000915138
-1.42265
-1.57968
0.460281
-2.2953
-0.965177
1.17677
0.00714557
-0.0820815
1.89443
-0.205442
1.58286
-0.304774
2.66112
0.0242632
1.03797
1.00411
0.40763
-4.41811
0.00233524
-0.0773053
-1.01497
1.53691
-0.240561
0.358482
1.93549
0.210878
0.606362
-0.0596263
-0.239405
-2.1933
-0.178027
-8.00656
-0.147895
-2.81019
-2.12722
-5.23011
-0.0904425
-3.71074
2.49933
1.52991
-0.0957968
-3.7517
0.250651
1.62535
-3.54014
-0.0991722
-0.0539809
-0.0850866
0.428368
-4.36971
-0.285445
0.00311357
2.11168
-2.85787
0.0454942
2.45114
1.16752
-0.0186572
1.46923
1.73434
1.22628
0.421693
0.971915
2.32027
2.15959
1.58738
0.00141557
-4.88796
-4.686
1.55533
-4.76668
0.0248986
0.09961
-4.751
-0.234674
1.34335
-4.77782
1.70318
-0.208331
-4.519
0.804938
1.42011
0.354901
1.93488
0.0131322
2.91631
1.50981
1.05859
-0.89844
1.6403
-0.0564586
0.321345
-7.68279
1.68212
-0.210523
1.42394
-0.226657
1.05197
0.56276
-0.803404
-3.40649
-0.222706
-4.27209
-4.16174
-3.18365
1.59873
1.49325
2.99302
0.85821
-0.0523245
1.23435
-1.74526
0.353822
0.486132
-0.300889
0.0114719
-3.52569
0.0727938
1.96132
-1.1032
0.000450333
1.10233
0.337825
0.00455394
2.15364
0.659503
0.00377774
0.572238
-0.504184
1.6804
-0.958838
-0.694052
1.68182
0.424723
2.65143
-0.244304
-0.256575
0.234216
3.35659
0.0607998
-3.18961
-4.25162
0.671496
1.2789
0.785447
4.07674e-05
-10.1974
-0.130633
-1.94388
1.70126
0.494454
1.45436
0.0156343
0.652017
-6.00119
0.0921643
-1.2964
0.00106396
-1.24297
-0.207439
1.60811
-0.0654876
-0.0108105
-0.270919
2.27866
-0.31088
-6.28324
-3.85503
-0.752604
2.1241
-0.179803
-1.6754
0.539736
1.89918
0.263349
-1.13687
-0.323811
0.207555
1.78647
-0.257892
0.0936936
-1.2838
-3.42674
2.1995
1.70479
-0.0733907
-0.789474
-1.44901
1.24863
2.18041
-1.86254
-4.77157
-1.12212
1.27863
-0.761561
0.273665
2.33607
-0.351488
-4.78765
-0.572821
-0.0374871
1.43699
-0.989117
-1.82748
2.71964
-3.94524
2.22789
-1.07789
-0.010533
2.2542
0.696713
-2.39797
1.25746
0.0190562
2.10361
-0.181664
1.92857
0.733686
-2.34099
-3.21286
1.13647
-6.97912
2.95271
1.44217
-0.215464
-0.423204
-11.2413
0.459321
-0.756847
-0.430555
-2.40523
1.90036
-0.179879
0.460933
-10.7554
0.593562
-6.0064
-0.58595
-2.19679
1.50878
0.245315
1.845
1.6801
-1.49253
0.347795
2.34015
-2.16014
-0.426822
-0.46422
-0.227666
0.107785
-0.564634
1.27076
1.72456
-5.68483
-7.44536
-4.7579
-1.59533
-0.829392
0.268107
1.52994
-3.75671
-0.229719
1.57715
1.612
-1.02964
-1.15709
-0.713386
0.319999
1.74764
-0.113191
0.423624
0.231003
0.0852822
0.474416
-0.0719245
0.300846
-1.03183
0.766757
-0.051665
-0.0693163
-3.20623
-3.02277
0.127955
0.373307
-7.23162
1.52345
-0.250837
1.74079
1.80084
-0.689703
-0.0834426
-0.186687
1.69259
2.17841
2.95839
0.432139
0.873971
1.23958
0.211304
0.786874
1.4793
0.908515
0.412942
2.37414
0.0657059
1.48158
2.99559
0.373625
1.17413
-0.176359
-0.631788
2.16258
0.741942
0.662857
-6.79218
0.00108418
0.998246
2.88364
-1.9055
-0.21456
0.987753
0.257829
0.331207
-4.94312
1.73535
-0.0233601
-3.60825
1.03006
-0.0604399
-3.12065
0.577568
0.401009
1.90975
1.68421
-1.47321
0.00232851
-1.11259
-4.21476
2.25054
1.04741
0.0177436
1.02077
0.24771
-7.44529
0.0401219
1.56607
1.73684
-0.18273
-6.97825
-2.67325
1.48471
0.857602
2.60482
1.9333
-4.31754
-0.459918
0.270406
1.14924
-4.3837
-1.05991
2.16032
-1.55933
0.879382
2.28952
2.50758
-0.0379864
-3.37917
-7.20334
-4.60826
-1.71634
-4.46373
0.731821
1.39346
-1.07756
0.172343
0.117277
2.12864
-1.9347
1.08413
1.97421
1.11933
-0.655281
-1.59415
1.75378
1.72146
2.20957
-6.18156
0.623303
-4.41269
0.716775
1.70292
0.331189
2.8961
1.2189
-0.511636
-1.19604
0.538235
1.72551
-4.85107
0.335229
2.5101
1.40068
0.861953
0.24159
0.401813
-2.3683
2.60203
-0.202706
0.827848
2.46164
-4.84929
-1.48463
-3.14321
-1.64565
-0.0947038
1.89079
2.10555
2.52921
-2.81076
-0.0633292
-6.90727
1.19438
1.7696
-1.00019
-0.914712
1.70671
-6.29033
-10.6565
-6.24123
-3.58735
0.240245
2.03726
3.51538e-06
0.354797
-2.5023
1.67311
0.00326057
3.187
2.33273
1.60549
1.10116
0.00831742
0.00130355
2.97635
-0.493667
-0.0464689
-0.505991
1.49683
-4.74464
0.30486
1.30257
-0.0346588
-0.431667
2.0215
-1.75584
-4.69534
1.22045
-1.12943
3.34524
1.23982
1.55206
1.82584
-10.2756
0.131079
2.77062
0.483022
2.17959
-0.0388738
0.632305
-2.43305
-0.288107
0.0202489
-4.75651
1.79874
1.46658
-7.2547
0.0010502
-0.142426
2.5244
1.89266
-0.455898
1.50297
1.09084
-0.383556
0.586433
1.57161
-4.31414
2.56818
-0.0287754
-0.0899684
2.65055
0.865911
-0.0103404
1.00909
-2.88926
-5.98372
0.637677
0.744938
1.71401
2.32324
-5.35507
0.401109
-5.3291
0.00119185
2.2264
0.627019
-6.14956
-5.10865
0.359834
-0.440246
1.13764
-5.04365
-0.862771
1.50866
2.34658
-0.154972
1.88259
-3.31271
-7.64945
-1.19656
0.852014
-6.74682
1.7806
0.108086
-8.57866
1.25072
1.84533
-2.57742
-5.42642
1.55598
2.25573
0.738481
2.47002
0.115617
1.25376
0.561207
1.82652
0.0206724
2.18495
-4.90833
0.706778
1.41618
-0.750206
-2.07137
1.68636
-4.80333
0.333468
2.07094
2.5114
-2.9271
-0.273073
0.675963
0.308728
1.39989
1.38629
0.121437
-5.17975
0.185477
2.39808
0.441453
0.38842
-7.8318
2.53002
-1.23686
0.0155079
1.67598
1.07552
-0.296262
-0.011937
1.19168
0.170477
0.0237645
0.813816
-1.25468
2.45696
1.47113
1.07614
1.11166
0.18628
-1.5586
2.80878
0.668241
2.80776
-4.28565
1.55798
0.00508867
-3.60108
0.694246
1.12814
2.95031
-8.76261
0.805145
0.827627
-2.07244
1.09735
0.305109
-0.274199
1.5097
-5.50047
-1.94606
-2.53298
0.118593
-0.856673
1.81026
0.00105963
2.69796
1.55116
-1.06469
-7.49053
-1.2705
0.70747
-7.04373
-0.00535957
-4.7558
2.20667
0.000474465
-0.0330429
-10.1267
2.60706
0.00191042
0.421297
2.63679
1.55448
-6.63119
-0.157769
1.05472
0.309923
1.39615
0.0197712
-4.10037
0.799018
1.43165
0.664405
1.27285
2.67883
0.0161507
-8.16165
1.68657
0.351028
-0.161135
0.942805
1.35522
0.913576
-6.30288
0.108126
-0.179294
0.242256
2.22322
0.683591
0.19696
0.0647415
-0.436823
-0.354967
1.8013
-1.2973
1.35422
1.47782
2.3693
0.345808
-0.733142
2.79084
0.0136234
-6.22034
1.68781
-2.2583
1.93267
0.0115392
1.67327
-1.08418
-3.29016
-3.86367
0.00108784
-4.72997
1.06409
2.8776
-0.91948
-3.72117
-0.42793
1.84122
0.202824
0.908684
-9.76588
2.87784
-6.39217
0.815219
-1.09241
1.13473
1.74571
0.914363
-2.43773
-1.70986
2.61702
1.74367
0.36205
1.39691
-0.437913
1.15006
1.11636
1.13088
-3.1689
-0.424784
2.10364
0.174942
-0.241962
1.15041
-6.03881
-0.887938
-0.177508
1.76165
1.8529
-6.19537
0.118371
-6.51615
-1.90164
0.175827
-0.834448
0.406407
1.66834
0.190866
-1.01718
1.81301
-0.438018
-2.67314
-0.0491829
-0.587159
-6.02328
-3.52459
-0.175889
-11.8523
1.38179
2.5595
-0.0427273
-2.50614
2.64401
2.47098
-2.67144
-3.49293
1.55179
-4.59513
0.00352795
0.184599
0.283913
0.642887
-4.6989
0.938682
1.26244
-0.503846
-0.957561
-2.96213
-0.0366408
1.26757
0.999642
0.991115
-7.01276
1.60755
2.41146
-4.41878
-11.4611
1.71154
0.168583
1.04315
-0.198118
-1.35161
-7.18512
0.00650332
1.7294
2.81783
1.77739
0.190356
0.0358799
1.69595
2.35717
0.00993743
1.62066
1.63785
2.55407
0.189014
-0.174674
0.417665
-0.646614
2.5239
0.134797
0.242601
1.05049
-0.427113
0.410604
0.0266631
-1.47859
1.66685
1.46664
1.2889
0.975294
-2.3925
-0.268118
-0.768194
0.657348
-1.35411
-0.365156
0.0120535
-13.276
-8.92516
1.03997
-1.33545
-3.19165
-2.64675
-1.30587
0.972502
-5.70679
-10.3461
1.84308
-3.23658
2.52288
-4.74862
-3.2397
1.82622
2.24678
-0.103002
0.315156
-0.0897461
1.78501
0.634934
-2.41736
-0.282548
-0.0762537
-0.797929
1.68208
-0.0195462
1.13226
-0.184112
1.50565
-4.83822
0.0196826
-0.0245569
1.93207
-1.44897
-6.95294
-8.07349
2.50382
0.232558
-8.40181
-6.13154
1.63845
-8.13463
-0.195801
0.388448
0.591384
0.105185
0.939581
-4.68328
1.55195
1.69608
1.80625
0.927001
-0.114409
-1.0457
1.3894
-0.206543
1.8597
1.34459
-0.297593
-0.214958
-0.493111
0.0699759
-0.0653849
1.91066
0.839462
0.405376
1.69758
0.28806
1.17423
2.9164
0.026613
-1.80636
1.27693
0.0830204
-0.177877
-0.531447
-2.44775
1.62488
0.0159977
0.0151869
0.0219459
0.348321
2.00708
-6.61413
0.00337838
1.70267
0.091189
2.4252
1.94179
2.13835
0.419022
1.25924
0.511798
-0.0290836
1.00323
1.53719
-1.30341
-0.76113
-2.67378
-1.61257
-9.86456
1.60398
-3.46878
-3.11087
-12.8154
-1.14816
-0.0324324
1.72975
-0.00618914
0.419335
-3.35864
1.72929
2.85764
0.111267
-7.59385
1.10742
-0.312342
1.56954
-1.00221
-0.187018
1.89342
-0.262044
2.68714
1.0464
1.69027
-1.28713
2.11473
-0.00142652
1.95552
-0.0338711
-2.55784
-0.110496
-9.04159
1.02412
0.0482002
-0.910736
2.52618
1.72594
1.87732
2.28692
1.90389
1.93035
-0.752505
1.57888
1.74193
1.72757
-0.667927
-0.356048
-1.22118
-0.916617
0.459308
1.71104
-3.28567
2.61781
-1.02965
0.0174951
2.80402
2.34869
-0.750239
-6.55205
1.58186
1.041
-0.480462
1.39782
-3.18783
-0.432935
1.68884
2.21991
-0.190239
1.67665
2.09614
0.00239933
-0.658195
2.13439
0.690171
-0.0671791
-5.4261
0.0366728
-1.43754
1.64559
1.41393
-0.166237
-0.659131
-1.74065
0.455319
-0.153667
0.400772
2.44772
-0.211355
3.11727
1.61805
0.549574
1.83075
-6.77588
-3.63149
-7.67544
1.6244
-0.195414
-3.07979
-1.55393
0.983621
1.16212
-0.175879
0.905771
-4.3186
0.639747
0.230674
-0.187559
1.21427
0.517725
2.06842
1.73401
1.82971
1.49754
-0.760462
-2.04804
-1.41263
0.0847588
-3.6243
0.171093
1.18715
-2.55046
-0.108501
-0.203011
0.420601
-10.2693
1.07546
1.00714
-0.202472
-1.86022
0.714458
-1.0337
-2.38459
0.285897
0.0428902
1.67398
1.35669
2.0102
-3.16905
1.58528
0.0202828
2.27969
0.183613
1.04084
0.324351
-0.0266401
2.65317
2.84079
1.29443
0.582579
1.2787
1.35232
2.67722
0.901015
-2.09927
-9.70852
0.352884
-0.909784
-2.48153
1.71873
1.5481
0.0990758
-0.00725188
1.15315
1.42479
2.9322
-3.76371
1.43525
-4.69427
0.0987698
2.40479
-0.509713
1.20468
-1.83294
0.884004
0.621487
3.06681
-0.0684698
-1.25851
1.00065
0.301047
-6.70471
-3.21064
0.349378
1.90813
-0.158872
0.60385
2.47265
2.29261
-0.342502
-2.31954
-0.108176
0.511954
1.80113
1.50143
2.21273
0.939901
-6.20798
2.33684
1.30921
-2.20361
1.05711
1.77933
1.96771
-7.49891
-1.39908
0.00108221
1.5163
2.59403
0.818698
0.417751
-1.46155
2.94825
-4.8035
-1.68847
2.71885
1.55086
0.163953
1.18084
-3.52615
0.706997
-1.49122
-4.98839
-0.176611
-8.46544
0.225475
-1.01423
-4.6903
-4.7282
-2.52111
-0.216808
-4.51912
-6.9858
1.57163
1.63429
0.530949
-4.34281
0.45009
0.481522
-0.774498
3.1025
0.849768
-1.2371
1.55093
-1.26881
-8.9068
1.12798
1.10834
1.54685
3.15012
0.00398173
-0.495455
-4.22062
0.104074
0.900245
1.42829
-0.426377
2.36179
1.35212
1.78706
-2.49771
-0.275686
-0.0023326
1.55917
1.69817
1.60704
1.71822
2.90968
2.79884
-1.29014
1.55789
2.11298
-1.196
2.19709
-0.180142
2.7634
2.17314
0.22623
1.93185
1.0025
1.04971
-0.0926249
1.78226
-1.94153
1.32979
0.360224
0.840594
-0.090364
1.57336
-0.146641
0.456937
2.6603
2.65134
0.914169
-3.17036
0.405626
-0.475098
-0.450093
1.49824
2.35562
-3.15586
1.73352
1.43946
0.743876
1.55325
-9.46842
-1.8069
-0.18375
2.98407
0.347026
-0.112505
1.99717
-0.10008
-0.0270826
0.998511
0.35358
1.39696
0.26862
-1.28475
0.919631
1.11236
0.843187
1.01204
2.84677
2.32685
1.93433
2.12133
2.59363
0.606508
-0.194037
0.206945
-1.21102
2.64
-2.56922
1.56533
1.33072
-7.13531
0.659731
1.79671
-6.19805
0.759641
1.25846
3.1847
-4.96438
0.68495
0.14928
1.74179
0.00152876
-4.00697
2.58791
2.14812
1.46032
1.61623
-1.47812
0.423608
-4.79849
2.79311
-0.0200435
3.04519
-0.83228
0.406696
-3.95334
0.549005
-3.47543
0.40639
-0.241819
0.766321
0.000703541
0.740789
-4.69111
0.000689185
-1.43914
-3.16586
-1.24533
-2.50459
0.0117977
-0.347114
-2.18688
-7.80979
1.5165
1.55496
2.24389
1.69569
0.614325
0.611492
3.36606
1.52407
-4.83427
-0.000132706
0.0261554
1.40809
1.34613
2.3674
-1.44826
-1.48557
1.1062
0.00161073
0.42666
2.14076
-3.19693
-7.11211
-4.90332
2.82708
-4.60722
1.06166
2.06396
-0.93728
1.13227
-0.130487
-5.15651
-5.1052
-1.39193
1.26609
1.84452
2.02828
-2.55801
-3.21521
0.802518
-4.3895
-1.55119
-0.770419
0.416199
-1.59013
-0.0712093
-5.19568
-5.00937
-3.43698
2.47774
-2.52394
2.76241
-7.04464
-0.500975
0.556376
0.201415
2.26327
1.42778
2.05934
0.0460365
-1.46748
-5.36202
2.1542
-3.13875
1.34344
-0.176959
2.12484
2.28284
-0.175171
1.62523
2.62713
1.68372
1.75039
-2.38431
-0.690364
0.627309
-2.13119
-0.229487
0.755325
0.904008
0.0111641
-5.75087
0.400364
-1.02339
1.22482
0.970967
-1.3104
2.75415
0.0813728
0.000352162
0.273649
1.68605
-3.1033
0.00360174
1.67552
-0.584167
-0.038623
-0.219753
1.57532
1.69007
1.62986
-0.0904573
1.64876
1.9413
1.75871
-1.21304
0.0162027
0.595565
1.29474
-1.42786
-4.49077
-7.83724
-1.8326
-3.49626
0.0360951
-0.229462
0.00882377
-3.20871
-1.0997
-10.8029
-1.22269
-1.77894
0.8005
-5.76081
1.79406
3.3779
0.782537
-1.32057
0.937751
0.408147
0.405262
0.0193556
-1.47111
-12.6113
0.14239
2.0993
0.00346615
2.5725
0.0252272
1.62657
1.15379
0.663369
-4.28554
0.635687
2.92939
-2.25479
1.71604
1.65882
2.35589
0.148463
2.13916
1.60675
-3.80011
1.73827
-4.91543
-4.72579
2.18718
1.55226
-2.33928
0.363744
2.14025
-0.355644
-6.80712
0.0113799
0.0208766
1.44682
1.05431
1.75992
1.35522
1.31519
-2.72009
-1.28547
-1.17254
1.73154
3.0353
-1.65817
-4.32898
-4.22344
1.46708
0.0976175
0.110047
0.365289
0.291642
1.10809
-0.997677
0.399493
2.66749
0.912778
0.28671
-1.85974
-5.54669
-2.53272
-4.77927
-3.28423
-7.44795
2.04176
1.05134
-1.53533
2.72965
-0.000175354
-5.63265
-1.38944
-4.7576
1.66136
-3.16265
0.736121
1.50865
-0.0646789
-1.22333
-0.364937
-4.80229
-3.81612
1.8789
-10.2704
-0.156987
-4.84288
1.66027
1.75041
-4.80152
2.05402
1.851
2.4528
2.57066
1.70692
0.30909
2.99191
-4.91993
1.4369
-0.039749
-11.0687
2.08505
-6.88392
2.56741
0.960437
-1.61218
-4.50965
-3.93802
1.83474
-7.99177
-2.51333
0.0390493
-0.765446
0.28667
1.18148
0.46753
1.0107
2.82454
-3.24689
-3.39489
-0.407645
1.54048
1.41743
-2.73629
3.34223
-0.1849
-0.902682
1.28203
-1.35627
1.65511
1.57218
1.80898
1.77063
0.315968
0.692304
1.48826
0.370128
-1.05379
-0.00945588
1.63932
1.82071
2.18411
-1.58368
-5.36346e-05
0.506316
1.16058
0.389111
-8.62182
1.49634
-2.14474
1.53786
1.75859
-4.73623
2.54725
-5.75201
2.88243
1.75912
-11.382
0.00405444
-0.0908634
0.947888
1.81251
-12.0898
2.16321
1.66445
0.527756
0.0214421
0.338933
-0.0815193
0.518032
-4.8339
0.755404
-3.40836
1.67346
-4.60153
-0.602721
-1.13914
2.07018
2.2751
1.10042
-4.62163
0.986608
-0.348431
0.0498432
1.08739
-0.977386
-1.38366
2.75288
-0.549551
-0.0230662
-1.87847
-4.84747
-0.808741
1.75276
-4.79224
-0.844876
1.80948
0.877024
1.77536
-6.41029
0.70135
2.82326
-2.70959
1.71326
0.501497
-0.923576
0.750623
0.383094
-0.634791
2.86851
1.78577
0.0903538
2.82571
2.0695
2.0762
-4.48846
-4.57655
0.761113
-1.74364
-0.716848
-3.17381
-1.44474
-2.99324
1.15733
0.605727
0.75866
0.909442
-0.949718
0.991891
1.76052
-5.19933
1.55005
1.18791
1.70092
-0.348332
-0.0342664
-4.88963
-4.8582
-6.08607
-0.97916
1.74757
-11.2851
2.46001
-6.91649
1.66155
0.728686
-0.219923
-0.0717745
1.62985
0.966251
0.569183
1.34628
0.471924
0.277447
2.30688
2.08429
-2.98208
-4.64069
-0.491603
1.5727
0.227773
0.377936
-2.51375
0.182072
-0.433974
-0.128461
1.32583
1.15411
0.398192
0.9618
0.179789
-0.142531
-12.8391
2.11125
-5.28303
1.56975
0.0020729
1.52747
1.69396
1.1084
1.40433
-0.36979
-4.7849
-0.250336
-4.19945
-7.34082
-5.0528
0.191094
-0.949305
1.45464
0.0889588
1.67896
-0.757363
0.251966
-2.25418
-0.17518
1.65969
-5.10184
1.51646
0.427391
-11.938
-0.777709
-5.60929
1.08506
1.79435
-0.145226
0.339016
-3.65271
1.79555
-0.123207
0.490466
-6.84499
2.03786
0.757689
-0.00901135
1.75411
1.58752
1.92578
0.650029
2.14608
-2.83355
-1.42144
-0.543139
1.39803
1.2098
0.449484
-0.30634
-6.54086
-9.25251
0.71568
-0.0322093
-10.896
2.68701
-2.59406
1.86453
1.07554
-2.73574
-0.207179
-0.305957
-0.263199
0.380881
0.290251
1.64246
-0.263773
1.69835
-2.33986
0.293061
-1.36999
0.352808
-7.11495
1.93046
2.82077
1.80299
0.615099
-0.114009
1.29221
-4.83862
-0.224318
-0.103151
-0.430412
-3.65868
-11.4074
-7.96135
-1.47765
1.32987
1.43837
-2.90375
0.425104
1.89244
-1.09036
-2.14171
1.83522
-0.203323
-6.9025
0.0219994
-0.216871
0.00404729
2.71903
-0.110133
1.41474
-1.36217
-0.890865
-1.05255
1.48722
0.377742
1.18273
-0.938507
-1.50706
-0.177881
0.114736
1.95326
1.34267
0.492671
-0.391841
-1.0138
2.91864
-1.55385
1.78193
1.92729
0.240972
-0.248807
0.713251
-4.31653
-0.488501
1.55167
1.15026
1.50457
-8.5502
1.85276
0.39474
2.39177
0.160283
1.57362
2.08114
1.49506
0.377057
-6.49991
0.721774
-4.71279
1.19578
0.942816
1.92174
0.318084
2.44541
0.322039
2.61546
0.158568
1.9619
-0.0214486
1.12089
-5.06752
1.65117
0.718282
0.907173
2.58705
1.70374
0.44049
-1.22736
0.869318
1.63805
-0.169845
-4.6366
1.11618
-0.186473
2.11374
-4.90771
2.49807
0.606092
3.3995
2.59005
0.954865
0.78038
-5.6267
0.267504
2.72069
0.057516
0.0860716
-0.371483
2.80998
1.02846
1.27462
2.45375
-0.967923
1.76254
-0.81435
1.84849
-0.0385287
1.70802
1.61027
2.18161
-0.201439
-3.99577
0.485592
-5.75662
0.685777
-0.229196
-0.0998039
2.22855
2.35282
0.0168686
0.180537
-0.727155
2.03962
1.25664
1.38699
1.17719
-0.382393
-4.22403
-2.74736
1.74832
-2.3293
-0.301723
0.485321
0.980815
0.734552
-1.20249
2.90238
-0.944124
2.4599
0.0764223
2.67806
-1.48121
0.405747
-0.218266
-0.000440276
1.30096
1.68064
0.181061
-0.159548
0.165112
-0.4726
2.30112
-0.251001
0.171692
-1.01606
0.00743613
0.149951
1.89108
0.51111
-1.22523
-0.0258112
1.69282
3.04719
-5.92382
-0.262965
1.45897
-0.0896929
1.01119
-0.177232
0.911115
-0.0549006
-4.41613
0.0191012
-2.21719
-0.464969
0.0637588
-3.30533
-7.50125
0.245943
1.40847
1.70775
1.53479
2.9498
-7.7503
2.79145
-3.72883
2.63842
-12.6291
-1.1542
2.84294
0.873521
-4.22785
1.4865
-0.20765
1.6435
-1.12567
-4.81471
0.311602
-1.50875
-1.9639
0.00011358
-0.452254
0.844227
1.92261
-13.3025
0.910239
-2.30016
0.452549
-0.975978
-0.164675
0.427944
-1.21162
-1.84803
2.30435
-0.0994837
2.48895
0.608524
-5.03249
0.783097
-1.04946
-0.217192
1.51919
2.00916
3.01784
1.38417
1.54639
0.518207
-3.23481
2.92132
3.06241
1.85619
-0.810966
-8.11806
-4.72118
1.40428
0.853356
0.54769
1.5704
-1.8107
-0.134923
-5.32352
2.57327
0.383075
0.368943
-4.42965
1.41328
0.715542
3.29939
3.10741
1.37235
0.483768
0.31413
-3.23913
0.906554
3.17909
-0.0877038
-0.183955
0.99958
0.0046828
0.374538
-0.105787
-0.352911
0.360834
0.315661
0.720114
-0.0266056
0.722441
2.24385
0.0801823
1.69953
-5.07279
-0.475252
2.7384
-4.52635
0.404768
0.0137688
0.910688
0.595946
-5.03424
-0.124791
-1.32066
0.379562
3.33435
-4.20236
-2.96751
-6.59972
-0.633409
-0.212126
0.00208374
-4.37039
-2.97458
-0.00906154
-2.83938
-0.962314
-2.04092
0.585523
-0.122541
0.322304
3.25782
0.377892
0.485624
-0.460181
0.511566
-3.12288
-1.01913
2.32807
1.62373
0.493397
0.0393139
1.4868
1.72906
-0.109503
-10.791
-0.121956
2.32773
-1.24479
1.61882
0.224759
2.48858
0.249223
-5.74015
0.32611
1.80548
-1.27292
1.57223
-0.968654
3.1236
-4.18248
-0.258005
-5.92116
0.993592
-5.39184
-1.31125
-4.4831
0.21073
0.37755
-9.58347
-1.25828
-0.324502
0.405002
-2.927
-0.997589
1.24398
-4.70677
1.29105
-4.91032
1.81847
2.89422
1.36249
-3.11856
1.50696
0.152763
0.4079
-0.365272
-0.541771
-4.76801
-0.0563383
-1.33633
0.353177
0.202849
-0.612746
-0.784406
-5.13983
0.791704
1.72527
-1.06474
-5.44186
-0.351359
-0.0347772
-0.0241872
0.834288
-2.28025
-5.79556
1.79497
-0.891604
0.624649
-1.97368
-5.44198
-5.74694
-8.01112
3.28901
0.490314
-1.62003
0.781778
2.76024
2.74485
-6.52853
-0.837177
1.68665
-0.130609
-0.0389564
2.81976
0.844334
1.23624
3.33476
-0.193898
0.0854103
0.442219
2.48164
1.7482
1.54334
2.18329
1.30984
0.0108201
-0.00818544
0.950328
0.419263
-4.66626
2.83735
-0.301866
-0.512783
-0.0227309
-2.58509
0.703818
-4.54999
-0.941488
0.437885
1.5898
1.83151
1.74535
-4.81978
2.48197
2.75907
-3.10896
0.953272
-0.273122
-0.0648229
0.394513
1.14257
-0.919518
-1.09739
-0.527551
3.05706
-4.90548
1.79525
1.63519
2.07282
1.01944
1.20043
-0.07007
0.0123669
0.661023
-0.235522
-4.59506
-2.19446
-0.026534
-3.70486
1.97508
-9.13958
-0.153411
0.565828
-3.14032
-5.25438
-4.88669
1.39419
-0.810479
-0.0564378
0.949006
-7.33188
0.548405
-2.86792
-0.273001
1.77086
-5.23436
2.86681
-0.0228249
3.05442
0.00235553
-0.0864598
0.228298
1.5465
1.26641
-2.9635
-0.397806
-0.0463433
0.205678
0.987182
3.34608
2.08051
0.398595
-1.1737
0.696129
0.24958
1.74728
-0.0848648
1.15304
-3.00901
-4.31827
-3.10722
0.208991
0.0119658
-3.17146
1.2319
0.960924
2.70525
2.96496
-4.76968
-4.77401
0.195372
-1.25133
2.81431
-0.245224
-0.290977
0.901933
1.33229
-3.06291
-0.174206
0.242847
-0.203658
1.31089
-2.16075
0.108921
0.108546
-0.979465
-2.60408
-0.192448
-2.63989
-2.38794
1.6993
-7.3681
-5.20421
-0.988498
0.345426
3.10827
0.964631
1.6252
-1.31413
0.742768
0.081958
0.525151
0.69467
-4.40576
-4.59083
2.80245
1.74282
0.171984
-3.56357
3.2254
-5.41987
-4.534
-2.71214
0.597965
-5.70601
-2.94365
2.4576
0.0888084
1.37511
0.850141
-3.29088
0.324052
-0.0219941
0.770389
-2.85318
0.208786
0.736805
1.52868
-5.85817
-4.2992
-0.267628
-1.39173
-1.44995
-1.37732
3.05385
1.24385
-11.1211
0.541074
0.604416
2.63566
0.758371
-4.48969
0.746753
2.11224
1.63521
-1.57183
1.57125
-0.163124
2.77677
0.0104546
1.76878
-5.93414
-1.42769
-0.0336699
-3.66797
0.700339
0.758711
-4.42625
-6.25857
1.85734
-0.303536
0.0168226
2.28584
1.42485
2.22553
1.62011
-1.56181
0.0150213
0.242
1.50297
0.00123266
1.93944
1.04781
2.7689
-3.9376
2.16638
0.492307
2.8568
-3.13159
-0.890555
2.8818
-4.19759
1.00613
-4.89095
2.41353
2.79892
1.79386
-2.03074
1.69655
2.06467
-2.66922
0.954559
-5.40059
2.21435
-4.56115
-1.35198
-4.73948
-4.72309
2.02766
0.492746
-4.66401
0.765739
2.78503
-0.434125
0.0250812
-4.75662
-1.24366
1.16071
-0.514856
1.64455
1.43762
-4.42704
3.13132
-0.249984
2.4086
2.24785
-0.274111
-0.0264999
1.29847
-2.12247
-0.732733
1.25867
1.059
-0.344261
1.43839
-2.60841
2.57678
1.85752
0.578227
-0.549621
1.67866
-1.45466
1.20741
2.08352
0.363096
-0.0131492
2.02892
1.64503
-1.1354
-3.20823
1.02393
1.73018
2.77639
-3.7704
2.94514
2.99379
3.00332
-0.283294
1.98982
-6.47293
1.69167
2.11236
2.17097
1.71607
2.3538
3.29159
1.5522
-4.06638
-0.331809
-4.6274
3.26594
0.801389
-0.296242
-5.2005
1.6941
2.50156
1.48205
0.527378
-0.370625
2.43868
-2.88476
1.6232
-5.52495
0.93494
-0.146051
0.110694
0.973357
-6.6474
-7.2279
-0.883951
-1.30475
-0.0176946
1.95134
-0.0786795
0.228722
1.43426
-4.70739
0.736394
-0.0366743
-4.51583
-5.51886
-4.32376
2.25526
2.49758
-5.01357
0.988614
2.10978
2.09335
0.017634
-12.3134
1.69664
-4.47273
2.26376
-4.30522
2.20426
1.23424
0.438725
2.08643
1.02021
2.09952
0.558535
0.955878
-1.25845
-3.14248
-5.05909
-0.192579
2.0601
-10.9768
-4.11665
-9.38529
2.47619
2.05765
0.827886
1.05526
2.39
-2.33108
1.45539
-0.00651772
-1.25664
1.45508
-5.87039
-4.86596
-1.27689
-4.91171
-0.923651
-11.9024
-0.0286104
-4.7533
-3.26189
1.21962
2.84084
3.10028
2.68077
-12.3261
1.64332
-6.18739
1.4274
2.43709
0.47064
2.02311
-7.99829
0.559234
-1.33113
0.0627022
2.2102
-0.754834
1.75451
-4.79563
-0.204121
-4.97556
1.90076
1.743
1.70046
-5.05166
1.45261
-1.02802
-4.77845
-4.81541
0.519056
2.82802
-2.78976
-1.23742
-5.91767
1.54293
1.65115
-0.239557
1.18934
-4.91596
2.42802
2.33431
-3.51918
-0.138877
2.31471
-6.02214
-8.64912
0.196891
2.14602
2.38896
-5.95159
0.925541
0.0784148
2.79645
-4.34597
-5.29256
0.0314897
2.58682
0.174641
-1.27471
-0.46644
2.16552
1.42747
2.17362
-0.021222
-2.53363
1.72466
3.22779
-3.1777
1.27602
0.128904
-3.97784
0.164128
0.580461
-5.75599
0.887996
-2.72018
1.23338
-1.79818
-2.17252
1.98587
2.37912
1.4468
-1.98606
-4.54165
1.76942
-4.84301
0.35071
-1.15429
0.735991
-4.56919
1.89534
1.77977
0.124199
1.64027
2.71806
-1.13123
1.12245
1.86646
-4.8673
1.19489
-0.526218
0.715072
0.262014
1.43186
0.00296722
0.548325
-0.677506
-2.29071
2.2143
0.337198
0.415479
-6.7449
-0.681391
1.7302
-5.01309
2.98779
-4.96309
-4.93242
-0.801678
2.11505
1.74182
2.10114
-4.45136
2.60322
-8.51236
1.06353
0.188922
-3.61724
1.6199
0.694633
-0.76994
0.954572
-4.55537
1.45339
-4.78547
-6.65807
0.00873283
-3.9503
-4.00147
1.28906
2.69503
-0.024568
-6.48574
2.03276
-2.7481
2.41732
0.408104
0.231677
1.19511
1.72242
0.771877
-0.910202
-0.158981
0.13587
0.646253
0.832736
-4.07578
-6.21459
-0.0533199
0.675513
0.182393
3.29077
1.64123
1.68141
2.4323
0.505991
1.87455
-6.60647
-3.90594
-8.74739
1.70488
3.21112
1.43879
-0.977205
2.22726
1.35609
1.39192
-0.0797013
0.138539
0.813958
2.99965
-0.341872
-2.08933
2.38297
2.27097
1.57288
1.55012
1.94594
1.07348
-1.40819
-11.4457
1.70493
-3.47701
-3.10894
1.60302
-10.1353
-0.589218
0.175006
1.63455
1.70581
1.75886
0.138287
2.10276
2.15488
0.40136
1.85144
1.60245
1.63161
1.46555
0.845722
0.749079
-0.249526
2.08801
1.82956
0.308882
1.31565
0.111872
-0.155412
2.67595
1.92263
0.0074772
-7.53905
0.350867
1.98461
0.957333
0.676892
-0.152296
0.212203
-3.50204
0.33166
-6.50552
-0.148186
0.957113
-0.775969
-5.32417
-5.0398
2.48741
-5.63754
-4.06839
-7.6405
2.72323
-1.39859
0.447764
0.575615
-4.69898
1.50132
1.62525
0.799903
2.32563
1.22307
0.201531
-4.53648
-7.66185
0.0134169
1.99924
0.363574
-5.9447
-4.1602
-2.06899
-4.34124
-7.21594
-2.81685
-0.614258
0.809407
1.68066
2.03285
-1.54499
-0.0323789
2.34303
1.79351
-5.96526
0.131627
-4.59748
0.838521
0.20301
0.840215
1.50723
-0.172184
-1.71318
-2.52833
0.676327
-9.78573
-4.48362
0.0636075
-11.4532
-4.84814
-4.72121
-8.15188
0.0687311
-4.45275
0.755752
-5.55678
1.69516
1.55833
0.379658
2.14341
-11.7466
2.69518
-1.89201
0.271814
-1.16092
1.5556
0.919125
-3.18842
-4.20649
1.74416
2.06304
2.80708
-7.33429
-4.69635
-12.803
-0.547464
0.0058774
-4.90454
0.266874
-4.77213
0.895528
-6.19395
1.01229
-0.204634
-0.311395
2.47334
1.33211
-0.648096
-0.0850651
-1.80916
-4.07335
2.2424
3.09536
-3.97148
1.89101
1.4649
0.00128659
-1.02746
2.0865
2.05133
-2.8503
-1.05967
-9.35282
-12.8498
-1.03403
-4.80853
-0.823609
1.29694
0.0538952
1.88223
-5.59267
-4.69358
1.63147
-0.895871
-4.71894
0.312184
1.46097
-4.72004
-0.508426
-4.53989
-4.98983
-4.75333
2.85027
-4.14882
-0.0869728
-6.80722
1.75554
-4.9667
-0.148207
-2.87058
-7.65839
-1.26357
1.76604
-0.000854427
-4.8648
1.3377
0.0155278
-3.55517
-3.95243
-5.14607
0.952897
1.18516
1.68962
-3.74335
2.39093
-2.63716
0.00333367
-0.274851
-2.18826
-11.7096
-4.93495
-5.96786
0.438501
0.881447
-0.0663888
-0.100446
-1.92943
1.39671
-9.6635
1.78561
-5.7488
1.19533
-0.923499
-0.917929
0.252284
3.26563
-1.01534
-4.7645
-3.08487
-2.23112
1.7041
-0.138291
0.277855
-0.108402
-3.65581
-7.27555
-3.26768
-4.80532
1.64188
-4.80971
0.40587
-4.19059
0.0779253
1.34372
-0.326989
0.475068
-0.593494
2.05763
-4.88018
-5.00365
2.22443
0.586581
-4.93249
-0.130692
-4.84655
-1.91008
-0.283378
2.03522
-7.06496
0.927021
-4.54371
-4.62945
-5.79049
-4.95288
-4.45993
0.687527
-0.977532
1.6493
0.866123
-8.36664
-0.0283555
-12.3553
2.07876
2.3678
-4.74276
0.407138
1.7181
1.6896
1.06428
-5.87136
-4.81984
-4.12798
1.70822
0.673768
-2.49085
-4.52678
0.710575
2.03399
-0.0363164
0.287715
0.293409
2.20257
-1.58718
-1.6977
-0.146057
1.52137
0.461178
0.21598
2.40911
2.05812
-0.0948927
-10.1647
1.99958
1.01519
0.114489
1.31751
-1.64036
-5.43329
-4.29017
-8.65678
2.05878
1.59825
-0.422054
-1.20326
0.1565
-0.455807
1.67318
-11.6693
0.993088
2.07685
2.24451
-3.09936
1.63084
1.26867
1.6739
1.79997
0.0706749
1.81793
0.000293193
1.71188
1.1572
1.78839
-6.80185
2.05314
1.91311
1.57463
1.27807
-4.85351
0.972474
-1.41427
-1.69466
2.1296
2.33583
-12.2349
2.08155
-7.33194
-3.31429
1.67729
1.74621
-2.83588
0.0264624
-4.74593
-11.4789
-0.827093
-5.44453
-3.1139
-0.158275
1.38565
3.03298
1.95737
-1.89978
-3.26988
1.61439
1.04191
-1.52007
-6.00499
-4.64583
-1.61655
-3.36917
-3.12434
1.64687
0.119489
1.00081
0.0112341
0.0119416
0.13611
0.0120921
0.44288
0.616947
1.37357
-1.77219
0.441195
-2.095
-10.6501
1.03834
1.08269
-0.328291
-0.159793
1.29822
-0.197125
0.874794
-1.47383
1.65455
1.27213
2.57702
1.68851
-6.42092
-0.197965
-1.23594
-4.10557
-0.141953
-0.153289
-0.5592
-11.6773
3.08967
0.0210438
-0.065706
2.36701
-5.97108
-0.640956
-1.01456
-7.04518
-4.50592
0.125391
-1.37735
1.43478
-0.834416
-6.10527
0.286319
-4.49068
-1.37116
-1.36604
0.0806299
1.42333
-4.42418
-5.56887
-1.49735
0.611563
-2.12666
1.75918
2.4345
-4.15295
1.79448
0.77248
1.33481
2.74287
-6.22094
1.18411
0.809741
0.939263
2.27781
-0.0786748
-0.54406
-1.17294
1.70992
2.43186
-7.43542
-0.035732
-3.02108
-2.13854
1.04181
-5.29232
-2.40992
-5.37427
0.88182
-4.31117
0.385827
0.519218
1.55428
0.315479
-3.93983
0.0784487
-0.183824
-0.500584
2.61739
2.97225
2.11945
3.186
1.61621
1.16986
1.70984
1.42609
1.70035
-3.51791
1.60037
-0.205499
-3.33437
2.40842
-0.699682
-1.85302
2.87193
0.242791
-10.6872
1.06013
0.940715
2.03051
-2.59488
1.6242
2.70808
-6.00163
-3.34615
-2.01259
1.07281
-5.6971
2.01112
-0.0225173
2.05704
1.68952
-5.70179
1.85356
-0.9489
-4.43561
-4.21998
-10.6666
1.86408
-2.37109
1.75508
-0.224791
-4.84865
0.0371835
0.0104333
-0.990726
-5.98021
-4.55589
1.92186
0.531911
-4.75371
-0.378796
1.27082
0.444021
-12.8957
1.01484
-0.142443
1.01011
-4.80684
1.19436
0.646178
0.704715
-0.391459
1.47696
0.93751
0.715009
-4.96323
3.1505
-1.30075
-4.72405
1.47961
1.27236
-4.77497
-1.81971
-6.44323
0.803082
0.710634
-2.03348
0.00703093
-0.208275
3.16587
0.135613
-6.43418
0.0185546
-1.27813
0.907705
-0.8238
1.41833
1.26667
-5.35403
0.981017
-4.5535
1.05232
0.64052
1.52735
1.3227