/*--------------------------------*- C++ -*----------------------------------*\
| =========                 |                                                 |
| \\      /  F ield         | OpenFOAM: The Open Source CFD Toolbox           |
|  \\    /   O peration     | Version:  2306                                  |
|   \\  /    A nd           | Website:  www.openfoam.com                      |
|    \\/     M anipulation  |                                                 |
\*---------------------------------------------------------------------------*/
FoamFile
{
    version     2.0;
    format      ascii;
    arch        "LSB;label=32;scalar=64";
    class       volScalarField;
    location    "7.2";
    object      p;
}
// * * * * * * * * * * * * * * * * * * * * * * * * * * * * * * * * * * * * * //

dimensions      [0 2 -2 0 0 0 0];

internalField   nonuniform List<scalar> 
13486
(
2.47631
2.08355
0.0199375
-2.72588
0.610194
-0.103058
0.181103
1.24275
1.5952
1.09728
-6.96322
0.435117
2.5931
-0.0207332
0.509786
1.18884
-4.85927
0.285342
0.57986
2.25317
-1.90284
2.55976
2.04679
-3.78948
1.03683
-3.4421
-4.98484
-1.31265
0.000767346
-1.37144
-1.26305
0.474053
-2.30364
-0.93425
1.24762
0.00774585
-0.0682664
1.94696
-0.201086
1.62356
-0.165873
2.69577
0.027275
1.02519
0.99062
0.413731
-4.42266
0.00256162
-0.0644355
-1.03017
1.54437
-0.232171
0.356876
1.98573
0.18902
0.683601
-0.0305441
-0.231755
-2.19858
-0.14239
-8.52956
-0.11619
-2.8794
-1.74754
-4.52859
-0.0733893
-3.25388
2.52244
1.58088
-0.0884937
-3.29411
0.222703
1.6593
-3.70136
-0.0764885
-0.0253775
-0.065698
0.485082
-4.34463
-0.276371
0.00375834
2.12055
-2.9226
0.0486857
2.48405
1.13799
-0.0324623
1.47428
1.7435
1.20878
0.413356
1.04557
2.35648
2.17976
1.64443
0.00125035
-5.01533
-4.24268
1.59604
-4.85408
0.0256368
0.0684401
-4.29562
-0.226991
1.31663
-4.85653
1.71951
-0.204572
-4.52264
0.89164
1.48589
0.370905
1.98479
0.0223804
2.94045
1.57278
1.04455
-0.869449
1.67434
-0.0469945
0.283979
-8.17478
1.73549
-0.206038
1.48741
-0.218571
1.09868
0.546469
-0.776032
-2.91741
-0.21444
-4.26815
-4.38853
-3.29839
1.60843
1.49088
2.99791
0.942997
-0.0433759
1.30019
-1.75811
0.350974
0.493881
-0.291021
0.0188154
-3.67266
0.043246
1.93809
-1.11996
0.000379028
1.09638
0.40974
0.00506706
2.1624
0.642407
0.0105112
0.668097
-0.360989
1.73779
-1.31782
-0.714705
1.73898
0.400557
2.68642
-0.236439
-0.293788
0.206166
3.37535
0.0308735
-3.30714
-4.48631
0.654943
1.2771
0.822527
0.000653444
-9.7846
-0.170391
-1.96771
1.71862
0.503057
1.49971
0.0241723
0.678777
-6.23648
0.0893881
-1.28598
0.000696547
-1.20774
-0.0749414
1.66843
-0.0540116
0.00219941
-0.263221
2.27798
-0.301763
-6.69327
-3.29782
-0.771536
2.17137
-0.214871
-1.35184
0.523081
1.95167
0.37307
-1.40078
-0.313313
0.19443
1.81513
-0.250522
0.0918383
-1.26032
-3.18476
2.22638
1.72091
-0.0982296
-0.738286
-1.40255
1.23247
2.21928
-1.93091
-4.86247
-1.14055
1.34283
-0.780899
0.272232
2.37797
-0.382298
-4.15324
-0.54532
-0.0541092
1.4818
-0.778094
-1.84089
2.75308
-3.44226
2.27267
-1.04385
0.0032952
2.29839
0.720187
-2.39764
1.25557
0.0272936
2.15133
-0.181832
1.94816
0.754995
-2.24158
-3.35075
1.12601
-6.80078
2.97607
1.50732
-0.211477
-0.405951
-10.9845
0.469686
-0.705799
-0.300382
-2.39301
1.91175
-0.179857
0.5105
-10.4913
0.683775
-6.25314
-0.558359
-1.77011
1.5387
0.216627
1.83821
1.6942
-1.44607
0.34974
2.38205
-2.07162
-0.410267
-0.376472
-0.223821
0.0788445
-0.462904
1.3119
1.74058
-5.69226
-7.89663
-4.85504
-1.61622
-0.802194
0.268049
1.55898
-3.2652
-0.231296
1.63828
1.62226
-0.996115
-1.12208
-0.7324
0.321706
1.76559
6.98286e-05
0.396966
0.211889
0.0548918
0.49192
-0.0618458
0.408943
-0.815266
0.789369
-0.0653344
-0.057031
-3.31041
-2.56893
0.0926311
0.385666
-7.75675
1.52118
-0.256633
1.7496
1.82837
-0.657388
-0.067997
-0.183207
1.70908
2.19781
2.96451
0.427415
0.930901
1.28089
0.209038
0.845416
1.4848
0.984485
0.398764
2.38532
0.14342
1.53923
3.02345
0.446969
1.16855
-0.177235
-0.603063
2.18101
0.802469
0.691636
-7.06854
0.00146145
1.03887
2.91318
-1.9724
-0.21838
1.0213
0.257224
0.332899
-5.08429
1.75309
-0.0200079
-3.77501
1.07559
-0.0725064
-2.91321
0.593268
0.388807
1.92457
1.69835
-1.42142
0.00234103
-1.07758
-4.25654
2.27758
1.09185
0.0208893
1.06062
0.249784
-7.3657
0.0130456
1.57447
1.75276
-0.18437
-7.46206
-2.77935
1.51569
0.938052
2.63215
1.92851
-4.3526
-0.441288
0.250636
1.14334
-4.53954
-0.821257
2.18757
-1.51838
0.867589
2.32888
2.52146
-0.0299855
-2.91673
-7.10686
-4.74037
-1.73429
-4.61392
0.705491
1.42824
-0.871609
0.236194
0.107366
2.14845
-1.95277
1.12358
1.98321
1.11375
-0.711008
-1.56379
1.7714
1.73723
2.20733
-6.39961
0.712789
-4.65042
0.741823
1.71995
0.30548
2.92518
1.21475
-0.540212
-1.15984
0.520722
1.74078
-4.97225
0.308912
2.54448
1.43518
0.849787
0.244235
0.499515
-2.29253
2.62756
-0.204695
0.865593
2.48444
-4.96414
-1.44275
-3.24675
-1.61139
-0.111431
1.93009
2.10207
2.56297
-2.92334
-0.0530852
-7.19914
1.1894
1.77866
-1.01367
-0.96811
1.72051
-6.15669
-10.1534
-6.28415
-3.7134
0.207324
2.0712
0.000503586
0.329159
-2.08482
1.68195
0.00277317
3.2091
2.37124
1.64353
1.17724
0.00953774
0.00166885
3.00465
-0.47503
-0.037939
-0.533946
1.55481
-4.83898
0.305593
1.30184
-0.0301389
-0.471001
2.03133
-1.8075
-4.80907
1.21766
-0.883237
3.36402
1.23757
1.55965
1.8469
-9.95772
0.131631
2.78199
0.577565
2.20073
0.0699501
0.617283
-1.98857
-0.279465
0.0239539
-4.8246
1.80858
1.53073
-7.05948
0.000877241
-0.167026
2.53945
1.93286
-0.438248
1.56601
1.13463
-0.422907
0.68146
1.58028
-4.55364
2.59437
-0.0196301
-0.0825272
2.68309
0.947933
-0.00955372
1.04304
-2.40724
-5.74734
0.657384
0.834111
1.76619
2.35989
-5.58636
0.496479
-5.55085
0.000576272
2.26977
0.612651
-6.38062
-4.65496
0.326451
-0.304823
1.20295
-4.33895
-0.91538
1.57165
2.35839
-0.153425
1.89572
-3.45198
-7.65824
-1.2578
0.840315
-7.06749
1.81283
0.107603
-9.12384
1.30563
1.89162
-2.54778
-5.67236
1.56371
2.29355
0.720976
2.50121
0.116942
1.25082
0.544064
1.85361
0.0266696
2.22431
-5.03869
0.680511
1.48028
-0.722668
-1.98138
1.7034
-4.93513
0.335192
2.06808
2.54912
-2.38786
-0.189257
0.657362
0.302171
1.43352
1.37726
0.238306
-5.43564
0.164309
2.43486
0.423608
0.363236
-7.3285
2.56722
-1.11392
0.0243131
1.68877
1.15279
-0.287163
-0.0656377
1.26483
0.164807
0.00888099
0.801638
-1.30926
2.49248
1.533
1.10765
1.14337
0.18378
-1.58355
2.83627
0.654551
2.83672
-3.68232
1.58305
0.00583024
-3.76834
0.785319
1.11788
2.97619
-7.91786
0.886739
0.886364
-2.14148
1.08591
0.273401
-0.315915
1.55305
-5.74913
-1.86252
-2.44451
0.0817125
-0.818462
1.83158
0.00185154
2.73188
1.59401
-1.2478
-7.47023
-1.24762
0.69403
-7.4774
-0.042608
-4.83402
2.25198
0.000801549
-0.0108077
-10.4919
2.63558
0.00222539
0.392515
2.67139
1.56234
-6.78839
-0.156965
1.09489
0.290425
1.46251
0.0279336
-3.44684
0.78658
1.46552
0.649626
1.30605
2.71282
0.02498
-7.56676
1.70353
0.321543
-0.184557
1.00167
1.35634
0.900963
-6.49269
0.108609
-0.179629
0.240676
2.26636
0.669188
0.192461
0.0670962
-0.288255
-0.343131
1.80585
-1.02962
1.42205
1.5167
2.38256
0.305467
-0.787292
2.81905
0.0159827
-6.04968
1.71999
-2.20044
1.94819
0.0181992
1.68643
-0.877763
-3.42221
-3.63644
0.00154574
-4.83201
1.05464
2.90416
-0.861008
-3.82018
-0.459909
1.84616
0.177513
0.897334
-10.2192
2.89857
-6.56796
0.840806
-1.10657
1.12696
1.75563
0.892134
-2.53381
-1.38198
2.65021
1.75821
0.457921
1.43066
-0.295592
1.19993
1.18099
1.12436
-3.2707
-0.409531
2.12454
0.229046
-0.236447
1.22465
-5.79073
-0.829139
-0.169648
1.7903
1.86381
-5.60248
0.115002
-6.63513
-1.5487
0.171545
-0.796178
0.39427
1.68105
0.161704
-1.07396
1.86263
-0.298675
-2.23239
-0.0497922
-0.620522
-5.46229
-3.3005
-0.175118
-11.7848
1.44882
2.59354
-0.0341151
-2.10761
2.67864
2.50658
-2.16548
-3.02364
1.60942
-4.69813
0.0135834
0.160394
0.259545
0.722106
-4.8092
0.927747
1.25997
-0.535958
-0.776655
-2.91493
-0.0618593
1.32132
0.979659
1.02091
-6.45646
1.60232
2.44836
-4.55581
-11.3458
1.76777
0.282892
1.07114
-0.194429
-1.30528
-6.66889
-0.0180742
1.74753
2.84626
1.80873
0.183392
0.00913403
1.71268
2.39235
-0.0398261
1.67642
1.66032
2.57327
0.247378
-0.171839
0.399244
-0.620928
2.54663
0.130959
0.196097
1.08182
-0.410992
0.417477
0.00333904
-1.5171
1.67597
1.4486
1.28768
0.96416
-2.37983
-0.293576
-0.732642
0.734624
-1.411
-0.416146
0.0199459
-13.0685
-9.50626
1.03162
-1.29353
-3.32594
-2.69905
-1.16583
1.05106
-6.05205
-9.76067
1.87015
-2.73055
2.56004
-4.09966
-3.37889
1.88047
2.28849
-0.0778348
0.291576
0.0356948
1.79647
0.722383
-2.48008
-0.275784
-0.0654386
-0.654301
1.69506
-0.00117049
1.12587
-0.18198
1.56195
-4.9403
0.0266004
-0.0214104
1.97267
-1.45774
-7.41843
-7.52973
2.53936
0.204402
-7.75943
-6.55832
1.66146
-7.71931
-0.193524
0.394817
0.64763
0.0897698
1.0001
-4.05042
1.54526
1.70967
1.85299
0.916027
-0.106641
-0.981126
1.38964
-0.246765
1.91308
1.33431
-0.286607
-0.211564
-0.471635
0.0467149
-0.0557857
1.93011
0.827657
0.36907
1.71297
0.255743
1.22293
2.94291
0.00310297
-1.86115
1.27507
0.0699012
-0.170589
-0.506348
-2.03845
1.64891
0.0248858
0.0175037
0.0267783
0.308877
2.05699
-6.73722
0.00344353
1.7185
0.0785436
2.43928
1.96031
2.17763
0.427813
1.24744
0.522263
-0.0188939
1.07483
1.57462
-1.04813
-0.733156
-2.70694
-1.50955
-10.1892
1.63271
-3.55415
-3.07101
-12.5246
-0.926439
-0.028045
1.74314
-0.00398609
0.408476
-3.46463
1.74545
2.88767
0.100062
-8.08023
1.09897
-0.203222
1.5943
-1.2876
-0.186234
1.9374
-0.252023
2.72115
1.08032
1.70624
-1.24786
2.14693
0.0085497
1.97347
-0.0237876
-2.53741
-0.150569
-8.23189
1.05464
0.0350059
-0.70185
2.56068
1.7417
1.88804
2.32344
1.91599
1.97012
-0.716802
1.63254
1.75765
1.74684
-0.641865
-0.386484
-1.22531
-0.978123
0.463191
1.76697
-3.41563
2.61545
-1.08619
0.0254023
2.8307
2.37807
-0.721863
-5.9208
1.61984
1.03118
-0.333202
1.45156
-3.30424
-0.468011
1.70479
2.25868
-0.188335
1.73332
2.12769
0.00220185
-0.680692
2.16111
0.711996
-0.0562692
-5.71797
0.0390616
-1.47388
1.6531
1.39603
-0.146799
-0.478774
-1.66418
0.461242
-0.145674
0.407424
2.46925
-0.203495
3.1421
1.64623
0.561712
1.86047
-6.93023
-3.80523
-7.25387
1.64767
-0.192751
-3.17893
-1.2298
0.974428
1.15288
-0.176872
0.988656
-4.42654
0.701575
0.20427
-0.188692
1.25487
0.528624
2.10903
1.75066
1.83997
1.53668
-0.731646
-2.03731
-1.42397
0.0867881
-3.0179
0.126148
1.22797
-2.08533
-0.100797
-0.17956
0.388398
-10.7477
1.10862
0.992822
-0.276265
-1.77604
0.744966
-1.05509
-2.31798
0.286122
0.030126
1.73034
1.35792
2.05999
-3.27553
1.59456
0.0259527
2.31159
0.147322
1.03251
0.286603
-0.0535451
2.68479
2.85283
1.3271
0.674636
1.27567
1.40759
2.70947
0.969831
-2.09894
-10.1171
0.356379
-0.967781
-2.42509
1.73482
1.5757
0.0843074
0.112257
1.2275
1.45883
2.96056
-3.89
1.4365
-4.82525
0.0444231
2.42587
-0.490144
1.2603
-1.42951
0.848904
0.639641
3.09233
-0.0815846
-1.26006
0.991787
0.301957
-7.01118
-3.33074
0.308872
1.92221
-0.221943
0.691431
2.50765
2.32368
-0.331347
-2.41308
-0.12829
0.490974
1.85602
1.53174
2.25513
0.968148
-6.664
2.37709
1.37362
-2.26293
1.12321
1.78998
2.01639
-7.96391
-1.11747
0.000792519
1.52218
2.63005
0.844365
0.385783
-1.49639
2.97607
-5.02904
-1.70299
2.75225
1.55874
0.155163
1.22736
-3.06581
0.76751
-1.36741
-5.2363
-0.176026
-8.11267
0.20547
-0.949065
-4.80728
-4.82963
-2.58819
-0.129476
-4.66059
-6.84939
1.54592
1.64135
0.62822
-4.43367
0.457701
0.459831
-0.747091
3.12734
0.921085
-1.24996
1.55866
-1.19511
-8.58107
1.20118
1.18381
1.57387
3.17249
0.00335288
-0.476787
-4.04375
0.101143
0.967475
1.49356
-0.460752
2.40307
1.34305
1.80573
-2.04022
-0.268639
0.00942562
1.61401
1.71545
1.66715
1.73161
2.93118
2.83053
-1.21918
1.56591
2.1381
-1.20907
2.24253
-0.172419
2.79551
2.21911
0.205359
1.94822
0.991685
1.11454
-0.0798116
1.7905
-1.93467
1.37122
0.42801
0.922385
-0.113554
1.59697
-0.138891
0.459324
2.69421
2.68609
0.971177
-3.28198
0.413483
-0.325513
-0.433908
1.49668
2.39324
-3.26359
1.75241
1.48966
0.770222
1.60681
-9.59524
-1.41073
-0.163613
2.99972
0.388065
-0.137385
2.00816
-0.122991
-0.00656564
0.989191
0.356784
1.39769
0.377381
-1.24822
0.948147
1.17939
0.915882
1.08041
2.874
2.35563
1.98603
2.10183
2.6297
0.660733
-0.186305
0.190305
-1.27214
2.67222
-2.09748
1.60223
1.38232
-7.25436
0.719484
1.82596
-5.61504
0.786519
1.24819
3.20739
-5.10554
0.707006
0.139677
1.79822
0.0079038
-3.49701
2.62143
2.19237
1.50915
1.63941
-1.3882
0.525755
-4.85402
2.82475
-0.0108958
3.07077
-0.652083
0.372805
-4.1315
0.645281
-3.62856
0.391342
-0.236613
0.753533
-0.0115716
0.726869
-4.18926
0.000965007
-1.17667
-3.2672
-1.24036
-2.56892
-0.00247187
-0.33458
-1.78888
-8.28819
1.57733
1.61444
2.24579
1.71018
0.637429
0.629619
3.38094
1.56057
-4.95847
0.000333882
5.29624e-05
1.40858
1.38672
2.40867
-1.47704
-1.51091
1.18189
0.00140876
0.434815
2.15525
-3.3136
-7.33539
-4.95546
2.85839
-4.17197
1.09427
2.09769
-0.747107
1.18807
-0.122306
-5.40181
-5.28708
-1.40323
1.26274
1.89305
2.0613
-2.6253
-3.32186
0.886997
-4.3633
-1.48216
-0.743149
0.40715
-1.42515
-0.0841194
-4.72706
-5.16883
-3.33332
2.51393
-2.09877
2.78912
-7.37159
-0.46029
0.583507
0.177839
2.30368
1.49333
2.06749
0.0305199
-1.35261
-5.65346
2.20068
-3.238
1.34365
-0.174973
2.13004
2.31884
-0.172633
1.64782
2.6588
1.73393
1.77837
-2.47513
-0.506472
0.652354
-2.0752
-0.226109
0.826395
0.9866
0.0158289
-6.09677
0.406989
-0.726635
1.29398
1.04804
-1.28945
2.78624
0.0796568
0.000657859
0.273775
1.69971
-2.70319
0.00435437
1.72191
-0.62531
-0.0278627
-0.245112
1.63643
1.70411
1.64101
-0.099631
1.65737
1.96052
1.80205
-1.14966
0.0252641
0.576239
1.34003
-1.46094
-4.71797
-7.15217
-1.89371
-3.03773
0.036976
-0.22449
0.0190616
-3.32982
-1.11936
-11.3724
-0.925319
-1.59329
0.787297
-6.0535
1.81209
3.39575
0.7663
-1.09343
0.925549
0.386305
0.412816
0.0207522
-1.4034
-12.1575
0.142431
2.13959
0.00385832
2.60553
0.0257973
1.63749
1.21644
0.689104
-4.46527
0.72919
2.94524
-1.8382
1.72999
1.67148
2.3971
0.148471
2.18314
1.66679
-3.97339
1.79469
-5.05854
-4.82991
2.23269
1.56029
-2.40128
0.332976
2.16583
-0.215477
-6.08343
0.0203462
0.0269453
1.4434
1.04674
1.76815
1.41882
1.35101
-2.82847
-1.27766
-1.10388
1.7381
3.06215
-1.58167
-4.49987
-4.40838
1.5313
0.0988363
0.110879
0.463473
0.266479
1.16297
-0.794242
0.406314
2.66836
0.901706
0.252356
-1.50228
-5.20943
-2.43332
-4.8958
-3.18886
-7.67803
2.05493
1.04359
-1.51254
2.74184
0.0010169
-5.95235
-1.1742
-4.87573
1.70892
-3.26699
0.721981
1.55818
-0.0806923
-1.16323
-0.311644
-4.9272
-3.24988
1.89123
-10.8109
-0.148853
-4.89885
1.67302
1.77709
-4.37173
2.08593
1.89043
2.48935
2.5977
1.75713
0.310828
3.00627
-4.96613
1.49429
0.0554588
-11.1447
2.09846
-6.26058
2.58607
0.950214
-1.66103
-4.67225
-3.95522
1.84855
-7.26763
-2.15994
0.0149991
-0.819411
0.253166
1.17669
0.451001
1.06939
2.85578
-3.374
-3.27325
-0.465747
1.60246
1.41378
-2.56974
3.35996
-0.177579
-0.623461
1.27171
-1.41196
1.66734
1.61932
1.84949
1.8263
0.278182
0.750949
1.52622
0.375896
-0.8488
-0.00729207
1.69345
1.84977
2.22763
-1.2714
0.00713676
0.605076
1.15591
0.372868
-8.4735
1.49903
-1.70754
1.54541
1.77379
-4.8356
2.58367
-5.18842
2.89715
1.80717
-11.8354
0.0041062
-0.0728122
0.925378
1.82553
-12.2546
2.20329
1.67256
0.61838
0.025645
0.344792
-0.115748
0.611747
-4.90712
0.832131
-2.86846
1.68722
-4.83437
-0.445459
-1.0687
2.09065
2.31866
1.08014
-4.84278
0.976858
-0.337764
0.0480382
1.08097
-0.78102
-1.10332
2.7817
-0.590651
-0.0256624
-1.86787
-5.01323
-0.610883
1.76743
-4.87696
-0.809379
1.82176
0.932053
1.79873
-6.30725
0.72473
2.84419
-2.81403
1.71898
0.515206
-0.726313
0.737662
0.389827
-0.698696
2.89162
1.82924
0.07788
2.84065
2.10935
2.09295
-4.47454
-4.80088
0.849311
-1.79957
-0.542501
-3.26904
-1.5
-3.078
1.20499
0.623206
0.827761
0.968249
-0.753465
1.06917
1.76392
-5.53975
1.61201
1.18342
1.71595
-0.337544
-0.0292556
-4.46027
-4.97236
-5.88678
-0.940698
1.75022
-11.5405
2.49883
-7.03669
1.67391
0.813166
-0.195967
0.0226939
1.6627
0.953557
0.553222
1.39359
0.443576
0.248309
2.3495
2.08933
-2.79606
-4.73745
-0.353108
1.57799
0.204277
0.482698
-2.58018
0.161478
-0.41779
-0.156642
1.36592
1.22797
0.36192
0.948718
0.155166
-0.134173
-12.8185
2.12558
-4.93002
1.59339
0.00185781
1.5336
1.72672
1.1017
1.44963
-0.251857
-4.26793
-0.242403
-4.42167
-6.7354
-4.55509
0.169178
-0.726801
1.45593
0.0663037
1.69237
-0.571263
0.23298
-2.32458
-0.167707
1.69186
-5.26162
1.55369
0.434897
-11.4314
-0.602105
-5.262
1.11844
1.80925
-0.136602
0.341688
-3.83091
1.85067
-0.061174
0.503863
-7.09692
2.06908
0.782666
-0.00571642
1.77865
1.63347
1.96409
0.611763
2.15362
-2.94556
-1.30071
-0.453359
1.46448
1.20637
0.45849
-0.177295
-6.32137
-9.44078
0.772095
-0.0211328
-11.1135
2.69221
-2.69257
1.90881
1.11409
-2.32957
-0.198242
-0.453464
-0.257816
0.360968
0.290883
1.6512
-0.248434
1.71471
-2.4122
0.401198
-1.09009
0.373434
-6.92466
1.9822
2.84375
1.82644
0.706434
0.00873771
1.28304
-4.95155
-0.137685
-0.114864
-0.415306
-3.40555
-11.9317
-7.75705
-1.45549
1.37653
1.50202
-3.00316
0.433376
1.91246
-1.0975
-2.19841
1.84974
-0.195435
-7.33944
0.0255049
-0.241185
0.00409612
2.72869
-0.123231
1.47192
-1.41435
-0.92758
-1.05948
1.53195
0.398669
1.23962
-0.990365
-1.5098
-0.26873
0.168521
1.97043
1.38181
0.474553
-0.306289
-0.981661
2.94361
-1.24737
1.82244
1.97906
0.208722
-0.23957
0.736022
-4.50403
-0.562037
1.55679
1.14107
1.5408
-7.99567
1.86881
0.374807
2.41174
0.204773
1.5787
2.10667
1.49807
0.376563
-6.68418
0.707684
-4.81688
1.26876
0.931473
1.95917
0.298487
2.48179
0.324138
2.6508
0.139835
2.01021
-0.0487697
1.16055
-5.46349
1.66353
0.747341
0.893181
2.59276
1.71642
0.444794
-1.22423
0.898912
1.64935
-0.161917
-4.76112
1.14826
-0.266092
2.14427
-4.50696
2.53329
0.589821
3.41379
2.61268
1.03298
0.867577
-6.08795
0.247796
2.74934
0.0288978
0.0634462
-0.359419
2.81427
1.01622
1.32112
2.44905
-1.0038
1.7897
-0.781177
1.89531
-0.0152053
1.76315
1.64331
2.22742
-0.19237
-3.93943
0.494875
-5.4641
0.716111
-0.0968761
-0.123112
2.23525
2.38754
0.0182903
0.282518
-0.699231
2.08867
1.29323
1.43181
1.17298
-0.329612
-4.44165
-2.30444
1.76288
-2.40309
-0.20031
0.446776
1.03801
0.758603
-1.20238
2.92477
-0.728929
2.49856
0.188484
2.68471
-1.40771
0.409858
-0.183908
0.00970235
1.33597
1.69513
0.181968
-0.093632
0.145093
-0.331458
2.34375
-0.285988
0.151149
-0.79352
0.0257794
0.26501
1.94139
0.589285
-1.28924
-0.0153773
1.70749
3.07339
-5.63985
-0.400612
1.50976
-0.0311711
1.00217
-0.177654
0.991925
-0.0171999
-4.56627
-0.0268948
-1.76653
-0.437742
0.0388519
-3.39336
-6.72685
0.219038
1.4113
1.73913
1.54208
2.97867
-8.28662
2.79754
-3.91029
2.64722
-12.7535
-1.18867
2.87359
0.860952
-3.55138
1.5505
-0.198947
1.70128
-0.909304
-4.88241
0.313621
-1.476
-1.90498
0.000832856
-0.433305
0.831963
1.97439
-13.2481
0.899491
-2.37001
0.456009
-0.755214
-0.156857
0.395292
-0.954576
-1.90884
2.30542
-0.0918242
2.49535
0.625781
-5.17375
0.766501
-1.10226
-0.178523
1.526
2.04372
3.03588
1.38471
1.54599
0.592701
-3.36387
2.93852
3.08854
1.87162
-0.84965
-7.61532
-4.83105
1.44794
0.921263
0.572371
1.55956
-1.43571
-0.12617
-5.7028
2.58029
0.343593
0.350011
-3.90624
1.47207
0.680035
3.31836
3.12622
1.40759
0.45425
0.354579
-3.37414
0.888744
3.19866
-0.0228545
-0.150176
1.0653
0.00532396
0.377588
-0.128206
-0.377035
0.367399
0.305416
0.740574
-0.0183501
0.707017
2.28033
0.198762
1.7304
-4.51126
-0.498309
2.77115
-4.58197
0.39256
0.125864
0.898293
0.56902
-4.65091
1.50499e-06
-1.42532
0.362564
3.35092
-4.38007
-3.06343
-6.10487
-0.681706
-0.124531
0.116549
-3.9386
-3.05189
-0.00551195
-2.90699
-1.01243
-1.99198
0.559059
-0.150322
0.303124
3.27603
0.355866
0.495187
-0.431788
0.495232
-3.22289
-0.978234
2.34263
1.64548
0.502766
0.0435523
1.51728
1.75593
-0.047237
-11.2312
-0.133039
2.34119
-1.24465
1.62942
0.204521
2.52177
0.249977
-5.13809
0.288892
1.82733
-1.25801
1.57861
-1.00584
3.14774
-3.72505
-0.283152
-6.29438
0.977841
-4.95958
-1.33939
-4.01786
0.209412
0.481546
-8.99464
-1.00127
-0.312755
0.396106
-2.72177
-1.04729
1.27635
-4.80135
1.33831
-4.42908
1.84157
2.91383
1.42273
-3.22286
1.56171
0.152807
0.398636
-0.351782
-0.565586
-4.8593
-0.0765299
-1.25402
0.457755
0.179191
-0.663401
-0.599404
-5.50898
0.816285
1.74076
-1.13103
-5.0676
-0.3843
-0.0268447
-0.00526667
0.880359
-2.36428
-5.42138
1.79999
-0.680976
0.717774
-1.9768
-5.90463
-6.05213
-8.58162
3.29897
0.509234
-1.60679
0.75738
2.77412
2.77762
-5.86383
-0.80395
1.70228
-0.122005
-0.056584
2.83616
0.874993
1.30768
3.34841
-0.228656
0.195451
0.423774
2.50597
1.76501
1.60037
2.18982
1.30913
0.0176182
0.00693584
0.940243
0.424979
-4.80915
2.86216
-0.353921
-0.557715
-0.0150729
-2.42053
0.74161
-4.00615
-0.901342
0.441005
1.63829
1.84749
1.79972
-4.93353
2.49947
2.78475
-3.21389
0.984981
-0.263271
-0.0707024
0.385062
1.1355
-0.702998
-1.10506
-0.59207
3.08201
-5.03472
1.84086
1.65959
2.12105
1.0887
1.23749
-0.0328761
0.0173108
0.753083
-0.228157
-4.75654
-2.25657
-0.0175448
-3.24579
2.00974
-8.49262
-0.142545
0.546247
-3.2379
-4.72775
-4.95849
1.42719
-0.779127
-0.0692726
0.938084
-6.95895
0.569579
-2.97996
-0.263812
1.7951
-5.48997
2.88423
-0.0166908
3.06844
0.00196024
-0.098773
0.230301
1.55351
1.315
-3.04561
-0.383936
-0.078481
0.206298
1.04278
3.3574
2.12865
0.446589
-1.17514
0.751047
0.220822
1.80201
-0.0625583
1.14609
-2.54984
-3.82455
-3.2063
0.320132
0.0179359
-3.27063
1.22923
0.99444
2.73545
2.9832
-4.87732
-4.86601
0.186948
-1.30248
2.84541
-0.15273
-0.332273
0.891104
1.33213
-2.54123
-0.101797
0.243837
-0.19494
1.37751
-1.73123
0.213954
0.0978847
-1.01921
-2.67896
-0.224787
-2.72099
-2.45797
1.74833
-6.63367
-4.62206
-0.931214
0.307802
3.13164
1.04501
1.63605
-1.19058
0.779383
0.0596379
0.573557
0.679543
-3.96177
-4.79341
2.83428
1.767
0.148377
-3.72738
3.24648
-4.92197
-4.77561
-2.27026
0.670438
-5.28352
-2.44666
2.48386
0.0633875
1.42575
0.838129
-2.83416
0.297845
-0.039271
0.793789
-2.94281
0.18611
0.719961
1.56719
-5.52996
-4.52919
-0.165652
-1.32079
-1.50733
-1.42787
3.07288
1.24039
-11.4116
0.616402
0.589044
2.66668
0.813581
-4.68171
0.82156
2.13439
1.69458
-1.53432
1.57718
-0.098292
2.80909
0.0160042
1.78043
-6.26229
-1.39607
-0.0246641
-3.16891
0.785177
0.744789
-4.60472
-5.88473
1.89866
-0.196863
-0.00543325
2.31523
1.42819
2.25466
1.63074
-1.56665
0.0159881
0.220184
1.55085
0.00049615
1.98533
1.12312
2.7985
-3.48136
2.19538
0.590865
2.87551
-2.6759
-0.928396
2.90754
-3.73284
1.08528
-5.04138
2.45347
2.82094
1.81624
-2.11305
1.71122
2.10306
-2.48566
0.939878
-4.74738
2.2523
-4.08625
-1.07179
-4.82698
-4.79518
2.0655
0.584047
-4.69884
0.800987
2.80885
-0.478201
-0.00565391
-4.81269
-1.27907
1.2351
-0.484672
1.65656
1.47912
-4.43022
3.15108
-0.240718
2.42667
2.29196
-0.354587
-0.0224638
1.35354
-2.18144
-0.689026
1.32166
1.11758
-0.378498
1.48146
-2.1843
2.57785
1.87133
0.60667
-0.396063
1.73677
-1.12231
1.19906
2.12963
0.3699
-0.00803825
2.07116
1.6913
-1.14934
-3.32891
1.09904
1.77686
2.80789
-3.94878
2.97388
3.00217
3.02975
-0.222289
2.02695
-6.80291
1.70854
2.15979
2.19493
1.7614
2.39231
3.31145
1.55705
-4.26313
-0.194233
-4.83069
3.28514
0.835538
-0.19767
-4.81595
1.69682
2.51844
1.51276
0.55021
-0.358671
2.46358
-2.97205
1.67569
-5.13573
0.924809
-0.137707
0.226868
1.01126
-6.86554
-7.38261
-0.679783
-1.24182
-0.0229453
1.98776
-0.110354
0.226509
1.47443
-5.03538
0.825171
-0.0278136
-4.75728
-5.81043
-4.52665
2.29258
2.52343
-4.51861
0.958969
2.1386
2.09327
0.019493
-11.6467
1.74083
-4.63667
2.29246
-4.4583
2.23272
1.22682
0.419347
2.10883
1.051
2.13775
0.582383
0.945864
-1.24453
-3.25063
-5.45908
-0.192707
2.09784
-10.7201
-3.49262
-9.10618
2.48361
2.09961
0.811499
1.11075
2.41634
-2.3966
1.49893
-0.0183734
-1.25098
1.49701
-5.24248
-4.97949
-1.32489
-5.0079
-0.88685
-12.2685
-0.0393767
-4.86816
-3.40105
1.26577
2.86658
3.12442
2.71023
-12.0884
1.69591
-6.53661
1.46631
2.45428
0.449804
2.06013
-7.72003
0.579804
-1.31437
0.0387605
2.24759
-0.804194
1.80126
-4.9142
-0.234858
-5.04779
1.92624
1.78854
1.71577
-5.27391
1.4932
-0.809447
-4.81898
-4.87013
0.538849
2.85851
-2.86557
-1.12825
-5.52763
1.56935
1.66342
-0.230422
1.18557
-5.09307
2.45386
2.33833
-2.95791
-0.168022
2.34985
-5.33151
-9.25012
0.174302
2.17442
2.42275
-6.24615
1.00356
0.0477948
2.82119
-4.4236
-4.69941
0.00828296
2.61924
0.152529
-1.25548
-0.328092
2.20843
1.43086
2.21131
-0.0450532
-2.60607
1.76893
3.24808
-3.29492
1.34611
0.106082
-3.96151
0.140752
0.600437
-5.45346
0.968581
-2.2818
1.23071
-1.41876
-2.10174
2.02209
2.41965
1.48627
-2.04131
-4.06036
1.82502
-4.96327
0.428169
-1.15921
0.768477
-4.8094
1.90342
1.83289
0.0998694
1.69935
2.75073
-0.962272
1.19461
1.89223
-4.91058
1.18861
-0.555308
0.75143
0.358678
1.43389
0.00305984
0.566525
-0.650933
-2.37556
2.2591
0.43086
0.391651
-5.97935
-0.636488
1.75016
-5.23409
3.01484
-5.11362
-5.01804
-0.620291
2.13911
1.79109
2.14874
-4.59593
2.63839
-8.70126
1.14046
0.183678
-3.87117
1.62837
0.721572
-0.742497
1.01002
-4.77469
1.45778
-4.87772
-5.95789
0.00901252
-4.04099
-4.15861
1.35042
2.72587
-0.0401738
-6.82887
2.07426
-2.82343
2.45343
0.510374
0.210184
1.17938
1.73653
0.805845
-0.674848
-0.0791585
0.114199
0.627953
0.817549
-4.39245
-5.78361
-0.0266992
0.766754
0.147387
3.30765
1.69255
1.69882
2.4715
0.485366
1.89436
-6.34322
-3.94742
-8.00593
1.72089
3.22958
1.47668
-1.01855
2.26841
1.42364
1.45612
-0.0933198
0.114063
0.842128
3.02721
-0.227368
-2.0273
2.37864
2.31433
1.63388
1.5859
1.98155
1.10595
-1.13017
-11.0129
1.74808
-3.62966
-3.20854
1.6247
-9.42969
-0.431704
0.278992
1.69175
1.76308
1.80823
0.109081
2.14746
2.20113
0.400277
1.90252
1.6498
1.6166
1.4578
0.930332
0.784328
-0.24008
2.11625
1.88362
0.271927
1.37921
0.0824827
-0.138068
2.70614
1.9717
0.00830969
-7.80254
0.31125
2.03503
1.027
0.652656
-0.144204
0.211157
-2.90315
0.334674
-6.35107
-0.171186
1.03812
-0.663506
-5.36683
-5.2593
2.52528
-5.32606
-4.26839
-7.48726
2.75093
-1.08274
0.447649
0.555665
-4.76236
1.49494
1.63598
0.872145
2.36755
1.25851
0.18003
-4.72254
-7.8509
0.0160679
2.0114
0.322106
-6.26689
-4.21336
-1.77473
-4.55971
-6.97367
-2.9015
-0.590055
0.796542
1.69532
2.08219
-1.31569
-0.041321
2.38228
1.82393
-6.24094
0.0977309
-4.79096
0.893154
0.200742
0.86887
1.51353
-0.0982456
-1.34642
-2.04319
0.658368
-9.81739
-4.65956
0.0607106
-10.827
-4.97563
-4.78636
-8.19443
0.0710266
-4.61371
0.788555
-5.84446
1.70796
1.56592
0.405954
2.16695
-12.028
2.7285
-1.81802
0.250677
-1.20952
1.5906
0.950136
-3.30094
-4.31961
1.75809
2.07806
2.83809
-7.6502
-4.8499
-12.7706
-0.526233
0.00622867
-5.06021
0.361321
-4.86752
0.92508
-6.53422
1.09107
-0.100035
-0.299025
2.50123
1.37688
-0.698766
-0.0780329
-1.8609
-4.25964
2.2525
3.12084
-4.17944
1.94355
1.49716
0.0013503
-0.813312
2.10999
2.06711
-2.94079
-0.812737
-8.6542
-13.0693
-1.08266
-4.91706
-0.871955
1.28885
0.0406863
1.89686
-5.91371
-4.75322
1.64068
-0.943121
-4.80184
0.289138
1.45448
-4.78621
-0.543577
-4.56797
-5.1503
-4.84358
2.88112
-4.23982
-0.114622
-7.18124
1.78593
-5.01923
-0.111761
-2.95279
-8.22764
-1.25377
1.80847
0.000658567
-4.98236
1.37347
0.0164284
-3.16577
-4.21908
-5.39778
1.02097
1.24008
1.70745
-3.71749
2.43152
-2.29073
0.00357256
-0.371315
-2.27301
-11.3925
-5.11693
-5.77539
0.436308
0.870112
-0.0764212
-0.131684
-1.93883
1.44794
-10.3189
1.80029
-6.12881
1.19159
-0.882286
-0.702127
0.2215
3.27315
-0.823405
-4.81621
-3.10311
-2.199
1.71953
-0.150457
0.244239
-0.0646749
-3.7025
-7.56696
-3.40256
-4.91936
1.70089
-5.07176
0.387855
-4.1981
0.0555626
1.37925
-0.408469
0.551758
-0.617059
2.10471
-4.96661
-4.62054
2.2692
0.61712
-4.99593
-0.161184
-5.13815
-1.90967
-0.312721
2.07529
-6.40985
0.913569
-4.69885
-4.82453
-6.21913
-5.2993
-4.68676
0.774316
-0.826382
1.66868
0.850208
-8.77434
-0.0947153
-12.241
2.09737
2.40903
-4.80496
0.381153
1.74798
1.703
1.13849
-5.55416
-4.84877
-4.17833
1.72476
0.658538
-2.45279
-4.89436
0.77998
2.04813
-0.0663044
0.259116
0.27067
2.24474
-1.64146
-1.75687
-0.135098
1.5282
0.433174
0.189556
2.44898
2.08215
-0.105181
-9.84608
2.04137
1.00509
0.0879513
1.3863
-1.52697
-5.31903
-4.40102
-8.33744
2.07629
1.65674
-0.40617
-1.20405
0.134385
-0.32467
1.72215
-11.3559
1.07283
2.12267
2.2886
-2.54109
1.65527
1.32956
1.73205
1.85482
0.0416786
1.87026
0.00107691
1.72583
1.14411
1.81144
-6.9903
2.08165
1.94891
1.58357
1.27151
-4.41365
1.03287
-1.22592
-1.67794
2.17651
2.34095
-11.5048
2.06749
-7.02944
-3.44954
1.72037
1.77579
-2.90552
0.0036669
-4.88913
-11.0403
-0.880918
-4.89233
-3.19169
-0.191761
1.42872
3.04973
2.00841
-1.61219
-2.80269
1.66566
1.03414
-1.21671
-5.85624
-4.11902
-1.67749
-3.51093
-3.23147
1.65909
0.10237
0.990107
0.0153494
0.0157274
0.122586
0.0158904
0.442478
0.686359
1.36043
-1.70454
0.542365
-2.2124
-11.271
1.07624
1.07555
-0.315487
-0.102423
1.29093
-0.188571
0.859986
-1.44856
1.67403
1.30834
2.61121
1.70585
-6.04363
-0.229925
-1.23275
-3.60651
-0.133183
-0.139722
-0.516817
-10.9804
3.1061
0.0251149
-0.0127347
2.40632
-5.63011
-0.686768
-0.792801
-7.23589
-4.62201
0.227211
-1.42364
1.49375
-0.758755
-5.6817
0.252452
-3.79161
-1.39438
-1.05352
0.0584988
1.42466
-3.97584
-5.05408
-1.54593
0.632725
-2.11598
1.78505
2.47394
-3.61677
1.82055
0.82528
1.33512
2.77238
-5.99731
1.17777
0.836869
0.928651
2.3211
-0.11638
-0.522945
-0.889206
1.73934
2.4714
-6.66502
-0.04399
-2.95796
-2.10374
1.03268
-4.85037
-2.47201
-4.73482
0.867353
-4.48149
0.393161
0.535483
1.56023
0.318254
-4.1339
0.0643214
-0.180347
-0.431525
2.65281
3.00052
2.16479
3.20339
1.6173
1.1285
1.76708
1.49052
1.6958
-3.35849
1.63925
-0.235762
-3.47546
2.44094
-0.671973
-1.86319
2.89594
0.219802
-11.0546
1.0523
0.930569
2.05305
-2.59557
1.63249
2.72235
-5.70692
-3.48458
-2.06598
1.10731
-6.01131
2.05887
-0.0460003
2.07632
1.70577
-5.21889
1.89203
-0.962636
-4.64529
-4.4299
-10.0208
1.91581
-2.33158
1.76989
-0.215979
-4.98006
0.0179233
0.0172785
-1.0481
-5.37024
-4.62506
1.96649
0.514407
-4.84077
-0.416612
1.2626
0.453253
-12.3567
1.00318
-0.153118
1.00115
-4.85619
1.18306
0.629903
0.795155
-0.377857
1.50817
0.968481
0.699282
-5.05446
3.17201
-1.32625
-4.75688
1.51138
1.30745
-4.88487
-1.82075
-6.58387
0.873519
0.763149
-2.00449
-0.0153433
-0.231711
3.18064
0.118382
-6.03798
0.00420745
-1.26592
0.979589
-0.788149
1.45596
1.25756
-5.62089
1.01298
-4.71757
1.12985
0.660537