/*--------------------------------*- C++ -*----------------------------------*\
| =========                 |                                                 |
| \\      /  F ield         | OpenFOAM: The Open Source CFD Toolbox           |
|  \\    /   O peration     | Version:  2306                                  |
|   \\  /    A nd           | Website:  www.openfoam.com                      |
|    \\/     M anipulation  |                                                 |
\*---------------------------------------------------------------------------*/
FoamFile
{
    version     2.0;
    format      ascii;
    arch        "LSB;label=32;scalar=64";
    class       surfaceScalarField;
    location    "7.2";
    object      phi;
}
// * * * * * * * * * * * * * * * * * * * * * * * * * * * * * * * * * * * * * //

dimensions      [0 3 -1 0 0 0 0];

oriented        oriented;

internalField   nonuniform List<scalar> 
20045
(
0.247039
-0.26766
0.0206207
-0.531917
0.189155
0.342762
0.201596
1.00252
-1.20412
-0.136216
0.202247
-0.0660305
-0.428741
0.406464
0.0222774
-0.309925
1.13641
-0.826483
-0.498911
0.199278
0.299633
0.0305095
0.218088
-0.248597
0.241611
0.20744
-0.449052
-0.415816
-0.0475571
0.463374
-0.211335
-0.178972
0.390307
1.12653
-0.539218
-0.587313
0.177116
-0.178376
0.0012594
-0.634974
0.555459
0.0795149
-0.148821
0.519462
-0.370641
-0.540288
0.124471
0.0226208
-0.0624034
0.0397825
0.27545
-0.271041
-0.00440876
-0.824332
1.21674
-0.392408
-0.374614
0.0255333
0.349081
-0.192307
0.127245
0.0650612
0.060276
0.11684
-0.0654486
-0.466468
0.496236
0.559284
-1.05552
0.407179
0.111377
-0.518556
-0.586416
1.08265
0.0433151
-0.0452753
0.00196019
-0.705432
1.31795
-0.61252
0.851084
0.14447
-0.995555
-1.31089
0.709748
0.601142
-0.245567
0.20882
0.036747
0.7028
-0.503131
-0.199669
-0.360482
0.849118
-0.488636
1.23081
-0.717563
-0.513245
-0.279408
0.309917
1.02847
-0.499055
-0.529411
0.678664
0.0434894
-0.722153
-0.029534
0.18347
-0.153936
-0.985368
0.470476
0.514892
0.3013
0.261422
-0.562722
0.0191144
0.209977
-0.229091
0.0633245
-0.0909358
0.0276114
1.06846
-1.06934
0.000873184
0.743188
-0.279688
-0.4635
0.349062
0.394126
0.508492
0.618038
-0.12461
0.0458151
0.0787946
0.648575
0.25432
-0.902895
0.809162
-0.130499
0.0939009
0.989047
-1.08295
0.651541
-1.09972
0.448179
0.894441
-0.636588
-0.257853
-0.591585
-0.420726
1.01231
-0.0463255
-0.148537
0.194863
0.362358
-0.178083
-0.184275
-0.344994
-0.083747
-0.174857
0.923281
-0.748424
0.763313
0.0951924
-0.858506
0.605805
-0.966287
0.855095
-0.499229
-0.355867
-0.232446
-0.153814
0.38626
0.436669
0.418427
0.255032
-0.903521
0.64849
-0.0751106
-0.117196
0.858124
-0.208081
-0.650043
0.774004
0.0237426
-0.797747
0.0851579
-0.205831
0.120673
-0.333862
0.0793097
0.254552
0.427316
-0.185705
0.809434
-0.823001
0.0135668
0.178831
-0.0936732
0.0516855
0.310673
-0.128373
-0.525896
0.654269
0.0727868
-0.12143
0.0486434
0.861414
-0.246252
-0.615162
0.672494
-0.847351
0.0720793
0.789335
0.22816
-0.376981
0.114351
-0.152255
0.0379049
0.156958
-0.616042
0.459084
0.519414
0.589892
-1.10931
0.448549
-0.347955
-0.100594
0.716068
-0.461036
-1.33981
0.234846
1.10497
0.0103797
0.23666
-0.268583
0.30311
-0.0345279
0.29918
-0.662959
0.363778
-0.802818
0.0344583
0.76836
0.516532
0.07722
-0.593752
-0.418575
0.387108
0.0314675
-0.707492
-0.103449
0.810941
0.366178
-0.0710635
-0.295115
0.200146
-0.287344
0.0871983
-0.0814896
-0.4059
0.48739
0.291311
-0.312123
0.0208119
0.762646
0.172014
-0.93466
0.0285021
0.014813
-0.0812737
0.251621
-0.170347
0.614862
-0.313562
0.0414739
-0.084667
0.0431931
0.69531
0.333157
-0.221831
-0.413142
0.198695
-0.279968
-0.179027
0.94234
-0.00214283
-0.26644
0.0886452
-0.0471712
0.228879
0.60443
-0.833309
0.520854
-0.911154
0.3903
-0.0102591
-0.211051
0.183441
0.0276101
-0.0996564
0.127387
-0.0277303
0.602441
-0.453092
-0.149349
-0.244877
0.198551
0.631916
-1.1699
0.53798
-0.084579
0.156526
-0.0719471
0.0225714
-0.123365
0.100794
0.577467
-0.170289
0.876349
0.35446
-0.590073
0.4617
0.664708
-0.900556
0.235848
0.241348
0.0341021
-0.391077
0.158632
-0.387538
0.313642
0.0738959
-0.464514
0.0503457
-0.291104
0.240759
0.617773
0.276668
0.550783
-0.716727
0.165944
0.81309
0.0937744
-0.906864
-0.986529
0.729236
0.257293
0.0730586
-0.765797
0.692739
0.936263
-0.31849
0.173444
-0.127628
0.104499
-0.0380153
-0.0664841
-0.0364196
0.0274364
0.00898328
0.570334
0.401511
-0.971845
0.596176
-0.577073
-0.0191032
-0.17255
0.103146
0.0694039
-0.151702
-0.0593491
1.02245
-0.357744
-0.326835
0.343824
-0.0169894
0.639207
-1.17252
0.533311
0.174233
-0.765818
0.557057
0.226733
-0.783791
0.696721
-0.539763
0.963916
-0.134188
-0.829728
0.557547
-0.922123
0.364576
0.983751
-0.610126
-0.373625
-0.12604
0.228565
-0.102525
-0.0349971
1.11045
-1.07545
1.07535
-0.224263
-0.825694
0.0268642
0.79883
-0.479462
0.406319
0.0731423
0.996184
-0.47677
0.168567
0.279982
-0.631295
0.780188
-0.148893
-0.866778
1.06837
0.00989107
-0.156815
0.146924
-0.0423532
0.0666327
-0.0242795
-0.0177426
-0.184629
0.202371
0.71932
0.227221
-0.94654
1.39053
-0.695553
-0.694974
-0.219856
0.202113
0.3439
-0.656291
0.312391
0.0745582
-0.0112337
-0.815615
-0.461599
0.688872
-0.227273
-0.671475
0.482843
0.188632
-0.0120206
-0.0233695
0.0353901
0.483244
0.500506
-0.0192194
-0.0172002
-0.0132358
0.117735
-0.710774
0.0794795
-0.73349
0.931745
-0.198255
-0.665599
0.752864
-0.0872648
-0.579529
-0.431691
1.01122
-0.22422
0.383778
-0.159558
0.456619
-0.463808
0.00718954
0.9964
0.0284633
-1.02486
0.0146908
-0.759916
0.745225
-0.362053
0.91911
0.193881
-0.546473
0.352591
-0.513948
1.14586
-0.822426
0.544814
0.277612
0.194361
-0.197554
0.00319263
0.515839
-1.27105
0.755208
-1.03622
0.330786
-0.60093
-0.441584
1.21689
-0.722238
-0.494647
-0.276378
0.295493
0.123955
-0.131088
0.00713288
-0.731328
-0.119043
0.850371
-0.914419
1.28008
-0.365658
0.927015
-0.696922
-0.230093
0.082878
-0.247808
0.16493
-0.304771
-0.464192
0.768963
0.200157
-0.411492
-0.667738
0.740796
-0.709271
-0.228226
0.937497
0.088674
0.024261
-0.112935
0.150623
-0.612221
-0.195297
-0.0502707
0.874249
-0.0611595
-0.138418
0.108884
-0.134295
0.164979
-0.0306841
-0.295738
1.01506
-0.828357
0.523586
0.0852489
0.0708608
-0.15611
-0.70365
0.135226
0.568424
0.278371
0.648643
1.34008
-0.82424
0.785331
-1.37112
0.585788
0.304565
-1.10308
0.798519
0.0304019
-0.405016
-0.487642
0.716521
0.660395
-0.97032
0.441101
-0.845573
0.404472
-1.41789
0.818154
0.599736
-0.0140529
-0.404522
0.177376
0.140298
-0.317673
0.743971
-0.255745
-0.488226
-0.0620461
-0.771534
0.736537
-0.250784
-0.0760503
0.681256
1.06135
-0.861523
-0.199824
-0.0101076
-0.124472
0.134579
0.672842
0.131272
-0.804114
0.224125
-0.391227
0.167102
-0.232227
0.767491
-0.535264
-0.435523
0.734703
0.569196
-0.375315
-0.0630098
0.190758
-0.127748
0.992974
-0.353768
0.0874885
-0.00797307
-0.0795155
-0.0495382
-0.215322
0.26486
-0.102408
0.106411
-0.00400304
1.19707
-0.746151
-0.450917
0.245128
-1.15955
-0.111934
0.00952669
-0.870577
0.278762
0.591815
1.31165
-0.462528
0.247032
-0.980523
1.37602
-0.591131
-0.784894
-0.0116741
0.100348
0.851358
-0.474212
-0.377146
-0.611434
0.139613
0.471821
-0.932761
0.934461
-0.00170067
0.376727
-1.04691
0.670185
0.0276543
-0.0352698
0.0076155
-0.464308
0.629846
-0.165539
-0.0811971
0.361164
-0.279966
-0.142088
0.0575091
-0.115889
0.0162326
-0.549196
-0.361957
0.412409
-0.848962
0.436554
-0.0987618
0.310498
-0.211736
0.40583
0.29697
0.773711
-0.33261
-0.0110621
-0.0312912
0.709532
0.602114
-0.490517
0.013332
0.477185
0.383104
0.468254
0.382409
0.137053
-0.279949
0.181187
-0.282892
-0.0262337
0.309126
0.00803316
0.186328
-0.812688
0.580462
-0.0621664
-0.110381
0.172547
-0.932237
0.897719
0.0345183
-0.335852
0.490915
-0.155062
-0.216369
-0.105235
0.321604
0.764704
-0.829942
0.0652381
-0.867602
-0.550288
1.28242
-0.815221
-0.467202
-0.0913058
0.0811982
1.14129
-0.764559
-0.459005
0.871414
-0.360165
-0.0296822
0.389847
0.873855
-0.224517
-0.649338
1.09299
-0.323671
-0.769315
-0.436609
0.0764444
0.835124
-0.493452
-0.341672
-0.160237
0.783728
-0.623491
0.469553
-1.05688
0.58733
0.223991
0.175715
-0.399706
-0.0643147
0.0177365
0.0465781
1.29643
-1.08147
-0.214961
-0.514913
-0.471616
0.711794
0.349553
-0.852389
-0.0798484
0.149907
-0.199445
0.252287
-0.640145
0.387858
0.00376015
0.120195
-0.539489
1.10982
0.476896
0.720173
1.32418
-0.791986
-0.532195
-0.789469
0.561243
0.715705
-1.20027
0.484563
-0.628138
-0.0398326
0.667971
-0.246706
-0.165299
0.412005
0.544063
-0.200163
-0.0850658
0.170315
0.48286
-0.035783
-0.467348
-0.657479
0.880393
-0.222914
-0.154925
0.0206295
-0.0837122
0.0207023
0.113051
-1.04581
0.364314
-0.799837
0.077834
-0.183804
0.251163
-0.0673592
0.0179073
-0.154124
-0.496904
0.378554
0.11835
0.348163
0.254278
0.492328
-0.0362633
-0.456065
0.490998
0.105178
-0.343092
0.59538
0.571324
-0.054792
-0.20546
-0.49819
1.0913
-0.866584
-0.224718
0.817493
-0.771036
0.342097
0.428939
0.799799
-0.866141
0.0663429
-0.434671
0.353182
-0.111332
-0.0612186
-0.118438
-0.589054
0.291211
-0.539394
0.248183
0.419392
0.415732
0.688843
-1.13344
0.444593
0.234533
-0.534117
0.299585
-0.972589
0.16977
0.0155871
0.350591
-0.559466
0.852585
-0.293119
-0.252802
0.30254
-0.0497377
-0.414311
-0.0845999
-0.123844
-0.226136
0.34998
0.0797624
0.000864862
-0.0806272
-0.319687
-0.159775
0.375657
0.44513
-0.820787
0.790204
-0.407101
0.278614
-0.448736
0.0140644
0.464533
-0.23
-0.664781
-0.157646
0.320289
-0.366173
0.0458844
0.972336
-0.323761
-0.46822
0.753067
-0.284847
-0.112569
0.130873
-0.0183038
0.73518
0.00879098
-0.326972
-0.313173
-0.516099
0.933405
-0.417306
0.621862
-1.12923
0.507367
0.589179
0.693244
-0.0312986
0.013879
0.0174195
0.0880664
-0.716205
0.653409
-0.984475
0.331065
0.0819339
-0.00914714
-0.0820456
0.632829
-0.352115
0.71643
-0.738455
1.04302
0.188098
-1.01243
-0.8713
0.474315
0.396986
0.637522
-0.100819
-0.536703
0.935744
-0.17104
-0.492736
-0.5266
-0.465192
0.578029
-0.0310626
0.220782
-0.18972
0.316628
-0.291095
-0.720796
0.63875
0.843065
0.225397
-0.788576
0.320357
1.04328
-0.331481
-0.260491
0.371311
-0.11082
0.0254971
-0.632016
0.606519
-0.901971
0.169036
0.732935
0.726734
-0.726734
-0.36484
0.745822
-0.380982
0.499383
-0.00705489
0.666652
-0.357902
-0.308749
-0.961908
0.997845
-0.0359371
0.334314
-0.0407618
-0.293552
0.256958
-0.106897
-0.150061
0.105721
-0.32209
0.142381
0.457906
-0.916911
-0.861428
1.01336
-0.151936
-0.283237
0.658893
0.108957
0.00448315
-0.11344
-0.0823556
-0.027813
0.110169
-0.374482
0.404884
1.25695
-1.02279
-0.23416
-0.0823969
-0.527216
0.609613
-0.227745
0.24647
-0.0187253
0.119443
-0.27201
0.152567
-0.953672
0.348266
0.605406
0.125954
0.0762932
-0.365011
0.10452
0.0173695
-0.116924
0.099555
0.618252
0.67818
0.10754
0.00141726
-0.0416444
-0.289286
0.33093
-0.504263
0.805117
-0.300854
-0.00116857
0.0862059
-0.0850374
0.422472
-0.223194
0.680389
-0.205188
-0.475201
0.008977
-0.414877
0.151539
0.844861
0.435157
0.293587
-0.728744
0.460768
-0.409245
-0.0515238
-1.01274
0.18705
-0.415313
0.168475
0.246838
0.495075
0.642348
-1.13742
-0.628409
0.588577
0.0450975
-0.914582
0.869484
-0.122228
0.205106
0.204826
-0.219619
0.0147931
0.0255931
-0.308485
0.0173867
0.0327619
-0.0501485
-0.673765
-0.196812
0.619121
0.0511566
-0.00963221
-0.0415244
-0.118355
0.00578613
0.169764
-0.708262
0.538497
0.24986
0.54241
-0.79227
0.424899
-0.711793
0.870918
-0.159124
-0.71798
0.557743
-0.0169377
-0.0283377
-0.388281
-0.283194
-0.251679
0.0644076
0.187272
-0.878253
0.37399
0.669205
-0.751602
0.417492
0.625783
-0.302858
0.301673
0.00118423
0.401682
-1.09026
0.688575
0.14561
-0.261208
0.115598
0.336022
-0.662994
-0.634766
-0.0308334
-0.306762
-0.0271002
0.0907875
-0.0688027
-0.0219847
0.389345
0.00501487
-0.0258626
0.0208477
1.07534
-0.580261
-0.52695
0.886178
-0.359228
0.260546
0.179426
-0.439972
-0.36055
0.238322
-0.211063
-0.040616
0.440916
0.225736
-0.190441
-0.710115
0.352285
-0.0319955
0.614894
0.405396
0.165928
-0.950871
1.04477
0.126244
-0.467956
0.341712
-0.0860819
-0.827825
0.913907
-0.256995
0.271951
-0.0149558
-0.306166
0.0819467
-0.564254
1.03381
0.981337
-0.423791
-0.431518
-0.0653866
0.00873414
-0.408484
0.399749
0.408576
-0.988105
-0.130741
-0.465247
0.595988
-0.0866782
0.181975
-0.0952968
-0.650967
0.052928
0.598039
0.946661
-0.692341
-0.0166913
0.0797899
-0.0630987
-0.209566
-0.0181785
0.178858
0.359829
-0.538687
0.0977429
-0.123171
0.0254276
0.599581
0.346312
-0.945894
-0.372451
1.1351
0.0773585
0.00240383
-0.273484
-0.584424
0.857908
0.321123
0.701329
0.955214
-0.705354
-0.34515
0.221305
-0.0550459
-0.00926877
-0.445866
1.16157
0.135429
-0.766462
0.631034
0.887638
-0.144601
-0.743038
-0.490431
0.710731
-0.220301
0.39532
-0.4483
-0.427727
0.876027
0.0874015
-0.114708
0.0273067
-0.284135
-0.485531
0.769666
-0.127275
0.0449194
0.0295659
-0.0415865
0.506071
-0.790206
-0.706072
-0.208038
0.91411
-0.0641384
-0.478676
0.542814
0.103829
1.20962
-1.22972
0.020103
0.204195
-0.145264
-0.0589318
0.00141855
-0.304276
0.257771
0.229619
-0.315859
0.0691536
-0.816902
1.02577
-0.208866
-0.243338
0.181171
0.288514
0.408207
-0.816577
-0.252759
-0.0473671
-0.0290428
0.0764099
0.533474
-0.128078
-0.193962
0.213673
-0.0197106
0.290126
-0.371323
-1.18363
0.582699
0.942428
0.19398
-0.125576
0.245019
-0.199723
0.460269
0.897521
-0.439615
-0.200986
0.00702382
-0.107142
-0.613654
0.198441
0.208522
-0.198631
-0.918886
0.0169145
0.00415093
0.20522
-0.0596101
-0.910038
0.645833
0.264205
0.681776
0.127658
0.182434
-0.0597239
-0.12271
0.277471
-0.25689
-0.0205811
-0.772669
0.273613
-1.03954
0.523442
0.21485
0.0649637
-0.279813
-0.0385183
0.247782
-0.209263
1.00818
-0.00142456
-1.00675
0.143814
0.00828282
-0.152097
-0.134421
-0.253117
0.221104
-0.0209579
0.0697897
-0.0639087
-0.00588096
0.384616
-0.0531522
-0.331464
0.0293175
0.0404722
0.828672
-0.656658
-0.0283898
-0.137476
0.165865
-1.02153
0.204629
0.00727191
-0.145547
0.344241
-0.0284456
0.0796022
-0.0130204
0.00195836
0.237561
0.160413
-0.397973
0.608082
0.250042
0.441164
-0.31492
0.189127
-0.166556
0.0634631
-0.316265
0.611237
0.0208348
-0.632072
0.532111
-0.0340821
-0.498028
-0.563895
-0.358228
-0.309551
-0.0448806
0.354432
0.400657
-0.425807
0.0251497
1.11334
-0.040806
-1.07253
-0.373377
0.047844
0.325533
-0.494389
0.65945
-0.165061
0.582814
0.661825
-1.24464
0.249755
-0.403569
-0.268694
0.427515
-0.158822
0.210344
0.0939828
-0.304327
-1.14956
0.658093
0.491471
-0.053304
-0.0106047
-0.844448
0.138376
0.295428
-0.181013
-0.114415
0.487541
-0.613043
0.125502
-0.080005
-0.187655
0.187096
1.02252
0.81996
-0.13552
-0.68444
-0.848059
0.136266
0.33869
-0.54415
0.765625
-1.18851
0.422886
-0.0977335
0.275109
-0.00279645
-0.381134
0.33949
-0.155787
0.206132
-0.13262
-0.798759
0.931379
0.484689
0.656597
-0.744842
0.77357
-0.0287279
0.0694158
0.0213717
-0.611089
-0.254829
-0.108321
0.120854
-0.0125328
0.542888
-0.228711
-0.314177
0.0136812
0.035643
-0.0493242
-0.0648052
0.552346
-0.781094
-0.101985
0.883079
-0.718869
-0.251759
0.970628
0.471142
-0.345606
-0.125535
-0.17159
0.0178271
0.153762
-0.276182
0.0841255
0.192056
-1.01719
0.0468303
0.970364
0.0248456
0.181273
-0.206118
0.807073
-0.90822
0.101147
-0.519022
0.879088
0.237081
-1.11617
0.0105091
-0.11883
-0.104311
-0.63443
0.738742
0.601732
-1.11568
-0.948206
0.823696
0.12451
0.113498
-0.0157553
0.720949
-0.432435
-0.0455394
-0.242128
0.287667
-0.00856235
0.123669
-0.115107
-0.192278
0.90597
-0.713692
0.738911
-0.408823
-0.330088
1.03667
-0.980967
-0.0557004
0.781769
-0.286568
-0.495201
0.0420154
-0.217357
0.175341
-0.279456
-0.0116479
-0.923494
0.810716
0.112778
0.0527761
-0.97627
-0.254722
0.464835
-0.210113
-0.593596
-0.487875
0.179235
-0.156399
-0.0228363
-0.799457
-0.222074
-0.170498
0.113054
0.0574442
-0.0311357
0.255261
-0.880924
0.852088
0.0288356
-0.173087
-0.100224
-0.0212064
0.155954
-0.0121399
-0.600001
0.135693
0.124013
-0.150132
0.026119
-0.797831
0.438181
0.359649
0.355962
-0.0216485
-0.242906
0.691876
0.043304
0.350159
-0.0382572
0.201721
-0.163464
-0.0813948
0.538014
-0.607461
0.391145
0.216316
-0.0992538
0.0459498
1.11534
-0.63065
0.937214
-0.535533
-0.243961
-0.149479
0.393439
0.46727
-0.928651
0.461381
0.548392
-0.61253
0.970405
-0.432072
-0.538333
-0.0034473
-0.512004
-0.0954567
-0.414732
0.697327
-0.282595
0.0617593
-0.341624
1.12695
-1.0679
0.268442
0.382963
-0.158972
-0.0852539
0.0412781
0.109289
-0.00287854
-0.492973
-0.504799
1.31731
-0.644813
-0.349584
0.334732
0.0148522
0.0622479
0.19471
-0.662145
-0.398428
1.06057
0.217238
0.326825
-0.0034559
-0.131142
0.134597
0.820577
-0.278697
0.0175333
0.261164
0.643376
-0.0321389
-0.353419
-1.03109
0.169659
-0.201959
0.00945025
0.192509
0.57918
0.796845
0.552832
-0.424433
-0.128399
0.98234
0.0543276
0.60457
-0.859858
0.255288
-0.829933
-0.0125793
0.842512
-0.753988
0.981806
-0.227818
0.125546
-0.00469798
-0.120848
-0.49198
1.09371
-0.289195
-0.112752
0.401947
0.0203914
-0.765234
0.155268
-0.0583933
-0.0968742
-0.960711
1.25089
-0.290179
-0.23086
0.53078
-0.29992
1.16171
-0.511278
-0.65043
-0.00983674
-0.591593
0.601429
-0.192838
-0.0267814
-0.526686
1.1095
0.374997
-0.739837
1.10418
-0.482318
-0.172957
0.144567
-0.86845
0.0385175
1.19503
-0.506187
-0.0187556
-1.32106
0.228396
-0.0184195
0.345011
0.529974
-0.874985
0.544339
-0.120459
-0.42388
0.964283
-1.01793
0.0536513
-0.124
0.00903714
0.114963
-0.196813
-0.474138
0.670951
0.339416
-0.275953
-0.305863
0.0775337
0.228329
0.11547
0.287037
-0.402507
0.074507
0.104728
-0.885611
1.0361
-0.150486
-0.238254
-0.018741
0.447553
0.199941
-0.647494
0.579567
0.540314
-1.11988
0.151158
0.486364
-0.0170813
0.980997
0.00191367
0.784099
-0.786013
0.00802863
-0.0091972
0.0744525
-0.00558256
-0.0688699
1.10884
-0.985384
-0.123453
0.447892
0.522512
-0.100157
0.0498752
0.050282
-0.287603
0.802923
-0.51532
0.012462
0.143821
-0.156283
0.555871
-0.897456
0.341585
-0.416934
-0.602907
1.01984
0.846054
-0.173212
0.297892
0.246447
-0.418471
-0.056515
0.474986
0.280181
-0.807397
0.105695
-0.387976
0.282281
0.175329
-0.0733015
-0.102028
0.0266146
-0.219452
-0.0684118
0.60378
-0.535368
-0.156853
1.1459
0.76862
-0.616122
-0.152499
0.619019
-0.541799
-0.512923
0.150006
0.362918
0.124118
-0.482021
0.14354
-0.041041
-0.102499
0.05548
0.126954
0.137608
0.735168
-0.872776
0.209467
0.175149
0.120727
-0.839596
-0.423566
0.157201
0.266364
-0.319944
-0.229686
0.54963
0.467094
-0.229533
-0.839323
0.556086
0.24844
-0.199972
-0.0484683
-0.464918
0.865708
-0.40079
-0.427201
0.436178
-0.431355
0.534945
-0.10359
-0.562221
0.910828
-0.348607
-0.0197812
0.19238
-0.172598
-0.282485
0.243967
-0.289702
-0.561215
0.877763
-0.316548
-0.543252
0.678478
0.498552
-0.502863
0.00431091
0.268734
0.0343993
-0.303134
-1.25806
0.833664
0.424392
0.0146434
0.202636
-0.217279
0.0684297
0.692163
-0.88444
0.872682
-0.405413
-0.356055
-0.515245
-0.697426
0.69934
0.497113
-0.0142694
0.387415
0.116888
-0.504303
-0.315215
0.291107
0.024108
-0.0168715
-0.100669
0.11754
-0.239351
-0.397383
0.636734
-0.096494
0.473934
-0.37744
-0.748606
-0.263284
1.01189
-0.0771893
0.345924
0.891063
0.217774
-0.832879
0.522038
0.310841
-0.208718
-0.0967066
0.305425
0.00338671
0.165685
-0.214654
0.0489691
-0.632549
-0.757641
0.51829
0.12209
0.186834
-0.144819
0.282556
0.260333
-0.0245123
-0.741285
0.0269891
0.264322
0.14252
0.0426546
-0.185175
-0.619776
-0.4848
1.10458
-0.107765
-0.310706
-0.502122
-0.101954
0.604076
0.119069
0.180086
-0.299155
-0.0127556
1.13107
-0.738817
-0.392257
0.169164
0.650796
0.097448
0.217083
-0.477828
0.260744
-0.51607
1.01845
-0.502376
-0.564882
-0.256238
0.82112
-0.440311
0.171617
-0.408093
-0.10483
0.868155
-0.424264
-0.443891
0.390735
-0.240451
-0.150285
0.382928
0.0455688
-0.428496
-0.155322
0.180168
0.250891
-0.372638
0.121747
0.101779
-0.0240357
-0.19582
-0.00661042
0.463014
0.405141
-0.362297
0.832773
-0.429918
1.13967
0.267262
0.123473
-0.858724
0.293842
0.714986
-0.62692
-0.0959914
-0.618404
0.124016
0.183265
-0.437988
0.723999
-0.698502
0.817668
-0.0178695
-0.184976
-0.102368
-0.277063
-0.0647747
0.341838
-0.279521
-0.0326021
0.705344
0.151159
-0.856503
0.0272368
-0.242014
0.214777
-0.00888229
0.389883
-0.832155
0.442272
0.874072
-0.0669987
-0.984015
1.04691
-0.0628927
0.204365
-0.125056
-1.07334
-0.184715
-0.322603
0.838653
-0.027937
0.432603
1.11874
-0.409369
-0.709367
-0.637692
-0.0387863
0.676478
0.220232
0.503906
-0.724138
-0.682942
0.0319746
-0.15871
-0.144499
0.303209
-0.46391
0.599338
0.126051
0.513622
-0.639673
0.012811
0.0741251
-0.0869361
-0.966485
0.114687
0.851798
0.353494
0.519188
-0.225925
0.560148
0.221621
-0.296421
-0.118892
0.786628
-0.920816
0.101853
-0.386277
0.284423
0.400361
-0.150606
0.664896
0.0465032
-0.711399
0.724307
-1.15423
0.00859516
0.0190591
-0.368472
0.508609
-0.140138
-0.732351
0.62804
-0.0171326
0.26373
-0.246597
-0.371781
0.192826
0.178955
-0.0452277
-0.260939
-0.24363
0.58232
0.237397
-0.0225469
-0.137344
0.147853
-0.13348
-0.257748
0.0156618
-0.0509316
-0.171134
0.16476
0.00637454
0.186132
-0.210114
0.0239818
-0.616755
0.370503
0.135255
-0.637378
-0.0181232
-0.258255
0.0237303
0.537005
-0.560736
0.303343
-0.329577
0.154943
-0.799875
0.644932
-0.275764
0.734725
-0.458961
0.175803
-0.833283
-0.219526
-0.0253416
-0.922864
0.625808
0.691499
-0.737898
-0.101425
-0.447335
-0.323701
-0.390797
0.164661
0.000965718
-0.0177
0.0167342
1.23506
-0.655884
0.851926
-0.198517
-0.222528
-0.143193
0.365721
-1.17187
0.506247
0.66562
-0.43625
0.257279
-0.189698
1.06879
0.14555
-0.0852738
-0.392367
-0.295292
0.00609745
0.379034
-0.367736
-0.0112985
-0.115236
0.820581
-0.142452
0.346603
-0.204152
0.678119
-1.28499
0.579493
0.705501
0.212314
0.199388
-0.411702
0.569509
-0.249243
-0.320266
-0.497922
0.267062
-0.875819
0.0151708
0.367757
0.885696
-0.971778
0.381245
-0.170901
-0.393603
0.673784
-0.8563
0.610999
0.245301
0.599345
-0.942686
0.343341
-0.685866
0.721095
-0.0352285
0.421591
-0.502985
0.0123354
0.232951
0.238191
0.133918
-0.74996
0.324658
-1.00346
0.543228
0.46023
0.231053
-0.868745
0.689952
-0.044117
-0.567317
0.132369
0.145635
1.01539
-0.335439
-0.679954
-0.219356
0.246128
-0.566071
0.136475
-0.959333
0.920547
-0.783163
0.334863
0.467835
-0.689062
0.384836
0.304226
-0.82579
0.52002
0.30577
-0.235967
0.0433114
-0.12999
-0.998599
0.696444
0.302154
0.600821
-1.0928
-0.872612
-0.012999
1.16991
-0.404289
0.223914
0.0957045
-0.319618
-0.0197916
-0.121879
0.14167
-0.264054
0.469584
0.527751
-0.430422
-0.25864
0.165583
0.173833
0.221732
0.333972
-0.555703
0.348852
-0.208554
-0.0384211
-1.06047
1.09889
-0.307337
0.40303
-0.765083
-0.571434
-0.415842
0.987276
0.229168
-0.300231
-0.65208
0.202231
0.44985
-0.0415232
-0.0205199
0.0620431
0.717476
-0.850096
0.0535838
-0.422055
0.494323
0.479796
-0.974118
-0.38737
0.0377859
-0.796031
0.222019
0.574012
-0.992574
0.575641
0.498613
-1.01468
0.519839
-0.417985
-0.0359114
-0.00561184
-0.0291828
0.916821
-0.586888
0.72702
-0.140131
0.854668
0.00199636
-0.856665
-0.662916
-0.01184
-0.171964
0.0639481
0.662786
0.103996
0.0268765
0.249967
0.479516
0.0198671
0.481017
-0.128178
0.111307
-0.829664
-0.0512595
-0.71047
0.275539
-0.749751
0.15757
0.176559
-0.33413
0.785353
0.0458992
-0.831253
-0.0894776
0.0847796
-0.331944
-0.707596
-0.757776
-0.108365
-0.453025
1.17733
-0.315577
0.428698
-0.113121
-0.893619
0.273843
-0.259946
0.481677
-0.285424
-0.624613
-0.440031
-0.305593
0.312783
-0.612347
-0.185484
0.960848
-0.122194
0.589269
-0.278505
-0.310763
0.0793638
0.111394
0.230092
0.985455
-0.940357
0.00803505
-0.204708
0.291906
-0.470086
0.483418
-0.422252
-0.51309
0.199949
0.158885
-0.358834
-0.764022
0.0372882
-0.109801
0.732316
-0.622515
-0.0681582
-0.915857
-0.676339
0.807611
1.3978
-0.608368
-0.789436
-0.134414
0.302889
0.774899
-0.41351
-0.361389
0.235819
-0.259854
0.0388878
0.0355647
-0.192815
0.0490075
0.143808
-0.107764
0.495179
-0.503078
1.1039
-0.0294242
-0.126975
-0.254646
-0.0707
0.325346
-0.0155972
0.733073
0.174481
0.434291
-0.608772
-0.359703
0.538561
0.409956
0.392967
-0.335651
-0.087915
0.484116
-0.178179
-0.305938
-0.059225
0.0430167
0.0162083
0.14445
-0.780604
0.636154
-0.881071
0.123295
0.197694
-0.472431
0.74797
-0.0075066
0.243325
0.109009
-0.424586
-0.93408
0.468887
-1.02523
0.329674
-0.413725
0.0392425
-0.39456
-0.54747
0.94203
-0.829158
0.164031
0.139563
-0.303594
1.00027
-0.765426
0.776477
-0.556245
0.149447
0.495656
-0.645103
0.20146
-0.36017
-0.545898
-0.161968
0.707866
0.176867
-0.0104599
-0.166407
-0.487818
1.08679
-0.598968
0.760078
-0.485713
-0.274364
0.664288
0.0217375
-0.686025
-0.530974
-0.75402
-0.298183
-0.00857941
0.354959
0.581304
-0.0125201
0.0754188
-0.0628987
-0.643708
-0.152322
0.65235
0.564391
-0.503242
0.600884
-0.0976418
-0.299656
0.317189
-0.0337426
0.287002
-0.25326
0.184953
-0.327404
-0.1155
-0.883098
-0.834727
0.235277
0.0131626
-0.190983
-0.00431399
0.0675904
0.69616
-0.763751
-0.473713
-0.126288
0.437647
0.352557
0.0619031
-0.213605
-0.0130754
0.199769
-0.186694
0.0799706
-0.334035
0.254065
0.233137
0.257777
0.298487
0.781744
-0.362352
0.839099
-0.436069
-0.098666
-0.227488
0.326154
0.711319
0.0724091
0.0306105
-0.629118
0.432305
0.304839
-0.320436
-0.501825
-0.602633
1.10446
-0.623124
-0.548743
-1.06823
1.11082
-0.0425983
0.324121
-0.346705
0.28193
0.524264
0.25748
-0.299012
0.15516
0.143852
-0.27869
-0.544311
-0.0860687
-0.545901
0.63197
0.417458
-0.20022
0.378894
-0.273199
0.551611
-0.883555
0.443516
-0.332139
-0.683079
1.20859
-0.525514
0.627521
0.465824
0.281003
-0.746827
1.08559
-0.627945
-0.457644
-0.510689
-0.65073
1.08635
-0.435622
0.304672
0.284597
-0.254087
0.24658
0.39966
0.762048
-0.182468
0.162676
0.021575
-0.0165601
0.901769
-0.500257
0.436969
0.798094
-0.368214
0.190281
0.177933
0.198766
-0.442727
0.71184
-0.046944
0.411392
-0.187478
-0.646176
-0.119635
0.765812
0.163463
-0.0304616
-0.133001
0.116317
0.0878788
0.129564
-0.883552
-0.252918
0.278511
0.654192
-0.571031
-0.0831608
0.147806
0.336311
-0.1269
0.0671757
0.226637
0.210385
-0.437022
-0.454781
1.06059
-0.0532446
-0.53755
1.10303
-0.565477
-0.272556
0.388026
-0.00523332
0.0180443
1.0494
-0.523029
-0.32936
0.287421
0.282088
0.268331
-0.286454
-0.13877
0.118989
-0.273683
-0.115829
-0.00252608
0.37843
-0.133954
0.760162
-0.626208
0.112571
-0.0952013
-0.316235
0.0741072
-0.28709
-0.0110922
-0.847414
0.57393
0.216861
0.210655
-0.356209
0.0230918
0.333117
0.265459
0.0376516
0.779024
0.422797
-1.20182
-0.0784656
-0.0179331
0.0963987
0.177071
-0.704021
0.91648
0.481324
0.733344
-0.665754
-1.0966
-0.0210921
-0.0203373
-0.0645149
0.431292
0.296867
0.556939
-0.853806
0.336911
-0.0335677
-0.0300851
-0.290787
-0.0774273
-0.483346
-0.407744
0.531862
0.504079
0.382099
0.527779
-0.546459
0.0186805
0.157972
0.00678795
-0.0641893
0.217278
-0.0311465
0.672149
0.167819
-0.839968
0.399522
-0.0204879
-0.195152
0.118459
0.0766928
-0.301628
-0.00208704
0.303715
0.284977
0.564256
-0.849233
0.201785
0.265309
0.64275
-0.0165919
-0.228285
0.567653
-0.0881375
0.0580426
-0.0842536
0.0262111
-0.948396
0.506812
0.778897
-0.622467
-0.15643
0.0113174
-0.110912
0.0995944
0.756283
-0.824694
0.484695
-0.0672364
0.355683
0.420794
-0.103638
-0.0121912
-0.408783
0.155885
0.252899
-0.554266
-0.0974506
0.998831
-0.510675
-0.488157
0.502678
-0.0826608
-0.420017
0.375452
-0.638367
0.262915
-0.0798771
0.463909
0.000623748
-0.363226
0.797763
-0.434537
-0.254943
-0.15384
-0.395232
0.218309
0.128294
0.685217
0.0037427
-0.68896
-0.298111
-0.0531927
0.195713
0.0649781
-0.0151029
0.342172
0.166437
-0.183881
0.197562
-0.00938453
-0.00384733
-0.129051
0.126908
-0.351434
0.500881
0.0111409
0.197381
0.207707
-0.276423
0.682253
-0.0509791
0.578758
-0.12086
-0.0909857
-0.207787
0.434424
-0.176841
0.861249
-0.684408
-0.743308
-0.10114
-0.616381
0.955174
-0.338793
-0.158564
0.376873
0.273063
-0.0549751
-0.0179955
-0.205434
0.22343
-0.767765
0.244736
0.0858678
-0.102559
0.478654
-1.1408
0.350559
-0.934983
-0.463988
1.02327
-0.437383
0.448587
-0.238201
0.0117136
-0.581312
0.725762
0.00031711
-0.124789
0.138988
-0.484594
-0.0837595
-0.550647
0.634407
-0.178374
0.445184
1.24844
-0.819324
-0.429117
-0.190848
0.0577523
0.178147
0.0188382
-0.196985
-0.72031
0.133422
0.150197
0.0251327
-0.00573886
-0.0980125
0.103751
0.401956
-1.01834
0.0772691
0.39767
0.0255411
-0.423211
-0.953593
0.776752
0.115774
0.0312622
-0.147037
0.312226
-0.873441
-0.112824
-0.00228183
0.115106
0.148209
-0.0324345
-0.0038306
0.643713
-0.492555
0.536007
0.436229
-0.234444
-0.805648
0.234214
-0.605254
0.481514
0.12374
0.569389
-1.07121
-0.443213
-0.268935
0.712148
0.0613317
0.344988
-0.257969
0.217207
1.05337
-0.151093
-0.902274
-0.0109004
-0.818764
0.609317
0.0549709
0.370092
0.404807
-0.12742
-0.00372147
0.112391
-0.242437
-0.296957
0.0436616
-0.0391267
-0.00453493
0.018789
-0.653859
0.63507
-0.0513442
0.250282
-0.198938
0.371863
-0.912854
0.540991
-0.101359
-0.475714
-0.0282936
0.017799
0.605185
-0.297153
-0.16744
0.464593
-0.316237
-0.357528
0.383718
-0.224832
0.342152
-0.000832267
-0.34132
-0.476919
0.120711
-0.631967
-0.115837
-0.0189086
0.134745
0.11416
0.255493
-0.369653
0.327183
-0.778028
0.450846
0.0143321
-0.4808
0.149273
-1.10998
-0.355566
-0.757923
1.11349
-0.847385
0.0374504
0.809934
-1.14864
-0.70196
0.016094
-0.234215
0.239388
-0.00517283
-1.17526
-0.306728
0.978877
0.325427
-0.165014
0.0755577
-0.283345
-0.140559
0.405868
0.120985
0.0726934
-0.32734
0.0124415
-0.0979029
0.0854614
-0.199047
0.0730073
-0.0644902
0.0758076
-0.234148
0.446462
-0.878806
0.539373
0.339433
-0.265445
0.180379
0.517545
0.164445
-0.000982648
-0.205776
-0.093236
-0.424954
-0.227127
-0.469776
0.165056
0.304719
0.00840105
0.329204
-0.337605
-0.349736
0.429707
-0.0653228
0.633747
1.03913
-0.864646
0.482456
-0.798693
0.374296
-0.514221
0.139925
0.0796336
0.000156307
0.017396
-0.003517
-0.934688
0.540128
0.110134
0.392544
0.0127073
-0.159645
0.146938
-1.4578
0.591025
0.0575658
-0.272888
-0.159174
-0.016802
-0.180563
0.197365
-0.482697
0.185544
-0.96663
0.851129
1.05024
-0.555914
-0.1522
0.137291
0.0149091
-0.0880671
0.0590243
-0.118563
-0.900163
0.262708
0.637455
-0.110534
0.0926007
-0.0522298
0.243752
-0.191522
0.299192
0.185502
0.155531
-0.139301
-0.0162294
-0.220099
0.23124
0.0819152
1.87732e-05
0.49653
-0.786738
0.937926
0.0444139
-0.534787
-0.128172
0.851226
-0.0319759
-0.81925
-0.203681
-0.101374