/*--------------------------------*- C++ -*----------------------------------*\
| =========                 |                                                 |
| \\      /  F ield         | OpenFOAM: The Open Source CFD Toolbox           |
|  \\    /   O peration     | Version:  2306                                  |
|   \\  /    A nd           | Website:  www.openfoam.com                      |
|    \\/     M anipulation  |                                                 |
\*---------------------------------------------------------------------------*/
FoamFile
{
    version     2.0;
    format      ascii;
    arch        "LSB;label=32;scalar=64";
    class       volVectorField;
    location    "7.2";
    object      U;
}
// * * * * * * * * * * * * * * * * * * * * * * * * * * * * * * * * * * * * * //

dimensions      [0 1 -1 0 0 0 0];

internalField   nonuniform List<vector> 
13486
(
(1.39572 -0.192938 6.02279e-19)
(1.65098 0.300172 2.96619e-19)
(2.66104 0.0437674 0)
(-1.45272 0.562282 -9.17489e-19)
(2.2975 -0.479865 1.47879e-19)
(2.4904 0.164616 9.8341e-21)
(2.47819 -0.345545 -7.50628e-22)
(1.93896 -0.69447 -2.84612e-19)
(1.90695 -0.371246 0)
(1.99017 0.786208 0)
(-0.895041 2.47677 -1.16162e-18)
(2.52164 -0.0746461 0)
(1.23892 -0.401285 -5.92158e-19)
(2.46198 0.794039 5.9934e-21)
(2.37928 -0.313552 8.43714e-20)
(1.94616 0.777069 -1.99404e-19)
(0.618052 -0.149364 7.71414e-19)
(0.828017 -0.543146 1.38015e-19)
(2.20977 -0.012553 2.9275e-21)
(1.58449 -0.0356174 -6.15953e-19)
(-1.28715 -0.0529756 -3.23428e-19)
(1.25881 -0.416664 7.63763e-19)
(1.67361 0.296151 -2.3711e-19)
(3.62023 -0.826747 0)
(2.04524 0.632737 6.74991e-20)
(3.52394 -0.793212 -3.13969e-19)
(0.369096 -0.166173 9.06747e-19)
(2.88138 -0.202397 5.84577e-19)
(2.03755 0.0835304 0)
(2.68491 -0.451957 -4.16681e-19)
(-0.823136 -0.795274 -1.76784e-19)
(2.43772 -0.23885 -1.30323e-19)
(3.25968 -0.125633 4.82054e-19)
(2.19292 -0.113046 0)
(1.9461 -0.666235 0)
(1.74991 0.00861761 4.43974e-22)
(1.70742 0.181173 -2.90202e-20)
(1.42477 -0.669534 2.9395e-19)
(1.74293 -0.151775 -1.55367e-20)
(1.94253 -0.228828 2.96416e-19)
(2.40041 -0.765732 0)
(0.822578 -0.406782 -6.88312e-19)
(1.99395 -0.00366952 0)
(2.06109 0.526877 -3.20433e-19)
(2.08102 0.525869 1.31989e-19)
(2.52364 -0.0736845 9.32432e-20)
(-0.948971 0.119715 1.42543e-18)
(2.01955 0.0810599 -3.15333e-22)
(1.72439 0.175931 2.20387e-20)
(2.82205 -0.0027596 2.19648e-19)
(1.99971 0.030177 3.67563e-19)
(1.80813 -0.0376982 0)
(2.55404 -0.159144 -1.38062e-19)
(1.57798 -0.574969 -4.3103e-19)
(0.860409 -0.715903 0)
(2.26532 -0.487032 -1.04604e-19)
(2.24919 0.463042 7.22604e-21)
(1.79445 -0.0756791 -6.76379e-20)
(3.24696 -0.0992415 5.73387e-19)
(1.54374 0.325775 0)
(-0.963218 2.37857 -1.58638e-18)
(1.55483 0.334762 0)
(3.71021 0.45649 -4.33568e-19)
(-1.20694 -0.0689236 -3.31525e-21)
(2.15815 -2.5699 0)
(1.69158 0.214348 -1.48508e-20)
(-1.71502 0.642493 -1.00929e-18)
(1.39588 0.0665253 2.06956e-19)
(1.90447 -0.393013 -1.67346e-19)
(1.66424 0.00958904 1.39872e-20)
(-1.61472 0.647881 1.15679e-18)
(0.874319 -0.665068 5.83239e-21)
(1.97002 -0.110515 2.22762e-19)
(-0.87802 0.145887 -5.22839e-19)
(1.70512 0.299046 -3.72979e-21)
(2.27306 0.439911 -1.18281e-21)
(1.72508 0.28971 8.63794e-21)
(2.38316 -0.329389 -3.37245e-20)
(-0.800203 0.549996 -7.25929e-19)
(1.81392 -0.524943 0)
(1.99294 0.0207103 1.11794e-21)
(1.59404 0.404375 -1.88962e-20)
(3.68386 0.396935 -1.19386e-20)
(2.75946 0.0403309 -3.32022e-21)
(1.387 -0.206223 -1.17855e-18)
(1.30892 1.70223 0)
(1.61793 -0.319651 -9.5181e-21)
(2.00192 0.0457253 -5.57064e-19)
(1.86296 0.226758 -2.42544e-19)
(1.831 1.0501 -2.25646e-19)
(2.49655 -0.242394 -8.27754e-20)
(2.07234 -0.58167 -1.44401e-19)
(1.45274 -0.305658 1.54271e-19)
(1.63536 0.0994197 1.62165e-20)
(1.78727 -0.549432 6.76332e-20)
(2.00983 0.0691004 6.35991e-23)
(0.303948 -0.109396 0)
(-2.10218 0.635676 6.9713e-19)
(1.95959 -0.226538 -5.65944e-19)
(0.77693 -0.121243 6.80853e-23)
(1.919 0.0192972 0)
(2.42924 0.788594 -1.34293e-21)
(-2.15965 0.510848 5.11688e-20)
(1.79052 -0.0640983 7.92303e-20)
(1.27958 1.65209 0)
(0.803953 -0.0440408 2.30105e-21)
(1.97128 0.068441 4.84335e-22)
(1.75326 -0.181569 -3.48735e-20)
(-0.86064 0.476073 9.78239e-19)
(1.7348 -0.783735 0)
(1.21944 -0.586544 0)
(2.44299 -0.27565 -1.1349e-19)
(1.58725 -0.556662 3.53253e-21)
(2.25104 0.246603 3.5141e-22)
(1.02332 -0.0321867 0)
(1.16712 -0.578042 -2.49584e-19)
(2.04011 0.649696 0)
(2.30229 -0.0918644 0)
(1.95875 -0.111346 0)
(1.78028 0.15145 -1.10124e-20)
(0.891663 -0.514937 -6.06951e-20)
(-1.2285 2.43579 0)
(1.76703 -0.497538 0)
(1.74775 -0.159144 4.99861e-20)
(1.83129 -0.641065 0)
(1.79613 -0.0331871 0)
(2.17615 -0.243935 6.21389e-21)
(2.20834 0.077543 1.24322e-19)
(1.90287 -0.0528477 -5.92792e-20)
(2.24655 -2.22243 -3.4596e-19)
(1.79246 -0.0214265 -8.18285e-21)
(-1.10368 -0.0453556 -3.56488e-19)
(0.529785 0.557481 9.90283e-19)
(-0.240178 0.167296 6.67953e-19)
(1.99957 0.0158534 -5.99085e-20)
(1.8955 0.438276 -2.82101e-19)
(0.599969 0.762525 -1.7198e-19)
(1.7578 -0.778576 0)
(1.79066 0.143258 3.00625e-21)
(1.96717 -0.547768 -1.03667e-19)
(3.08521 0.0122561 -4.92184e-19)
(2.55173 -0.170423 1.16268e-19)
(2.46733 -0.188411 0)
(1.84035 -0.50141 0)
(2.09956 0.00259422 1.4537e-21)
(4.08658 0.306427 -9.27498e-19)
(2.12698 -0.204859 -4.74699e-21)
(0.242569 1.72457 0)
(2.82758 0.0137744 0)
(2.04048 0.0775994 0)
(2.01128 0.0221451 5.80263e-21)
(2.3941 -0.389432 0)
(1.98462 0.0109298 -1.17351e-21)
(1.56949 0.404644 -1.60864e-19)
(2.20298 0.334442 0)
(2.82237 0.0631941 0)
(1.55728 -0.705766 0)
(-0.349787 0.151576 6.96902e-20)
(1.68576 -0.673368 6.0393e-19)
(2.09998 -0.437623 -4.33305e-19)
(2.69727 0.0147028 1.19865e-19)
(1.69252 -0.651559 -9.16189e-19)
(2.35125 -0.260122 6.27935e-20)
(0.730426 -0.347021 3.01966e-19)
(1.81078 -0.0492828 0)
(2.57372 0.783016 -5.34402e-20)
(2.37855 0.720273 5.38602e-20)
(0.387032 -0.0990149 -7.34593e-19)
(2.1131 -0.1757 8.89134e-21)
(-0.255465 0.181706 1.80665e-19)
(0.369921 0.500909 1.72098e-20)
(2.19727 0.306558 1.05443e-19)
(1.99762 0.0904521 -4.60228e-19)
(2.31063 -0.184226 9.3129e-21)
(1.98051 0.0373806 5.20941e-23)
(-1.99073 0.128461 0)
(2.43779 1.12317 3.74287e-20)
(3.19796 0.0710077 6.57979e-19)
(1.97921 0.0634989 -5.87834e-19)
(2.46786 -0.175152 0)
(1.9833 -0.277053 5.89678e-19)
(2.25179 0.224211 9.01841e-22)
(2.37847 -0.182324 -3.72559e-21)
(-1.58048 1.02881 0)
(2.68234 -0.0247482 1.43132e-20)
(2.68151 -0.18734 -2.63831e-19)
(2.08523 0.074315 -2.15391e-22)
(2.63945 -0.304812 -1.22697e-19)
(2.4352 -0.748334 0)
(1.04538 -0.505024 -3.23504e-19)
(1.75823 0.175517 0)
(2.44695 0.0528085 0)
(1.83484 -0.12304 0)
(1.26741 0.8746 -3.34952e-19)
(1.87716 -0.152879 0)
(-1.20195 2.48001 -3.29818e-19)
(2.16592 -2.50415 7.60122e-19)
(2.59182 -0.00502303 6.9396e-20)
(1.04837 -0.517688 -1.28995e-19)
(2.55179 0.742547 -1.6045e-20)
(-0.870826 -0.826009 1.7727e-19)
(2.2209 0.0976492 -3.74311e-21)
(1.30752 -0.632051 -3.39681e-19)
(1.65142 -0.713695 2.95093e-20)
(2.06981 -0.277778 5.25914e-19)
(1.89709 -0.142567 -6.07932e-20)
(0.520538 -0.65803 4.23781e-20)
(1.88743 -0.0380071 4.63315e-19)
(1.82202 -0.128213 0)
(2.69474 -0.00769252 0)
(2.8676 -0.213842 4.2066e-19)
(3.25549 -1.27803 5.90939e-19)
(1.60366 -0.0207065 5.63773e-19)
(1.96545 0.0671355 5.4422e-22)
(2.48778 0.208229 -1.1328e-20)
(2.13137 -0.724167 4.41706e-20)
(2.72984 -0.403611 0)
(1.82761 1.03401 5.61699e-19)
(1.5338 -0.333801 0)
(3.20128 0.811622 0)
(0.801997 -0.12538 -1.47967e-18)
(2.85725 0.0469914 0)
(1.94952 -0.542871 2.40216e-19)
(2.67734 0.0294093 0)
(2.59723 -0.164236 -2.27042e-20)
(1.20262 -0.564517 2.11549e-19)
(2.61936 0.369889 -4.70737e-21)
(-1.23562 -1.44046 2.4299e-19)
(2.07897 -0.473418 6.87235e-21)
(1.6431 -0.308309 -3.31395e-21)
(1.99791 -0.270171 -1.89587e-19)
(1.41572 -0.175886 2.06812e-19)
(3.12141 -0.0137186 6.16492e-19)
(0.843248 -0.407083 2.35852e-19)
(-1.87906 -0.0981189 0)
(1.01921 -0.496036 2.48779e-20)
(2.50984 -0.240536 2.081e-19)
(2.45209 0.0354464 -2.5967e-22)
(0.88894 -0.429692 6.74337e-19)
(2.37639 -0.116522 0)
(3.31098 -0.144261 0)
(2.00394 0.0663143 7.02826e-19)
(2.3178 0.155559 0)
(0.897767 -0.445769 2.23667e-19)
(1.68148 -0.208372 -3.13125e-20)
(1.79908 0.088612 0)
(2.25352 -0.0123844 -4.17119e-20)
(3.0722 -0.697354 8.67766e-19)
(-0.234318 -0.102549 1.11986e-18)
(2.0247 0.502485 0)
(-2.66792 1.17801 -4.17496e-19)
(0.986614 -0.00240381 8.77249e-20)
(0.98383 -0.483333 3.1394e-19)
(1.75878 -0.18798 0)
(1.96222 -0.450688 4.18128e-20)
(-1.76719 0.231672 3.71653e-19)
(2.43969 -0.238971 1.09469e-19)
(2.09506 -0.744548 -5.59106e-20)
(-0.250703 0.179709 -7.27148e-20)
(3.2893 -0.155695 4.14065e-19)
(1.7685 0.245094 0)
(1.66989 -0.197716 -3.27173e-22)
(2.37857 -0.320678 -1.99891e-19)
(-2.11674 0.452347 -4.61261e-19)
(2.19745 -0.69809 -1.54892e-19)
(-1.60948 1.15045 0)
(2.09972 -0.458942 -1.06761e-19)
(-1.1844 -0.604135 -3.10279e-19)
(2.12693 -0.0104202 -2.57364e-19)
(1.23128 -0.41253 0)
(1.51996 0.951703 2.42249e-19)
(1.97225 0.0703692 -1.60356e-19)
(2.75544 -0.424628 0)
(2.56002 -0.110097 7.65175e-20)
(1.13234 -0.544051 2.8006e-19)
(2.98075 -0.706398 -4.84463e-19)
(1.9695 -0.414381 0)
(1.10488 -1.26251 0)
(1.77598 -0.213986 -3.78125e-20)
(2.22531 -0.199635 1.61169e-20)
(1.11545 -1.34728 1.09947e-19)
(2.11151 -0.184975 -2.13854e-19)
(1.93834 0.0913244 3.48082e-19)
(4.32571 -0.314018 -7.87582e-19)
(-1.56511 2.37361 1.87387e-18)
(0.433694 -0.306975 1.48464e-18)
(3.06298 0.0933979 4.97551e-19)
(1.84534 -0.0723448 7.77373e-20)
(2.68094 -0.163311 3.35065e-20)
(2.10233 -0.00128674 0)
(-1.8527 0.0831767 0)
(1.41681 -0.12437 4.41968e-20)
(1.20027 -0.579507 2.46967e-19)
(1.99752 0.0231992 -5.89116e-20)
(2.53956 -0.228576 1.93345e-19)
(2.57811 -0.276973 0)
(2.09261 -0.0368299 -1.5838e-19)
(2.57199 -0.0929753 -5.87744e-20)
(1.92984 0.0755385 -3.18843e-19)
(2.52156 -0.472818 7.81448e-21)
(1.95065 -0.22323 -7.6045e-20)
(0.596655 -0.671688 6.47122e-21)
(2.27394 -0.181315 -1.38587e-20)
(2.42701 -0.240463 1.24703e-19)
(1.75063 0.12519 5.48266e-21)
(1.35697 -0.619231 0)
(0.626761 -0.0559251 0)
(2.21861 -0.0331466 8.51654e-20)
(1.64461 -0.334712 1.12018e-20)
(1.74172 0.181888 0)
(1.84998 1.27565 -1.23453e-18)
(-1.37314 0.602081 0)
(2.33815 1.09812 1.83516e-20)
(2.44602 -0.27629 -1.21112e-19)
(1.95675 1.39367 0)
(1.88388 0.430237 -1.74221e-19)
(1.34038 -0.13375 -6.66209e-20)
(1.86073 0.214186 -2.07663e-20)
(1.88229 -0.0311205 -5.11427e-19)
(2.16793 -0.468962 0)
(1.71085 0.211789 2.70528e-20)
(1.5303 -0.0971365 -1.86257e-21)
(1.98859 0.0608857 7.42935e-20)
(1.61833 0.145266 -3.04361e-19)
(0.703882 0.736409 3.19062e-19)
(2.48126 -0.23958 1.59973e-19)
(2.20919 -0.342341 -5.52585e-19)
(2.12875 -0.183311 0)
(2.63242 -0.079131 1.49696e-21)
(2.24282 -0.348625 -9.58764e-20)
(2.00111 0.03135 8.07509e-19)
(2.10035 -0.584266 0)
(2.48011 -0.258492 -3.94752e-20)
(1.41991 0.405054 0)
(2.48947 -0.348325 -8.17399e-20)
(1.8668 -0.515206 -1.82366e-19)
(0.644221 -0.300592 2.82688e-19)
(2.37655 -0.406661 -1.21825e-19)
(2.02176 0.198699 0)
(1.65076 -0.208026 -4.96769e-20)
(2.1325 -0.474248 1.16909e-19)
(1.6289 0.15257 2.87398e-19)
(2.25826 -0.35344 3.83429e-19)
(2.37067 -0.185137 1.93934e-19)
(-2.40811 1.80055 -1.21865e-18)
(2.01793 0.0771717 1.04765e-22)
(2.22963 -0.175964 0)
(0.970525 -0.333066 6.81016e-19)
(3.21896 0.780943 0)
(1.43464 -0.162209 2.65342e-21)
(2.27263 -0.0919329 3.50896e-19)
(2.60356 -0.0936987 -5.56928e-20)
(2.56543 -0.108793 5.82869e-20)
(0.215718 -0.0210694 -1.07335e-18)
(1.93876 0.0752376 3.97911e-19)
(1.92859 0.0245154 0)
(-0.65383 0.353679 -4.8892e-19)
(2.18791 -0.246905 -1.22164e-19)
(1.66785 -0.328661 -8.45906e-21)
(3.08267 -1.27583 4.85222e-19)
(2.43939 -0.0176525 0)
(2.55171 -0.24597 1.06417e-19)
(1.787 0.172674 6.18189e-19)
(1.96877 0.0793736 4.87873e-19)
(2.71361 -0.473735 0)
(1.98277 0.00200121 -3.00756e-22)
(2.59731 -0.266835 -1.95459e-19)
(-1.39821 -0.523418 2.23368e-19)
(1.56737 -0.0363764 7.83091e-20)
(2.19497 -0.212644 1.16142e-19)
(2.03789 0.00643601 -1.38956e-21)
(2.22347 -0.168381 0)
(2.58716 -0.156033 -7.76457e-20)
(-2.70157 1.33138 4.42487e-19)
(2.46225 0.42789 2.99627e-21)
(1.99769 0.0294416 3.09876e-19)
(1.38318 0.0285213 0)
(1.55396 -0.176635 -6.25731e-20)
(2.08725 1.39999 0)
(3.33179 1.30663 -2.81281e-19)
(2.13565 -0.027743 0)
(2.09131 -0.677866 -6.82016e-21)
(1.29544 -0.0919748 -1.67046e-19)
(1.50789 0.880735 5.79237e-19)
(-1.32539 -0.251652 -8.23299e-19)
(2.00248 -0.411221 0)
(2.39518 0.0643777 -7.45419e-20)
(2.02832 0.207328 -1.84678e-19)
(0.972054 -0.498411 -4.50244e-19)
(-0.664542 -0.338104 2.06223e-20)
(1.63256 -0.0365379 -8.50454e-19)
(2.81114 -0.376043 2.03952e-19)
(2.09866 0.204068 1.31129e-19)
(1.42508 -0.441144 0)
(1.34302 0.335158 3.28732e-19)
(1.81922 0.156264 -7.04866e-21)
(-1.56915 0.640939 5.45256e-19)
(-2.72903 1.28187 -1.47982e-18)
(1.12106 -0.38787 -9.26243e-19)
(3.09558 0.0722259 0)
(1.05718 -0.470409 0)
(2.00583 1.21669 0)
(2.10254 -0.0841738 0)
(0.818194 -0.154857 -1.07119e-19)
(2.46275 -0.325192 0)
(1.53864 -0.209796 0)
(1.65627 0.115723 1.1807e-19)
(3.18938 0.089466 -6.82371e-19)
(2.19839 -0.160605 -2.84876e-19)
(1.69443 0.345027 1.01219e-18)
(2.00626 0.0226357 -9.47026e-20)
(2.33231 1.75117 0)
(2.87357 -0.302763 0)
(1.92142 0.0797074 3.40379e-19)
(2.02304 0.0520067 6.05322e-20)
(1.28244 0.929172 0)
(-1.64392 0.995794 1.23674e-18)
(2.17954 -0.714175 1.74332e-19)
(-0.287723 0.142398 0)
(2.3714 -0.117176 1.93861e-19)
(1.97493 0.0629942 -3.94054e-19)
(0.32843 0.0111094 -5.7994e-20)
(0.965797 -0.318626 0)
(2.01184 0.212839 3.44572e-19)
(2.66369 0.206575 0)
(2.63078 -0.298567 0)
(2.23056 0.208955 -1.74102e-20)
(1.93376 0.0962678 1.83005e-19)
(0.369934 -0.168187 -1.17338e-18)
(2.33493 0.709583 3.15198e-20)
(1.31175 -0.327958 -2.9355e-19)
(2.10681 -0.0744999 3.78526e-20)
(2.10277 0.198583 1.02423e-19)
(2.69286 -0.156998 1.95305e-19)
(2.27824 -0.691562 0)
(3.12439 -0.57123 4.31495e-19)
(1.30543 -0.0341084 0)
(1.48297 -0.14416 3.66533e-20)
(2.29363 -0.189151 0)
(1.42027 0.0814463 4.38397e-19)
(-0.625536 -0.243359 -1.34633e-18)
(2.77269 -0.361819 0)
(-0.201487 0.133594 3.00528e-20)
(2.88403 -0.334899 -4.48402e-19)
(1.75292 -0.310284 -2.85942e-20)
(1.75768 -0.253333 7.9059e-19)
(1.4002 0.867573 -3.64449e-19)
(1.30302 -0.315891 -8.36868e-19)
(3.48814 1.28106 0)
(1.76665 0.148081 1.1674e-20)
(-2.35476 1.8973 -3.06867e-18)
(2.01654 0.220949 0)
(1.84088 0.241044 2.26107e-20)
(2.93534 -0.032847 -4.64547e-20)
(2.73546 1.18445 0)
(2.00336 0.0189587 0)
(-2.1799 1.10345 0)
(-1.74433 -0.293411 1.65384e-18)
(4.26895 -0.406408 9.52064e-19)
(3.74212 0.367788 3.11509e-20)
(2.30356 1.05218 0)
(1.69465 -0.156879 5.44656e-19)
(1.97298 0.0366275 -1.60831e-22)
(2.33246 0.654142 -6.30551e-20)
(-1.31555 0.257073 6.19614e-19)
(1.90804 0.17289 0)
(2.02682 0.0800472 0)
(0.69853 -0.0887676 -4.64243e-19)
(1.39879 -0.432697 -2.04115e-19)
(1.9499 -0.17118 0)
(1.26518 -0.612443 -2.24783e-19)
(1.95185 0.0191552 1.00304e-21)
(2.01029 0.0606295 -1.94985e-22)
(0.725775 -0.335247 0)
(1.92575 -0.045109 7.70162e-20)
(1.8015 0.139956 7.78356e-21)
(2.66059 0.184276 1.13915e-19)
(1.8482 -0.533275 0)
(0.432729 -0.26737 -2.23497e-18)
(2.583 -0.0964883 6.40961e-20)
(2.00204 0.0943635 7.25447e-20)
(1.88113 0.0335973 3.99281e-21)
(2.64511 0.768647 0)
(1.66799 0.339436 -2.69683e-19)
(3.18297 0.538085 -2.3437e-19)
(1.07059 -0.295634 1.92093e-19)
(2.00867 0.0544977 0)
(-0.724381 -0.382812 -2.10817e-20)
(0.433117 -0.0662786 0)
(2.0049 0.0507082 -2.81284e-19)
(1.99117 0.0720118 1.22277e-19)
(1.87631 0.0561337 -6.64144e-20)
(-2.0155 -0.000365154 0)
(2.31583 0.0322356 -1.61372e-20)
(1.06636 0.48746 8.96099e-19)
(2.24698 -0.686937 0)
(1.62291 0.102826 3.67822e-19)
(2.49417 -0.489813 -8.77694e-21)
(2.21145 -0.0167951 0)
(-1.21145 -0.753219 1.71049e-19)
(1.83126 -0.479384 -6.85524e-20)
(2.04884 -0.000734389 0)
(0.669145 0.00986682 1.42926e-18)
(1.82895 0.228926 0)
(1.65387 -0.754521 2.40712e-19)
(-2.70865 1.05956 8.81553e-19)
(2.08484 0.0837073 2.37393e-22)
(2.51168 0.168975 -4.16122e-20)
(1.33486 0.315375 1.73888e-19)
(1.75086 -0.281147 -2.91356e-19)
(2.00494 -0.374838 -4.64563e-20)
(1.69452 -0.762584 2.96462e-21)
(2.17749 -0.217606 1.13863e-19)
(2.63258 0.774989 1.16741e-19)
(1.8072 -0.798794 0)
(1.99666 0.02481 -2.74794e-19)
(0.0203735 0.224038 -5.16615e-19)
(1.33212 -0.0453327 0)
(1.84572 0.222656 -1.33432e-21)
(1.62187 0.00701358 0)
(1.19068 -0.339852 7.22784e-19)
(2.06176 -0.747982 0)
(1.80269 0.00123089 -3.37424e-21)
(2.28258 -0.0885552 -1.99962e-19)
(-1.17091 -1.03577 3.19111e-19)
(-2.31516 1.14487 1.23923e-18)
(2.33019 -0.0237053 -1.7291e-21)
(1.30383 -0.616013 1.85259e-19)
(1.75306 -0.492302 2.74065e-19)
(1.44816 -0.313764 0)
(-0.471485 0.364488 -6.7151e-19)
(2.29933 -0.626793 -3.67474e-20)
(-0.500159 0.474249 -7.90423e-19)
(2.01214 0.0707097 1.68564e-23)
(1.40712 -0.543342 0)
(2.2368 -0.0200185 -1.47644e-21)
(-1.74269 1.14957 0)
(-2.24605 0.5109 5.28468e-20)
(0.350475 -0.0692582 7.20879e-20)
(-0.12657 0.151362 0)
(2.03973 -0.50701 7.5902e-20)
(2.12997 -2.63244 0)
(2.75128 1.09537 0)
(1.42927 -0.675956 -3.17619e-19)
(1.44978 0.37414 2.67434e-19)
(1.6596 -0.599766 0)
(1.7943 0.198089 -1.69911e-19)
(3.66638 0.392623 9.57707e-19)
(-2.69007 1.46983 2.0743e-18)
(2.72665 1.45624 0)
(2.18414 -0.0451009 0)
(-2.23684 1.98261 -1.34252e-18)
(1.87715 -0.102543 0)
(2.72225 0.0287218 0)
(-1.10019 2.34686 -2.49461e-20)
(2.04045 -0.366064 -3.7265e-19)
(1.72052 -0.405123 2.39164e-19)
(3.33727 -0.228635 6.0332e-20)
(-0.651041 0.546206 1.46011e-18)
(1.9921 0.0612674 1.39591e-19)
(1.4831 -0.346994 0)
(2.18431 0.503629 -5.15755e-20)
(1.38277 -0.174466 0)
(2.41116 0.0401622 0)
(2.00018 0.118693 0)
(2.22094 0.189615 -1.42447e-20)
(1.86545 -0.0281167 2.37941e-19)
(2.28815 0.103539 -3.06429e-21)
(1.52632 -0.352265 0)
(0.307617 -0.115355 -8.67065e-19)
(2.0409 1.15763 8.24254e-20)
(1.83041 -0.655728 2.51556e-20)
(2.02525 -0.0959159 -1.26017e-19)
(2.94391 -0.699859 7.7362e-19)
(2.03952 0.0685728 -2.27156e-19)
(-0.629673 -0.30479 0)
(2.56729 -0.0970472 0)
(1.41818 0.884059 0)
(1.16209 -0.522622 -5.15355e-19)
(0.0493412 -2.03291 -3.36078e-19)
(0.361003 0.121131 0)
(2.20972 0.517059 0)
(2.61408 -0.182958 8.84527e-20)
(1.94763 -0.0344824 -5.96944e-20)
(1.89687 0.659664 2.91913e-19)
(1.65296 -0.70547 0)
(-1.36335 1.91933 -3.56301e-19)
(2.4355 0.071596 2.29586e-20)
(1.36859 -0.397646 -4.88988e-19)
(2.26366 0.0680491 -7.79354e-20)
(2.32346 0.659686 1.11836e-19)
(3.97236 -1.5565 8.51765e-19)
(1.16019 -0.526618 9.00886e-19)
(2.11935 -1.16028 2.53222e-19)
(2.27666 0.22136 8.46485e-22)
(1.99992 0.0143443 -6.91082e-20)
(1.1481 -0.535322 -7.00511e-20)
(1.84528 -0.45474 2.91001e-20)
(1.60314 2.13737 -8.98725e-21)
(1.28098 -0.611021 1.16824e-19)
(2.63546 -0.0640259 0)
(1.65148 -0.258997 -1.75899e-22)
(2.21537 -0.0434246 -2.53986e-19)
(2.96369 0.819926 1.17045e-19)
(1.33948 -0.361944 -4.47059e-19)
(1.81219 -0.627198 -2.76416e-19)
(1.94361 -0.0098103 5.6977e-19)
(2.37841 -0.0557013 -3.25283e-19)
(1.38661 -0.15571 -4.44586e-20)
(3.05521 0.109532 -2.61769e-19)
(1.112 -0.135629 -9.87497e-19)
(2.1423 -0.0267695 -1.98324e-19)
(1.09453 -0.201784 0)
(-1.26236 -1.17922 -1.01273e-18)
(1.89812 0.0345516 5.45086e-19)
(1.59099 -0.00604385 -9.97074e-22)
(-0.915719 0.0646875 0)
(1.52435 -0.695607 0)
(2.03445 0.46479 2.57458e-19)
(0.971883 -0.12902 6.13617e-19)
(2.02205 -2.46828 -1.52677e-18)
(2.11589 -0.672923 -1.21879e-19)
(2.22445 -0.355384 3.00654e-19)
(3.28311 0.753984 0)
(2.04547 0.506944 1.40002e-19)
(0.684881 -0.566738 -3.23599e-21)
(2.49353 1.1237 6.40095e-20)
(1.96698 -0.253354 -3.38755e-19)
(-0.838226 0.738558 -2.38498e-18)
(2.87901 -0.690008 -7.37275e-19)
(3.1787 -0.614211 2.36078e-19)
(2.25959 1.26786 0)
(2.30549 -0.437396 -8.86312e-20)
(1.88759 0.0532654 6.06259e-20)
(1.98235 0.0269887 4.05762e-22)
(0.759426 -0.366252 8.30107e-19)
(1.94731 -0.250993 5.07629e-19)
(1.43192 -0.158577 1.90779e-19)
(-2.73507 1.41314 -1.19802e-18)
(2.43365 -0.200758 -2.08357e-19)
(2.27603 -0.024082 1.76728e-19)
(-1.45522 2.35272 -2.29161e-19)
(2.40293 1.07118 -5.75019e-21)
(0.740653 -0.0702695 -1.54866e-18)
(0.919922 -0.44926 -2.69898e-19)
(1.99526 0.0189713 0)
(2.26858 0.396456 9.90117e-22)
(-1.84183 1.84072 -9.91334e-19)
(1.28845 -0.119883 8.98035e-19)
(2.12304 0.0640605 0)
(2.02211 -0.231175 7.16069e-20)
(1.1282 -0.467125 2.05101e-19)
(1.99297 0.0443902 -5.98212e-19)
(-2.49276 1.5729 -1.23172e-18)
(1.66601 -0.584172 -1.24643e-20)
(2.2083 -0.171091 1.93619e-19)
(2.35 0.066882 1.065e-19)
(1.67416 -0.763654 -3.30151e-19)
(2.30206 0.153982 3.91676e-21)
(0.149631 -2.2499 -1.26257e-18)
(2.12392 -0.0426249 2.38273e-19)
(2.10545 -0.0630852 -1.63855e-19)
(2.16451 0.103691 -6.62724e-21)
(2.12798 -0.032348 -3.56368e-19)
(1.06458 -0.472627 -3.96194e-19)
(2.27373 0.204244 0)
(-1.98704 -0.526731 1.06787e-18)
(2.11017 0.0737383 4.38591e-20)
(0.741381 -0.0184065 -8.21865e-20)
(2.45926 0.0316774 -2.51755e-20)
(2.17159 -0.373979 -1.87837e-19)
(2.00023 0.0184118 -4.73061e-19)
(2.10748 0.340962 7.78312e-20)
(-1.75297 1.127 -1.27737e-18)
(2.73303 0.0337517 0)
(1.5858 -0.161361 3.18292e-20)
(2.61726 -0.0998359 5.70021e-20)
(1.4175 -0.529776 0)
(2.15575 0.0804663 1.42799e-19)
(2.63601 -0.0803079 6.05925e-20)
(2.70532 0.0379331 2.48315e-24)
(2.44096 -0.757749 4.21849e-20)
(1.93826 -0.136909 0)
(1.77473 0.379816 4.93653e-19)
(2.11302 0.809674 -1.91627e-19)
(1.24965 -0.603469 2.64025e-19)
(2.01541 -0.169612 0)
(1.44531 0.329214 -7.7363e-19)
(0.96209 -0.432318 -6.4526e-20)
(2.48839 1.55341 -2.27084e-19)
(1.12244 -0.160797 9.5947e-19)
(2.12663 0.00451708 5.8215e-21)
(-2.42474 1.238 1.01882e-18)
(1.93953 -0.0905935 -3.64665e-19)
(3.12551 -0.449531 -5.94942e-19)
(1.77296 0.168255 -3.5719e-19)
(1.96244 0.00629076 0)
(2.00005 0.0335548 -2.60891e-19)
(0.201491 -0.0947432 5.02304e-19)
(-0.468677 0.382977 0)
(3.44672 -1.14441 0)
(1.98035 0.0270004 0)
(0.912558 -0.225972 0)
(2.05685 0.339104 0)
(1.04773 -0.127964 0)
(2.22246 -0.721523 -8.03268e-21)
(3.85114 0.228514 -5.68285e-19)
(2.64923 0.398158 0)
(1.75317 0.380718 7.43631e-19)
(1.27087 -0.470762 8.33298e-20)
(2.08925 0.210239 6.45703e-21)
(-1.60015 2.02155 -4.47148e-19)
(1.06267 0.108794 -1.7924e-21)
(-1.98392 1.2485 1.08717e-18)
(1.79707 0.000365031 -1.32123e-19)
(2.8392 -0.022602 3.18452e-20)
(2.03201 0.320781 -1.77692e-19)
(1.86467 0.204228 -4.82674e-19)
(1.97511 1.07817 -2.02615e-19)
(3.34187 1.25257 0)
(-1.01462 -0.114737 7.49231e-20)
(1.2123 -0.35547 -7.91899e-19)
(2.01059 0.0273552 -8.04345e-19)
(2.31176 -0.636213 -1.7755e-19)
(1.98429 -0.0295562 5.6062e-20)
(2.63269 -0.547202 -6.59521e-20)
(2.11419 -0.286774 -4.22394e-20)
(2.05482 -0.496337 -2.62253e-19)
(2.02921 0.185735 1.92271e-19)
(1.78436 1.15375 0)
(1.98323 -0.332349 -4.23062e-20)
(1.67504 0.0945803 -1.09307e-19)
(2.47062 -0.305804 0)
(1.79432 -0.187617 0)
(1.73178 -0.789263 -3.99204e-21)
(-2.43679 1.13054 1.07136e-18)
(2.18182 -0.751387 -2.35824e-19)
(1.73777 -0.00748205 0)
(1.90692 -0.0408545 -4.84045e-19)
(1.79661 0.24002 -9.35079e-20)
(-2.00328 -0.613713 5.60951e-19)
(2.67291 -0.0287651 1.99334e-20)
(-2.15429 1.3068 0)
(-1.10757 -0.0362099 1.05212e-19)
(2.66007 -0.0597275 0)
(2.2788 -0.461221 9.2971e-20)
(2.51436 -0.24508 -8.24935e-20)
(1.99985 0.0301224 -2.0092e-22)
(2.39413 0.733018 -9.52894e-20)
(2.71307 1.33687 -3.27647e-20)
(1.70532 -0.470859 5.71403e-19)
(-0.236771 -0.68971 0)
(1.71439 -2.27105 -5.87642e-19)
(1.35041 -0.791648 0)
(2.71248 0.385182 -5.10381e-20)
(-2.07077 -0.40273 9.80812e-19)
(3.38077 -1.10297 6.50872e-19)
(1.62364 -0.162539 -3.06413e-20)
(-1.61699 0.616103 -2.4882e-18)
(1.07476 -0.529361 -3.04884e-19)
(1.25711 -0.364477 -4.58333e-19)
(1.80675 0.158407 2.5642e-21)
(1.90958 -2.06606 4.84366e-19)
(1.10607 -0.487174 3.25848e-19)
(1.31634 -0.392013 5.01607e-19)
(0.117251 -1.95362 4.22345e-19)
(2.42079 -2.18621 -3.47477e-19)
(1.80571 -0.551139 2.77506e-19)
(-1.36246 -0.458172 9.44977e-19)
(2.29322 0.0200949 1.30044e-21)
(1.27159 -0.50734 -6.92166e-20)
(2.36476 0.45568 -4.43083e-20)
(2.24047 -0.508819 0)
(0.898946 -0.263588 -1.82646e-18)
(2.10834 -0.0389918 -3.07066e-19)
(1.99722 0.127183 0)
(2.68091 0.36018 0)
(1.17698 -1.59909 -1.87155e-19)
(3.43836 -0.419957 -6.32766e-19)
(2.47736 0.236569 2.01306e-20)
(2.03669 -0.357084 4.88232e-19)
(1.95546 1.03811 1.85715e-19)
(1.41625 -0.0163206 3.63091e-19)
(-2.2376 -0.101225 -8.12836e-20)
(1.78028 0.676856 0)
(1.34707 -0.423384 4.78981e-19)
(-0.570009 2.13656 2.08874e-19)
(-1.90367 0.643166 1.89184e-18)
(1.6823 -0.634852 9.32933e-20)
(1.45802 -0.655269 -3.4621e-20)
(1.68787 -0.00864049 1.90701e-19)
(1.71981 -0.155645 1.67887e-20)
(2.65061 -0.446775 4.37238e-19)
(-2.28157 -0.208745 -7.83179e-19)
(2.45618 0.229564 -1.23587e-20)
(1.94578 0.0707904 1.98004e-19)
(1.08898 -0.189963 -3.9385e-19)
(1.88353 -0.0779941 3.00347e-19)
(1.28141 -0.178133 0)
(2.46163 0.421051 3.1889e-21)
(1.98423 0.063952 4.4333e-20)
(1.4353 -0.278782 -1.54297e-19)
(1.8411 1.92608 3.45903e-20)
(1.77606 -0.538796 2.087e-19)
(2.07852 0.0318411 8.35649e-20)
(1.34239 0.167141 -5.94446e-19)
(2.4614 -0.319171 0)
(1.61199 -0.127114 -5.5394e-20)
(2.27773 0.0897773 1.05831e-19)
(2.15626 -0.112616 0)
(1.3734 0.0557006 3.38545e-19)
(2.67493 -0.0281206 0)
(1.7416 1.92466 1.12223e-19)
(2.32517 -0.0314879 0)
(1.9824 -0.365769 0)
(2.54552 -0.0420536 4.71986e-20)
(2.44638 0.180238 8.00116e-21)
(3.05358 0.270266 -3.93645e-19)
(1.91505 0.160599 -2.20593e-19)
(1.55898 1.26154 -1.49245e-19)
(2.00157 0.102468 -8.83262e-20)
(2.0868 0.346007 0)
(0.0304042 0.469036 -7.06219e-20)
(2.56034 0.160007 6.34138e-20)
(2.235 -0.447094 -1.89547e-19)
(2.23838 -0.504154 0)
(2.99928 0.80348 1.79435e-19)
(2.18947 1.74567 1.06315e-20)
(2.27088 0.0116751 7.51009e-21)
(1.78195 -0.77111 0)
(-0.768447 2.24687 1.4113e-18)
(2.04989 0.181399 0)
(2.66856 -0.387986 -2.16641e-19)
(-0.188185 -0.0481119 0)
(2.4408 0.219642 0)
(2.0868 -1.27219 0)
(2.0151 -0.742812 0)
(-1.1895 2.43009 -1.75478e-19)
(-1.59811 -0.565998 -3.52121e-19)
(1.85579 -0.0240177 -3.57119e-19)
(-1.38436 -0.933882 -4.42099e-19)
(1.19034 -0.515765 0)
(-1.04467 -1.5045 -4.19833e-19)
(-0.386989 -0.0990049 -1.1044e-18)
(1.44502 -0.678759 0)
(1.42152 -0.49563 -5.07936e-19)
(1.70545 0.329131 -4.09443e-21)
(2.35049 0.439958 1.05618e-19)
(2.42183 -0.774107 1.14476e-20)
(1.85184 0.190559 0)
(2.19122 -0.66843 0)
(3.43773 0.424689 1.88796e-19)
(1.84257 -0.411043 7.79648e-21)
(1.7415 0.129524 -1.04632e-20)
(1.16065 -1.50365 1.28135e-20)
(1.99834 0.00892256 1.94015e-20)
(2.25913 0.384844 -1.3338e-21)
(2.02825 0.188209 2.76416e-19)
(1.5349 -0.123104 3.02191e-20)
(1.86809 -0.495841 0)
(0.198772 0.0671286 0)
(2.30992 0.132103 0)
(1.81294 0.0187227 0)
(1.71814 -0.29948 2.14419e-19)
(2.95182 -0.0134373 0)
(-1.05776 2.48405 2.54102e-18)
(3.47615 -2.16108 -5.02918e-20)
(1.28074 -0.406382 -7.53563e-19)
(1.2303 -0.450915 -4.3281e-20)
(-1.83772 -0.71097 -5.9972e-19)
(-0.476901 2.43037 -1.12602e-18)
(1.85566 0.0533259 6.66774e-20)
(-2.37148 0.290435 -8.42469e-19)
(1.48206 -0.106226 5.01694e-20)
(2.57457 -0.0295181 0)
(2.32572 -0.32808 0)
(1.48247 -0.371073 0)
(2.16831 -0.390187 9.86477e-20)
(2.46726 -2.48666 0)
(1.8143 0.683936 0)
(2.00183 0.0117006 0)
(1.74365 -0.409898 2.23138e-19)
(2.08832 0.210659 -2.62868e-19)
(1.68802 0.0266139 0)
(2.30914 -0.717816 -2.31809e-19)
(1.97697 0.192769 -2.64555e-19)
(2.50236 1.02945 -1.36406e-19)
(1.4833 -0.692236 2.96219e-19)
(1.89188 0.730761 6.40096e-22)
(1.81961 -0.55282 -5.34221e-21)
(1.76514 -0.207481 3.73002e-20)
(2.01931 -0.465413 -8.64173e-20)
(2.42904 0.18753 -6.31308e-21)
(1.76518 0.128631 -1.99426e-20)
(1.81006 0.0904483 -3.44824e-19)
(2.12452 -0.0397614 0)
(0.669575 0.00462282 6.25083e-20)
(1.96657 0.0745662 3.59292e-19)
(0.806574 -0.602333 -6.47593e-20)
(2.10897 -0.272606 -1.24047e-19)
(1.00307 -0.150571 -6.68956e-19)
(2.44687 0.161999 1.76748e-22)
(3.20357 0.556825 3.36523e-19)
(1.99896 0.0864939 0)
(1.61538 -0.228845 -9.57366e-21)
(1.72606 -0.0299406 -1.51066e-20)
(2.04435 -0.471857 1.74614e-19)
(-1.30727 0.17841 -6.98623e-19)
(2.06237 0.0371899 1.8061e-19)
(2.29935 0.203401 -9.32413e-22)
(2.14878 0.0112809 -4.35229e-21)
(2.27269 0.104818 0)
(1.10216 -0.315711 0)
(1.30451 -0.625136 3.65689e-19)
(-2.42283 1.44088 1.33601e-18)
(2.00103 0.00946342 3.64888e-22)
(1.96415 0.0740712 7.177e-19)
(1.58587 -0.226196 3.24463e-20)
(1.41144 0.313533 0)
(1.78335 0.116195 0)
(1.56098 -0.336743 -4.03975e-21)
(2.47283 -0.00734987 7.40585e-20)
(1.94274 0.71097 3.92836e-19)
(2.4587 -0.166112 0)
(2.10714 0.0108237 0)
(2.07001 -0.560366 3.49259e-19)
(1.99263 -0.153928 2.75898e-19)
(-0.173914 0.595511 -5.15715e-20)
(1.7412 -0.0521781 0)
(2.0939 0.148013 1.67149e-19)
(2.58113 -0.886401 -1.06784e-19)
(-2.03141 1.68786 -1.15508e-18)
(2.02439 -0.0192047 -3.82674e-19)
(3.83407 0.12398 0)
(3.5023 -0.361839 5.06779e-19)
(2.33706 -1.05647 -2.16421e-18)
(-0.0234906 0.413515 0)
(1.84905 0.0291431 -1.27323e-20)
(1.91299 0.124905 -2.34981e-19)
(1.81467 0.0143747 -8.10613e-25)
(2.52588 -0.256126 4.74202e-20)
(1.23898 1.06236 3.87045e-19)
(1.85593 0.0468811 0)
(0.985492 -0.355839 -4.64279e-21)
(1.58142 -0.214397 -3.282e-20)
(2.41298 0.974727 -1.91924e-18)
(2.04596 0.320961 2.10882e-19)
(-0.100953 -0.707854 4.49918e-20)
(2.01366 0.02477 -8.32183e-19)
(1.50556 -0.295566 -1.19445e-19)
(1.69834 -0.201676 3.44358e-20)
(1.70745 -0.372983 0)
(1.76307 0.00920024 -7.66708e-20)
(1.03279 -0.475463 2.60368e-19)
(2.25584 -0.0905952 -3.88522e-19)
(1.98912 0.0639401 -3.24321e-19)
(2.64795 -0.371347 1.96849e-19)
(1.6474 -0.145366 8.0142e-19)
(2.23195 0.0131974 -7.30336e-22)
(1.77177 0.119097 2.01834e-19)
(1.83241 0.228316 -6.04676e-21)
(3.34669 -0.214173 -6.76086e-19)
(2.42746 1.14733 -8.15153e-20)
(2.14497 -2.44409 1.18255e-18)
(1.87922 -0.0209182 0)
(1.56055 -0.345531 0)
(1.28527 -0.129856 0)
(1.28237 -0.372194 5.84625e-19)
(2.1503 0.0720222 -5.28196e-19)
(1.77909 0.258801 0)
(1.47533 -0.297875 -4.56488e-19)
(1.7724 0.225295 0)
(1.72928 -0.273394 -3.52244e-19)
(2.21117 -0.472519 -1.99548e-19)
(1.84445 -0.466705 -3.06247e-19)
(1.93714 0.0471753 0)
(1.95118 0.0615211 0)
(2.17878 -0.11898 1.11076e-19)
(2.61664 0.330382 4.69652e-21)
(2.85594 -0.101754 2.40662e-19)
(2.3738 1.83341 -4.78309e-21)
(2.46733 -0.215802 0)
(1.69053 -0.615002 -1.5659e-19)