/*--------------------------------*- C++ -*----------------------------------*\
| =========                 |                                                 |
| \\      /  F ield         | OpenFOAM: The Open Source CFD Toolbox           |
|  \\    /   O peration     | Version:  2306                                  |
|   \\  /    A nd           | Website:  www.openfoam.com                      |
|    \\/     M anipulation  |                                                 |
\*---------------------------------------------------------------------------*/
FoamFile
{
    version     2.0;
    format      ascii;
    arch        "LSB;label=32;scalar=64";
    class       surfaceScalarField;
    location    "0.3";
    object      phi;
}
// * * * * * * * * * * * * * * * * * * * * * * * * * * * * * * * * * * * * * //

dimensions      [0 3 -1 0 0 0 0];

oriented        oriented;

internalField   nonuniform List<scalar> 
20045
(
0.55141
-0.631517
0.0801066
-1.15441
0.502301
0.652107
0.288911
1.60991
-1.89882
0.273026
-0.327783
0.0547561
-0.992545
0.866865
0.12568
-0.394015
1.92958
-1.53556
-1.05628
0.225557
0.830723
0.0581631
0.507396
-0.565559
0.530877
0.437499
-0.968376
-0.67509
-0.254944
0.930034
-0.223007
0.641845
-0.418838
1.88814
-0.998349
-0.889793
0.431668
-0.428056
-0.00361229
-1.23162
0.872306
0.359315
-0.163876
1.00353
-0.839649
-1.07267
0.39758
-0.0245897
-0.300612
0.325202
1.08737
-0.395848
-0.691522
-1.48101
2.18922
-0.708209
-0.773513
-0.0294754
0.802988
0.280272
-0.305771
0.0254992
0.150042
0.281626
-0.233951
-0.920456
0.634767
0.450499
-1.08527
0.922604
0.0519776
-0.974581
-0.512756
1.14752
0.393899
-0.409786
0.0158861
-0.879925
1.79803
-0.918109
1.75086
0.222071
-1.97293
-1.88918
1.21397
0.675212
0.136447
-0.284315
0.147868
1.26748
-1.10842
-0.159066
-0.548344
1.09508
-0.54674
2.07626
-1.22274
-0.853517
-0.642297
0.70046
2.28286
-1.10359
-1.17928
1.42022
0.325356
-1.74558
-0.0745847
0.451722
-0.377137
-2.17339
0.896231
1.27716
0.629522
0.532142
-1.16166
0.00995132
0.561042
-0.570994
0.213493
-0.293109
0.0796158
2.14385
-2.17067
0.0268171
1.42483
-0.434553
-0.990277
0.563727
0.861102
0.913404
0.974738
0.605585
-0.443803
-0.161783
1.25304
0.552731
-1.80577
1.88109
-0.460871
0.123839
1.52142
-1.64526
1.33041
-2.23729
0.906884
1.95209
-1.4286
-0.523487
-0.829549
-0.880335
1.70988
-0.105639
-0.342219
0.447859
0.610439
0.201939
-0.812378
-0.753344
-0.239201
0.0950741
1.36813
-1.4632
1.73521
0.0951367
-1.83034
0.714115
-1.26246
2.14397
-1.49213
-0.651834
-0.133858
0.553815
-0.419957
0.712067
1.4319
0.688433
-1.20815
0.519715
0.268856
0.0114161
0.334208
0.506998
-0.841206
1.60838
0.314849
-1.92322
-0.0888327
0.303626
-0.214794
-0.707239
0.101397
0.605842
0.927433
-0.396556
1.95669
-1.99433
0.0376396
-0.247975
0.159143
-0.593263
1.2037
-0.291994
-1.0727
1.36469
-0.80264
0.772263
0.0303767
1.7463
-0.263366
-1.48293
1.28192
-1.18685
-0.181768
1.92807
0.62841
-0.792286
-0.616681
0.608636
0.00804494
0.79893
-1.42603
0.627099
0.988443
1.17995
-2.16839
0.897498
-0.792956
-0.104542
0.979703
-0.29127
-2.03206
0.347726
1.68433
-0.0102851
0.561695
-0.425371
0.610577
-0.185206
1.08394
-1.62162
0.537679
-1.70796
0.100427
1.60753
0.956655
0.229779
-1.18643
-0.915912
0.72089
0.195022
-1.40609
0.0944175
1.31167
0.840242
-0.181368
-0.658875
0.445036
-0.671597
0.226561
-0.25005
-0.797615
1.04767
0.659132
-0.706396
0.0472636
1.49433
0.41566
-1.90999
0.341353
0.052546
0.0348405
-0.298733
0.263893
1.29917
-0.669647
0.0382993
-0.364873
0.326574
1.53974
0.743121
-0.582014
-0.649607
-0.313086
0.347927
-0.33803
2.07324
0.146278
-0.57165
0.430872
-0.392573
0.404702
1.24661
-1.65131
1.3285
-1.9914
0.662901
-0.0110955
-0.560708
0.478363
0.082345
-0.342644
0.426505
-0.0838609
1.12526
-1.05853
-0.0667327
-0.565803
0.460164
1.36371
-2.06818
0.704467
-0.254496
0.390178
-0.135682
0.0664046
-0.410832
0.344428
1.09658
-0.173973
1.6389
0.437356
-1.21878
0.926787
1.36706
-2.049
0.681936
0.291277
0.796093
0.405881
-0.539739
-0.860997
0.69287
0.168127
-0.844884
0.121573
-0.664286
0.542712
1.39404
0.558045
1.09537
-1.49493
0.399563
1.55304
0.156586
-1.70963
-2.0723
1.63093
0.441369
-0.746296
-0.332772
1.07907
2.055
-0.660956
-0.676376
0.232573
0.812249
-0.906699
0.0944509
-0.245076
0.130305
0.114771
1.17511
0.817113
-1.99223
1.25275
-1.10186
-0.150894
-0.332915
0.106394
0.226521
-0.393984
-0.166724
2.27711
-0.910047
-0.744961
0.765914
-0.0209525
0.97756
-1.62421
0.646651
0.463799
-1.29335
0.779004
0.602889
-1.38189
1.54479
-0.745857
1.89128
-0.209173
-1.6821
0.299496
-0.92844
0.628944
1.84187
-1.23651
-0.605357
-0.314185
0.406069
-0.0918844
0.0354941
1.67952
-1.71502
2.10945
-0.358592
-1.7245
0.0846219
1.63988
-1.08816
0.801904
0.286261
1.98308
-0.99464
0.24706
0.650438
-1.31426
1.49755
-0.183287
-1.24294
1.53185
0.0278887
-0.505435
0.477547
-0.203128
-0.54448
0.747608
-0.0442913
-0.420331
0.464623
1.68117
0.00188291
-1.68305
2.18823
-1.03872
-1.14951
-0.504782
0.460491
1.02204
-1.29783
0.275787
0.260104
-0.0466111
-1.76663
-1.04245
1.20296
-0.160515
-1.21069
1.01751
0.193183
-0.0236712
-0.116758
0.140429
0.692089
1.14978
-0.105922
-0.139154
0.831888
-0.0196392
-1.32229
0.00803188
-1.41166
1.78856
-0.376895
-1.40588
1.47528
-0.0693965
-1.20135
-0.817111
2.01846
0.17918
-0.541679
0.3625
0.696563
-0.966702
0.270139
1.24203
0.181329
-1.42336
-0.0277046
-1.46396
1.49167
-0.84424
1.62324
0.383003
-1.13366
0.750659
-0.758367
2.12208
-1.49622
1.11811
0.378106
-0.267787
0.311729
-0.0439416
0.727003
-1.93674
1.20973
-1.51987
0.639944
-1.22798
-0.70786
1.78327
-1.17629
-0.606978
-0.691717
0.701668
0.406117
-0.43314
0.0270228
-1.49766
-0.448458
1.94612
-1.42084
1.99861
-0.57777
1.98147
-1.34955
-0.631916
0.0107188
-0.430614
0.419895
-0.468145
-1.08239
1.55053
-0.52831
0.305304
-0.870654
0.124357
-1.11502
-0.441512
1.55653
0.28669
0.0666289
-0.353319
0.00301133
-1.04546
0.332833
-0.196386
1.61595
-0.0629057
-0.380254
0.30567
-0.445893
0.542892
-0.0969992
-0.357967
2.03913
-1.64465
1.17651
0.983434
-0.42766
-0.555775
-1.43543
0.316634
1.11879
0.621076
1.36039
2.00809
-1.28109
1.2874
-2.00499
0.717591
0.682462
-1.24675
0.564292
0.111638
-0.885151
-0.948121
1.35282
1.21854
-1.61256
0.231377
-1.35091
1.11953
-2.02703
1.02438
1.00265
-0.193387
-0.722525
0.391411
0.336852
-0.728262
0.963521
-0.0839905
-0.879531
-0.389463
-1.13679
1.17229
-0.562188
-0.182773
1.07321
1.57168
-1.41275
-0.158929
-0.0232198
-0.316164
0.339384
1.2588
0.0727601
-1.33156
0.145642
0.353294
-0.498936
0.0396365
1.14326
-1.18289
-0.668457
1.7524
1.18788
-0.804878
-0.322844
0.888713
-0.565869
1.38521
-0.407652
0.280701
-0.0247203
-0.25598
0.253544
0.116919
-0.370463
-0.326826
0.341855
-0.0150288
1.81372
-1.23587
-0.577845
0.516132
-1.93697
-0.363329
0.0365028
-1.55329
0.420418
1.13287
1.57749
-0.482411
0.540945
-1.95261
2.39426
-1.15291
-1.24135
-0.0426469
0.329337
1.93951
-0.850847
-1.08866
-1.20499
0.214948
0.99004
-1.76817
1.8631
-0.0949284
0.672162
-1.30534
0.633177
0.10302
-0.194709
0.091689
-1.002
1.21065
-0.208653
0.0802592
-0.385761
0.305502
-0.363574
0.109077
-0.410254
0.0676095
-1.36263
-0.628771
1.11593
-1.62661
0.510685
0.259741
-0.54726
0.287519
0.943072
0.324411
1.06791
-0.836528
-0.912036
0.708908
0.867676
0.709819
-1.05113
0.119189
0.931938
0.666266
1.27324
0.872656
0.130869
0.485761
-0.22602
-0.629792
-0.0874717
0.717264
0.0484277
-0.316215
-1.21593
1.25557
-0.178744
0.314935
-0.136191
-1.75545
1.66666
0.088793
-0.475946
1.38765
-0.911705
-0.306923
-0.334099
0.641022
1.46973
-1.62741
0.157678
-1.08426
-0.942767
2.0718
-1.43717
-0.634631
-0.255411
0.232192
1.47564
-0.803476
-0.584036
1.69996
0.29465
-0.806142
0.511492
1.84951
-0.290013
-1.5595
1.88594
-0.446312
-1.43963
-0.607506
0.902156
1.68366
-1.01834
-0.665321
-0.388973
1.64187
-1.2529
0.526505
-0.997747
0.471242
-0.526912
0.135594
0.391318
-0.467405
0.0482062
0.419199
1.85722
-1.44206
-0.415156
-1.15346
-0.918839
1.19318
0.378509
-1.57431
-0.181146
-0.0949674
0.348512
0.497815
-1.69565
1.19784
0.00772436
0.398393
-1.09269
2.2678
0.609339
1.20438
1.96547
-1.29214
-0.673323
-1.8941
1.45259
1.28022
-1.97385
0.693633
-1.22066
-0.151551
1.37221
-0.680636
-0.306924
0.98756
1.17003
-0.147985
0.599428
0.384007
0.649429
-0.263256
-0.845161
-1.39715
2.021
-0.62385
-0.528901
0.083008
-0.435584
0.11274
0.184289
-1.95246
1.18702
-1.85548
0.38343
-0.645087
1.00958
-0.364497
-0.00777459
0.280801
-1.03278
0.590155
0.442623
0.852267
0.272995
0.00304351
0.545459
-0.548502
0.943928
0.308825
-1.20705
1.70487
1.16276
-0.206105
-0.453411
-0.982018
2.03019
-1.30897
-0.721226
1.93373
-1.96344
0.750659
1.21278
1.54601
-1.72988
0.183869
-0.95227
0.702219
-0.307978
-0.0249373
-0.434747
-0.971342
0.672616
-1.14105
0.468434
0.836431
0.847227
1.17355
-1.78214
0.608586
0.576289
-1.13817
0.56188
-2.00738
0.299421
0.0567085
0.783534
-1.19397
1.42179
-0.227822
-0.44906
0.671021
-0.221961
-1.06732
0.0110394
-0.273284
-0.507138
0.780422
0.258514
0.00289559
-0.261409
-0.616504
-0.471661
0.69764
0.916219
-1.61386
1.8394
-1.17314
0.814261
-0.909417
-0.0428524
1.01653
-0.440241
-1.31627
-0.179948
-0.282964
0.405166
-0.122202
1.93648
-0.683441
-0.982542
1.50393
-0.521392
-0.289648
0.34126
-0.0516125
1.2382
-0.274676
-0.627912
-1.06774
-1.03009
1.77622
-0.746137
1.09641
-1.81629
0.71988
0.841598
1.2302
-0.357964
0.318431
0.039533
0.249235
-1.46989
1.40569
-2.11379
0.708101
-0.797053
-0.005587
-0.230819
1.32619
-0.4667
1.65372
-0.555156
1.23762
0.374625
-1.85563
-1.41691
1.00686
0.410047
1.34078
-0.289929
-1.05085
1.84157
-0.371838
-0.864797
-1.0344
-0.962464
0.729594
0.598914
-0.708263
0.109349
0.650206
-0.679681
-1.52189
1.29107
1.70252
0.441334
-1.53788
0.555337
1.58679
-0.393612
0.269507
-0.398585
0.129078
-0.142949
-1.0487
1.19165
-1.83611
0.350624
1.48549
1.68577
-1.68577
-0.687142
1.86015
-1.173
0.609759
-0.606716
1.01756
-0.866014
-0.151541
-1.80321
1.91732
-0.114102
0.752922
-0.0714071
-0.681515
0.595029
-0.19956
-0.395469
0.315127
-0.62205
-0.0774621
1.15755
-1.74158
-1.54366
1.82621
-0.28254
-0.648249
1.34589
0.34608
0.0250733
-0.371153
0.0417504
-0.0045583
-0.0371921
-0.773261
0.884899
1.7821
-1.33224
-0.449861
-0.242633
-0.99903
1.24166
-0.536547
0.568996
-0.032449
0.354531
-0.61266
0.258129
-2.13045
0.909231
1.22122
-0.234345
-0.093438
0.389562
-0.120055
0.000826758
-0.360209
0.359382
0.740792
1.11642
0.357023
-0.0109432
-0.274775
-0.422238
0.697013
-0.992478
1.57409
-0.581607
-0.0103143
0.405807
-0.395492
0.890752
-0.665195
1.65137
-0.230039
-1.42133
0.10041
-0.898025
0.0370673
1.20496
0.904696
0.555062
-1.45976
1.01729
-0.810056
-0.207233
-2.09828
0.373785
-0.821571
0.484359
0.337213
0.578046
1.00705
-1.5851
-1.32908
1.17753
0.118424
-1.81683
1.6984
-0.335636
0.346355
-0.27338
0.316676
-0.0432959
0.0814032
-0.711195
-0.852745
0.0940825
0.758663
-1.29372
-0.259571
1.2189
0.919509
-0.342443
-0.577066
-0.31576
0.0261123
0.290961
-1.3879
1.09694
0.230879
1.02775
-1.25863
0.491122
-1.36904
1.6201
-0.251062
-1.42866
1.03968
-0.185068
-0.224717
-0.838449
-0.372244
-0.590178
0.139336
0.450842
-1.70078
0.708306
1.2661
-1.50874
0.469641
1.11715
-0.711665
0.678025
0.03364
0.318224
-1.33689
1.01866
0.372689
-0.595488
0.222799
1.0738
-1.70171
-1.27599
-0.129894
-0.720282
0.0130433
-0.516634
-0.0264743
0.543108
0.697836
-0.301471
0.557248
-0.255777
1.4311
-0.853053
-1.47321
1.97988
-0.50667
0.544026
0.405004
-0.94903
-0.743571
0.407935
-0.511615
-0.0785627
0.280086
0.737469
-0.570943
-1.47805
-0.430131
0.147167
1.20718
0.914954
0.247806
-1.41702
1.54086
-0.0885001
-0.670171
0.758671
-0.114544
-1.69439
1.80893
0.284368
-0.295714
0.011346
0.587732
-0.408552
-0.452216
0.978722
1.04341
-0.743912
-0.70186
-0.330919
-0.0446843
-0.854236
0.89892
0.817092
-2.01844
-0.0419085
-0.981926
1.02383
0.0145568
-0.294606
0.28005
-1.25861
0.0280456
1.23056
1.87272
-1.31999
-0.0114848
0.223757
-0.212272
-0.488038
-0.0485093
0.377331
0.755604
-1.13293
0.33854
-0.415445
0.0769053
1.33274
0.761425
-2.09417
-0.811732
2.30606
0.250723
0.00779061
-0.513207
-1.18983
1.70304
0.847099
1.43001
1.49486
-1.26398
-0.778705
0.505421
-0.43054
-0.0368654
-0.601784
1.882
0.261638
-1.55649
1.29485
1.86147
-0.272935
-1.58853
-0.597193
1.24742
-0.650229
0.783337
-0.359924
-0.919042
1.27897
0.378228
-0.374183
-0.00404507
-0.651093
-0.897535
1.54863
0.145792
-0.104042
0.126492
-0.150163
0.937658
-1.58875
-1.34728
-0.36699
1.71427
-0.0641074
-1.01404
1.07815
-0.0559186
2.11745
-2.17939
0.0619353
0.472829
-0.236036
-0.236793
-0.0319407
-0.679724
0.489266
0.558399
-0.738998
0.0583623
-1.46609
1.87546
-0.409371
0.150689
-0.329433
1.03249
0.512299
-1.68842
-0.482246
-0.0671207
-0.398887
0.466007
1.08005
-0.165098
-0.463899
0.509538
-0.0456383
-0.312861
0.393121
-2.31857
1.09059
1.68252
0.24706
-0.192606
0.547138
-0.449125
0.993151
1.70806
-0.55051
-0.474338
0.0104388
-0.257371
-1.26452
0.605767
0.550161
-0.522273
-1.84286
0.00674268
-0.0208575
0.465463
-0.0927749
-2.01547
1.22837
0.787097
1.64021
0.316471
0.447076
-0.155345
-0.291731
0.639897
-0.578733
-0.0611638
-1.76363
0.660042
-1.97938
0.949292
-0.437395
0.227717
0.209678
0.0419086
-0.273101
0.231192
1.95643
-0.0714399
-1.88499
0.464668
0.0297828
-0.494451
-0.299509
-0.561488
0.507263
-0.0622271
-0.268427
0.276252
-0.00782529
0.875913
-0.0815675
-0.794345
0.0294641
-0.297891
1.64511
-1.22945
-0.0657665
-0.326097
0.391863
-1.89963
0.433538
0.038349
0.0931323
-0.406218
0.200033
0.719476
-0.0817373
-0.830298
0.512426
0.376079
-0.888505
0.746994
-0.412786
0.63791
-0.72641
0.50598
-0.439576
0.22432
-0.67338
1.63214
-0.441477
-1.19067
1.14374
-0.156926
-0.986814
-0.709118
-0.219322
0.307407
0.0832257
-0.390633
0.536004
-0.85591
0.319906
2.03939
-0.0503676
-1.98903
0.34403
0.1026
-0.44663
-0.972388
1.34743
-0.375043
0.912694
1.02474
-1.93744
0.150452
0.403363
-0.60159
0.928995
-0.327405
0.475425
0.205236
-0.680661
-1.36895
0.77297
0.595978
0.256482
0.0197705
-1.63626
0.288983
0.67634
-0.401075
-0.275265
0.820757
-1.16882
0.348066
-0.217932
-0.413584
0.299547
1.8179
1.60134
-0.286849
-1.31449
-1.558
0.188959
0.651853
-1.10526
1.2713
-2.08109
0.809798
-0.232387
0.623798
-0.0166108
-0.823057
0.548283
-0.35094
0.472513
-0.220645
-1.56492
1.78557
0.839852
0.635786
-1.39859
1.48384
-0.0852489
-0.0286851
-0.487949
-1.13225
-0.428444
-0.274996
0.305797
-0.0308001
-0.0240701
-0.544119
0.568189
-0.223018
1.06186
-0.838838
-0.293003
1.11376
-1.09451
-0.389783
1.48429
-1.5009
-0.430698
1.9316
0.908226
-0.793997
-0.114229
-0.564766
0.0418867
0.522879
0.310461
0.152245
-0.462706
-1.79267
0.0559165
1.73675
0.0490107
0.431028
-0.480039
1.52536
-1.65458
0.129225
-0.880358
0.470049
0.499202
-0.969251
0.0241594
-0.299156
-0.732431
-0.522611
1.25504
1.23681
-1.99518
-1.94587
1.7241
0.221771
0.406392
-0.0678527
1.51112
-0.47863
-0.210408
-0.370441
0.580848
-0.026807
0.41679
-0.389983
-0.400581
1.41932
-1.01874
1.73469
-1.27118
-0.463512
1.92453
-1.85217
-0.072361
1.40664
-0.779062
-0.627583
0.088781
-0.507641
0.41886
-0.633292
-0.0309935
-1.87569
1.64787
0.227824
0.0131029
-1.8888
-0.499291
1.3695
-0.870214
-0.939927
-0.502132
0.449539
-0.369483
-0.0800555
-1.46632
-0.433306
-0.426614
0.296743
0.129872
0.383152
-0.23751
-1.81848
1.72401
0.0944706
-0.430888
0.28876
0.483503
0.501961
-0.0372924
-1.13332
0.131319
0.346221
-0.385686
0.0394658
-0.535385
0.717222
-0.181838
0.822128
-0.0692058
-0.465553
0.825031
0.413166
0.776097
0.640383
0.282493
-0.922877
-0.382932
1.0795
-1.26785
0.813311
0.454535
0.264274
-0.00779225
1.47616
-0.636305
1.04029
-0.722065
-0.267955
-0.48844
0.756395
0.469818
-1.51059
1.04078
1.16418
-1.22829
1.98357
-0.859059
-1.12452
-0.0124081
-1.07379
-0.194057
-1.38114
1.95433
-0.573191
-0.0911776
-0.48409
1.77149
-1.98476
0.518444
-0.444384
-0.0825281
-0.376547
0.363751
0.352232
-0.0103773
-0.994864
-1.04014
2.12999
-0.84807
0.296858
-0.526653
0.229795
0.11144
0.483589
-1.33482
-0.664534
1.99936
0.83231
0.337717
-0.00690607
-0.328204
0.33511
1.68103
0.300554
0.0280251
-0.328579
1.26033
0.371812
-0.633183
-1.8912
0.347538
-0.487352
0.0279791
0.459373
1.09185
1.30242
0.18516
0.436444
-0.621604
1.83281
0.0917232
1.17781
-1.70903
0.53122
-1.61268
0.0181996
1.59448
-1.48065
1.89091
-0.410254
0.318452
-0.00964935
-0.308803
-0.728087
1.9649
0.179543
0.396259
-0.575802
0.114483
-1.51308
1.15566
-0.557765
-0.5979
-1.64904
2.1162
-0.467155
-0.452943
1.12983
-0.676884
2.32363
-1.0129
-1.31073
0.103943
-1.22045
1.11651
0.288159
0.028517
-0.743365
1.65606
1.10374
-1.79088
1.73228
-0.635875
-0.406549
0.340782
-1.66694
0.0542549
1.83951
-0.665966
0.00680277
-2.03886
0.589935
-0.0288925
0.534292
1.19083
-1.72512
1.10846
-0.322667
-0.785793
1.18249
-1.89299
0.710503
-0.411597
0.0236031
0.387993
-0.40781
-0.973602
1.38141
0.760309
-0.535989
-1.09773
0.822501
0.275225
0.426568
0.391013
-0.817581
0.168151
0.281388
-1.61696
1.91958
-0.30262
0.259467
0.0249013
0.862096
0.414879
-1.27698
0.626743
0.797043
-1.42379
0.376023
0.964761
-0.0230479
1.91432
0.0174409
1.58086
-1.5983
0.00776444
-0.0180788
-0.738393
0.101367
0.637026
1.23784
-0.928674
-0.309167
0.913263
1.07031
-0.383824
0.298402
0.0854228
-0.485217
1.57821
-1.09299
0.00198343
0.381007
-0.38299
0.479203
-1.37386
0.894656
-0.670858
-0.40189
1.07275
1.36805
-0.109253
0.511064
0.597396
-0.681269
-0.70754
1.38881
0.619436
-1.61847
0.186797
0.361665
-0.548462
0.413552
-0.108663
-0.304889
0.0132272
0.274932
-0.15171
1.77783
-1.62612
-0.232543
1.75396
1.47875
-1.26145
-0.2173
1.30552
-1.07574
-1.06795
0.468327
0.599618
-0.303817
-0.562197
-0.212745
0.237523
-0.0247778
0.141484
0.305592
0.268153
1.48257
-1.75073
0.51361
0.362303
0.261109
-1.76201
-1.03116
0.27445
0.756709
-0.697212
-0.457151
1.15436
1.03719
-0.524768
-1.68972
1.04147
0.799005
-0.785336
-0.0136694
-1.15306
1.66092
-0.507868
-0.879489
0.979899
-1.11229
1.10694
0.00534734
-1.39134
1.95727
-0.56593
-0.0459076
0.469564
-0.423656
0.318901
-0.276992
-0.871708
-1.28042
1.98128
-0.700852
-1.08616
1.40279
0.98357
-1.07295
0.0893846
-0.152645
-0.307166
0.459812
-1.88862
1.31259
0.576029
0.0147779
-0.268574
0.253796
0.0561105
1.02392
-1.4245
1.39151
-0.921694
-0.369598
-1.04731
-1.36727
1.38471
0.883522
0.133989
0.506736
0.457732
-0.964467
-0.708413
0.649635
0.0587781
0.523075
-0.0947881
-0.428287
0.563728
-0.905051
0.341323
-0.839656
1.11406
-0.274406
-1.40769
-0.238103
1.64579
0.281382
-0.434028
0.748076
0.489765
-1.95511
1.39503
0.560075
0.367269
0.198066
-0.565334
0.0149084
0.406954
-0.515059
0.108106
-1.28335
-0.368043
0.931772
0.311546
0.440272
-0.351491
0.402019
-0.42609
0.657538
-0.99031
0.0613106
0.597822
0.0522013
-0.654648
0.602446
-1.03254
-0.7727
1.80524
0.306375
-0.987644
-1.04495
-0.0456518
1.09061
0.208085
0.449731
-0.657816
-0.00559664
2.10708
-1.33441
-0.772671
0.351577
1.24976
-0.0396373
1.10582
-0.676729
-0.42909
-0.590031
1.18399
-0.593955
-1.10766
-0.348965
1.45663
-0.948041
0.346452
-0.685266
-0.382679
2.37752
-0.887914
-1.48961
-0.447622
0.115884
0.331738
0.662821
0.224255
-0.887076
-0.371921
0.420932
0.151681
0.46191
-0.613591
-0.179991
-0.0570492
-0.447733
-0.0218741
1.50356
0.873958
-0.979226
1.87546
-0.467529
1.6815
-0.412873
-0.0347492
-1.49834
0.390679
1.45786
-1.20863
-0.258463
-1.24539
0.272999
0.800648
-1.29994
1.22819
-1.37114
1.60969
-0.0636847
-0.408611
-0.262986
-0.417019
-0.274637
0.691656
-0.638372
-0.0680242
1.39906
0.265558
-1.66461
-0.0289761
-0.51634
0.545316
-0.221535
0.777434
-1.99045
1.21302
1.61779
-0.0924309
-1.82469
1.85517
-0.0304843
0.432513
-0.331116
-1.65027
-0.238354
-0.627427
1.77402
-0.126153
0.555
1.90608
-0.734429
-1.17165
-1.1058
-0.116082
1.22188
0.115217
0.856473
-0.971691
-1.3912
0.132588
-0.4282
-0.153444
0.581645
-0.873829
1.13547
0.363309
0.950154
-1.31346
-0.750734
0.123721
0.627013
-1.62363
0.0794813
1.54415
0.226778
1.16473
-0.545259
0.787639
0.619005
-0.431818
-0.389753
1.36509
-1.57426
0.299423
-0.700825
0.401402
-0.438226
0.588678
1.36147
0.0193406
-1.38081
1.19764
-1.66517
0.0697471
0.0332731
-0.447225
0.949294
-0.502069
-1.20391
0.47148
-0.0512502
0.606746
-0.555496
0.365081
0.144624
-0.509705
0.374375
0.213358
-0.540413
1.19227
-0.155613
-0.281783
-0.337685
0.361845
0.583521
-0.230227
-0.278482
0.0837726
-0.42603
0.404826
0.0212033
0.434591
-0.487854
0.0532637
-1.38198
1.11861
0.11618
-1.16113
-0.0793977
-0.612319
-0.0326353
1.12441
-1.09177
0.677271
-0.764743
0.539746
-1.1414
0.601657
-0.912336
1.51892
-0.606586
0.539399
-1.93654
0.498314
-0.0661544
-1.87972
0.768381
1.36161
-1.42316
-0.266558
-1.30569
-0.657745
-0.86876
0.361622
-0.30488
-0.131292
0.436172
2.15752
-1.06567
1.88249
-0.476805
-0.464959
-0.332184
0.797143
-1.72761
0.710667
1.01694
0.502393
0.139452
-0.451493
0.921542
0.34484
-0.194798
-1.18349
0.522128
-0.342585
0.0803525
0.466641
-0.546994
-0.281301
1.68036
0.275705
-0.429556
0.153852
1.82446
-2.12122
0.967696
1.15353
0.332983
0.53263
-0.865613
1.36242
-0.975352
-0.387068
-1.07004
0.617093
-0.363656
-0.117013
0.779834
1.76518
-1.87972
0.855028
-0.379603
-0.750607
1.37004
-1.99437
1.37916
0.615207
0.515492
-1.43468
0.91919
-1.34158
1.46956
-0.127979
0.628763
-1.01169
0.025692
0.337343
0.570883
-0.107153
-1.31888
0.48688
-1.91409
0.712478
1.20161
0.447632
-1.55343
1.45005
-0.0340459
-1.17094
0.187226
0.813222
1.98391
-0.666896
-1.31701
-0.989111
0.477743
-1.17495
0.348204
-1.76281
1.64673
-1.05252
0.692592
0.91473
-1.63921
1.10349
0.535726
-1.87608
1.21804
0.658039
-0.770834
-0.208999
0.223556
-1.92215
1.35346
0.568691
1.2051
-1.93319
-1.5933
-0.0236585
2.06929
-0.797996
1.18875
-0.153756
-1.035
-0.0548722
-0.329173
0.384045
0.315332
0.948684
1.03579
-1.28362
-0.355593
0.288244
0.472065
0.381526
0.74452
-1.12605
0.79611
-0.459258
-0.0414953
-1.75802
1.79952
-0.735326
0.561366
-1.40561
-1.06312
-0.683432
1.74655
0.494632
-0.676
-1.34127
0.415596
0.925676
0.150378
0.113106
-0.263484
1.65166
-1.8723
0.450878
-0.898104
1.10392
0.24855
-1.35247
0.484157
-0.187299
-1.55138
0.450225
1.10115
-1.1011
0.430237
0.585166
-1.1752
0.759375
-0.459952
0.266375
-0.115998
-0.0642176
1.92569
-1.13515
1.45567
-0.320525
1.93615
0.00454512
-1.9407
-1.09956
0.146207
-0.791294
0.0584488
1.62732
0.273424
0.0678357
0.367753
0.133629
0.47613
0.993529
0.522616
0.000459274
-1.67453
-0.143941
-1.73911
0.861907
-1.71275
0.362587
0.380271
-0.742858
1.77129
0.0869544
-1.85825
-0.241442
0.231792
-0.622875
-1.35651
-1.49046
-0.239415
-0.521749
1.71939
-0.646244
0.946636
-0.300392
-1.59201
0.559469
-0.604083
0.985609
-0.824288
-1.19118
-0.501272
-0.463153
0.733292
-0.875934
0.340549
2.01482
-0.240793
1.31593
-0.959492
-0.356438
0.255766
0.632947
0.546289
1.86514
-1.74671
-0.0675565
-0.44672
0.673282
-0.928529
1.04772
-0.914084
-1.08219
0.450297
0.349108
-0.799405
-1.6861
0.000336994
-0.265068
1.48514
-1.22008
-0.257369
-1.56732
-1.24822
1.32098
1.98579
-0.885168
-1.10062
-0.125388
0.609747
1.42796
-0.613564
-0.814397
0.539866
-0.596915
-0.765285
0.026892
-0.338962
-0.0165551
0.355517
-0.407257
0.913993
-0.761969
1.96707
-0.0267088
-0.342774
-0.5446
-0.199837
0.744437
-0.0271182
1.67878
0.596689
0.0902166
-0.686905
-0.750304
1.12763
0.750783
0.827429
-0.882082
-0.149077
1.05119
-0.396867
-0.654319
0.686901
0.196479
-0.88338
0.0331789
-1.27498
1.2418
-1.7704
0.279933
0.443953
-0.856129
1.71804
-0.0186901
0.558556
0.272903
-0.919147
-1.97635
1.01388
-1.64577
0.607057
-0.917046
0.143785
-0.644252
-1.05903
1.70328
-1.92651
0.00765268
-0.379284
0.371632
1.45865
-1.11092
1.11914
-1.00392
0.223254
1.06585
-1.28911
0.274234
-0.702435
-1.33842
-0.545855
1.88427
-0.507234
0.513988
-0.00675414
-0.869381
1.47833
-0.608947
1.42584
-1.11375
-0.312088
1.68542
0.0307657
-1.71619
-0.828651
-1.29257
-0.619685
-0.100597
0.76237
1.29263
-0.0237181
0.215774
-0.192055
-1.21047
-0.340907
1.20747
0.981745
-0.999497
1.23475
-0.235257
0.356155
-0.32813
0.714192
0.292579
-1.00677
-0.133118
0.408823
-0.177034
-1.74511
-1.83535
1.03813
-0.239129
0.0139561
0.318877
0.145104
1.38969
-1.53479
-1.00808
-0.125237
1.22289
0.616509
0.144626
-0.53861
0.638795
-0.762714
0.123919
0.0706156
-0.681633
0.611017
1.06687
0.320782
0.554452
1.59375
-0.757314
1.48901
-0.927641
-0.244454
-0.491431
0.735885
1.43091
0.210963
0.00709744
-1.30638
0.898568
1.63486
-1.66198
-0.70868
-0.743062
1.45174
-0.973663
-0.753943
-1.65122
1.6841
-0.032882
-0.358959
-0.716202
0.441565
1.05484
0.538901
0.277516
-0.433743
0.156226
-0.674466
-1.31986
-0.446457
-1.28747
1.73393
1.1952
-0.362894
-0.405974
0.592771
1.17561
-1.79849
0.768293
-0.716315
-0.843019
1.84107
-0.998052
0.606776
0.785693
0.668375
-1.45407
1.65283
-1.06881
-0.58402
-0.710146
-1.17692
1.745
-0.568079
0.984386
0.331543
-0.582202
0.563512
0.739773
1.58385
-0.445131
0.390259
-0.158476
-0.142995
1.80106
-0.983949
0.848026
1.30949
-0.816766
0.440299
0.376467
0.535456
-0.803411
1.40451
-0.0430314
1.28127
-0.0925123
-1.24531
-0.0409987
1.28631
0.386178
-0.049071
-0.337107
0.339736
0.133093
0.303582
-1.78423
-0.574583
0.655986
1.29581
-1.17989
-0.115919
0.328477
0.722708
-0.312879
0.157535
0.547567
0.42912
-0.976686
-0.670323
1.38444
-0.164988
-0.774597
1.79956
-1.02496
-0.384315
0.810882
-0.188036
-0.562699
1.92359
-0.975215
-0.599092
1.03012
0.332301
0.619338
-0.698736
-0.375933
0.330025
-0.522973
-0.30137
-0.0143898
0.641518
-0.310435
1.50852
-1.19809
0.412902
-0.412076
-0.629995
0.259554
-0.669269
0.0495846
-1.76912
1.25592
0.503629
0.425365
0.457167
-0.670915
0.213749
0.38844
0.222137
1.36246
0.812449
-2.17491
-0.23282
-0.0306829
0.263503
0.0673843
-1.54059
1.29629
0.6895
1.47374
-1.32864
-1.7787
-0.0861008
-0.0783842
-0.806448
0.85381
1.10269
0.603475
-1.70617
0.791349
-0.114077
-0.0567983
-0.606365
-0.210401
-1.11036
-0.909316
0.605499
0.750372
1.22951
1.08037
-0.983014
-0.0973516
0.392757
0.0120694
-0.136555
0.501496
-0.0669053
1.37554
0.358428
-1.73397
-0.553131
0.633483
-0.465679
0.283585
0.182094
-0.675665
-0.020235
0.6959
0.678408
0.498668
-1.17708
0.427158
0.610036
1.27289
-0.0336033
-0.5322
0.681089
-0.54746
-0.337005
0.308983
0.0280218
-1.74377
1.03591
1.57764
-1.29398
-0.283657
0.0373068
-0.310259
0.272952
1.50089
-1.6526
1.12961
0.0655899
0.323921
0.795215
-0.285617
-0.0157532
0.436677
-0.569024
0.132346
-0.883419
-0.266162
1.99754
-1.00765
-0.989891
1.49498
-0.515305
-0.979676
0.795151
-1.32471
0.529558
0.0692817
0.955069
0.0614611
0.00551282
0.863375
-0.868888
-0.108263
0.54494
-0.732214
-0.33207
-0.0974863
1.76502
0.0138573
-1.77888
-0.858367
0.580469
-0.528268
0.348876
-0.0504748
0.273947
0.675347
-1.1163
0.893281
-0.00318607
0.00380106
-0.166852
0.31313
-0.763422
0.986675
0.020346
0.529815
-0.0694682
-0.301904
1.24498
0.0471773
1.03319
-0.241374
-0.256538
-0.415907
0.963473
-0.320049
1.29317
-0.973119
-1.49969
-0.136565
-0.569951
1.44644
-0.876491
0.133006
-0.465076
0.622181
-0.114786
-0.0363817
-0.482652
0.519033
-1.51259
0.537374
0.269686
-0.28117
0.852753
-2.18757
0.582422
-1.77225
-0.557386
1.00788
-0.624142
0.988585
-0.559465
0.0221856
-1.13152
1.1647
-0.00288117
-0.313283
0.126545
-0.920542
-0.18157
-1.06497
1.24654
0.378406
0.598783
2.19607
-1.40167
-0.7944
-0.418463
0.145733
0.464093
0.0409167
-0.50501
-1.45811
0.322961
0.399586
0.0139663
-0.0158803
-0.267739
0.28362
0.908988
-1.47894
0.181338
0.813387
0.115054
-0.928441
-1.44698
1.12693
0.306691
0.0716982
-0.37839
0.683364
-1.96379
-0.290985
-0.0048594
0.295845
0.399427
-0.0927357
0.0335388
1.32403
-0.948009
1.11409
0.972602
-0.545444
-1.61655
0.55343
-1.16348
1.00639
0.157094
0.72987
-1.43855
-0.917722
-0.531971
1.44969
0.00158192
0.800322
-0.584695
0.513288
1.81338
-0.22125
-1.59213
0.0361569
-1.71069
1.50308
0.182338
0.845517
0.582444
-0.321242
-0.00696117
0.311408
-0.462436
-0.678614
-0.307682
0.426929
-0.119247
0.0615283
-1.79845
1.73692
-0.17764
0.662344
-0.484704
0.541811
-1.69622
1.15441
-0.0729215
-1.02894
-0.0570092
0.249566
1.19279
-0.645243
-0.359809
1.00505
-0.672204
-0.621516
0.852851
-0.503743
-0.45372
0.0902614
0.363459
-0.2005
0.657667
-1.78488
-0.213997
-0.137685
0.351682
0.43377
0.356252
-0.790022
1.12175
-1.78415
0.662405
0.132067
-1.05252
0.265462
-1.9145
-0.931488
-1.08335
2.01484
-1.76833
0.100787
1.66754
-1.90685
-1.39118
0.0496029
-0.579571
0.580231
-0.000659563
-1.69804
-0.551357
1.92689
0.727321
-0.351242
0.193964
-0.609871
-0.274878
0.884914
0.300951
0.199627
-0.744227
0.0357417
-0.330658
0.294916
-0.343349
0.029164
-0.217915
0.255222
-0.587634
0.920617
-1.96505
1.2322
0.732844
-0.278254
0.877682
0.993736
0.403671
-0.0174925
-0.197935
0.475451
-0.871325
-0.469948
-1.01011
0.336188
0.673922
-0.0596851
-0.322934
0.382619
-0.820351
0.890966
-0.181404
1.3002
1.02302
-0.426336
0.818089
-1.49029
0.848348
-0.983344
0.134996
0.240004
-0.016247
0.336081
-0.01765
-1.7388
1.09455
0.57164
0.923341
0.0260326
-0.393658
0.367625
-2.08986
0.846919
-0.247223
0.364142
-0.373575
-0.0354396
-0.421252
0.456691
-1.04235
0.397112
-1.81276
1.63572
1.57765
-0.473723
-0.4979
0.454102
0.0437982
-0.462866
0.0639794
-0.306866
-1.95571
0.788511
1.16719
-0.295092
0.264409
-0.141336
0.707809
-0.566472
0.994236
0.135378
-0.375939
-0.151124
0.527064
-0.535035
0.555381
-0.838613
0.0415597
1.0522
-1.68135
1.7008
0.132011
-1.04453
-0.577092
1.66577
-0.0650391
-1.60073
0.117066
0.262872
-0.379938
0.995894
-1.99076
0.857783
0.0476915
-0.905474
0.337187
-0.0123557
-0.324831
-1.60401
1.58216
0.0218535
-0.342934
0.88268
0.916813
0.817877
1.8536
-0.639934
-1.21367
0.0370274
-0.29483
0.257803
0.541475
-0.606224
-0.0270686
-0.583499
-0.0227244
0.147165
-0.615093
0.467928
-0.160325
1.67314
-1.51281
-1.41351
0.402258
1.01125
0.499178
1.45726
0.0558938
0.124672
-0.180566
1.00684
0.434962
-1.4418
0.0674264
-0.372307
-0.670734
1.78248
-1.11175
-1.31289
0.0675714
1.15912
0.480413
-1.39813
-0.00540093
-0.248556
0.253957
1.35058
-0.234809
-1.11577
0.410656
0.433182
-2.09321
1.05307
1.69676
-1.73825
-0.905023
0.125243
0.77978
0.348545
0.0105617
-0.359547
0.348985
0.418276
0.0551686
-0.473444
-0.020299
0.261631
-0.241332
-0.312961
0.328311
-0.0153506
-0.873443
2.04905
-0.570857
0.526173
0.401701
-0.543037
0.630011
-1.00955
0.379542
-1.16012
-0.834253
0.436313
-0.125852
-0.286416
-0.0134056
0.299821
1.97009
-0.714653
-1.25544
0.136698
1.15912
-0.452287
-0.256126
-1.05275
0.198513
0.305696
0.728312
-1.03401
0.119279
-0.189479
0.0702
-0.0292106
0.669108
-0.650173
0.141845
0.508327
1.52636