/*--------------------------------*- C++ -*----------------------------------*\
| =========                 |                                                 |
| \\      /  F ield         | OpenFOAM: The Open Source CFD Toolbox           |
|  \\    /   O peration     | Version:  2306                                  |
|   \\  /    A nd           | Website:  www.openfoam.com                      |
|    \\/     M anipulation  |                                                 |
\*---------------------------------------------------------------------------*/
FoamFile
{
    version     2.0;
    format      ascii;
    arch        "LSB;label=32;scalar=64";
    class       volVectorField;
    location    "0.3";
    object      U;
}
// * * * * * * * * * * * * * * * * * * * * * * * * * * * * * * * * * * * * * //

dimensions      [0 1 -1 0 0 0 0];

internalField   nonuniform List<vector> 
13486
(
(3.22959 -0.631037 1.70398e-18)
(3.45684 0.134438 7.28724e-19)
(4.29127 -0.0923803 0)
(2.36991 -1.45397 -1.77137e-18)
(5.24217 -0.649799 1.41889e-19)
(4.52098 0.088806 8.15522e-20)
(5.77183 0.381929 -1.21305e-20)
(4.44568 -1.51045 -6.93882e-19)
(4.14348 -0.771154 0)
(4.01079 0.804386 0)
(3.51151 -1.34787 -6.3694e-19)
(4.26919 0.139967 0)
(2.98217 -1.03036 -1.73255e-18)
(4.82116 0.53183 2.31389e-19)
(5.07817 0.107088 1.00274e-19)
(4.1776 0.903639 -3.61551e-19)
(3.41112 -1.71645 8.9555e-19)
(3.73964 0.662932 -5.01963e-20)
(4.13032 -0.0131898 7.90012e-21)
(3.45359 -0.288212 -1.66727e-18)
(1.80691 -1.29847 -6.04945e-19)
(3.04349 -1.05587 2.26271e-18)
(3.76977 0.260358 -5.7933e-19)
(3.81846 -0.434752 0)
(4.17484 0.641122 9.51976e-20)
(3.75697 -0.43729 -1.70813e-19)
(3.04611 -1.49194 7.62669e-19)
(3.72456 0.0711562 5.78761e-19)
(4.18384 0.185019 0)
(4.01285 -0.101276 -4.42536e-19)
(1.77003 0.0290679 -2.68518e-19)
(4.64746 0.358346 -1.82126e-19)
(4.07505 -0.285483 4.89762e-19)
(3.91613 -0.0792391 0)
(4.45203 -1.45961 0)
(4.01593 0.248864 -6.75326e-20)
(3.97549 0.0360017 2.16255e-20)
(3.57658 -1.64585 8.3187e-19)
(4.01347 -0.00995061 -1.62944e-20)
(4.03925 -0.485596 7.4208e-19)
(6.235 -1.66718 0)
(2.67019 -1.28852 -2.04543e-18)
(3.9499 -0.0880425 0)
(4.2337 0.61682 -4.56407e-19)
(4.12501 0.373481 1.90233e-19)
(4.24616 0.0935978 2.20958e-19)
(4.13886 -1.70124 1.96634e-18)
(4.09119 0.116659 1.02482e-20)
(3.92664 0.0337371 -2.05467e-20)
(4.31328 -0.129465 3.66367e-19)
(4.37515 0.230952 7.37161e-19)
(3.9097 -0.021142 0)
(4.30147 0.383177 -2.7492e-19)
(3.65308 -1.34636 -1.20365e-18)
(3.52636 0.543194 0)
(5.07034 -0.757448 -1.51703e-19)
(3.96816 0.148606 3.97849e-21)
(3.99288 0.0761052 -1.31839e-19)
(4.27716 -0.37577 6.15157e-19)
(4.00832 0.0946095 0)
(3.44451 -1.26852 -6.5418e-19)
(3.9592 -0.270257 0)
(4.68303 -0.985205 -6.96882e-19)
(1.71745 -1.25548 -8.37403e-21)
(3.39168 -0.223165 0)
(4.00353 0.0727621 1.3953e-20)
(2.39223 -1.25514 -1.45422e-18)
(3.16398 -0.125229 5.77571e-19)
(4.21767 -0.837229 -4.35694e-19)
(3.83119 0.0637932 4.37647e-20)
(2.33437 -1.25685 1.67324e-18)
(3.6731 0.583835 -2.36707e-21)
(4.12038 -0.394642 5.81962e-19)
(4.55407 -4.13418 -2.89902e-18)
(3.85231 -0.158978 1.59864e-20)
(4.0918 0.174358 -6.56359e-21)
(3.95003 0.0164681 3.41075e-20)
(5.21982 0.00603355 -3.82205e-20)
(3.94974 -1.66508 -8.90152e-19)
(3.77936 0.0721676 0)
(3.98471 -0.0783664 -9.05101e-20)
(3.40225 0.46415 -4.72197e-20)
(4.33412 -1.01033 -4.18406e-20)
(4.33623 0.070329 -1.71149e-20)
(3.19223 -0.653159 -3.35472e-18)
(2.95555 2.7996 0)
(3.87605 0.252258 -4.20843e-20)
(4.32727 0.120045 -1.06094e-18)
(3.86174 0.313889 -5.45855e-19)
(3.873 1.34742 -3.64139e-19)
(4.27404 0.465447 -9.80129e-20)
(4.65102 -1.21121 -3.15202e-19)
(3.33385 -0.804832 4.40428e-19)
(3.55904 0.0400287 4.22048e-20)
(4.04599 -1.25776 1.802e-19)
(4.08432 -0.0964139 -7.00678e-21)
(3.31061 -1.61874 0)
(2.57565 -1.25254 5.67276e-19)
(4.27227 -0.371258 -1.41568e-18)
(3.69467 -1.81617 1.36617e-20)
(4.0144 -0.349612 0)
(4.59279 0.535689 7.77558e-20)
(2.56684 -1.19616 -3.77024e-20)
(3.95211 0.0555167 1.58177e-19)
(3.28521 2.51176 0)
(3.7164 -1.81393 9.4921e-21)
(4.12208 0.0364692 9.51491e-21)
(4.00085 -0.00786184 -1.41093e-20)
(4.01159 -1.69092 1.1958e-18)
(4.70825 -2.07864 0)
(3.93508 -1.86581 0)
(4.86506 0.648775 1.97654e-20)
(3.65477 -1.30139 6.04535e-21)
(4.25191 -0.0593258 -5.73192e-22)
(2.5482 -0.391365 0)
(3.86829 -1.88876 -6.59203e-19)
(4.0646 0.688198 0)
(3.95407 0.320457 0)
(3.84783 -0.158453 0)
(3.9806 0.066328 -7.30948e-21)
(3.66574 0.568935 1.95404e-20)
(3.44682 -1.28812 0)
(3.91629 -1.10985 0)
(3.98362 0.026225 5.07754e-20)
(4.20188 -1.43558 0)
(4.00486 0.0577232 0)
(4.44747 -0.402439 1.42883e-20)
(4.26076 0.223029 8.81233e-20)
(3.97003 -0.0600035 -6.36485e-20)
(3.45493 -0.243513 -1.24483e-19)
(3.97728 0.0229664 -1.29297e-20)
(4.17398 -1.74556 -4.99533e-19)
(5.74715 -2.65012 2.79242e-18)
(-1.91315 0.606303 8.77348e-18)
(4.24417 0.0743482 -1.22556e-19)
(3.86475 0.489044 -5.60477e-19)
(1.85892 0.984834 -5.4042e-19)
(4.63821 -2.01128 0)
(4.00428 0.0295908 4.09161e-22)
(4.49696 -1.1675 -2.61687e-19)
(4.24791 -0.375759 -6.62596e-19)
(4.46954 0.102235 2.29307e-19)
(4.40078 0.269321 0)
(4.03429 -0.00569776 0)
(4.26961 0.164393 1.18046e-20)
(4.20296 -0.868386 -9.10317e-19)
(4.05595 0.119841 -4.18569e-20)
(0.748275 2.23952 0)
(4.48478 -0.151044 0)
(4.11125 0.224744 0)
(4.40364 -0.00926708 5.02767e-21)
(5.37241 -0.183274 0)
(4.2237 -0.102074 9.52727e-20)
(3.39524 0.395982 -4.10984e-19)
(4.46767 0.256671 0)
(4.08044 0.124319 0)
(4.8782 -2.265 0)
(4.27465 2.79934 3.18747e-18)
(3.85707 -1.52255 1.65333e-18)
(4.08436 0.0309699 2.65614e-21)
(4.03498 -0.231278 2.85314e-19)
(3.89037 -1.46775 -2.52001e-18)
(4.34081 0.674508 4.21311e-20)
(2.45719 -1.16926 8.99969e-19)
(3.95034 -0.00686285 0)
(4.8141 0.377617 -3.6855e-19)
(4.64485 0.579069 -3.1839e-19)
(1.53103 -0.578606 -2.30965e-18)
(4.09387 0.134138 1.18167e-19)
(-2.75997 0.362849 2.22102e-18)
(5.42834 -2.63521 -2.38094e-19)
(4.18385 0.121583 7.40213e-20)
(3.99605 0.432427 -7.90356e-19)
(4.45293 0.0483417 2.0791e-20)
(3.88816 0.0321424 2.66458e-20)
(2.93888 -0.902988 0)
(5.01587 0.914823 6.74211e-19)
(4.40816 -0.172228 9.22791e-19)
(3.88556 0.12878 -1.38834e-18)
(4.53574 0.370276 0)
(4.1624 -0.48677 1.47877e-18)
(4.06398 0.000509747 -2.1323e-21)
(4.49957 0.150879 -9.50885e-21)
(2.66318 -1.25914 0)
(4.17475 0.0357308 9.58867e-20)
(4.22418 0.0583198 -2.5144e-19)
(3.94935 0.016745 1.13105e-19)
(3.96509 -0.100284 -1.4169e-19)
(6.1077 -1.57034 0)
(3.55549 -1.69489 -8.48665e-19)
(3.99267 0.00422619 0)
(3.85026 -0.176168 0)
(3.98621 0.105211 0)
(3.16562 1.15544 -9.00845e-19)
(3.86744 -0.0462921 0)
(3.5263 -1.40863 -1.77937e-19)
(3.46754 -0.215227 2.88027e-19)
(4.29453 -0.228032 1.68167e-19)
(3.29031 -1.58229 -3.67412e-19)
(4.88005 0.30897 -2.27815e-19)
(2.03805 0.0288868 2.07754e-19)
(4.24622 0.0491593 -7.70104e-22)
(3.56947 -1.69013 -9.69128e-19)
(5.27212 -2.14515 -1.21729e-19)
(4.09821 0.128607 -7.76907e-21)
(3.86434 0.103156 -5.11628e-20)
(3.48069 0.82601 -4.93605e-20)
(4.03416 -0.300192 1.172e-18)
(3.53471 -0.153059 0)
(4.05678 0.113622 0)
(3.80846 -0.0572231 4.98919e-19)
(3.78177 -0.315206 3.01495e-19)
(3.41529 -0.219109 1.51909e-18)
(3.90777 0.114115 4.12674e-20)
(4.31699 -0.133222 -9.40317e-20)
(3.80113 -0.14048 4.34805e-20)
(4.07118 -0.148827 0)
(3.99341 1.23145 1.00155e-18)
(3.50042 -0.83456 0)
(5.19983 -0.40289 0)
(3.58373 -1.76123 -1.76775e-18)
(4.56816 -0.0752697 0)
(4.3828 -1.15368 5.84188e-19)
(4.31461 0.129795 0)
(4.08674 0.221725 -6.31157e-20)
(3.09972 -1.42389 6.17942e-19)
(4.61235 0.102518 -2.07206e-20)
(2.64825 -0.474192 1.21494e-19)
(3.80256 -0.0812211 1.0669e-20)
(4.20747 0.0646597 -9.61451e-23)
(4.2532 -0.513096 -4.69211e-19)
(5.85664 -0.651042 2.02991e-18)
(4.31578 -0.312477 8.36931e-19)
(2.64075 -1.26364 7.02506e-19)
(2.38109 -1.04762 0)
(3.12187 -1.47882 7.21648e-20)
(3.917 -0.0177562 2.26728e-19)
(4.48088 -0.0656464 2.5647e-22)
(3.02208 -1.43755 1.91832e-18)
(4.27347 0.110923 0)
(4.15555 -0.472168 0)
(4.26047 0.252755 1.1792e-18)
(4.00937 -0.000895347 0)
(2.9956 -1.46647 6.59133e-19)
(3.98068 0.0320796 -1.01e-20)
(3.72664 0.0234053 0)
(4.25547 -0.404193 -7.95665e-20)
(3.61876 -0.289536 7.14725e-19)
(0.194004 -1.63921 5.84586e-18)
(4.16698 0.518985 0)
(2.84091 -1.25218 -2.107e-19)
(2.51974 -0.345606 2.56735e-19)
(3.61246 -1.77532 7.95862e-19)
(3.95734 0.0394799 0)
(3.94126 0.0865799 5.15737e-20)
(3.09629 -0.98252 9.26491e-20)
(4.52041 0.430328 1.3653e-19)
(3.70378 0.0120321 -5.50489e-20)
(6.94047 3.87416 -3.13743e-18)
(3.91559 -0.407439 3.69398e-19)
(3.61254 0.0881569 0)
(3.93066 0.061671 -7.67991e-21)
(5.09169 0.0110694 -2.28101e-19)
(3.02172 -0.959943 -1.15782e-19)
(5.09047 -1.40382 -1.59057e-19)
(2.9572 -1.4456 0)
(3.99022 0.0794602 -1.28049e-19)
(1.85477 -0.360774 -4.74581e-19)
(3.75395 -0.110271 -6.19236e-19)
(3.90382 0.365031 0)
(3.29995 1.39354 5.94542e-19)
(4.06384 0.0811303 -3.65848e-19)
(3.92396 -0.184744 0)
(4.20162 0.0725288 1.41992e-19)
(3.12942 -1.46248 8.28075e-19)
(4.11414 -0.269093 -4.06147e-19)
(3.83753 -0.0154246 0)
(3.36576 0.331179 0)
(3.9557 0.0263622 -8.34392e-20)
(4.04318 0.0779823 4.10945e-20)
(3.47688 0.177429 1.35723e-19)
(4.3581 -0.157056 -5.14697e-19)
(4.11642 0.105101 8.00739e-19)
(3.85416 -0.717116 -3.41369e-19)
(3.4012 -1.34194 8.13669e-19)
(3.62136 -1.73268 1.53929e-18)
(4.46385 -0.24591 8.50773e-19)
(3.82219 -0.0372357 8.33194e-20)
(4.16683 0.0976845 8.38657e-20)
(4.17778 0.202185 0)
(2.30791 -1.11443 0)
(3.92266 -0.0496489 -6.66998e-20)
(3.86205 -1.83475 6.67436e-19)
(4.10688 0.0134601 -1.08763e-19)
(3.98393 -0.0706154 2.28365e-19)
(3.9521 -0.0475934 0)
(4.62915 0.12654 -3.87149e-19)
(4.20432 0.128234 -1.86193e-19)
(3.77216 0.0692385 -8.15387e-19)
(6.15636 -0.316711 -4.65296e-19)
(4.16494 0.717138 -5.21136e-20)
(3.47907 0.797178 6.64932e-21)
(4.12233 0.147942 -3.55991e-20)
(4.68548 0.33602 1.80242e-19)
(4.01754 0.00836594 1.9777e-21)
(4.80315 -2.23865 0)
(3.54617 -0.871596 0)
(4.67251 -0.0459695 1.95059e-19)
(4.04282 0.261902 3.56025e-20)
(4.01841 -0.0187801 0)
(6.14581 3.38831 -1.13012e-17)
(2.42703 -1.2641 0)
(4.90973 1.04911 -2.46639e-19)
(4.89825 0.692453 -5.0729e-21)
(3.84199 -0.977834 0)
(3.84976 0.36698 -3.32654e-19)
(3.84883 0.250667 8.95285e-20)
(3.73396 -0.00330461 -4.7397e-20)
(3.70057 -0.0391804 -1.25026e-18)
(3.69751 -0.0200814 0)
(3.97202 -0.0279957 -1.31776e-20)
(4.02971 0.0120728 -9.11145e-22)
(4.02006 0.0214171 1.6522e-19)
(3.50237 -0.126365 -7.79673e-19)
(2.04584 0.918845 9.74079e-19)
(4.46831 0.397207 2.15097e-19)
(4.67837 -0.454809 -1.17999e-18)
(4.26591 -0.586007 0)
(4.38769 0.182647 6.98841e-21)
(4.86884 -0.380058 -1.49135e-19)
(4.11567 0.0285437 1.5399e-18)
(4.88483 -1.14801 0)
(4.35903 0.526143 -4.13393e-20)
(3.09809 0.388189 0)
(5.78782 0.304443 7.39171e-19)
(4.09725 -1.13661 -4.85832e-19)
(2.14224 -1.00399 8.3561e-19)
(5.30574 -0.276895 -9.75204e-20)
(3.98137 0.276245 0)
(3.98021 0.0441254 -8.8873e-21)
(3.76137 -0.0971426 1.81527e-19)
(3.4757 0.0981933 7.35283e-19)
(4.86113 -0.426127 6.90081e-19)
(4.59573 0.0807052 3.44405e-19)
(3.13763 -1.40355 -6.20161e-19)
(4.06058 -0.240686 9.33949e-21)
(4.55171 -0.227948 0)
(2.52901 -0.920688 2.04647e-18)
(5.04028 -0.47469 0)
(3.87869 0.163263 -2.08436e-21)
(4.53419 0.0566706 7.37516e-19)
(4.30802 0.142674 -1.70179e-19)
(4.2459 0.174184 1.20227e-19)
(3.22519 -1.56744 -8.67409e-19)
(3.8309 0.0401859 1.00997e-18)
(4.01954 -0.0693057 0)
(5.0454 -4.1254 -2.23973e-18)
(4.46424 -0.420482 -2.81293e-19)
(3.97001 0.124538 8.34561e-21)
(3.71162 -0.312952 2.97672e-19)
(4.43922 0.0168039 0)
(4.36957 0.376749 1.2884e-19)
(3.72001 0.0522029 1.48246e-18)
(3.83053 -0.0910647 1.10398e-18)
(3.91519 -0.17905 0)
(3.95956 0.0133509 -1.04173e-20)
(3.96707 -0.125199 -2.1294e-19)
(4.29832 -1.81161 2.97289e-19)
(3.48385 -0.398836 2.11125e-19)
(4.51473 -0.102365 2.6656e-19)
(4.19764 0.0620071 2.08856e-20)
(4.39786 -0.129365 0)
(4.09246 0.159864 -1.88708e-19)
(2.94456 -1.28014 1.94734e-19)
(4.42762 0.31384 2.28058e-19)
(3.96512 -0.123155 6.04989e-19)
(3.60789 0.112829 0)
(3.9933 0.0745547 4.22688e-20)
(3.65442 -1.0118 0)
(6.13884 -0.710654 -1.11736e-18)
(4.15798 0.143774 0)
(4.86292 -1.4176 -2.51477e-20)
(3.05701 -0.530884 -4.73162e-19)
(3.48954 1.14661 1.40059e-18)
(4.26321 -1.76627 -1.22523e-18)
(3.89704 0.0946936 0)
(4.33312 -0.0187033 6.60238e-20)
(4.25509 0.165696 -3.38844e-19)
(2.94665 -1.56732 -6.96388e-19)
(0.565604 0.130938 9.13669e-20)
(3.49336 -0.23216 -2.26974e-18)
(3.88676 -0.201159 2.25641e-19)
(4.22352 0.309104 1.95065e-19)
(3.32093 -1.06801 0)
(3.13461 0.237167 9.06889e-19)
(4.05854 0.0307328 -8.49943e-21)
(2.36199 -1.25673 9.96138e-19)
(2.89694 -1.28036 -6.90332e-19)
(3.43195 -1.74903 -1.2694e-18)
(4.11645 -0.344388 0)
(3.33423 -1.75353 0)
(4.29081 1.38949 0)
(4.16183 -0.222665 0)
(4.67061 -1.00084 -1.39882e-18)
(5.63797 0.453453 0)
(3.84169 0.355915 0)
(3.53158 -0.020792 3.04675e-19)
(4.17809 -0.476668 -9.58854e-19)
(4.50977 -0.111714 -6.2533e-19)
(3.64023 0.427376 2.45093e-18)
(4.19838 -0.0561962 -1.06854e-19)
(5.31042 2.28973 0)
(4.10008 -0.132863 0)
(4.04117 -0.106991 8.32144e-19)
(4.12031 0.0203985 1.30032e-19)
(2.90455 1.20685 0)
(2.64975 -1.27573 6.5694e-19)
(5.10831 -1.45088 1.80359e-19)
(5.05511 -2.62502 0)
(4.45485 0.0750533 3.32921e-19)
(3.94757 -0.0650631 -9.23031e-19)
(4.17698 1.54525 1.11258e-19)
(2.51703 -0.899294 0)
(3.97593 0.357927 6.226e-19)
(4.4528 0.0683581 0)
(3.95845 -0.111168 0)
(4.3057 0.425225 -5.72364e-21)
(4.03223 0.0322011 4.11726e-19)
(3.23263 -1.59176 -9.77708e-19)
(4.51594 0.487843 -5.31798e-20)
(3.09861 -0.882296 -8.46536e-19)
(4.24535 0.00828575 8.74003e-20)
(4.12962 0.119486 1.24688e-19)
(4.25622 0.158004 4.46513e-19)
(5.36311 -1.38019 0)
(3.99966 -0.319408 3.40144e-19)
(2.91345 -0.32216 0)
(3.96973 0.0227191 -4.60613e-20)
(4.81601 -0.129977 0)
(3.18686 -0.145036 1.2006e-18)
(3.95989 -2.04208 -1.77639e-18)
(3.86576 -0.204208 0)
(4.34924 1.01075 3.90797e-19)
(3.95099 -0.243628 -4.34488e-19)
(4.04465 0.116101 -2.51018e-22)
(3.73263 -0.585512 2.12436e-18)
(3.2327 1.13107 -9.52159e-19)
(3.0731 -0.865042 -2.41407e-18)
(6.05546 -0.701988 0)
(4.00321 0.0597283 8.10146e-21)
(3.15852 -1.3976 -1.43905e-18)
(4.07591 0.220697 0)
(3.777 0.19374 5.13195e-20)
(4.31136 -0.00990868 -7.88792e-20)
(5.50734 0.741815 0)
(4.25862 0.0498562 0)
(2.42893 -1.19637 0)
(2.98275 -0.878097 3.95673e-19)
(3.76002 -0.637469 4.12407e-19)
(4.04762 -0.838478 2.05807e-20)
(4.74972 1.00382 0)
(3.51887 -0.475734 1.50812e-18)
(4.07662 -0.046121 -5.8002e-20)
(4.43619 0.574028 1.57447e-19)
(2.15547 -1.56469 1.61212e-18)
(3.76866 0.309446 0)
(3.99016 0.15328 0)
(2.03592 -0.525292 -1.42431e-18)
(3.27588 -1.03643 -5.85286e-19)
(4.06188 -0.325678 0)
(4.31777 -2.05591 -5.21382e-19)
(4.11279 -0.131104 -3.85463e-20)
(4.00542 0.0649242 2.88839e-20)
(2.287 -1.06032 0)
(4.13021 -0.100639 1.08652e-19)
(4.04207 0.031696 -3.8311e-21)
(4.39265 -0.173659 3.62105e-19)
(4.17896 -1.19481 0)
(3.63852 -1.74661 -2.29235e-18)
(4.17595 0.154482 2.02954e-19)
(4.0576 0.248923 1.48371e-19)
(3.79327 -0.0951207 -1.01563e-20)
(4.63117 0.363807 0)
(3.41996 0.302429 -6.53948e-19)
(4.66498 -0.358809 -5.16407e-19)
(3.43536 -1.71766 2.53288e-19)
(4.22649 0.290189 0)
(0.966339 0.074891 -9.35596e-20)
(1.57978 -0.49029 0)
(4.12829 0.25352 -4.16896e-19)
(3.65228 0.0602855 2.76512e-19)
(3.95648 -0.043851 -1.33618e-19)
(3.0335 -0.966589 0)
(4.16359 -0.023545 -5.04617e-20)
(2.64488 0.477964 2.59353e-18)
(5.22736 -1.33693 0)
(3.46678 -0.136091 9.79916e-19)
(6.00192 -0.451884 5.25328e-19)
(4.23559 0.168592 0)
(1.96473 -0.381721 1.88846e-19)
(3.84338 0.0378696 -3.50427e-20)
(4.25007 0.19198 0)
(3.70951 -1.7804 1.62572e-18)
(3.81954 0.197242 0)
(4.01155 -1.78705 6.36207e-19)
(2.8574 -1.22021 3.85392e-19)
(4.2717 0.162721 -1.14417e-19)
(4.2489 -0.0603754 -1.62014e-19)
(3.02044 0.235054 4.80113e-19)
(3.79034 -0.661591 -7.9408e-19)
(3.81788 0.0551297 -4.79601e-20)
(3.99287 -1.74129 9.33093e-21)
(4.63169 -0.299184 2.74671e-19)
(4.95406 0.329226 7.27071e-19)
(4.94342 -2.12322 0)
(4.04308 0.205352 -5.38587e-19)
(5.1928 -2.67107 -1.27582e-18)
(2.99492 -0.330296 0)
(4.03019 0.0289122 8.71012e-21)
(4.28924 -0.0514105 0)
(2.86824 -0.893007 2.11069e-18)
(4.73726 -1.59921 0)
(3.89089 0.0869449 1.26587e-19)
(4.34793 -0.155881 -4.1732e-19)
(2.26511 -0.274232 2.77983e-19)
(2.58099 -1.26309 7.74836e-19)
(4.27308 0.355514 -3.31647e-21)
(4.38733 -2.06172 2.54491e-19)
(3.90971 -1.072 7.45625e-19)
(3.28355 -0.770391 0)
(2.8238 -1.37689 -4.63498e-19)
(5.43343 -1.13122 -5.46448e-20)
(2.88279 -1.40732 -5.26055e-19)
(4.0032 0.0579828 -5.09021e-20)
(3.31616 -1.28832 0)
(4.27029 0.456338 -1.17171e-21)
(2.80256 -1.3492 0)
(2.59296 -1.19572 -3.79537e-20)
(4.11739 1.4285 -1.66383e-19)
(6.36204 2.8266 0)
(4.51843 -1.09642 1.75396e-19)
(3.34203 -0.285524 0)
(5.45115 0.530034 0)
(3.94943 -1.83697 -8.41505e-19)
(3.21757 0.374701 7.12239e-19)
(3.87326 0.364596 0)
(3.74907 0.159238 -3.99131e-19)
(4.13278 -0.903694 1.00711e-18)
(2.99242 -1.27652 8.45884e-19)
(5.87616 1.16691 0)
(3.77666 -0.00111615 0)
(3.22981 -1.40887 -6.23077e-19)
(3.95497 -0.255667 0)
(4.34283 0.0968685 0)
(3.43794 -1.24181 -4.53394e-22)
(4.52924 -0.707776 -9.19414e-19)
(3.82094 -0.947002 6.57294e-19)
(4.1026 -0.373928 5.35869e-20)
(2.72026 -1.34028 9.22449e-19)
(4.21541 0.171732 2.98607e-19)
(3.40079 -0.857024 0)
(4.24645 0.574768 -5.44606e-20)
(3.23182 -0.579362 0)
(4.29353 -0.0994369 0)
(3.79532 0.110501 0)
(4.42228 0.207117 6.65642e-22)
(3.87205 -0.189086 6.11628e-19)
(4.06387 0.024327 4.10998e-22)
(3.46165 -0.854729 0)
(2.97269 -1.44556 -7.16555e-19)
(4.43384 1.4071 -4.04457e-20)
(4.20607 -1.49461 6.46401e-20)
(3.98313 0.0504275 -1.23786e-19)
(3.85753 -0.236697 5.96099e-19)
(3.83579 0.249499 -5.1581e-19)
(3.9552 -2.10868 0)
(4.44904 0.129492 0)
(3.19108 1.04901 0)
(2.94701 -1.29881 -1.54364e-18)
(2.98876 -0.00756501 -1.66395e-19)
(6.36307 2.8334 0)
(4.2819 0.504354 0)
(4.3074 0.347498 1.49155e-19)
(4.04266 -0.12377 -1.52169e-19)
(3.85999 0.72326 5.45452e-19)
(5.40221 -2.17543 0)
(3.41528 -1.54678 -2.69793e-19)
(4.24895 0.0698271 -5.95221e-20)
(3.19817 -0.996276 -1.42447e-18)
(4.29402 0.0528093 -6.76606e-21)
(4.49831 0.541608 -1.13274e-19)
(3.61114 -0.515834 2.27882e-19)
(2.91618 -1.30542 2.67558e-18)
(3.78504 -0.00674753 1.91899e-19)
(4.04963 0.0304174 2.25367e-21)
(4.32969 -0.1252 -1.29682e-19)
(3.91005 -1.81957 -1.44769e-19)
(3.87348 0.0666207 2.94503e-21)
(3.57294 3.53169 1.45032e-19)
(4.20763 -1.99875 2.78739e-19)
(4.17445 0.224461 0)
(3.89697 0.222855 -1.07344e-21)
(4.0934 0.169635 -2.87978e-19)
(5.14672 -0.0731216 4.07362e-19)
(3.17782 -0.90284 -1.29305e-18)
(4.12543 -1.40218 -7.33769e-19)
(4.31463 -0.33575 1.22644e-18)
(4.48158 0.113842 -6.94191e-19)
(4.10476 0.316621 -7.23206e-20)
(4.34355 -0.31163 -4.38405e-19)
(2.73391 -0.570059 -2.89159e-18)
(4.21787 -0.313865 -1.38621e-19)
(2.72039 -0.656186 0)
(2.51164 -0.421835 -5.42409e-19)
(4.01371 0.0837984 1.32385e-18)
(4.24202 -0.061461 1.43824e-20)
(4.09435 -3.93708 0)
(4.75357 -2.18913 0)
(4.09663 0.456411 4.02991e-19)
(2.52004 -0.56003 1.80939e-18)
(3.22751 -0.412877 -3.21306e-19)
(4.87177 -1.39476 -2.25005e-19)
(4.81488 -0.48934 6.29289e-19)
(5.17869 -0.367288 0)
(4.08878 0.57517 2.04476e-19)
(3.56212 0.777139 -1.88247e-20)
(4.98983 0.984239 6.92458e-19)
(4.08909 -0.501902 -8.955e-19)
(2.86988 -1.40824 -1.49253e-18)
(3.82679 -0.25066 -5.84531e-19)
(3.83393 -0.244128 1.55479e-19)
(4.78963 1.4848 0)
(3.92232 -0.03449 -9.12133e-20)
(4.0846 -0.0851688 1.44482e-19)
(4.08719 0.0748884 -2.62856e-20)
(2.45982 -1.18456 2.46231e-18)
(4.11606 -0.570765 1.33016e-18)
(3.93019 0.0356832 -3.01671e-20)
(2.97813 -1.28165 -5.16195e-19)
(4.33909 -0.0257976 -2.6286e-19)
(4.3367 -0.336525 1.07525e-19)
(3.41789 -1.35667 -1.06622e-19)
(4.88445 0.960065 -8.8848e-19)
(3.71572 -1.7869 -1.76414e-18)
(3.10457 -1.48069 -8.09987e-19)
(4.0447 0.0226409 0)
(3.77613 0.140684 -4.99172e-20)
(3.25585 -1.17586 -2.60993e-19)
(2.99454 -0.49761 2.58324e-18)
(4.35476 0.0667275 0)
(4.30124 0.693156 2.24007e-20)
(2.82429 -1.15927 6.04727e-19)
(4.04142 0.25424 -1.19231e-18)
(3.00878 -1.43137 -6.19958e-19)
(3.68526 0.0205305 -1.70551e-20)
(4.2381 -0.15308 4.20735e-19)
(4.35085 0.106363 -8.72893e-20)
(4.08574 -1.81929 -8.59531e-19)
(4.06156 -0.00231718 -1.08597e-21)
(2.99914 -0.127247 -4.15666e-19)
(4.13515 -0.157052 2.68323e-19)
(4.35962 -0.107409 -3.83892e-19)
(4.1963 0.0521436 -2.0775e-20)
(4.06901 -0.174159 -7.6497e-19)
(2.72894 -1.18867 -1.17396e-18)
(4.02037 0.0458844 0)
(2.81397 -0.817394 3.43627e-19)
(4.0941 -0.0879088 1.01833e-19)
(4.39177 1.50758 1.97457e-19)
(4.42214 0.206763 -1.94669e-19)
(4.70986 -0.671253 -3.91221e-19)
(3.7385 0.0431663 -8.50638e-19)
(4.18694 0.251796 9.42723e-20)
(2.5444 -1.23567 -6.72536e-19)
(4.20421 -0.092057 0)
(3.97101 0.0100827 -1.76137e-20)
(3.94997 0.248465 1.74036e-19)
(3.31807 -1.25309 0)
(4.21409 0.156121 1.18346e-19)
(4.01066 0.0922346 1.55694e-19)
(4.13828 -0.142312 1.25399e-23)
(6.34577 -1.66578 7.32343e-19)
(3.88493 0.0720017 0)
(3.7173 0.362329 1.10017e-18)
(4.01965 0.0957626 3.87677e-20)
(4.03293 -1.91959 6.88912e-19)
(4.09501 -0.286424 0)
(3.27726 0.180351 -2.05033e-18)
(3.79368 0.557048 -1.35377e-20)
(5.55992 1.73374 -1.6613e-18)
(2.74238 -0.565592 2.77897e-18)
(3.64601 0.267953 1.04607e-19)
(2.65619 -1.31541 5.87818e-19)
(3.92185 -0.206079 -9.19962e-19)
(4.02195 -0.321592 -5.03752e-19)
(3.66294 0.129089 -8.50662e-19)
(3.89328 0.158341 0)
(4.01987 0.176349 -5.98293e-19)
(0.693288 -0.521102 6.7663e-18)
(5.84258 -3.46094 0)
(3.75812 -0.420191 0)
(4.06054 0.0471767 0)
(3.39889 -1.67008 0)
(4.31281 0.366313 0)
(2.63302 -0.535279 0)
(3.79167 -0.113994 -8.12126e-22)
(4.09509 -0.785887 -5.01736e-19)
(4.52094 0.0325043 0)
(3.56569 0.393815 1.77353e-18)
(3.88145 0.402607 -4.71096e-20)
(4.17063 0.210984 4.01481e-20)
(3.33929 -1.19367 -1.41675e-19)
(2.62241 -0.148678 -1.47303e-21)
(2.75656 -1.34855 5.62918e-19)
(4.33331 0.141705 -3.09608e-19)
(4.29626 0.140198 5.51165e-20)
(4.0631 0.412071 -2.77842e-19)
(3.87335 0.287465 -1.0768e-18)
(4.27082 1.33512 -2.06084e-19)
(6.13566 -0.484328 0)
(1.32943 -1.46138 4.16089e-19)
(2.93172 -0.944244 -2.32151e-18)
(4.057 0.149923 -1.79587e-18)
(5.47613 -1.21943 1.09074e-19)
(4.49722 0.0327035 1.23013e-19)
(6.58055 -0.747087 -9.64487e-19)
(4.46653 -0.435998 -9.88615e-20)
(4.61429 -0.982077 -6.15534e-19)
(3.82412 0.048924 3.54421e-19)
(8.53271 2.23722 0)
(3.86755 0.0543087 -3.7518e-20)
(3.68101 -0.0539862 -2.47713e-19)
(5.55292 0.560283 0)
(3.86008 0.0116076 0)
(4.32812 -1.91916 -1.70039e-20)
(2.71894 -1.29891 6.34193e-19)
(3.84222 -0.0327833 -1.96324e-19)
(3.95302 0.01377 0)
(3.87355 0.0180937 -1.18526e-18)
(3.61139 0.192772 -2.17755e-19)
(2.67503 -0.780435 2.30659e-19)
(4.10755 0.156999 8.52697e-20)
(2.73266 -1.33386 0)
(1.39913 -1.37067 3.78658e-19)
(4.43087 -0.037887 0)
(3.89254 -0.0730118 1.10599e-19)
(4.29676 0.407925 -1.13034e-19)
(3.89311 0.0114252 8.87989e-21)
(4.55367 0.657587 5.74231e-19)
(5.65146 1.10681 -1.42249e-19)
(3.84873 -1.04417 1.54285e-18)
(2.37264 1.19621 0)
(3.23405 -0.170116 -3.0246e-19)
(3.69652 0.260718 0)
(4.60881 0.0811446 -1.60176e-19)
(2.59197 -0.858096 5.22572e-19)
(3.67431 -0.424846 3.83161e-19)
(3.91206 0.0402037 8.3538e-21)
(3.15109 -0.999302 -5.74633e-19)
(3.71083 -1.80019 -8.00299e-19)
(2.99682 -0.936412 -1.3055e-18)
(4.03001 0.0491101 6.19361e-21)
(3.50577 -0.0521116 2.494e-19)
(2.77879 -1.20661 9.70266e-19)
(3.10276 -1.02084 1.45571e-18)
(2.85378 0.00981603 2.16357e-19)
(3.46634 -0.149466 -1.41983e-19)
(4.10661 -1.27662 7.37897e-19)
(4.2046 -1.96488 1.39057e-18)
(3.66824 -0.0958695 2.5894e-20)
(3.9201 0.408602 4.78312e-20)
(4.54455 0.313277 4.64552e-20)
(5.0461 -0.810851 0)
(3.19449 -1.55766 -2.37781e-18)
(3.77173 0.090181 -2.92628e-19)
(3.91258 0.140264 0)
(4.60463 0.0375464 0)
(3.46477 0.121168 -1.50128e-19)
(4.03093 -0.365081 -4.63613e-19)
(4.47009 0.131665 3.76012e-19)
(4.39761 -0.71449 1.19363e-18)
(4.22997 1.22662 2.09455e-19)
(3.95706 0.13737 8.59392e-19)
(2.75041 -0.877387 1.81616e-20)
(3.77011 0.770689 0)
(3.13365 -1.02665 1.41125e-18)
(3.78928 -1.46365 2.14911e-19)
(3.11688 -0.968087 4.34496e-19)
(3.88522 -1.46371 2.50876e-19)
(4.97133 -2.2467 1.42995e-19)
(4.35382 0.0396121 4.41225e-19)
(3.92393 0.0120758 4.35026e-21)
(3.98548 -0.163492 4.63321e-19)
(2.7702 -0.93027 -3.3442e-19)
(4.18996 0.0521658 -2.6706e-19)
(3.8657 -0.0532622 4.7889e-19)
(2.71473 -0.665027 -1.15105e-18)
(3.6684 -0.145171 7.71737e-19)
(4.0418 0.429599 0)
(4.51647 0.16608 -2.92633e-19)
(3.89989 0.0436375 1.04212e-19)
(3.28889 -0.771347 -4.40641e-19)
(4.34276 2.76332 3.68773e-19)
(4.0615 -1.26436 5.59487e-19)
(4.02303 0.0420655 1.88791e-19)
(3.07512 -0.0579204 -1.66318e-18)
(5.51888 0.417132 0)
(4.0206 0.0266583 -1.70625e-20)
(4.35154 0.244272 6.68628e-21)
(3.76384 0.150934 0)
(3.04572 -0.181671 9.50235e-19)
(4.00492 0.119604 0)
(4.06583 2.80007 -1.64562e-19)
(4.40933 -0.629302 0)
(3.82641 0.0905005 0)
(4.43193 0.104992 1.33106e-19)
(4.55821 0.303049 -1.74086e-19)
(4.38395 -0.110316 -7.66522e-19)
(3.84401 0.168455 -4.95117e-19)
(3.50944 1.77542 -3.42586e-19)
(3.90264 0.128526 -1.7327e-19)
(4.16965 0.29783 0)
(4.14965 -1.32103 -1.84541e-19)
(4.522 0.0406068 2.87108e-19)
(3.92115 0.00351864 -2.28264e-19)
(5.17784 -0.796626 0)
(5.13052 -0.110587 5.87976e-19)
(4.90056 2.55134 1.17063e-19)
(3.85901 0.0433793 2.17997e-20)
(3.3289 -0.753749 0)
(3.46584 -1.23188 5.12537e-19)
(4.12927 0.153688 0)
(3.90297 -0.128106 -2.25468e-19)
(-1.19679 -0.783005 0)
(4.32683 -1.18972 0)
(3.61616 -0.0668375 0)
(4.61287 -1.60615 0)
(3.57809 -1.47062 -1.21726e-19)
(3.05378 -0.845686 -9.02798e-20)
(4.00179 -0.309762 -9.23186e-19)
(2.25498 -0.45443 -3.65648e-19)
(2.93911 -1.2462 0)
(2.60863 -0.3922 -1.83457e-19)
(0.474297 -2.12228 -5.78594e-18)
(3.64177 -1.68193 0)
(3.26982 -1.15806 -1.47123e-18)
(3.92529 0.283898 1.31524e-20)
(4.43585 0.307139 -1.61794e-19)
(5.91707 -1.6582 -3.90551e-19)
(3.76125 0.232904 0)
(5.09333 -1.34162 0)
(4.60447 -0.714926 3.1557e-19)
(3.83163 0.115532 5.34724e-21)
(3.99793 -0.0180447 -8.89366e-21)
(3.24716 0.126031 1.21718e-20)
(4.05607 -0.0268127 3.98372e-20)
(3.80471 -0.0484237 6.6457e-20)
(4.23611 0.0295302 4.22225e-19)
(3.99987 0.0994397 -1.44575e-20)
(4.25475 -1.08105 0)
(3.46204 -1.65697 0)
(4.00345 0.0297426 0)
(4.38039 0.0459381 0)
(3.70058 -0.747376 5.76751e-19)
(4.42693 -0.0800307 0)
(3.5174 -1.31891 1.22313e-18)
(3.5072 -0.566279 9.95592e-21)
(3.03478 -1.00988 -2.21515e-18)
(3.88042 0.338121 1.41529e-20)
(2.82041 -0.79591 -1.95829e-19)
(3.5972 -1.30353 -6.29646e-19)
(3.90562 0.218048 1.48776e-19)
(2.8899 -1.03979 -3.05317e-19)
(4.02676 0.0645522 2.54745e-20)
(4.23959 0.0238971 0)
(4.81025 -0.156574 0)
(3.84811 0.197546 0)
(4.64249 -0.552451 2.06044e-19)
(3.37324 -0.289736 0)
(3.79054 0.734 0)
(4.11123 0.242747 0)
(3.87949 -0.957064 6.05404e-19)
(4.28297 0.308227 -3.93842e-19)
(4.08231 -0.173061 0)
(3.71117 -0.132313 -1.86715e-19)
(3.9831 0.132722 -4.91153e-19)
(4.99292 0.767135 -1.41271e-18)
(3.611 -1.65138 8.39393e-19)
(4.10137 0.933556 -1.94049e-20)
(3.80403 0.234877 -5.64177e-21)
(4.04952 0.10181 8.27191e-20)
(3.75325 0.0400329 -9.67534e-20)
(4.25366 0.243361 2.34077e-19)
(4.04 0.00873771 -2.52986e-20)
(3.72225 -0.0836927 -8.44088e-19)
(4.1018 -0.0901372 0)
(4.40018 1.38729 -1.5367e-19)
(3.7981 -0.0787676 8.1962e-19)
(3.64702 0.619228 2.55165e-20)
(4.37995 -0.410644 -3.00992e-19)
(2.56548 -0.598975 -1.98338e-18)
(4.42221 0.103317 -3.51101e-20)
(4.81745 -0.435881 7.43011e-19)
(3.75782 0.194593 0)
(4.05766 0.0883032 -2.6224e-20)
(3.94571 0.0560103 -2.02831e-20)
(3.74459 -0.0367898 2.19038e-19)
(1.94971 -1.46867 -1.85225e-18)
(3.91095 -0.151193 4.35151e-19)
(4.04686 -0.0117343 -3.64853e-21)
(4.14587 0.120806 -1.0551e-19)
(4.00786 -0.00439236 0)
(4.0017 0.536302 0)
(3.4596 -1.61926 1.04091e-18)
(2.92518 -1.39821 6.60722e-19)
(3.80042 -0.0157734 2.12998e-20)
(3.83997 0.0531631 1.65517e-18)
(3.91374 0.403903 3.07708e-20)
(3.14424 0.201689 0)
(3.7571 0.0249636 0)
(3.48154 -0.851182 -1.76501e-20)
(4.34832 0.0529406 2.40173e-19)
(3.99459 0.689567 6.71698e-19)
(4.44665 0.155784 0)
(3.73875 -0.0951612 0)
(4.65141 -1.13993 7.42558e-19)
(4.07257 -0.365208 6.9743e-19)
(2.6745 -4.00869 -1.15317e-18)
(3.82388 -0.0563745 0)
(4.4637 -1.27655 3.13222e-19)
(3.88432 -0.117374 -8.79866e-20)
(3.22284 -1.18515 -3.71353e-19)
(3.89034 -0.209632 -9.78078e-19)
(4.14495 -0.802352 0)
(3.94702 -0.568818 3.68802e-19)
(3.47507 -0.766071 -4.25929e-19)
(1.98253 -2.39358 0)
(4.16148 0.266878 4.63081e-20)
(3.80561 0.0920352 -5.44758e-19)
(3.85909 0.058921 -1.36839e-22)
(4.37763 0.523629 6.5709e-20)
(7.32555 5.07372 3.62448e-18)
(4.05121 -0.112005 0)
(2.5593 -0.954931 -1.64451e-20)
(4.33067 0.0421519 -7.09568e-21)
(3.84701 -0.945166 -7.53225e-19)
(4.01757 0.40133 3.30669e-19)
(2.55974 1.17308 1.32164e-19)
(4.17667 -0.0218051 -2.02621e-18)
(4.00269 0.028318 3.13322e-21)
(3.95627 0.0780362 1.11001e-20)
(3.74041 -0.897759 0)
(3.7097 0.0845468 -1.86661e-19)
(2.70266 -1.23394 7.71289e-19)
(4.30125 -0.12898 -6.84544e-19)
(3.96114 0.0989065 -6.92488e-19)
(3.92354 -0.106876 2.16251e-19)
(3.6943 -0.504321 2.12607e-18)
(4.23311 -0.153704 -2.99841e-20)
(3.78184 0.00931983 5.07061e-19)
(4.02166 0.00899692 1.22151e-21)
(3.91611 -0.497126 -6.02806e-19)
(5.03406 0.948463 -1.13645e-18)
(3.35193 -0.482419 2.5283e-19)
(4.05074 -0.08855 0)
(3.71952 0.166042 0)
(6.7486 -0.261112 0)
(3.05395 -0.967338 1.68842e-18)
(4.40924 0.172091 -1.17544e-18)
(3.67518 0.320448 0)
(3.39185 -0.870191 -1.29406e-18)
(3.64292 0.295326 0)
(3.73115 -0.705766 -9.47573e-19)
(4.03125 -0.0150806 -2.13813e-19)
(4.08452 -1.06165 -8.07654e-19)
(4.06349 0.0940077 0)
(3.89521 0.0235183 0)
(4.1173 -0.0925158 1.21406e-19)
(4.54759 0.153259 2.07146e-20)
(3.93992 0.128054 3.46341e-19)
(5.44598 2.70041 -3.77735e-20)
(4.52507 0.40181 0)
(3.90006 -1.41626 -4.2367e-19)
(5.24504 -3.19891 0)
(2.28292 1.365 -9.55331e-19)
(5.66257 0.869625 0)
(4.02626 0.0172629 8.46007e-21)
(2.71651 -0.529395 7.59102e-19)
(3.37614 -0.427023 7.02205e-19)
(3.79305 -0.0202527 -7.71445e-20)
(3.43305 -0.370051 -8.25004e-19)
(4.07618 -0.355278 1.78917e-18)
(3.90184 0.433633 1.05449e-21)
(6.6432 -0.672905 1.11824e-18)
(4.21629 -0.790876 -3.85341e-19)