/*--------------------------------*- C++ -*----------------------------------*\
| =========                 |                                                 |
| \\      /  F ield         | OpenFOAM: The Open Source CFD Toolbox           |
|  \\    /   O peration     | Version:  2306                                  |
|   \\  /    A nd           | Website:  www.openfoam.com                      |
|    \\/     M anipulation  |                                                 |
\*---------------------------------------------------------------------------*/
FoamFile
{
    version     2.0;
    format      ascii;
    arch        "LSB;label=32;scalar=64";
    class       surfaceScalarField;
    location    "2.7";
    object      phi;
}
// * * * * * * * * * * * * * * * * * * * * * * * * * * * * * * * * * * * * * //

dimensions      [0 3 -1 0 0 0 0];

oriented        oriented;

internalField   nonuniform List<scalar> 
20045
(
1.12799
-1.30448
0.176493
-2.25544
0.9756
1.27984
0.56859
4.08535
-4.65394
0.685357
-0.693749
0.00839223
-2.15095
1.74153
0.409418
-1.23762
4.3209
-3.08328
-1.8671
0.0576103
1.80949
0.0749016
1.09616
-1.17106
1.14339
0.887088
-2.03048
-1.34059
-0.349869
1.69046
0.337948
-0.98031
0.642362
3.97077
-1.90964
-2.06113
0.879011
-0.871851
-0.00716036
-2.23327
1.94731
0.285962
-0.0992489
1.82865
-1.7294
-1.96099
0.6204
-0.075476
-0.211618
0.287094
-0.742658
1.12437
-0.381708
-3.19268
4.62719
-1.43452
-1.5679
-0.0612405
1.62914
0.4235
-0.460351
0.036851
0.311223
0.567788
-0.491831
-1.76361
2.74317
0.709197
-3.45237
1.61552
0.241058
-1.85658
-1.01156
3.75474
0.22618
-0.153953
-0.0722271
-2.57958
5.40687
-2.82729
2.59735
1.00572
-3.60308
-6.02369
3.80326
2.22043
1.69221
0.380503
-2.07271
2.27681
-2.09458
-0.182226
-1.00589
3.12928
-2.12339
6.14639
-3.41604
-2.73036
-1.37835
1.45325
3.83323
-1.88444
-1.94879
2.08193
0.916121
-2.99805
-0.149166
0.923418
-0.774252
-4.57445
2.45511
2.11934
1.27599
1.20016
-2.47615
-0.122574
1.3271
-1.20452
0.437705
-0.597183
0.159477
5.09657
-5.07947
-0.0170912
2.75929
-0.906912
-1.85238
1.18799
1.5713
1.77004
2.20073
-1.32539
0.90245
0.42294
2.67792
0.380301
-3.05823
3.20758
-1.12565
0.568813
3.7067
-4.27551
2.66336
-4.37935
1.71598
4.10632
-2.76636
-1.33996
-1.90575
-1.34089
3.24664
-0.222977
-0.704964
0.927941
-1.68074
0.587208
1.09353
-1.51587
-0.635075
0.789205
2.62784
-3.41705
3.31916
0.717019
-4.03618
2.71492
-3.7208
3.60091
-2.93696
-0.663955
0.180722
-0.817872
0.63715
0.90174
2.69917
0.465277
-3.3999
2.93462
0.355724
0.0677765
-1.98909
1.96982
0.0192746
2.27124
1.03404
-3.30528
0.00200233
0.396601
-0.398603
-1.39126
0.135789
1.25547
1.9482
-0.804811
3.24741
-3.3095
0.0620891
-0.39117
0.393172
-0.312815
-1.36792
-0.573611
-2.21277
2.78638
0.576474
-0.389386
-0.187088
2.59079
0.121194
-2.71198
3.23049
-2.44128
-0.731313
3.3221
1.42366
-1.52291
1.42988
-1.29302
-0.136861
-0.317352
-2.9076
3.22495
1.89555
2.01695
-3.9125
1.73395
-1.57003
-0.163916
2.63317
-2.16789
-4.90244
0.677306
4.22513
-0.0287574
1.15674
-0.671542
0.989163
-0.317621
0.435145
-2.25521
1.82007
-3.14657
0.0505026
3.09607
1.90643
0.568522
-2.47496
-1.56021
1.25754
0.302669
-2.39816
0.101129
2.29703
1.81698
-0.488551
-1.32843
0.918988
-1.37735
0.458359
-0.532299
-1.57125
2.10355
1.36644
-1.494
0.127557
2.98391
0.202057
-3.18597
0.0378001
0.18838
-0.36406
0.0567933
0.307267
2.66385
-1.38786
-0.047082
-0.0843643
0.131446
2.64725
1.18598
-0.794029
-1.43925
-0.313251
-0.050809
-1.04324
4.3624
0.164767
-0.836309
-0.0818971
0.0348152
0.740276
2.55772
-3.29799
2.12876
-4.25141
2.12265
0.10449
-1.18341
0.999855
0.183559
-0.694704
0.871193
-0.176489
1.91757
-2.06151
0.143941
-1.16947
0.94649
3.73999
-5.30082
1.56083
-0.545043
0.79897
-0.253928
0.122656
-0.833714
0.711059
2.07092
-0.455399
4.37521
1.77119
-2.53706
1.96345
2.03727
-3.45252
1.41525
-0.743775
0.00111713
-0.598662
0.779384
-1.82685
1.45491
0.371939
-2.44569
0.280806
-1.40539
1.12458
2.67327
1.43305
2.15578
-3.07303
0.917247
3.10257
0.362858
-3.46543
-5.5302
4.01155
1.51865
-2.84684
1.1994
1.64745
4.23096
-1.55769
1.47866
-0.576214
0.108114
0.414883
-0.522997
0.240995
-0.188666
-0.0523296
2.31926
1.56347
-3.88272
2.41798
-2.13636
-0.28162
-0.537365
0.0323062
0.505059
-0.847839
-0.335575
3.77742
-1.74014
-1.58254
1.58804
-0.00550511
2.23228
-4.59131
2.35902
0.512354
-2.4181
1.54682
1.08624
-2.63305
3.2935
-3.61085
4.70886
-0.528342
-4.18052
1.47388
-3.14979
1.67591
3.37876
-2.05778
-1.32098
-0.530043
0.588744
-0.0587006
-0.389395
4.48479
-4.0954
3.99574
-1.39838
-3.28159
0.0748783
3.20671
-2.25845
1.47318
0.785274
3.5485
-1.65295
0.427284
1.30667
-2.43104
2.92349
-0.492453
-3.42353
3.99212
0.0239312
-1.06576
1.04183
-0.877707
-1.17209
2.0498
-0.103904
-0.863553
0.967456
2.3701
0.506887
-2.87698
5.51073
-2.75326
-2.75747
-1.05131
0.947405
1.49029
-1.78208
0.291789
0.540376
-0.102671
-3.8096
-1.57562
2.40682
-0.831205
-2.39158
1.74245
0.649133
-0.0342819
-0.287457
0.321739
1.71735
1.66141
0.10779
0.133206
-0.730279
0.838393
-2.66082
0.229775
-3.00949
3.7001
-0.690614
-2.84988
2.9056
-0.055717
-1.88784
-1.6776
3.56544
-0.288629
0.922481
-0.633852
1.49144
-1.54234
0.0508991
4.1442
-0.205614
-3.93858
-0.111284
-2.97646
3.08775
-1.51808
3.0649
0.787678
-2.40474
1.61706
-1.91894
5.65893
-2.94937
2.25173
0.697635
-0.17021
0.211917
-0.0417078
2.10773
-4.69447
2.58674
-4.30421
1.72463
-1.83372
-2.37121
5.44318
-3.54065
-1.90253
-1.65365
1.53108
0.818351
-0.876287
0.0579364
-2.19341
-1.06159
3.255
-3.86607
5.5044
-1.63833
4.24691
-3.45273
-0.794185
-0.0281608
-0.757517
0.785678
-1.81422
-1.91466
3.72888
0.879976
-0.542028
-0.535719
-2.31112
-2.98613
-0.892078
3.87821
0.574768
0.137933
-0.712702
0.584111
-2.15973
-0.629286
2.3215
3.32394
-0.221373
-0.776423
0.627257
-0.968804
1.20167
-0.232863
-1.1662
3.53629
-4.04416
2.22995
0.0865103
-1.22262
1.13611
-3.00856
0.673499
2.33506
1.05195
3.19496
4.96632
-2.85859
3.68521
-5.87986
2.19465
3.59913
-4.71379
1.11466
0.274468
-1.84237
-2.08696
2.82724
2.45865
-3.69627
2.92226
-5.57504
2.65278
-6.36736
3.18153
3.18583
-0.267787
-1.29242
0.815136
0.687709
-1.50284
2.83557
-1.25741
-1.57816
-0.15984
-3.12312
2.73373
-1.15518
-0.427358
2.5246
3.52189
-2.69564
-0.826243
-0.0492416
-0.645958
0.695199
2.4343
0.581866
-3.01616
-1.23997
-0.985957
2.22593
-1.70041
4.4875
-2.78709
-2.40953
2.84467
2.47888
-1.6912
-0.435103
2.24265
-1.80755
3.89361
-1.66132
0.570235
-0.0533831
-0.516852
0.684426
-0.768702
0.0842759
-0.66405
0.692131
-0.0280809
5.44428
-3.53339
-1.91088
1.15957
-5.02564
-0.738567
0.074517
-3.16322
0.819599
2.34362
5.151
-2.02172
0.881282
-3.89077
6.73315
-3.22162
-3.51152
-0.087376
0.662144
3.91665
-2.48624
-1.43041
-2.44013
0.375503
2.06463
-3.74529
3.68914
0.0561581
2.7522
-4.56086
1.80866
-0.152952
0.0469859
0.105966
-1.86066
2.31223
-0.451565
-0.110731
0.348793
-0.238062
-0.738281
0.193239
-0.846826
0.152122
-2.2588
-1.99261
1.57742
-4.52791
2.95048
-0.466459
0.86659
-0.400131
1.77173
0.505081
5.5014
-2.57914
-2.32422
1.44651
2.43676
2.71425
-2.14282
0.293741
1.84908
2.02915
1.8875
1.76781
0.0608408
-0.795977
0.329518
-1.32228
-0.272679
1.59496
0.046505
-0.216715
-4.5741
2.87369
1.25259
-1.38914
0.136555
-3.7783
3.64052
0.137782
-0.789958
0.179015
0.610943
-0.49793
-0.607582
1.10551
2.97431
-3.38913
0.414817
-3.38949
-2.97787
4.38027
-2.7432
-1.63707
-0.521765
0.472523
4.93441
-2.1822
-2.87883
4.45626
0.798187
1.24097
-2.03915
4.19731
-1.46603
-2.73128
3.82288
-1.21034
-2.61254
2.18297
-1.38478
3.552
-2.18506
-1.36693
-0.853371
3.29905
-2.44568
1.28479
-2.89736
1.61257
0.830479
-0.195737
-0.634743
-0.00810686
-0.0248438
0.0329506
5.06052
-4.44405
-0.616477
-3.17607
-2.35413
2.12754
1.39435
-3.43264
-0.345659
0.524135
0.160291
1.5327
-3.2512
1.7185
0.0113624
0.806988
-2.13387
4.45312
2.07818
3.36609
5.95675
-3.78756
-2.16919
-4.21443
3.32235
2.38574
-4.15613
1.77039
-2.48875
-0.33152
2.82027
-1.64824
-0.438165
2.0864
1.57845
-0.0881507
1.103
-1.01649
1.7651
-0.607979
-1.48661
-2.16189
3.46965
-1.30776
-1.17692
0.208118
-1.69627
1.26117
0.38714
-4.13243
0.812816
-3.22234
1.01417
-0.739278
0.886658
-0.14738
0.0101203
0.675236
-1.68324
1.21668
0.46656
1.64782
0.269751
-0.404312
-0.17328
0.577592
1.80336
0.614618
-1.61802
3.15072
2.3219
-0.415469
-0.974157
-2.0344
5.86884
-4.75998
-1.10886
3.18737
-3.72774
1.98406
1.74368
3.14086
-3.55278
0.41192
-1.94003
1.40773
-0.589011
0.0516463
-0.737744
-1.66041
1.49701
-2.34321
0.846201
1.70201
1.84999
2.25234
-3.98804
1.73571
1.31774
-2.34852
1.03078
-3.88631
0.739742
0.186145
1.63083
-1.92597
2.33017
-0.4042
-0.820556
1.2886
-0.468045
-2.2641
0.397
-0.533246
-1.09069
1.62394
0.540731
0.00190465
-0.542636
-1.12231
-1.13614
1.33734
1.84348
-3.18082
3.63537
-1.60622
1.29474
-1.8095
-0.130533
2.14963
-0.83189
-2.64007
-0.309295
0.323208
-0.307585
-0.0156227
3.49853
-0.820604
-2.15221
3.14445
-0.992234
-0.595294
0.706439
-0.111145
2.4408
0.394773
-1.856
-1.3952
-2.18861
3.75157
-1.56296
2.02215
-3.92326
1.90111
2.09806
2.28221
-0.0920744
-0.0237153
0.11579
0.524415
-3.01316
2.30206
-3.45852
1.15646
0.289546
0.286927
-0.520716
2.6765
-2.11256
2.92537
-1.1587
4.75783
0.732253
-3.92493
-2.46754
1.54692
0.920619
2.73125
-0.628075
-2.10317
3.8069
-0.832589
-2.84216
-1.95238
-1.62411
2.42336
-1.28476
1.37172
-0.0869554
1.341
-1.40224
-3.15315
2.63243
3.97201
1.12456
-3.25582
1.10361
3.46287
-1.33533
-0.328128
0.429648
-0.10152
0.12349
-2.33393
2.21044
-3.58105
0.611332
2.96972
3.38606
-3.38606
-1.95797
3.55942
-1.60145
-0.435974
0.0316615
1.93662
-0.810078
-1.12655
-3.89829
4.06176
-0.163472
1.56116
-0.07978
-1.48138
1.21596
-0.391365
-0.824597
0.564567
-1.0625
0.193901
1.92364
-4.80248
-3.2193
3.77154
-0.552234
-1.21203
2.54937
0.0579426
0.0377658
-0.0957084
1.50188
-0.57683
-0.92505
-1.56211
1.83658
5.60841
-4.10359
-1.50482
-0.410401
-1.95689
2.36729
-1.10092
1.17676
-0.0758344
0.727132
-1.17118
0.444046
-3.45219
1.71037
1.74181
-0.557436
-0.136313
-0.380166
0.0520381
-0.0819983
-0.112455
0.194453
2.66941
2.39111
0.147957
-0.0900147
-0.306325
-0.844326
1.15065
-2.14607
3.36976
-1.22369
0.384624
0.945856
-1.33048
1.57578
-1.51817
2.25249
-1.24821
-1.00428
0.255342
-1.8266
0.901477
3.24272
1.93682
1.05272
-2.98954
2.00219
-1.55218
-0.45001
-4.0501
0.768507
-1.22083
0.536293
0.684532
1.57643
3.09382
-4.67025
-2.65258
2.32106
0.297272
-3.6605
3.36323
-0.596003
0.567843
-0.17147
0.198898
-0.0274274
0.241327
-1.56361
0.383377
0.516542
-0.89992
-2.62299
-0.540237
2.44643
1.78933
-1.22917
-0.560164
-0.657938
0.0626443
0.509643
-2.70814
2.1985
1.10533
1.95305
-3.05838
1.65562
-2.75158
3.31631
-0.564736
-2.98458
2.13121
0.0362001
-0.190153
-1.43108
-0.9605
-1.21305
0.28181
0.93124
-3.63451
1.48844
2.54102
-2.95142
1.67745
1.78541
-1.57621
1.41284
0.163372
0.529569
-4.17743
3.64787
0.814207
-1.2407
0.426493
1.39106
-3.24706
-2.48001
-0.369872
-1.46135
0.0700864
0.883335
-0.0877617
-0.795574
2.21892
0.350038
-0.221287
-0.128751
4.42509
-2.84867
-1.7666
3.40432
-1.63771
1.15158
0.834131
-1.98571
-1.28726
0.691258
-1.06202
-0.151027
1.63764
0.298979
-1.24203
-2.21048
0.35359
-0.0303822
2.35312
1.837
0.484899
-3.58807
4.15689
0.508027
-1.55975
1.05172
-0.37909
-3.29067
3.66976
0.173325
-0.210948
0.0376239
-1.23457
0.945936
-1.29741
2.5822
3.3787
-1.90482
-1.39346
-0.289786
-0.0417366
-1.77518
1.81692
1.5576
-3.44543
-0.409146
-1.71127
2.12042
-0.110198
-0.545169
0.655367
-2.5037
-0.00277901
2.50648
3.2084
-2.8281
0.00899089
0.44189
-0.450881
-1.00046
-0.10046
0.757734
1.57492
-2.33266
0.718657
-0.858242
0.139585
2.28347
1.25309
-3.53656
-1.00513
3.98904
0.515189
0.025542
-1.73759
-2.54371
4.28131
1.60977
2.16764
3.69888
-2.59355
-1.60511
1.07186
-0.0494775
0.0413706
-1.64794
4.03369
0.418276
-2.9928
2.57453
3.08605
-0.444121
-2.64193
-1.8002
2.49474
-0.694536
1.51036
-2.06647
-1.26215
3.32862
0.26122
-0.173165
-0.0880554
-1.07078
-1.97577
3.04655
1.07097
0.430908
0.286748
-0.32103
2.06921
-3.13998
-2.71436
-0.953499
3.66786
-0.0949666
-2.10203
2.197
0.126504
4.91835
-5.1128
0.194448
0.888783
-0.386865
-0.501918
-0.153829
-1.42239
1.00132
1.10223
-1.5243
-0.123939
-3.14697
3.97484
-0.827867
-0.0280785
1.28067
0.488684
2.80481
-3.97248
-1.107
0.0727523
0.209342
-0.282095
2.11674
-0.279735
-0.970125
1.05583
-0.0857094
0.291483
-0.402214
-4.70511
2.87139
3.52338
0.797523
-0.333701
1.06083
-0.918005
2.06958
4.58542
-2.66177
-0.982934
0.0128089
-0.61621
-2.53694
0.606623
1.15812
-1.13418
-3.69679
0.115741
-0.346902
0.964892
-0.150685
-3.16601
1.57209
1.59392
2.72586
0.521558
0.917147
-0.328856
-0.588291
1.41185
-1.21448
-0.197367
-2.98085
1.09641
-4.18271
1.9941
2.28796
-1.97897
-0.308992
0.00859442
-0.144034
0.13544
3.97584
-0.0308912
-3.94495
0.972057
0.0852958
-1.05735
-0.6457
-1.18115
1.05627
-0.137284
-0.214573
0.149936
0.0646365
1.8427
-0.0782487
-1.76445
-0.131009
-0.0835642
2.7362
-2.53415
-0.134009
-0.662414
0.796423
-4.04543
0.898453
0.0404472
-0.474138
0.160887
1.19442
0.59491
-0.434605
-1.88961
0.991249
0.863138
-1.85439
-0.643168
-1.34592
1.49292
-0.984888
1.03263
-0.909973
0.474654
-1.29521
2.31885
2.05268
-4.37152
2.29293
-0.367628
-1.92531
-2.24874
-0.901044
-0.408268
-0.017255
0.425523
1.27861
-1.29475
0.0161375
4.31414
-0.105499
-4.20864
-0.399857
0.00340744
0.396449
-2.09106
2.85074
-0.759679
2.32911
2.27323
-4.60235
-0.205932
-0.61194
-1.31749
1.91567
-0.598182
0.962941
0.439876
-1.40282
-4.33705
2.87278
1.46427
0.127028
0.0229086
-3.3905
0.67614
1.4048
-0.832474
-0.572325
1.73042
-2.27708
0.546654
-0.463531
-0.84095
0.582705
4.33565
3.30964
-0.660683
-2.64895
-3.23789
0.486314
1.34818
-2.32234
3.64715
-5.68179
2.03464
-0.479762
1.2949
-0.0542744
-1.32717
1.02084
-0.712172
0.992978
-0.951533
-3.8659
4.81743
3.13593
1.79847
-2.94068
3.15738
-0.216698
0.176583
0.706752
-2.05807
-0.722694
-0.561354
0.624745
-0.063391
-2.35227
2.60161
-0.249336
-0.936783
2.24017
-1.30339
-0.336653
2.06708
-2.45316
-0.20153
2.65469
-3.28522
-0.989249
4.27447
1.69213
-1.43051
-0.261626
-1.24381
0.0655426
1.17827
0.00657069
-0.0642445
0.0576738
-3.80742
0.208516
3.5989
0.1009
0.881046
-0.981946
3.04786
-3.4447
0.396841
-1.84023
-0.645756
2.36461
-1.71885
0.0458588
-0.607213
-2.9066
-3.15038
6.05697
3.55163
-5.47057
-3.78299
3.31609
0.466896
0.866055
-0.147398
3.48903
-3.00034
-0.271098
-0.561666
0.832764
-0.0667862
0.862112
-0.795325
-0.473032
3.10437
-2.63134
2.59526
-0.861157
-1.7341
4.00527
-3.83676
-0.168512
2.62995
-0.771682
-1.85827
0.176575
-1.04034
0.863761
-1.31061
-0.0947792
-4.11359
3.57949
0.534098
0.177289
-4.29088
-1.14112
1.37493
-0.233816
-2.17961
-2.26443
0.929702
-0.741271
-0.188432
-3.16022
-0.885206
-0.870266
0.613332
0.256934
-2.18852
0.948554
-3.89701
3.70755
0.189457
-0.697377
-0.0962667
-0.293119
1.0676
-0.0955417
-2.21517
0.354505
0.733864
-0.792437
0.0585726
1.43696
-0.433511
-1.00345
1.78552
-0.224364
-0.851511
2.79548
-0.354682
1.40531
0.718019
-1.13419
0.416166
-0.279582
1.77102
-2.66516
1.77098
0.894184
0.193751
-0.0667235
5.02745
-1.89151
3.19718
-2.66761
-0.697662
-0.567464
1.26513
2.37769
-4.82225
2.44456
2.37697
-2.47194
3.4351
-1.59851
-1.83659
-0.0269476
-2.28345
-0.381713
-1.96751
3.43041
-1.4629
0.0213799
-1.31897
5.00418
-4.13341
0.973188
0.748886
0.0815937
-0.325656
-0.00914489
0.714096
-0.0219652
-1.86915
-1.69771
4.71218
-1.48169
-0.519082
0.749285
-0.230202
0.202229
1.01373
-2.46014
-2.12946
4.5896
1.12867
0.449777
-0.0143745
-0.66659
0.680964
3.2747
0.177111
0.00172989
-0.178841
3.96792
-1.64907
-1.319
-3.84632
0.627021
-1.01916
0.0679052
0.951252
3.00693
3.72622
-2.53297
0.311054
2.22192
3.83692
0.168351
2.53066
-3.53906
1.0084
-3.19996
-0.0212844
3.22124
-3.35046
4.2786
-0.928138
0.648154
-0.0165996
-0.631554
-2.03161
5.58324
-0.581775
-0.737088
1.31886
0.185362
-3.12604
2.0787
-1.5027
-0.576007
-3.68303
4.84567
-1.16265
-0.831295
2.32549
-1.4942
4.64687
-2.05903
-2.58785
0.0879767
-2.32616
2.23819
0.183169
0.015729
-1.82401
4.15312
1.52124
-3.47922
3.84354
-1.82138
-0.829026
0.695018
-3.33871
0.138749
4.18221
-1.92987
0.0779093
-4.98035
1.33632
-0.00922471
2.01959
2.23889
-4.25848
2.15448
-0.656657
-1.49782
1.65388
-3.23571
1.58183
-0.836954
0.0396054
0.797348
-0.795816
-2.06291
2.85873
1.47776
-1.0031
0.623932
-0.152962
-0.47097
0.360364
0.861138
-1.2215
0.327595
0.602108
-4.0593
4.81535
-0.756049
0.148215
0.0251094
1.88877
0.875498
-2.76427
1.49848
2.8694
-4.36787
0.807711
1.92353
-0.163233
4.87209
-0.0826292
3.18187
-3.09924
0.677208
-0.292584
0.205916
-0.124159
-0.0817572
4.63014
-2.84058
-1.78957
1.656
1.7791
-0.247772
0.278385
-0.0306135
-0.990055
3.06647
-2.07641
-0.0214867
0.800881
-0.779394
3.16944
-5.57898
2.40954
-1.82797
-1.67722
3.50518
3.18319
-0.748888
0.982955
1.17152
-0.938788
1.11981
-0.181024
1.19599
-3.15287
-0.175155
-0.585463
0.760618
0.80834
-0.162044
-0.646295
0.00485326
0.178315
-0.228675
3.0247
-2.79603
-0.800453
4.50715
2.92457
-2.47622
-0.44835
2.65618
-2.08765
-1.81579
0.692536
1.12325
0.766004
-1.57608
-0.617609
0.165777
0.451832
0.299262
0.617885
0.617197
2.8945
-3.51169
1.17833
0.664376
0.514584
-3.7998
-2.08413
0.21597
1.86816
-1.53556
-0.865447
2.40101
2.16383
-1.17258
-3.32043
2.1084
0.886506
-0.663922
-0.222583
-1.89829
4.34854
-2.45025
-1.7243
1.97964
-2.27781
1.92521
0.352607
-2.26141
4.24761
-1.9862
-0.0818858
0.974242
-0.892356
-0.0569028
0.0654972
-2.40559
-2.33012
3.89486
-1.56474
-2.22981
2.90331
1.94398
-2.18049
0.236507
0.89289
0.558603
-1.45149
-4.64483
2.8921
1.75273
-0.0217574
-0.169978
0.191736
-0.261885
2.60334
-3.07637
4.64014
-2.26245
-0.710961
-1.75658
-2.84665
2.76402
1.75657
-0.0141215
1.26932
0.30806
-1.57738
-1.47734
1.35469
0.122653
-0.828005
2.94623
-2.11823
2.38223
-0.559205
-1.82303
1.88187
-0.0325053
-1.84937
-2.67645
-1.12026
3.79671
-0.20381
1.0967
2.12017
2.50997
-3.87639
2.19658
1.67982
-0.638855
-0.208112
0.846967
0.0342391
0.840702
-1.0613
0.220594
-1.84241
1.54021
0.842019
0.633779
0.899576
-0.723001
-2.7204
0.36813
3.26464
-2.06525
0.0985565
1.26788
-0.0379241
1.2391
-1.20117
-2.99804
-2.21338
5.21142
-1.58043
0.641639
-1.86338
-0.354483
2.21786
0.301723
1.04065
-1.34238
0.0134486
4.41363
-2.83338
-1.58025
0.803592
2.50604
0.506732
-1.45424
2.25848
-0.804239
-2.28088
3.64171
-1.36084
-2.09003
-1.00331
3.09334
-1.97542
0.657935
-1.27385
-0.541937
4.28586
-1.90247
-2.3834
1.06487
-0.676014
-0.38886
1.24919
0.379573
-1.62876
-0.763047
0.863947
-0.425801
-0.825465
1.25127
0.227735
-0.131457
-0.919852
-0.0421452
2.50423
1.78163
-1.38967
3.84479
-1.49692
5.30019
0.654653
0.410221
-3.23868
1.14865
2.98446
-2.46004
-0.542672
-2.66781
0.576754
0.0392977
-1.18042
2.68932
-2.56583
3.34106
-0.200195
-0.834022
-0.543324
-0.642026
-0.342542
0.984568
-1.31595
-0.178048
3.08505
0.532163
-3.61721
-0.114311
-0.994919
1.10923
-0.702033
2.102
-3.88938
1.78737
3.30021
-0.252355
-4.62527
5.26774
-0.64247
0.841057
-0.705268
-3.80838
-0.836451
-0.913124
3.64797
-0.0684793
2.68713
4.02677
-1.47821
-2.54856
-2.43642
-0.111199
2.54762
1.1403
1.76692
-2.90722
-2.82972
0.326018
-0.727656
-0.229523
0.957179
-1.91341
2.33169
0.62197
1.88266
-2.50463
0.61079
0.162534
-0.773324
-3.70154
0.511035
3.1905
1.9377
2.70244
-1.21415
2.0783
0.551654
-0.786022
-0.434803
3.83195
-4.36029
0.3449
0.420669
-0.765569
0.55535
-0.761282
2.6579
0.0806123
-2.73852
3.69861
-5.19554
0.0223592
-0.175311
-1.30398
1.48936
-0.185373
-5.58805
2.68145
-0.160288
1.31499
-1.15471
-0.606416
-0.221623
0.828039
-0.95101
-0.283556
-1.11981
2.46799
0.584785
1.70318
-0.687815
0.733674
-2.71497
1.72901
0.105183
-0.0581967
-0.872166
0.829493
0.0426727
0.895637
-1.00472
0.109082
-2.30775
2.42895
0.487275
-2.35065
-0.324697
-1.32896
-0.145016
2.30606
-2.16104
1.37932
-1.652
0.17572
-3.18367
3.00795
-0.612499
3.56786
-2.95537
1.21269
-3.37457
0.728727
-0.0821027
-3.70089
1.33209
3.38009
-2.80471
-0.515721
-1.90313
-1.82461
-1.80455
0.713854
0.0591518
-0.235473
0.176321
5.96546
-2.95853
2.99682
-0.694755
-0.987699
-0.670579
1.65828
-4.66544
2.26892
2.39652
-0.748731
-0.231579
-1.61892
0.973163
0.710733
-0.39951
0.329854
-1.48804
0.906264
-0.274499
-0.764763
1.03926
-0.493797
3.57885
-0.184988
0.622945
-0.437957
3.37512
-4.65342
2.06697
2.58645
0.484691
1.24448
-1.72917
1.61049
0.469698
-2.08019
-2.19897
1.36767
1.4341
-0.161375
1.41056
3.51621
-3.8953
1.75164
-0.7887
-1.45066
2.64665
-3.48301
2.45416
1.02884
3.04716
-5.57844
2.53128
-2.62142
2.93019
-0.308771
1.41072
-1.6903
0.0512515
0.673269
1.01886
1.7534
-4.661
1.93851
-5.37966
3.40703
1.97263
0.851745
-3.28817
2.22761
-0.0136945
-2.42644
0.47738
0.849538
4.12929
-1.47023
-2.65906
0.811551
0.933229
-2.46879
0.712378
-3.59591
3.48471
-3.05918
0.992714
1.78669
-2.25287
0.779961
1.47291
-3.71038
2.11494
1.59544
-0.892166
-0.609749
0.499551
-3.95839
2.81604
1.14235
3.44103
-5.47264
-4.07372
0.0144208
5.62879
-1.98164
-0.0298158
-0.0395702
0.069386
-0.109885
-0.674665
0.784551
0.155354
1.59612
2.04232
-0.849591
-1.40328
0.502617
0.975138
0.715426
1.53682
-2.25225
1.63999
-0.952284
-0.0954566
-3.90452
3.99997
-1.28772
1.11964
-2.63772
-2.71695
-1.90892
4.62587
0.978323
-1.46687
-2.79192
0.83373
1.95819
-0.0486727
0.344006
-0.295333
3.99488
-4.94641
-0.368584
-0.935399
4.0623
1.04068
-5.10298
-0.704685
0.185603
-3.31235
0.962917
2.34943
-3.76058
1.93262
1.37418
-3.65506
-0.409778
0.754677
0.0497145
-0.0983872
-0.123763
3.20981
-2.27932
3.02545
-0.746135
3.21602
0.0154782
-3.2315
-1.82485
-0.064449
-0.674829
0.167637
3.21843
0.569443
0.136996
1.4029
-0.363334
-0.0726395
1.93451
1.64385
-2.47185
-3.64138
-0.255627
-3.1337
0.957154
-3.4434
0.728124
0.811832
-1.53996
3.51055
0.16909
-3.67964
-0.487168
0.470568
-1.40781
-2.77489
-2.97443
-0.578358
-1.67431
5.37292
-1.3281
1.92073
-0.592634
-4.2515
1.25346
-1.23688
1.95231
-1.67724
-1.48877
-1.90029
-0.979561
1.03046
0.24955
1.18741
4.23042
-0.582453
2.21404
-0.0167336
-2.1973
0.0246671
2.21798
1.12251
3.92166
-3.62439
-0.198838
-0.932394
1.39075
-1.82864
2.12239
-1.9057
-2.82228
0.956312
0.689729
-1.64604
-3.44151
0.0554508
-0.589378
3.05104
-2.46166
-0.0292277
-4.59605
-2.47534
3.05721
5.50247
-2.62457
-2.8779
-0.32831
0.864603
2.5354
-1.05705
-1.47835
1.11399
-1.24545
0.130724
0.0751919
-0.477927
-0.140672
0.618599
-0.29302
1.56234
-2.14173
5.58276
-0.0289934
-0.712277
-1.09767
-0.426839
1.52451
-0.309771
4.30465
2.63264
-0.992139
-1.6405
-1.55835
2.31609
1.46922
1.59725
-2.03408
-0.0500472
2.23001
-0.880887
-1.34912
-0.0413453
-0.177186
0.218531
0.638673
-2.88603
2.24735
-3.60026
0.62583
0.925036
-2.48131
3.43846
-0.0554047
1.1694
0.600427
-1.92852
-3.41148
1.78737
-3.91447
1.16121
-1.87187
0.309757
-1.30823
-2.17174
3.47997
-3.27207
-0.276272
0.1969
0.079372
3.66424
-2.98694
3.06335
-1.92305
0.388163
2.1088
-2.49696
0.48907
-1.21673
-1.93442
-1.42514
3.35956
-1.31792
-1.35631
2.67423
-3.15721
5.05612
-1.89891
2.51086
-2.01614
-0.494715
2.80493
0.101378
-2.90631
-1.9352
-2.71822
-1.22683
-0.234519
1.73155
2.49941
-0.0310218
0.432752
-0.40173
-2.62839
-0.683952
2.48898
2.13821
-2.10464
2.60616
-0.501513
-0.0696966
0.0714265
-0.539226
0.578527
-0.0393011
0.416591
-0.601579
-0.389537
-3.56885
-3.87098
0.756251
0.130254
2.31783
-2.94711
0.33901
2.70549
-3.0445
-1.90643
-0.308737
1.78638
1.84899
0.288704
-1.13654
-1.33127
1.14923
0.182032
0.00129237
-1.33318
1.33189
-0.595248
0.774263
1.65629
3.32382
-1.62182
2.85658
-1.73694
-0.485593
-1.0366
1.52219
2.82145
0.477594
-0.0637457
-2.69402
1.8982
2.84325
-3.15302
-1.59978
-2.7317
4.33148
-2.26097
-2.40448
-4.12591
4.16493
-0.039029
0.0686326
-1.06611
0.723566
2.1405
1.18332
-0.112347
2.49017
-2.37783
-1.11121
-2.19829
-1.21938
-2.00791
3.22729
1.62819
-0.499522
0.603081
-0.778236
2.12455
-3.53236
1.54415
-1.30309
-1.77641
3.2763
-1.49989
1.87024
1.46925
1.37722
-2.84647
4.18187
-2.28318
-1.89869
-2.67896
-2.10592
3.72609
-1.62017
0.317303
1.89674
-1.22043
1.16503
1.62978
3.01709
-0.913474
0.803588
0.0959774
0.254061
3.59199
-2.02852
2.21199
3.75347
-1.6836
0.925031
0.758571
0.701768
-1.39943
2.72756
-0.0696615
0.0821447
-0.11196
-2.37747
-0.486505
2.86398
0.786058
-0.0922668
-0.693792
0.690819
0.197965
0.50752
-3.85798
-1.19159
1.43292
2.48108
-2.31472
-0.166365
0.748575
1.48143
-0.647627
0.318771
1.2158
0.78083
-1.99663
-1.42012
4.13504
0.163822
-1.91974
3.86116
-1.94141
-0.795978
1.15634
0.140998
0.469793
4.0893
-2.09187
-1.34077
-0.174573
1.78506
1.26638
-1.59107
-0.776226
0.69434
-1.10385
-0.619755
-0.0381834
1.70148
-0.705437
3.06114
-2.3557
-0.0742177
-0.00778063
-0.933389
0.371723
-1.37095
0.144122
-4.40141
2.66382
1.09995
0.815715
0.59846
1.97395
-2.57241
0.578692
0.410472
2.83396
1.65373
-4.4877
-0.488259
-0.0446849
0.532944
1.05201
-2.81862
3.83434
1.66813
2.91732
-2.57831
-3.75386
-0.0462663
0.0893791
-0.119843
1.66486
1.22018
1.44371
-2.66389
1.71531
-0.335992
-0.109096
-1.24697
-0.436632
-2.02457
-1.07867
1.84468
2.06692
1.3374
1.97502
-1.99427
0.0192538
0.807351
0.0221424
-0.257766
1.03894
-0.143305
2.82909
0.715451
-3.54454
0.663917
-0.938416
-0.94464
0.576411
0.368229
-1.40042
-0.0769531
1.47737
0.719111
2.60196
-3.32107
0.786435
1.3774
2.51116
-0.0800389
-1.08943
-0.143964
-0.219371
-0.395698
0.84299
-0.447293
-4.10975
1.73854
3.16989
-2.42153
-0.748359
0.0730566
-0.630506
0.557449
3.05049
-3.27916
1.60168
0.0265141
1.65623
1.40712
-0.596236
-0.023519
-0.754205
1.11642
-0.362217
-1.92189
-0.540551
3.99126
-2.05279
-1.93847
1.02408
0.349728
-1.37381
1.76137
-2.73929
0.977912
-0.160835
1.91058
0.239051
-0.248259
4.48399
-4.23573
0.255672
-1.00988
-2.09001
0.362931
0.260014
3.42508
-0.00778954
-3.41729
-2.53182
-0.985494
0.94757
0.310323
-0.0319375
1.03957
0.449785
-2.41602
1.47923
0.0355023
-0.0313728
-0.24475
0.409517
-1.5628
1.95096
0.0180576
1.14006
0.0404526
-0.42782
2.19955
-0.131909
2.10693
-0.934858
-0.519281
-0.770562
1.98636
-0.421504
3.27464
-2.85314
-2.87967
-0.510824
-2.48966
5.36151
-2.87185
-0.294826
0.657757
1.31573
-0.219575
-0.0560853
-1.02537
1.08145
-3.12435
1.03248
0.573849
-0.564858
2.49558
-4.95572
2.07163
-4.61534
-2.40976
3.11896
-1.80237
2.03302
-1.2522
0.0366775
-2.06043
2.69911
-0.00476866
-0.641189
0.314225
-1.74473
-0.506084
-2.1743
2.68038
-2.00705
2.87653
5.7219
-3.76835
-1.95355
-0.848236
0.364598
0.962556
0.0803252
-1.04288
-2.98908
0.709764
0.817029
-0.00868893
-0.0323494
-0.542288
0.574637
2.87062
-5.36028
0.395023
1.64679
0.261899
-1.90869
-3.68434
3.26284
0.625165
0.153959
-0.779124
1.59024
-3.92037
-0.598831
-0.00729165
0.606123
0.815734
-0.190569
-0.0358789
2.7124
-1.90469
2.09119
1.98271
-1.19628
-3.91909
1.20215
-2.35211
2.06547
0.286646
2.6215
-4.22127
-1.97188
-1.06504
3.03693
-0.188401
1.66158
-1.19624
1.11646
3.94764
-0.618674
-3.32896
-0.00321405
-3.63816
2.53771
0.267219
1.46035
1.07505
-0.654244
-0.0123459
0.630046
-0.846545
-1.49667
-0.158305
-0.0201587
0.178464
0.0108487
-3.18698
3.17613
-0.622609
1.59577
-0.97316
2.20358
-4.51773
2.31416
-0.165352
-1.97101
-0.119414
-0.379593
2.39508
-1.3863
-0.691405
2.0777
-1.42182
-1.20117
1.75463
-1.0649
0.581163
-0.0545957
-0.526568
2.96313
-2.36467
-3.1538
-0.363884
-0.32999
0.693874
1.0584
0.436159
-1.49456
1.17104
-2.90274
1.7317
0.3232
-2.08681
0.644545
-4.32757
-2.50427
-2.22104
4.72531
-3.37152
0.126301
3.24522
-3.97781
-2.85765
0.236231
-1.29087
1.25317
0.0376955
-5.21496
-1.15544
3.98453
1.56193
-0.698795
0.485711
-1.25627
-0.513187
1.89058
0.612449
0.434238
-1.53191
0.0729343
-0.663744
0.59081
-0.479606
-0.0504365
-0.447678
0.520734
-1.30228
1.78697
-3.97007
2.28628
1.68378
2.13625
-1.03325
1.58667
0.835991
-0.0499324
2.45027
-2.56261
-1.8268
-0.965124
-2.09909
0.642485
1.45661
-0.0430712
0.343327
-0.300256
-1.77923
1.78052
-0.387007
2.72207
2.27675
0.355892
1.63533
-3.05715
1.52123
-1.85012
0.328888
0.494638
-0.0527482
-0.0013923
-0.0223229
-3.45918
2.15095
-0.34717
1.37125
0.0507663
-0.80698
0.756214
-5.50845
2.08493
-0.213042
-0.55566
-0.762034
-0.0756295
-0.865775
0.941404
-2.15385
0.767557
-3.77117
3.38163
5.95354
-1.89124
-1.08293
1.01897
0.0639622
0.383763
-0.17442
-0.631181
-3.01898
1.75944
1.25954
-0.60253
0.557845
-0.0240081
1.45595
-1.43194
1.2649
0.336779
0.352429
0.0379188
-0.390348
-1.16378
1.18183
0.481991
-0.192445
1.61921
-3.72744
3.59637
0.240549
-2.36468
0.109472
3.29836
-0.134321
-3.16404
-0.850741
0.449393
0.401348
1.62902
-3.49818
0.928188
-2.28537
1.35718
-0.193224
0.0830685
0.110156
-3.88605
3.98039
-0.0943403
-2.02125
2.19697
2.24379
0.351467
4.11099
-1.61056
-2.50044
-0.119494
-0.66684
0.786333
-0.794398
-1.27729
-0.0333184
-1.20416
-0.0731273
0.317125
-1.16512
0.847992
-0.376883
3.37738
-3.0005
-2.78358
0.777175
2.0064
0.927137
3.0487
0.0931038
0.298585
-0.391689
2.12733
0.888946
-3.01628
0.169062
-0.10991
-1.44099
3.12932
-1.68833
-2.85727
0.479796
2.22475
0.941997
-2.91388
-0.010037
-0.504302
0.514339
3.92328
-1.2929
-2.63038
1.74367
0.918157
-3.67295
1.97523
3.52674
-3.6222
-1.76453
0.226129
1.5384
0.0692205
0.14021
0.234416
-0.374626
-0.259203
-0.199816
0.459019
-0.0401545
0.529531
-0.489376
-0.265922
0.17607
0.0898521
-2.0706
4.19515
-1.15872
1.11698
1.21928
-1.24328
1.21381
-2.11038
0.896563
-1.98096
-1.50205
-0.00437096
0.0109416
-0.0325031
0.012375
0.020128
3.39831
-1.70399
-1.69432
0.226457
2.25462
-0.938992
-0.538351
-2.18635
0.411172
2.3564
1.36564
-3.72204
-0.0700502
-0.0269834
0.0970337
-0.0206059
1.43245
1.50178
-0.457175
-1.0446
5.18196
-3.02512
-2.15684
-4.89813
1.03223
0.540447
-5.49063
2.92292
2.56771
0.831238
-2.9438
-0.224689
-0.249449
-0.0241772
0.0227849
-1.30177
3.2121
-1.91033
0.604621
0.106112
-0.495558
0.0352069
-0.930586
0.901593
-0.574136
0.577543
-5.42756
5.60094
-0.173385
2.17068
-1.65403
-0.516655
0.564142
-1.15939
0.963391
0.213364
-0.946919
0.77043
-0.313943
-1.25609
1.55706
-2.41822
-3.89468
3.64642
-0.257853
0.193608
0.55908
0.256654
-0.163653
-0.0295708
2.98828
-3.12204
0.13376
3.62325
-1.67833
0.869823
0.808506
0.433805
-1.3662
-1.6928
-3.239
-0.960696
0.868429
-0.629178
-1.08099
1.71017
-2.94073
0.710927
0.340026
1.16014
-1.50016
-2.23861
0.920693
-0.531845
-1.6864
4.5558
0.204141
-2.93542
0.772179
-2.00334
1.23116
-1.08479
1.37349
-2.274
-3.23445
0.11203
-0.718445
2.09157
-3.154
1.5096
1.6444
-0.141975
-1.23637
0.185905
-1.45753
1.27162
-3.73899
-2.14087
-0.65639
0.649098
3.07631
1.89001
1.25991
2.23861
-2.21997
-1.70329
3.22028
-0.240579
-2.97971
2.8282