/*--------------------------------*- C++ -*----------------------------------*\
| =========                 |                                                 |
| \\      /  F ield         | OpenFOAM: The Open Source CFD Toolbox           |
|  \\    /   O peration     | Version:  2306                                  |
|   \\  /    A nd           | Website:  www.openfoam.com                      |
|    \\/     M anipulation  |                                                 |
\*---------------------------------------------------------------------------*/
FoamFile
{
    version     2.0;
    format      ascii;
    arch        "LSB;label=32;scalar=64";
    class       volVectorField;
    location    "4.9";
    object      U;
}
// * * * * * * * * * * * * * * * * * * * * * * * * * * * * * * * * * * * * * //

dimensions      [0 1 -1 0 0 0 0];

internalField   nonuniform List<vector> 
13486
(
(1.40632 -0.190209 6.10191e-19)
(1.66659 0.300395 2.84014e-19)
(2.41004 0.0315369 0)
(0.50986 -0.273433 -2.95865e-20)
(2.28171 -0.545525 2.10854e-19)
(2.44685 0.125545 2.16803e-20)
(2.50388 -0.460192 4.58525e-21)
(1.94723 -0.718322 -3.29421e-19)
(1.89505 -0.385883 0)
(2.0212 0.769399 0)
(-1.03977 -0.123545 -2.08773e-18)
(2.55439 -0.0548416 0)
(1.2557 -0.404147 -6.03898e-19)
(2.50871 0.699318 4.0877e-20)
(2.39863 -0.388552 1.12713e-19)
(1.9774 0.765297 -1.65298e-19)
(0.309975 -0.0586955 9.09465e-19)
(1.37608 -0.435139 4.46898e-20)
(2.26302 -0.00640028 3.01437e-21)
(1.60548 -0.0182058 -6.16466e-19)
(0.900365 -0.550044 -1.26681e-20)
(1.27501 -0.418236 7.78994e-19)
(1.6915 0.297907 -2.27023e-19)
(2.62987 -0.946932 0)
(2.0618 0.61745 5.43453e-20)
(2.58492 -0.878408 -1.45213e-19)
(-2.17489 1.44988 1.3655e-18)
(2.52517 -0.123654 4.01438e-19)
(2.04071 0.02882 0)
(2.29112 -0.352098 -2.28698e-19)
(1.02947 -0.633493 -9.17104e-21)
(2.48996 -0.282559 -1.42901e-19)
(2.9352 -0.35341 3.83554e-19)
(2.04537 -0.0687484 0)
(1.95503 -0.692561 0)
(1.84418 -0.00332959 -2.97299e-21)
(1.93701 0.118193 1.00408e-20)
(1.44002 -0.682182 3.11489e-19)
(1.7339 0.0353938 -6.22193e-21)
(1.92525 -0.228828 3.12945e-19)
(2.30328 -0.799013 0)
(0.843424 -0.419034 -6.99794e-19)
(2.0058 0.00436726 0)
(2.07688 0.500708 -2.62311e-19)
(2.09817 0.497067 1.0796e-19)
(2.55626 -0.0527301 9.10408e-20)
(0.136204 2.16175 1.71838e-18)
(2.0344 0.0314585 -7.11426e-22)
(1.94106 0.11245 -7.5347e-21)
(2.64991 -0.0356707 1.94452e-19)
(1.99838 0.0340547 3.47829e-19)
(1.80789 0.0242254 0)
(2.62296 -0.151957 -1.19497e-19)
(1.60039 -0.600966 -4.54988e-19)
(1.3891 -0.489226 0)
(2.25285 -0.550796 -1.40227e-19)
(2.10111 0.143002 -1.2938e-20)
(1.79865 0.0202476 -2.97075e-20)
(2.91106 -0.337513 4.40614e-19)
(1.9517 0.179177 0)
(-0.627662 -1.03405 -2.09157e-18)
(1.95187 0.172321 0)
(3.76662 0.209042 -5.43562e-19)
(0.934845 -0.55838 -1.28466e-22)
(1.65461 -1.12597 0)
(1.94402 0.130021 5.57809e-21)
(0.480189 -0.287956 -3.42986e-20)
(1.38924 0.0985984 2.05083e-19)
(1.89606 -0.410582 -1.80862e-19)
(1.83862 0.00674854 1.95509e-21)
(0.382929 -0.21144 3.93339e-20)
(1.39874 -0.467482 1.03511e-21)
(1.95565 -0.0954447 2.30717e-19)
(-0.875755 -0.630936 -7.10987e-19)
(1.96339 0.141224 1.55135e-21)
(2.10223 0.139667 2.98901e-21)
(1.96831 0.137158 -4.87321e-21)
(2.40241 -0.408122 -4.59969e-20)
(0.29721 2.26742 -1.18655e-18)
(1.69467 -0.325091 0)
(2.02446 -0.000183478 1.97094e-21)
(1.60706 0.397904 -1.8025e-20)
(4.05775 0.141997 3.50686e-20)
(2.49632 0.0676711 -1.07861e-20)
(1.39856 -0.205129 -1.19462e-18)
(1.36591 1.76149 0)
(1.19212 -0.583644 -9.5847e-20)
(2.00055 0.0472694 -5.21698e-19)
(1.86529 0.2289 -2.3012e-19)
(1.88458 1.04002 -1.7197e-19)
(2.5691 -0.272069 -7.85274e-20)
(2.06787 -0.62433 -1.73548e-19)
(1.46652 -0.30125 1.57833e-19)
(1.64382 0.106341 1.59628e-20)
(1.80763 -0.572804 7.34071e-20)
(2.03115 0.0258688 2.72359e-22)
(-2.57364 1.64276 0)
(0.440726 -0.485196 3.03453e-20)
(1.94314 -0.22883 -5.97336e-19)
(-0.308454 0.733938 6.01909e-23)
(2.0139 0.00375968 0)
(2.47295 0.698068 1.1672e-20)
(0.430136 -0.546785 6.41816e-21)
(1.8019 0.0264724 3.44859e-20)
(1.33688 1.71319 0)
(-0.739755 1.33223 1.44748e-21)
(1.96872 0.0712406 8.56427e-22)
(1.70925 0.020354 -1.45174e-20)
(0.187876 2.36078 1.34636e-18)
(1.70706 -0.780165 0)
(1.20732 -0.582362 0)
(2.51137 -0.345226 -1.31998e-19)
(1.60797 -0.581445 3.24009e-21)
(2.10765 0.0837942 1.01347e-21)
(1.0373 -0.017477 0)
(1.15649 -0.574326 -2.76286e-19)
(2.06104 0.634312 0)
(2.12921 -0.055192 0)
(1.94455 -0.0934158 0)
(1.95132 0.0888038 5.12584e-21)
(1.39617 -0.42718 -1.5895e-20)
(-0.86201 -0.81992 0)
(1.77931 -0.515881 0)
(1.72721 0.0287083 2.08055e-20)
(1.85088 -0.663793 0)
(1.81219 0.0281091 0)
(2.17318 -0.284495 6.93847e-21)
(2.20384 0.0645313 9.16518e-20)
(1.90151 -0.0299895 -3.40876e-20)
(1.7203 -0.963346 -6.67948e-20)
(1.8145 0.027256 -3.22816e-21)
(0.196693 1.95263 -4.33051e-19)
(0.431115 0.00520669 1.11651e-18)
(-0.464718 0.149755 9.38434e-19)
(1.99733 0.0189076 -5.71155e-20)
(1.90629 0.434374 -2.54855e-19)
(0.60554 0.804389 -1.65353e-19)
(1.73463 -0.779725 0)
(1.95307 0.0822322 -1.50479e-21)
(1.97025 -0.581841 -1.1723e-19)
(2.84542 -0.129719 -4.0244e-19)
(2.61179 -0.168778 9.99005e-20)
(2.5095 -0.209477 0)
(1.69425 -0.313851 0)
(2.10156 0.00808697 4.08047e-21)
(4.10679 -0.573938 -1.1528e-18)
(2.87157 0.111778 4.88508e-20)
(0.242724 1.80937 0)
(2.67224 -0.0400977 0)
(2.04245 0.026821 0)
(2.0122 0.022977 5.0995e-21)
(2.39888 -0.472895 0)
(2.02837 -0.00158486 -2.06899e-21)
(1.58805 0.397613 -1.5299e-19)
(2.20518 0.304562 0)
(2.434 0.0643228 0)
(1.50654 -0.691992 0)
(0.144902 -0.156794 -2.41422e-20)
(1.70545 -0.694219 6.52202e-19)
(2.05529 0.404875 1.58262e-20)
(2.53208 -0.00478456 1.1746e-19)
(1.71258 -0.674163 -9.90721e-19)
(2.33351 -0.300637 4.82524e-20)
(0.748212 -0.357274 3.07535e-19)
(1.80511 0.0233648 0)
(2.6031 0.671582 -9.4043e-20)
(2.41725 0.64932 -2.14082e-20)
(0.394647 -0.0966762 -7.30725e-19)
(2.94657 0.179862 -1.43457e-19)
(-0.46027 0.0933494 2.50577e-19)
(-0.0726909 -0.181392 4.83545e-21)
(2.19848 0.281457 7.91933e-20)
(1.9999 0.0888102 -4.15503e-19)
(2.31968 -0.230062 1.05799e-20)
(2.01945 0.0160444 7.54051e-22)
(0.279863 -1.70226 0)
(2.53208 1.04724 1.22308e-19)
(2.98174 -0.136355 5.64654e-19)
(1.97295 0.0638095 -5.74283e-19)
(2.50773 -0.193383 0)
(1.9786 -0.286765 6.35006e-19)
(2.10852 0.0830986 2.06177e-21)
(2.39657 -0.216556 -4.75817e-21)
(-1.88508 0.780851 0)
(2.57301 0.147203 2.16913e-20)
(2.42478 -0.117225 -1.83168e-19)
(2.05749 0.0211696 -3.85136e-22)
(2.29435 -0.212765 -7.18272e-20)
(2.35578 -0.790687 0)
(1.0348 -0.501024 -3.53652e-19)
(1.94957 0.103083 0)
(2.21727 0.0250631 0)
(1.77909 -0.0100692 0)
(1.28787 0.901145 -3.13114e-19)
(1.78615 -0.0370219 0)
(-1.16051 0.192997 -5.29311e-19)
(1.67753 -1.01862 1.58422e-19)
(2.43326 -0.0179911 6.48993e-20)
(1.05599 -0.523884 -1.34657e-19)
(2.57132 0.634493 -4.40611e-20)
(1.02477 -0.662863 1.16483e-20)
(2.21784 0.0815128 -2.69201e-21)
(1.31517 -0.639427 -3.59947e-19)
(1.57782 -0.694514 6.33938e-20)
(2.05024 0.378764 -1.91852e-20)
(1.80064 -0.0346935 -3.20639e-20)
(1.29279 -0.482547 1.59089e-20)
(1.87202 -0.0249315 4.6874e-19)
(1.77354 -0.0101733 0)
(2.54816 0.14498 0)
(2.46841 -0.127716 2.63702e-19)
(2.24318 -0.951391 2.06309e-19)
(1.62519 -0.0050836 5.64152e-19)
(1.95627 0.0706175 1.05383e-21)
(2.45481 0.163618 -2.49777e-20)
(1.87595 -0.445033 2.25458e-20)
(2.34242 -0.326016 0)
(1.87814 1.025 4.53603e-19)
(1.54794 -0.32909 0)
(3.22183 0.594692 0)
(-0.01198 0.330874 -1.74467e-18)
(2.69962 -0.0200201 0)
(1.95361 -0.575658 2.72956e-19)
(2.53987 0.012655 0)
(2.68571 -0.16383 -1.6547e-20)
(1.2327 -0.583127 2.18052e-19)
(2.58478 0.268998 -6.44236e-21)
(0.904025 -0.933237 1.75821e-20)
(1.8653 -0.287761 3.0152e-21)
(1.09397 -0.395708 1.32542e-20)
(1.98538 -0.275111 -2.03869e-19)
(1.12007 -0.237211 1.09364e-20)
(2.86583 -0.182375 5.05293e-19)
(0.867208 -0.420455 2.39288e-19)
(0.678068 -0.669356 0)
(1.03056 -0.503912 2.58312e-20)
(2.20836 -0.159002 1.18873e-19)
(2.23384 0.0173511 -7.46944e-21)
(0.897036 -0.435436 6.9848e-19)
(2.38991 -0.133518 0)
(2.91351 -0.415484 0)
(2.00428 0.0679843 6.34148e-19)
(2.13864 0.0652666 0)
(0.901329 -0.449476 2.33659e-19)
(1.66102 0.0833056 -1.12378e-20)
(1.79959 0.095416 0)
(2.31299 -0.0078061 -4.45705e-20)
(2.42872 -0.638064 4.38116e-19)
(0.183006 -0.493222 1.58681e-18)
(2.04293 0.47571 0)
(-0.477036 -0.62748 -4.50828e-20)
(0.999958 0.0139493 8.73683e-20)
(0.968511 -0.476501 3.50382e-19)
(1.70686 0.00839659 0)
(1.78688 -0.263004 2.50347e-20)
(0.12348 -1.91905 6.73705e-20)
(2.49596 -0.280764 1.15001e-19)
(1.85222 -0.451764 -2.85185e-20)
(0.0682681 -0.126489 2.53092e-20)
(2.87664 -0.405236 2.89587e-19)
(1.77389 0.254375 0)
(1.67504 0.0974284 -1.89725e-22)
(2.4025 -0.396695 -2.64295e-19)
(0.181349 -1.82645 -8.45927e-20)
(2.17719 -0.738126 -2.18187e-19)
(-1.90205 0.750622 0)
(1.87987 -0.280205 -5.96523e-20)
(0.967697 -0.65389 -1.50302e-20)
(2.06397 -0.0176977 -2.66884e-19)
(1.50031 -0.392476 0)
(1.55077 0.964564 2.17355e-19)
(1.9714 0.0724081 -1.55289e-19)
(2.35879 -0.336771 0)
(2.61106 -0.0819962 6.93617e-20)
(1.15718 -0.559688 2.89026e-19)
(2.39827 -0.596392 -2.4407e-19)
(1.79013 -0.243514 0)
(1.48706 -0.630759 0)
(1.69642 -0.0209324 -1.79635e-20)
(2.81582 -0.00835699 -7.74864e-20)
(1.50177 -0.655793 4.7028e-20)
(2.0914 -0.200784 -2.30817e-19)
(1.93895 0.0911513 3.3869e-19)
(3.19771 -1.25365 -4.52809e-19)
(-1.39226 -0.563667 2.22921e-18)
(-1.85206 1.87138 2.09362e-18)
(2.86741 -0.0800819 4.42911e-19)
(1.85392 -0.0434052 4.47062e-20)
(2.72756 -0.158004 2.17286e-20)
(2.05344 -0.0100046 0)
(0.717302 -0.63668 0)
(1.81836 0.249873 -2.86161e-21)
(1.1913 -0.576783 2.69808e-19)
(1.9981 0.0251524 -5.62965e-20)
(2.19858 -0.150199 1.10147e-19)
(2.25232 -0.187564 0)
(2.00991 -0.0376935 -1.49918e-19)
(2.61844 -0.0498574 -5.08701e-20)
(1.92591 0.0754055 -3.11539e-19)
(2.48065 -0.583522 8.67084e-20)
(1.93875 -0.267145 -5.97603e-20)
(1.30783 -0.479795 2.08742e-21)
(2.91414 0.0469988 6.68125e-20)
(2.47644 -0.285796 1.355e-19)
(1.93498 0.0845741 -1.34118e-21)
(1.28803 -0.593164 0)
(0.373941 -0.103654 0)
(2.29572 -0.0281326 9.17445e-20)
(1.24803 -0.36722 6.71855e-20)
(1.94606 0.107671 0)
(2.18013 1.42535 -1.70507e-18)
(0.425246 -0.226215 0)
(2.41929 1.03377 -2.38191e-20)
(2.51715 -0.341649 -1.33317e-19)
(3.0869 -2.00169 0)
(1.89524 0.422028 -1.56033e-19)
(1.83826 0.271273 4.60305e-21)
(1.8649 0.215552 -1.97045e-20)
(1.87088 -0.0207943 -5.15007e-19)
(1.92526 -0.287928 0)
(1.94561 0.122667 -1.02497e-20)
(1.79796 0.195815 4.45959e-22)
(1.98276 0.0619673 7.24809e-20)
(1.62694 0.144959 -2.97898e-19)
(0.713765 0.777883 3.08815e-19)
(2.55005 -0.273999 1.46178e-19)
(2.2092 -0.395658 -6.56227e-19)
(2.10438 -0.199344 0)
(2.66899 0.0322968 3.67022e-21)
(2.24505 -0.406591 -1.20681e-19)
(2.00078 0.034166 7.56536e-19)
(2.09324 -0.628955 0)
(2.55953 -0.294974 -3.32121e-20)
(1.44078 0.415397 0)
(2.50447 -0.470647 -2.10929e-19)
(1.87279 -0.537767 -2.00946e-19)
(0.66331 -0.309448 2.84133e-19)
(2.37738 -0.488244 -1.81801e-19)
(2.02621 0.191921 0)
(1.66201 0.124591 -1.40629e-20)
(1.9038 -0.28939 6.46737e-20)
(1.63449 0.152595 2.81289e-19)
(2.26061 -0.414093 4.69558e-19)
(2.38915 -0.220704 2.16038e-19)
(-1.96201 0.103615 -7.59816e-19)
(2.03545 0.0304506 3.50578e-23)
(2.22026 -0.214836 0)
(0.992674 -0.338988 6.87048e-19)
(3.22983 0.572183 0)
(1.79606 0.253939 -1.69728e-22)
(2.24193 -0.118631 3.81486e-19)
(2.66167 -0.0248208 -4.2399e-20)
(2.62031 -0.0776152 5.01419e-20)
(-2.62672 1.58656 -1.54653e-18)
(1.93481 0.0732248 3.89227e-19)
(2.01381 0.0123543 0)
(-0.888714 -0.567784 -6.34219e-19)
(2.18441 -0.288101 -1.36416e-19)
(1.20137 -0.268843 -2.75095e-20)
(2.24319 -0.872532 1.90656e-19)
(2.49983 -0.00709677 0)
(2.63473 -0.268879 8.84886e-20)
(1.78922 0.174145 5.98497e-19)
(1.96913 0.0807944 4.71713e-19)
(2.31096 -0.365666 0)
(2.03286 -0.000562497 -2.62235e-22)
(2.23929 -0.181212 -1.1165e-19)
(0.114128 1.6104 2.07812e-19)
(1.58017 -0.0152472 7.84421e-20)
(2.18376 -0.250035 1.29677e-19)
(2.03833 0.00545484 -1.9609e-21)
(2.21135 -0.203575 0)
(2.68562 -0.16951 -4.88973e-20)
(-0.754229 -0.598818 7.98869e-20)
(2.44581 0.360014 3.90903e-20)
(1.99705 0.0317733 2.94142e-19)
(1.37006 0.0307844 0)
(1.73613 0.204991 -5.85482e-21)
(3.42712 -1.99322 0)
(3.5299 0.994814 -3.4635e-19)
(2.06473 -0.0260009 0)
(2.08369 -0.713467 -6.02437e-21)
(1.31049 -0.0841968 -1.67668e-19)
(1.53732 0.891537 5.28563e-19)
(0.133417 1.75256 -8.0973e-19)
(1.81798 -0.240454 0)
(2.37304 0.0522909 -3.81833e-20)
(2.03242 0.202627 -1.61799e-19)
(0.646544 -0.220182 -5.59238e-19)
(1.06381 -0.559629 2.24808e-22)
(1.6489 -0.0176832 -8.51383e-19)
(2.42098 -0.305198 1.2093e-19)
(2.10012 0.189662 1.09e-19)
(1.44192 -0.442141 0)
(1.36434 0.359612 3.18911e-19)
(1.96177 0.0759772 5.31881e-21)
(0.464159 -0.256889 1.75038e-20)
(-0.700283 -0.488673 -2.39657e-19)
(0.543935 -0.268759 -1.07719e-18)
(2.88065 -0.0872516 0)
(0.659497 -0.231622 0)
(2.0794 1.19267 0)
(2.06978 -0.0798847 0)
(0.628742 -0.163958 -1.64302e-20)
(2.49276 -0.440288 0)
(1.79826 -0.656532 0)
(1.65995 0.123569 1.16042e-19)
(2.95293 -0.133688 -5.8474e-19)
(2.18536 -0.192646 -3.12251e-19)
(1.70376 0.346369 9.62505e-19)
(2.00575 0.0236545 -8.37961e-20)
(2.48647 1.75328 0)
(2.50732 -0.279361 0)
(1.9131 0.0842542 3.32459e-19)
(2.02283 0.0537504 5.87789e-20)
(1.30245 0.956832 0)
(-1.67602 0.656014 6.05443e-19)
(2.16093 -0.751222 2.45554e-19)
(-0.593708 -0.637219 0)
(2.37989 -0.134991 2.11462e-19)
(1.97228 0.0665828 -3.84223e-19)
(0.678493 -0.167295 -4.74865e-20)
(0.986566 -0.321877 0)
(2.01463 0.21108 3.06465e-19)
(2.58416 0.127481 0)
(2.27179 -0.209047 0)
(2.22842 0.185681 -1.21859e-20)
(1.93155 0.0966833 1.77377e-19)
(-2.35696 1.54315 -1.78773e-18)
(2.3746 0.648398 9.98499e-21)
(1.32433 -0.326626 -2.99228e-19)
(2.07093 -0.0680531 3.97225e-20)
(2.10381 0.184519 8.40332e-20)
(2.76419 -0.158486 1.10016e-19)
(2.24848 -0.736731 0)
(2.54054 -0.576729 2.39335e-19)
(1.31586 -0.0158221 0)
(1.78713 0.23398 -9.8691e-22)
(2.30001 -0.23523 0)
(1.41334 0.113694 4.33306e-19)
(-0.501952 1.65334 -1.47032e-18)
(2.39219 -0.295326 0)
(-0.182416 0.284793 4.36656e-20)
(2.50226 -0.306 -2.81196e-19)
(1.13898 0.57961 -1.59271e-19)
(1.7542 -0.246845 8.20511e-19)
(1.42637 0.8843 -3.33714e-19)
(1.31552 -0.313632 -8.49812e-19)
(3.59706 0.960102 0)
(1.94705 0.0929248 -4.08303e-21)
(-1.94423 -0.0754906 -1.98362e-18)
(2.02071 0.217943 0)
(1.84005 0.241369 2.14544e-20)
(2.69397 -0.0452642 -4.0714e-20)
(2.85699 1.07473 0)
(2.00362 0.0206868 0)
(-0.419695 0.0508809 0)
(0.404451 -1.77674 2.34077e-19)
(3.15953 -1.45922 5.46691e-19)
(3.82175 -0.710218 7.55945e-20)
(2.37646 0.988863 0)
(1.69543 -0.141614 5.54989e-19)
(2.00845 0.0150389 -1.50413e-21)
(2.36118 0.594069 -1.03295e-20)
(0.831575 -0.46431 2.22943e-20)
(1.91228 0.176006 0)
(2.03506 0.0305319 0)
(0.711823 -0.0809033 -4.63521e-19)
(1.41566 -0.433254 -2.09702e-19)
(1.93619 -0.171534 0)
(1.24081 -0.604753 -2.66861e-19)
(2.05553 0.017446 2.69016e-21)
(2.03105 0.0229724 -3.70024e-22)
(0.749356 -0.346366 0)
(1.8682 -0.0183624 4.18697e-20)
(1.95738 0.0778825 -4.45088e-21)
(2.58146 0.110831 1.31135e-19)
(1.85988 -0.556469 0)
(-1.93857 2.11437 -3.24829e-18)
(2.63535 -0.0468545 5.54779e-20)
(2.00317 0.0982828 6.61788e-20)
(1.97753 0.0194778 -1.63316e-21)
(2.66079 0.647862 0)
(1.67594 0.339288 -2.56273e-19)
(3.14868 0.346284 -2.52796e-19)
(0.484361 -0.265307 2.34242e-19)
(2.00807 0.0607481 0)
(1.04113 -0.570352 -2.29096e-22)
(0.441324 -0.0615259 0)
(2.00403 0.0540059 -2.53438e-19)
(1.98996 0.0774735 1.15501e-19)
(1.86984 0.0586205 -6.50747e-20)
(0.164312 -1.73494 0)
(2.26116 0.029687 -2.0453e-20)
(1.0801 0.52503 8.70331e-19)
(2.22151 -0.731638 0)
(1.63092 0.107537 3.63058e-19)
(2.45695 -0.591383 -9.87448e-20)
(2.19015 -0.0222625 0)
(0.948067 -0.685863 9.53221e-21)
(1.69071 -0.291236 -4.75512e-20)
(2.05271 0.00969915 0)
(-1.24365 2.02726 1.83412e-18)
(1.82743 0.229404 0)
(1.65958 -0.761986 2.6742e-19)
(-0.474805 -0.704144 1.34249e-19)
(2.06359 0.0266073 4.0095e-22)
(2.4627 0.13505 -6.279e-20)
(1.35377 0.345283 1.69484e-19)
(1.74718 -0.276686 -3.02689e-19)
(1.82116 -0.217325 -2.66432e-20)
(1.70439 -0.772671 2.60792e-21)
(2.16428 -0.253211 1.25507e-19)
(2.64923 0.653484 1.94116e-19)
(1.76804 -0.793153 0)
(1.99663 0.0260154 -2.60813e-19)
(-0.623745 -0.493943 -5.80383e-19)
(1.3393 -0.0267722 0)
(1.98362 0.0933752 2.36783e-21)
(1.79753 0.00499842 0)
(1.20572 -0.34048 7.33239e-19)
(2.05617 -0.774957 0)
(1.92662 -0.000657687 3.12489e-21)
(2.25091 -0.112064 -2.17238e-19)
(0.946492 -0.751339 2.05825e-20)
(-0.181835 -0.0870039 1.13127e-19)
(2.38567 -0.0227601 -1.84474e-21)
(1.26265 -0.60012 2.46409e-19)
(1.7652 -0.510127 2.93081e-19)
(1.4617 -0.309989 0)
(-2.3378 1.08951 -7.15316e-19)
(2.26974 -0.682237 -5.09467e-20)
(-2.51508 1.20632 -8.90206e-19)
(2.03253 0.0286791 1.55169e-22)
(1.4349 -0.561572 0)
(2.22639 -0.0249046 -1.14198e-21)
(-1.74545 0.631344 0)
(0.372716 -0.596988 6.7017e-21)
(0.845639 -0.238019 6.11131e-20)
(0.00952881 -0.0989499 0)
(2.03146 -0.545336 8.73018e-20)
(1.62161 -1.0781 0)
(2.86938 0.981172 0)
(1.42665 -0.677349 -3.52609e-19)
(1.47041 0.37973 2.57958e-19)
(1.62154 -0.40649 0)
(1.79943 0.204238 -1.63359e-19)
(4.0582 -0.540235 1.33258e-18)
(-0.98345 -0.658459 5.18108e-19)
(2.88688 1.3792 0)
(2.17828 -0.045014 0)
(-2.04709 0.0374016 -1.00097e-18)
(1.86 -0.0839898 0)
(2.55917 0.0800751 0)
(-0.349555 -1.38768 -7.60713e-20)
(2.03311 -0.397118 -4.14973e-19)
(1.72702 -0.415761 2.52447e-19)
(2.84893 -0.486858 4.12548e-20)
(-2.35437 1.00812 1.45308e-18)
(1.98952 0.0664973 1.32309e-19)
(1.49847 -0.343013 0)
(2.20048 0.468099 -3.8212e-20)
(1.39195 -0.170069 0)
(2.30213 0.030046 0)
(2.00229 0.118189 0)
(2.21759 0.169227 -1.00554e-20)
(1.85539 -0.0181863 2.39425e-19)
(2.12839 0.0455488 -6.17511e-21)
(1.54109 -0.349745 0)
(-2.3374 1.36583 -1.24242e-18)
(2.11033 1.13522 4.02772e-20)
(1.84815 -0.677522 2.81511e-20)
(1.9487 -0.0483945 -7.13708e-20)
(2.36321 -0.584087 3.87397e-19)
(2.03917 0.0655038 -2.21582e-19)
(-0.303968 1.27973 0)
(2.61265 -0.0602811 0)
(1.4435 0.901107 0)
(1.19727 -0.543134 -5.27301e-19)
(1.24793 -0.866451 -4.61244e-20)
(0.222274 -0.0804655 0)
(2.22401 0.478379 0)
(2.64488 -0.178612 6.83231e-20)
(1.95258 -0.0310707 -6.2684e-20)
(1.92648 0.647581 2.51353e-19)
(1.56748 -0.683061 0)
(-2.57065 1.26198 -5.84759e-19)
(2.4021 0.0605849 9.05322e-22)
(1.38423 -0.396915 -5.01013e-19)
(2.25272 0.0625197 -5.01008e-20)
(2.35397 0.59912 4.99293e-20)
(2.24555 -1.40834 2.00734e-19)
(1.19569 -0.546368 9.21088e-19)
(1.82801 -0.644446 1.03166e-19)
(2.12033 0.0817087 2.28151e-21)
(1.9999 0.016899 -6.65157e-20)
(1.12194 -0.527226 -8.48744e-20)
(1.68826 -0.275032 2.10602e-20)
(1.70305 2.21005 4.53982e-20)
(1.26092 -0.60515 1.36553e-19)
(2.65627 0.0794164 0)
(1.29423 -0.839463 5.40502e-20)
(2.20703 -0.0455499 -2.08246e-19)
(3.00362 0.663151 1.40674e-19)
(1.35372 -0.360958 -4.56521e-19)
(1.83359 -0.650792 -3.04776e-19)
(1.97882 -0.0137951 6.10585e-19)
(2.39046 -0.0609209 -3.48557e-19)
(1.68803 -0.298214 -8.75225e-21)
(2.87788 -0.0567374 -2.28025e-19)
(1.12464 -0.128113 -9.91239e-19)
(2.12554 -0.0272032 -1.55767e-19)
(1.10757 -0.19698 0)
(0.912836 -0.876656 -7.10729e-20)
(1.93476 0.018721 5.53402e-19)
(1.71275 -0.00387644 -1.90205e-21)
(-0.932202 -0.745104 0)
(1.48111 -0.68348 0)
(2.05089 0.441085 2.18388e-19)
(0.986527 -0.120335 6.14807e-19)
(1.57387 -1.43315 -2.21803e-19)
(2.10583 -0.710001 -1.5375e-19)
(2.22516 -0.410295 3.58176e-19)
(3.27758 0.529599 0)
(2.0619 0.478817 1.15776e-19)
(1.33098 -0.448657 -3.04085e-21)
(2.59122 1.04273 1.42455e-19)
(1.95672 -0.256853 -3.60553e-19)
(-2.31758 1.02989 -2.28104e-18)
(2.34051 -0.54964 -3.75987e-19)
(2.53794 -0.615721 1.31453e-19)
(2.35069 1.22707 0)
(2.01699 -0.284938 -4.75027e-20)
(1.87659 0.0553193 5.98905e-20)
(2.01975 0.00490429 1.15645e-21)
(0.779354 -0.37727 8.43457e-19)
(1.93314 -0.252697 5.39844e-19)
(2.003 0.360228 -7.49074e-21)
(-0.963464 -0.491224 -2.75752e-19)
(2.22042 -0.115027 -1.31056e-19)
(2.2696 -0.0259045 1.38436e-19)
(-1.59114 -0.384368 -2.89437e-19)
(2.48727 0.998282 -1.36327e-19)
(-1.17007 1.78466 -1.98277e-18)
(0.928017 -0.455199 -2.804e-19)
(2.02371 0.00741279 0)
(2.10685 0.127957 -1.14702e-20)
(-0.741318 -1.79476 -4.61606e-19)
(1.30304 -0.115077 9.02941e-19)
(2.07621 0.0190368 0)
(1.96221 -0.277627 4.9913e-20)
(1.15938 -0.482191 2.08594e-19)
(1.99076 0.0470563 -5.66006e-19)
(-1.46009 0.175915 -4.44563e-19)
(1.61732 -0.401614 -1.30773e-20)
(2.19481 -0.206246 2.1252e-19)
(2.34341 0.0523652 5.15908e-20)
(1.67773 -0.770632 -3.71814e-19)
(2.13657 0.0571507 8.67762e-21)
(1.2503 -0.96892 -1.43189e-19)
(2.12054 -0.0462234 1.9533e-19)
(2.05934 -0.0580623 -1.7171e-19)
(2.1627 0.0937066 -6.68474e-21)
(2.12628 -0.0337303 -3.76353e-19)
(1.09798 -0.489927 -4.02898e-19)
(2.11185 0.0744946 0)
(0.468576 -1.28037 9.63718e-20)
(2.10859 0.0697722 4.27232e-20)
(0.70765 -0.0908398 -6.7127e-20)
(2.41192 0.0184744 -4.32059e-20)
(2.16914 -0.423424 -2.19543e-19)
(2.0008 0.0191552 -4.34926e-19)
(2.115 0.319116 6.3641e-20)
(-1.54419 0.470349 -6.24766e-19)
(2.54313 0.0718474 0)
(1.73176 0.177755 3.12554e-21)
(2.67713 -0.0144968 4.33935e-20)
(1.44252 -0.545217 0)
(2.15529 0.0748504 1.10252e-19)
(2.68124 0.0544653 4.23092e-20)
(2.49513 0.0657139 5.2871e-24)
(2.33233 -0.788713 -2.63961e-20)
(1.81621 -0.0436946 0)
(1.78642 0.378592 4.61736e-19)
(2.06592 0.288315 1.26643e-20)
(1.23542 -0.598805 2.97859e-19)
(2.00789 -0.172694 0)
(1.46281 0.340437 -7.47124e-19)
(1.42237 -0.395387 -1.93916e-20)
(2.63687 1.5198 -3.58851e-19)
(1.13492 -0.153705 9.63697e-19)
(2.08576 -0.00772203 9.14909e-21)
(-0.345589 -0.0522891 1.15228e-19)
(1.93242 -0.0720412 -3.74071e-19)
(2.60373 -0.506033 -3.498e-19)
(1.77019 0.170559 -3.45686e-19)
(1.99765 0.00823362 0)
(1.99955 0.0357244 -2.51705e-19)
(0.105477 -0.109829 7.86801e-20)
(-0.742094 -0.19884 0)
(2.40023 -0.956415 0)
(2.019 0.00534308 0)
(0.430045 -0.245156 0)
(2.06475 0.325172 0)
(1.06152 -0.11944 0)
(1.92749 -0.448708 -3.35895e-21)
(3.62269 -0.797079 -5.89475e-19)
(2.61426 0.289164 0)
(1.76715 0.379866 6.96965e-19)
(1.55617 -0.418009 -8.16012e-21)
(2.09392 0.198308 6.6233e-21)
(-0.602896 -1.74837 -3.3489e-19)
(1.07923 0.133393 -2.863e-21)
(-1.51731 0.481245 4.31496e-19)
(1.89954 0.00376958 -1.42685e-19)
(2.65611 -0.059074 2.70541e-20)
(2.04043 0.306424 -1.52818e-19)
(1.87305 0.204835 -4.60515e-19)
(2.03478 1.06138 -1.4177e-19)
(3.47725 0.984915 0)
(0.97805 -0.546604 2.07915e-21)
(1.22599 -0.355176 -8.03485e-19)
(2.01083 0.0274843 -7.79236e-19)
(2.28195 -0.690189 -2.95866e-19)
(2.00412 -0.0225551 5.91265e-20)
(2.554 -0.653274 3.9217e-20)
(2.11494 -0.325253 -4.72641e-20)
(2.04703 -0.535168 -3.02323e-19)
(2.03544 0.182646 1.68457e-19)
(2.20967 1.33032 0)
(1.80945 -0.18301 -2.42475e-20)
(1.67769 0.108136 -1.06414e-19)
(2.51449 -0.412747 0)
(1.72595 -0.0134409 0)
(1.72663 -0.794214 -3.49521e-21)
(-0.172417 -0.177478 1.05205e-19)
(1.90198 -0.460045 -1.15299e-19)
(1.82968 0.0498444 0)
(1.89627 -0.0294456 -4.89729e-19)
(1.79426 0.244973 -8.94646e-20)
(0.618403 -1.02859 4.42364e-20)
(2.58807 0.119855 2.51098e-20)
(-1.2901 0.335617 0)
(0.940162 -0.540072 3.72082e-21)
(2.64261 0.0845441 0)
(1.99216 -0.298385 4.99298e-20)
(2.59106 -0.269834 -7.22958e-20)
(1.99977 0.0326371 -3.45337e-22)
(2.43714 0.660389 3.88385e-20)
(2.84718 1.24763 -3.8821e-20)
(1.71808 -0.486851 6.07811e-19)
(1.13637 -0.553343 0)
(1.60163 -0.903844 -1.31137e-19)
(1.55509 -0.497458 0)
(2.67054 0.272395 -6.06253e-20)
(0.57407 -0.98221 6.3312e-20)
(2.3416 -0.941024 2.58052e-19)
(1.71788 0.143704 -5.13811e-21)
(0.109968 -2.11658 -6.10822e-19)
(1.05995 -0.522856 -3.43947e-19)
(1.27095 -0.364127 -4.66441e-19)
(1.95823 0.0785479 -1.90352e-21)
(1.64572 -0.877924 1.07558e-19)
(1.14043 -0.505044 3.31266e-19)
(1.33191 -0.391462 5.12238e-19)
(1.24252 -0.830992 5.07879e-20)
(1.77362 -0.987562 -7.92426e-20)
(1.82526 -0.575336 3.0331e-19)
(-0.253381 1.47391 9.45181e-19)
(2.14919 0.0106418 5.19358e-21)
(1.51305 -0.424554 9.47332e-21)
(2.36989 0.403139 -1.82189e-20)
(2.22594 -0.571381 0)
(0.481134 -0.259309 -2.12951e-18)
(2.10708 -0.039002 -2.60109e-19)
(1.99892 0.12674 0)
(2.63818 0.252174 0)
(1.50459 -0.70781 -6.1638e-20)
(2.81384 -0.681002 -4.00709e-19)
(2.44805 0.186659 7.79542e-20)
(2.02903 -0.385742 5.44083e-19)
(2.0092 1.0171 1.36156e-19)
(1.47539 -0.0129993 3.91798e-19)
(0.461869 -1.10282 -1.20754e-20)
(1.81324 0.670289 0)
(1.36407 -0.423696 4.90738e-19)
(0.308298 1.39112 5.27608e-19)
(0.118652 -2.00282 4.41728e-19)
(1.70276 -0.659204 1.00619e-19)
(1.38124 -0.627315 -7.43717e-20)
(1.80117 -0.00444091 2.02631e-19)
(1.7203 0.0542681 5.83586e-21)
(2.27099 -0.331459 2.43111e-19)
(0.368637 -1.1206 -6.01139e-20)
(2.43079 0.183402 -5.5376e-20)
(1.94028 0.0712878 1.94176e-19)
(1.10269 -0.184335 -3.95844e-19)
(1.86336 -0.0592152 3.05916e-19)
(1.67615 -0.296829 0)
(2.45012 0.357786 -5.6551e-20)
(1.98051 0.0643426 4.33285e-20)
(1.44908 -0.275217 -1.57236e-19)
(1.95642 1.97231 9.68614e-20)
(1.7952 -0.561489 2.25358e-19)
(2.06231 0.0135574 8.32507e-20)
(1.35516 0.200153 -5.85239e-19)
(2.49589 -0.422355 0)
(1.75219 0.146478 -7.37603e-21)
(2.26482 0.0800204 6.80834e-20)
(1.97776 -0.0563016 0)
(1.37524 0.0878597 3.35803e-19)
(2.59485 0.116465 0)
(1.84625 1.97838 -5.17087e-20)
(2.3546 -0.0346716 0)
(1.81132 -0.204021 0)
(2.56704 -0.0250099 4.69544e-20)
(2.42026 0.14646 -2.3484e-20)
(2.95107 0.107257 -3.98109e-19)
(1.91848 0.162432 -2.09353e-19)
(1.61549 1.2854 -1.25939e-19)
(2.00358 0.11031 -7.97328e-20)
(2.09762 0.328208 0)
(2.62691 0.798227 -1.88808e-19)
(2.50433 0.113802 8.62892e-20)
(1.97043 -0.282238 -1.0265e-19)
(2.22552 -0.566665 0)
(3.03365 0.651133 2.11386e-19)
(2.3216 1.76089 2.39726e-20)
(2.13763 0.0104245 2.10168e-20)
(1.71226 -2.42759 0)
(-0.0435271 -1.54946 1.54002e-18)
(2.05234 0.176531 0)
(2.29941 -0.292415 -1.22586e-19)
(0.223726 -0.383624 0)
(3.56189 0.496707 0)
(1.80399 -0.681166 0)
(2.01482 -0.767873 0)
(-1.58781 0.779892 -3.42406e-19)
(0.50295 -1.66399 -4.5636e-20)
(1.8436 -0.0121858 -3.59105e-19)
(0.909719 -0.770991 -2.66112e-20)
(1.22473 -0.534139 0)
(0.967748 -0.94657 -3.32946e-20)
(0.0146085 -0.529486 -1.57025e-18)
(1.45673 -0.689161 0)
(1.4426 -0.50488 -5.25569e-19)
(1.96849 0.148049 1.98984e-21)
(2.35379 0.390172 3.58936e-20)
(2.36088 -0.813234 7.75378e-20)
(1.86136 0.189899 0)
(2.1727 -0.710855 0)
(3.41677 0.157823 2.12874e-19)
(1.68514 -0.236806 5.27583e-21)
(1.93021 0.0898486 2.71477e-21)
(1.50493 -0.699661 -6.14877e-22)
(1.99706 0.0102673 1.871e-20)
(2.10365 0.124566 5.4503e-22)
(2.03351 0.186132 2.42988e-19)
(1.77851 0.195522 1.45587e-21)
(1.86923 -0.516033 0)
(-2.53827 1.76437 0)
(2.12686 0.0460658 0)
(1.93124 0.0121033 0)
(1.71564 -0.293834 2.22785e-19)
(2.73665 -0.0984093 0)
(-0.873477 -0.460948 3.87329e-18)
(2.10249 -1.44108 -2.38062e-20)
(1.29655 -0.40762 -7.692e-19)
(1.5329 -0.397928 5.6674e-22)
(0.580926 -1.33427 -5.46532e-20)
(0.268525 -0.27791 -2.18563e-18)
(1.90263 0.0274539 6.64613e-20)
(0.080305 -1.25089 -9.96396e-20)
(1.8049 0.217104 -9.67025e-22)
(2.57891 -0.00999824 0)
(2.33714 -0.396339 0)
(1.63828 -0.472626 0)
(2.16587 -0.440308 1.16232e-19)
(1.72421 -1.05934 0)
(1.84858 0.675487 0)
(2.00184 0.0121259 0)
(1.74824 -0.419813 2.35406e-19)
(2.09155 0.196624 -2.18645e-19)
(1.8534 0.0207907 0)
(1.97778 -0.456227 -1.14054e-19)
(1.98053 0.194346 -2.4181e-19)
(2.5926 0.933803 -2.98177e-19)
(1.49966 -0.705685 3.14878e-19)
(1.9231 0.723307 -1.95255e-22)
(1.69518 -0.345938 -3.93601e-21)
(1.69381 -0.00362529 1.77219e-20)
(1.82687 -0.277244 -5.0136e-20)
(2.40974 0.152766 3.60557e-20)
(1.93919 0.083647 6.31661e-21)
(1.80689 0.0979161 -3.38092e-19)
(2.12184 -0.0401134 0)
(0.747329 -0.116248 5.07936e-20)
(1.96039 0.0765987 3.48472e-19)
(1.36886 -0.457754 -1.91993e-20)
(2.11241 -0.309369 -1.37735e-19)
(1.01775 -0.14283 -6.70264e-19)
(2.41496 0.128211 -6.91877e-21)
(3.17399 0.352036 3.63218e-19)
(2.00156 0.0895771 0)
(1.95691 -1.07364 7.74449e-20)
(1.81526 0.0580346 -4.60279e-21)
(1.83715 -0.286392 9.89621e-20)
(0.855367 -0.501211 -2.54903e-20)
(2.04744 0.0224069 1.81295e-19)
(2.12363 0.071785 -2.52802e-21)
(2.07885 0.00289731 -7.00544e-21)
(2.12338 0.0439812 0)
(1.46306 -0.347226 0)
(1.31885 -0.636607 3.83977e-19)
(-1.32175 0.224741 4.80408e-19)
(2.03896 0.00370324 4.14159e-22)
(1.95691 0.0751619 6.97516e-19)
(1.86542 -0.973609 -1.93574e-19)
(1.43009 0.328884 0)
(1.79431 0.118435 0)
(1.57394 -0.331719 -3.0399e-21)
(2.51407 0.00925657 7.3872e-20)
(1.97213 0.697757 3.29017e-19)
(2.49714 -0.182711 0)
(2.05016 -0.00494104 0)
(2.06483 -0.604289 4.20019e-19)
(1.97952 -0.153748 2.89019e-19)
(0.0805446 -0.0813856 -4.91743e-21)
(1.80082 -0.0274649 0)
(3.54339 0.493382 2.85007e-19)
(2.10251 -0.585641 -4.77144e-20)
(-0.723905 -1.55874 -6.17084e-19)
(2.0079 -0.00661506 -3.89847e-19)
(3.54447 -0.575312 0)
(2.87918 -0.676845 3.17156e-19)
(1.94284 -2.21006 -5.20166e-19)
(-0.00215113 -0.0351665 0)
(1.95965 0.014407 5.20435e-21)
(1.9096 0.1301 -2.2673e-19)
(1.94946 0.00827914 9.48277e-24)
(2.60837 -0.292208 4.28368e-20)
(1.52295 1.27355 5.34245e-19)
(1.86945 0.0429697 0)
(1.00901 -0.362638 -4.27883e-21)
(1.99314 -0.812397 1.46239e-19)
(3.22241 -2.21352 -1.83913e-18)
(2.05488 0.307124 1.81365e-19)
(1.15321 -0.540091 -7.90665e-21)
(2.00702 0.006474 -8.43711e-19)
(2.00679 0.386914 4.26899e-21)
(1.6733 0.0600206 1.23611e-20)
(1.71205 -0.378581 0)
(1.82519 0.0231569 -3.27682e-20)
(1.06696 -0.493704 2.64725e-19)
(2.22068 -0.114703 -4.19996e-19)
(1.98357 0.0666909 -3.15459e-19)
(2.28571 -0.271282 1.13159e-19)
(1.65624 -0.12794 8.12613e-19)
(2.13514 0.00743224 -5.7273e-21)
(1.78043 0.11962 1.96638e-19)
(1.98015 0.097802 8.20559e-21)
(2.87212 -0.492059 -4.71959e-19)
(2.52894 1.07173 -2.12607e-19)
(1.62429 -1.50267 1.71782e-19)
(1.91947 -0.0220616 0)
(1.50559 -0.476494 0)
(0.924953 -0.204959 0)
(1.29688 -0.371394 5.95325e-19)
(2.14724 0.0710808 -5.13217e-19)
(1.78125 0.266778 0)
(1.48944 -0.293094 -4.67536e-19)
(1.77545 0.241212 0)
(1.72509 -0.265285 -3.65902e-19)
(1.95152 -0.293778 -1.06893e-19)
(1.84512 -0.484943 -3.33079e-19)
(1.95029 0.0453585 0)
(1.94348 0.0578708 0)
(1.99374 -0.0619599 6.21579e-20)
(2.57413 0.232982 6.42702e-21)
(2.61914 -0.101602 1.9054e-19)
(2.53362 1.85188 -5.07626e-21)