/*--------------------------------*- C++ -*----------------------------------*\
| =========                 |                                                 |
| \\      /  F ield         | OpenFOAM: The Open Source CFD Toolbox           |
|  \\    /   O peration     | Version:  2306                                  |
|   \\  /    A nd           | Website:  www.openfoam.com                      |
|    \\/     M anipulation  |                                                 |
\*---------------------------------------------------------------------------*/
FoamFile
{
    version     2.0;
    format      ascii;
    arch        "LSB;label=32;scalar=64";
    class       surfaceScalarField;
    location    "3";
    object      phi;
}
// * * * * * * * * * * * * * * * * * * * * * * * * * * * * * * * * * * * * * //

dimensions      [0 3 -1 0 0 0 0];

oriented        oriented;

internalField   nonuniform List<scalar> 
20045
(
0.255066
-0.283362
0.0282969
-0.545733
0.200161
0.345572
0.145821
0.863595
-1.00942
0.0674039
-0.0918164
0.0244125
-0.432177
0.421412
0.0107644
-0.269855
1.07413
-0.804274
-0.523395
0.226291
0.297104
0.03595
0.222735
-0.258685
0.23837
0.218505
-0.456875
-0.402088
-0.0723316
0.474419
0.192671
0.153637
-0.346307
1.09569
-0.559631
-0.536062
0.192395
-0.191079
-0.00131619
-0.64794
0.522408
0.125532
-0.167555
0.545332
-0.377777
-0.550141
0.148053
0.0395387
0.225624
-0.265163
0.450389
-0.370573
-0.0798157
-0.839802
1.23239
-0.39259
-0.378036
0.0151197
0.362917
0.219062
-0.204867
-0.0141946
0.0676915
0.124704
-0.0745008
-0.471232
0.264434
0.368954
-0.633388
0.42423
0.0878424
-0.512073
-0.401202
0.665636
-0.124013
0.110131
0.0138821
-0.531727
1.03928
-0.507556
0.883874
0.109263
-0.993137
-1.0005
0.588787
0.411711
-0.0658224
-0.197094
0.262916
0.74499
-0.528693
-0.216296
-0.399157
0.687283
-0.288126
1.09117
-0.632349
-0.458819
-0.287124
0.323074
1.11365
-0.554429
-0.55922
0.725678
0.136081
-0.861759
-0.0313833
0.193342
-0.161958
-1.03756
0.401305
0.636256
0.312441
0.257637
-0.570078
0.0267265
0.204645
-0.231372
0.0681695
-0.099038
0.0308685
1.07762
-1.07988
0.00226043
0.744697
-0.267098
-0.477599
0.338078
0.40662
0.538202
0.557491
0.269126
-0.120168
-0.148958
0.624347
0.291571
-0.915917
0.943902
-0.218224
0.0580921
0.874412
-0.932504
0.652936
-1.10078
0.447842
0.94407
-0.701788
-0.242283
-0.522777
-0.513169
1.03595
-0.0443687
-0.159871
0.20424
0.447234
-0.126745
-0.320489
-0.357119
-0.0750572
0.0602626
0.725642
-0.785905
0.850228
0.034382
-0.88461
0.359387
-0.758544
1.07161
-0.739618
-0.331996
0.146445
0.169609
-0.316054
0.412612
0.659001
0.494386
-0.892972
0.398586
0.184369
0.0346927
0.305824
0.137477
-0.443301
0.818561
0.139243
-0.957804
-0.0257259
0.0969961
-0.0712702
-0.340097
0.0706636
0.269433
0.43436
-0.19599
0.951371
-0.967577
0.0162062
-0.0565338
0.0308079
-0.0276031
0.474837
-0.136446
-0.51749
0.653936
0.0374523
-0.0796572
0.0422049
0.908616
-0.142029
-0.766587
0.693481
-0.633219
-0.0469267
0.955543
0.223385
-0.39094
-0.284425
0.318966
-0.0345409
0.317898
-0.61401
0.296112
0.520872
0.604013
-1.12488
0.455799
-0.363021
-0.0927787
0.758001
-0.263615
-1.09261
0.193236
0.899374
0.00434758
0.250718
-0.256576
0.311079
-0.0545031
0.611169
-0.744596
0.133427
-0.803938
0.0383724
0.765565
0.526188
0.0708402
-0.597028
-0.441093
0.387316
0.053777
-0.776249
-0.10063
0.876879
0.373519
-0.0641911
-0.309328
0.204852
-0.301811
0.0969587
-0.0905314
-0.406531
0.497062
0.306525
-0.323552
0.0170273
0.743397
0.205911
-0.949308
-0.057648
-0.0663648
0.0159054
-0.142846
0.12694
0.621005
-0.308565
-0.0291527
0.258452
-0.2293
0.755696
0.357952
-0.259755
-0.388185
-0.176233
0.192139
-0.144003
0.994232
0.016633
-0.273209
-0.277259
0.248107
0.222891
0.608097
-0.830988
0.639751
-0.940335
0.300584
-0.0152997
-0.216135
0.188445
0.0276903
-0.102172
0.130549
-0.0283767
0.640298
-0.467266
-0.173032
-0.256118
0.21175
0.664646
-1.06222
0.397579
-0.100549
0.170445
-0.0698956
0.0235157
-0.126766
0.103251
0.576061
-0.151831
0.812882
0.278286
-0.592836
0.45639
0.695907
-1.02256
0.326651
0.355467
0.0949215
0.267936
-0.121491
-0.400683
0.328049
0.0726347
-0.39781
0.0485594
-0.3021
0.253541
0.680892
0.263179
0.569867
-0.725498
0.155632
0.816637
0.0779697
-0.894607
-1.00483
0.788097
0.21673
-0.243466
-0.288709
0.532175
1.00133
-0.320435
-0.34362
0.223452
0.224069
-0.189084
-0.034985
-0.0276674
-0.00277775
0.0304451
0.569833
0.400959
-0.970792
0.610507
-0.581047
-0.0294601
-0.174116
0.0906393
0.0834765
-0.15505
-0.0610855
1.14466
-0.448755
-0.333629
0.357754
-0.0241256
0.595599
-0.974847
0.379247
0.277858
-0.800635
0.552704
0.26469
-0.817394
0.669975
-0.352076
0.975932
-0.134864
-0.841067
0.104658
-0.619956
0.515299
0.979712
-0.756387
-0.223326
-0.140438
0.228253
-0.0878153
0.0248774
0.943539
-0.968416
1.07069
-0.186821
-0.827789
0.0279768
0.799812
-0.488653
0.427115
0.0615379
1.01899
-0.498114
0.160168
0.295631
-0.636902
0.770092
-0.13319
-0.692545
0.838366
0.0110283
-0.158581
0.147553
0.06343
-0.0786809
0.0152509
-0.0157285
-0.195265
0.210993
0.886282
-0.0468543
-0.839427
1.25149
-0.609501
-0.641985
-0.229017
0.213289
0.327547
-0.696947
0.369401
0.0802708
-0.0121013
-0.845791
-0.498883
0.668754
-0.169872
-0.66376
0.512819
0.150941
-0.0107425
-0.0337531
0.0444956
0.291555
0.688158
-0.0540099
0.0263425
0.0707993
0.15327
-0.698614
0.061712
-0.73429
0.930051
-0.19576
-0.670753
0.768014
-0.0972611
-0.612082
-0.420686
1.03277
0.0200423
-0.248982
0.22894
0.428064
-0.485473
0.0574098
0.724002
0.139842
-0.863844
0.0119032
-0.762049
0.750146
-0.401789
0.954493
0.205686
-0.557941
0.352255
-0.392768
1.05741
-0.842366
0.560611
0.281755
-0.0667854
0.0727311
-0.00594571
0.371685
-1.05469
0.683005
-0.848157
0.31643
-0.619883
-0.39744
0.945849
-0.599492
-0.346357
-0.274625
0.301352
0.127671
-0.13493
0.00725913
-0.775203
-0.203879
0.979081
-0.780883
1.09956
-0.318673
0.969658
-0.666803
-0.302855
0.0603171
-0.242144
0.181826
-0.21915
-0.526262
0.745413
-0.116091
0.308762
-0.450388
0.206922
-0.6414
-0.211377
0.852776
0.0922074
0.0256649
-0.117872
0.0883265
-0.587209
0.177785
-0.243607
0.861262
-0.044625
-0.144924
0.113541
-0.134824
0.164297
-0.0294727
-0.126314
1.0126
-0.782266
0.563115
0.319459
-0.00381336
-0.315645
-0.70117
0.136436
0.564733
0.342985
0.626673
1.10637
-0.734687
0.668076
-1.08989
0.421815
0.255816
-0.662696
0.40688
0.0399576
-0.417994
-0.490569
0.713461
0.654269
-0.924123
0.199187
-0.646316
0.447129
-1.08665
0.588626
0.498027
-0.0414162
-0.399676
0.180931
0.151823
-0.332754
0.653636
-0.150924
-0.502712
0.297991
-0.648107
0.672984
-0.261766
-0.0718621
0.610087
0.998963
-0.927327
-0.0716363
-0.0117294
-0.133395
0.145125
0.674723
0.0774902
-0.752213
0.174969
0.133029
-0.307999
-0.0400063
0.580195
-0.540188
-0.174413
0.785582
0.578823
-0.373137
-0.0571379
0.157102
-0.0999638
0.806559
-0.21096
0.0951388
-0.00795804
-0.0871808
0.174478
0.0603455
-0.234824
-0.107368
0.111141
-0.00377237
0.945969
-0.624423
-0.321546
0.228352
-1.00923
-0.11719
0.00982185
-0.877671
0.272405
0.605267
0.94907
-0.261787
0.24691
-0.9812
1.23892
-0.586166
-0.652755
-0.0120792
0.104287
0.920928
-0.37438
-0.546548
-0.614187
0.137976
0.476211
-0.961584
0.966091
-0.004507
0.282607
-0.716451
0.433844
-0.0680368
0.0183937
0.0496432
-0.473509
0.62658
-0.153071
0.0282775
-0.185276
0.156998
-0.155925
0.055376
-0.118606
0.0164338
-0.661482
-0.278852
0.491428
-0.746831
0.255403
0.206886
-0.279006
0.0721205
0.430441
0.314549
0.559322
-0.360135
0.0190119
0.0444181
0.583411
0.365659
-0.501176
0.01631
0.484866
0.2882
0.632729
0.391271
0.154061
0.269074
-0.0621887
-0.292576
-0.0205714
0.313147
0.00355047
-0.0703358
-0.623885
0.583879
-0.218585
0.303274
-0.0846888
-0.89174
0.857428
0.0343122
-0.439409
0.397776
0.041633
-0.199918
-0.127966
0.327884
0.761391
-0.82518
0.0637887
-0.640233
-0.44642
1.23331
-0.85499
-0.378317
-0.0976459
0.0859165
0.798924
-0.516318
-0.29526
0.786688
-0.072701
-0.259968
0.332669
0.859546
-0.106038
-0.753508
0.999378
-0.139301
-0.860077
-0.367861
0.29516
0.837872
-0.486863
-0.351008
-0.156192
0.780331
-0.624139
0.465547
-0.624702
0.159155
-0.109189
-0.124409
0.233598
0.184105
0.0381188
-0.222224
1.10929
-0.860027
-0.249265
-0.540562
-0.464265
0.805529
0.193434
-0.812276
-0.0794643
-0.0574745
0.231953
0.214927
-0.835331
0.620405
0.00414071
0.12353
-0.541136
1.11097
0.338608
0.607361
1.03268
-0.653876
-0.3788
-0.770481
0.559104
0.767818
-1.14766
0.379838
-0.628329
-0.0367637
0.665093
-0.238022
-0.180857
0.418878
0.60523
-0.277684
0.0418213
0.277637
0.242991
-0.0348137
-0.49388
-0.711432
1.00751
-0.296077
-0.154732
0.0199075
-0.0592463
0.00210837
0.124187
-1.08577
0.617126
-0.791539
0.1687
-0.244492
0.345882
-0.10139
-0.00243267
0.0698366
-0.517657
0.355963
0.161693
0.358537
0.281761
-0.249729
0.449144
-0.199415
0.495616
0.114891
-0.628646
0.843572
0.57779
-0.051602
-0.205977
-0.495192
0.962174
-0.66829
-0.293884
0.954642
-0.950927
0.330742
0.620184
0.795493
-0.858422
0.0629295
-0.445903
0.355372
-0.126489
-0.0476272
-0.140537
-0.635712
0.287709
-0.552865
0.265156
0.427528
0.410344
0.726049
-1.02525
0.299198
0.228011
-0.546665
0.318654
-0.972192
0.168254
0.00956962
0.36395
-0.630331
0.951077
-0.320746
-0.248771
0.313731
-0.0649593
-0.41566
-0.107735
-0.134958
-0.226949
0.361906
0.0905213
0.000710174
-0.0912314
-0.338221
-0.150432
0.369216
0.454647
-0.823863
0.882287
-0.594088
0.33829
-0.45292
0.00701677
0.47172
-0.243708
-0.67957
-0.162796
-0.129267
0.146056
-0.0167888
0.975134
-0.350788
-0.460324
0.757405
-0.297081
-0.123757
0.145844
-0.022087
0.737158
-0.0835222
-0.27373
-0.561601
-0.504914
0.929246
-0.424332
0.672849
-1.0565
0.383653
0.480288
0.75302
0.0807441
-0.0284152
-0.0523289
0.0851017
-0.713431
0.688338
-1.04605
0.357716
0.103028
-0.0655756
-0.0731302
0.642997
-0.119109
0.736235
-0.402897
0.658713
0.191645
-1.03145
-0.953178
0.560283
0.392895
0.640256
-0.0970218
-0.543234
0.93835
-0.176959
-0.411872
-0.537939
-0.487475
0.408252
0.133098
-0.374924
0.241826
0.321172
-0.306052
-0.720646
0.647515
0.867151
0.210473
-0.792794
0.33247
0.984975
-0.179446
0.141201
-0.184132
0.0429311
-0.0173002
-0.596336
0.613636
-0.90212
0.169512
0.732608
0.733147
-0.733147
-0.293927
0.8942
-0.600273
0.27999
-0.529719
0.648204
-0.423198
-0.225006
-0.924301
0.954041
-0.02974
0.34688
-0.047506
-0.299374
0.26956
-0.104276
-0.165284
0.123849
-0.323767
-0.210522
0.515261
-0.810521
-0.826928
0.973371
-0.146443
-0.291324
0.66054
-0.122653
-0.0333712
0.156024
-0.131359
0.225182
-0.0938234
-0.377294
0.417251
0.972239
-0.77121
-0.20103
-0.104009
-0.507545
0.611554
-0.2432
0.258646
-0.0154464
0.133079
-0.281832
0.148753
-1.06622
0.450466
0.615754
-0.0683795
-0.023437
0.191273
-0.0500718
0.0789524
0.183662
-0.262615
0.450398
0.658893
-0.219898
0.097245
-0.0748736
-0.273425
0.348298
-0.492857
0.792803
-0.299946
-0.00731542
0.0788652
-0.0715498
0.442724
-0.216433
0.736241
0.115459
-0.8517
0.0168616
-0.423392
0.00567627
0.718326
0.429219
0.304966
-0.734185
0.474274
-0.413858
-0.0604163
-1.01373
0.185937
-0.425295
0.199453
0.225842
0.372666
0.511496
-0.884162
-0.625864
0.5891
0.0480734
-0.914521
0.866447
-0.13996
0.200277
-0.0673485
0.0735787
-0.00623017
0.0213907
-0.313966
-0.158224
0.182603
-0.0243794
-0.683842
-0.19383
0.62
0.150177
0.0450326
-0.19521
-0.133368
0.00961148
0.162138
-0.70884
0.546702
0.178601
0.541774
-0.720375
0.291973
-0.71281
0.857181
-0.144371
-0.712163
0.555971
0.0116769
0.0984538
-0.410831
-0.252929
-0.266565
0.0646751
0.20189
-0.862992
0.370135
0.654157
-0.758165
0.244983
0.739992
-0.305582
0.310276
-0.00469405
0.286337
-0.773707
0.48737
0.160945
-0.273882
0.112937
0.54605
-0.81978
-0.647727
-0.0230259
-0.321949
-0.0181474
-0.00658404
0.167155
-0.160571
0.332006
0.0135113
-0.0464206
0.0329092
0.824081
-0.451416
-0.784007
0.935594
-0.151587
0.259616
0.192802
-0.452417
-0.37249
0.232531
-0.228164
-0.038401
0.331085
0.317118
-0.27292
-0.749638
-0.135486
0.00621922
0.616785
0.406922
0.170868
-0.828794
0.886886
0.0551269
-0.428375
0.373248
-0.0859543
-0.829337
0.915291
0.0718916
-0.0739947
0.00210308
0.291981
-0.271938
-0.167722
0.633269
0.68539
-0.580732
-0.412248
-0.105409
7.70514e-05
-0.412881
0.412804
0.405355
-1.01744
-0.0878807
-0.488805
0.576685
0.0346284
-0.155657
0.121029
-0.65244
0.0441304
0.60831
0.961995
-0.670425
-0.0116673
0.0901097
-0.0784424
-0.219707
-0.0234924
0.189154
0.354876
-0.54403
0.0992936
-0.125658
0.0263649
0.652843
0.374131
-1.02697
-0.403984
1.14738
0.086628
0.0038933
-0.248607
-0.575667
0.824273
0.413714
0.730947
0.867679
-0.689078
-0.360109
0.225151
0.258383
-0.0742784
-0.334555
1.10237
0.131357
-0.765278
0.633922
0.950768
-0.143768
-0.807
-0.417072
0.693565
-0.276494
0.399774
-0.300263
-0.504716
0.804979
-0.304407
0.234218
0.0701892
-0.281067
-0.489405
0.770473
0.0858118
-0.21717
0.0415198
-0.0522622
0.507329
-0.788396
-0.707765
-0.210643
0.918409
-0.0644538
-0.478963
0.543417
0.0200922
1.10575
-1.13588
0.0301304
0.217477
-0.140251
-0.0772258
0.00834536
-0.313928
0.257796
0.239266
-0.32239
0.0843685
-0.804631
1.01207
-0.207436
0.0378552
-0.25644
0.436695
0.23328
-0.833878
-0.246006
0.0775176
0.182639
-0.260156
0.541536
-0.134614
-0.20179
0.222829
-0.0210391
-0.16609
0.194367
-1.15928
0.5394
0.910708
0.163421
-0.121047
0.254126
-0.210896
0.470512
0.804335
-0.289074
-0.210147
0.00835715
-0.098545
-0.622101
0.251683
0.213086
-0.202057
-0.916138
0.0140174
-0.0874247
0.214819
-0.0538743
-1.0147
0.629916
0.384782
0.80205
0.149321
0.198252
-0.0677282
-0.130524
0.282653
-0.265637
-0.0170163
-0.861941
0.307512
-1.02902
0.524102
-0.297427
0.236652
0.0607749
0.0126849
-0.0664606
0.0537757
1.05272
-0.0120597
-1.04066
0.145806
0.00813231
-0.153939
-0.135082
-0.265602
0.232133
-0.0272803
-0.0354476
0.0294065
0.0060411
0.394831
-0.0614293
-0.333402
-0.0199298
-0.0155178
0.848183
-0.642273
-0.0266686
-0.149644
0.176312
-1.01105
0.206414
0.00538253
0.046669
-0.222902
-0.121794
0.271972
0.0156497
0.00336225
0.251384
0.156203
-0.407586
0.414885
-0.109061
0.406259
-0.351132
0.196331
-0.172815
0.0762925
-0.325064
0.621552
-0.123656
-0.497896
0.52869
-0.0318472
-0.496842
-0.524151
-0.0958055
0.15366
0.0120734
-0.165734
0.364578
-0.444218
0.0796397
1.10775
-0.0403259
-1.06743
0.151299
-0.0387944
-0.112505
-0.490328
0.666686
-0.176358
0.469754
0.565336
-1.03509
-0.123906
0.293515
-0.265257
0.436905
-0.171648
0.223245
0.0912486
-0.314494
-0.833653
0.406788
0.426866
0.0245491
0.00485744
-0.844902
0.137136
0.309709
-0.185028
-0.124681
0.471474
-0.61513
0.143656
-0.090429
-0.192933
0.154444
0.951303
0.822073
-0.135695
-0.686378
-0.831965
0.119156
0.336871
-0.542849
0.66746
-1.07808
0.410617
-0.105707
0.286638
0.0230961
-0.399035
0.324161
-0.165277
0.213837
-0.109372
-0.760212
0.869585
0.380718
0.418206
-0.741893
0.778707
-0.0368147
-0.162413
0.155829
-0.667369
-0.248641
-0.117477
0.132001
-0.0145248
0.161261
-0.343509
0.182248
0.0357486
0.00985546
-0.0456041
-0.0893441
0.560819
-0.737986
-0.227938
0.965924
-0.75071
-0.243929
0.994638
0.476754
-0.367115
-0.109639
-0.171362
0.0196844
0.151677
0.104591
-0.127154
0.022563
-0.972459
0.0436895
0.92877
0.0224968
0.194043
-0.21654
0.796633
-0.887406
0.0907728
-0.498712
0.402331
0.150328
-0.552659
0.013433
-0.13091
-0.244691
-0.347441
0.592132
0.626149
-1.01892
-0.949033
0.825197
0.123836
0.115236
-0.0159424
0.676775
-0.24008
-0.0677401
-0.226517
0.294257
-0.00852398
0.126079
-0.117555
-0.288204
0.851738
-0.563534
0.825612
-0.745057
-0.0805546
1.02703
-0.97107
-0.0559598
0.790725
-0.361604
-0.429121
0.0405595
-0.229178
0.188618
-0.294529
-0.00757126
-0.95819
0.838301
0.119889
0.0471821
-1.00537
-0.0392222
0.818522
-0.7793
-0.557952
-0.302075
0.196338
-0.165731
-0.030607
-0.787226
-0.223819
-0.185568
0.1261
0.0594672
0.282008
-0.107039
-0.899367
0.853546
0.0458203
-0.209098
-0.030369
-0.0492882
0.157447
-0.0116406
-0.600677
0.127168
0.142831
-0.165176
0.0223455
-0.388759
0.370077
0.0186817
0.36288
-0.0160002
-0.258956
0.58192
0.155238
0.359482
0.0568212
0.307046
-0.363867
-0.132674
0.560738
-0.619252
0.392431
0.226821
0.042718
-0.0181689
0.796524
-0.415806
0.639142
-0.352805
-0.210881
-0.189511
0.400392
0.282802
-0.744261
0.461459
0.54972
-0.614174
0.985717
-0.427893
-0.557824
-0.00389915
-0.51623
-0.103022
-0.747008
0.995179
-0.248171
-0.0304718
-0.24965
0.917727
-1.05271
0.265479
-0.23648
0.127291
-0.12951
-0.199742
0.114205
-0.00306434
-0.489766
-0.51756
1.13975
-0.446264
0.216857
-0.218658
0.00180089
0.0585521
0.211008
-0.660899
-0.358861
1.01976
0.207686
0.397545
-0.00561884
-0.143255
0.148874
0.822449
0.0995724
0.00329039
-0.102863
0.505611
0.115941
-0.363575
-0.9976
0.170672
-0.209649
0.00924511
0.200404
0.562544
0.676376
0.244059
0.102685
-0.346744
0.967299
0.0597305
0.589681
-0.837741
0.24806
-0.828821
0.00172808
0.827093
-0.772502
1.00209
-0.229587
0.139498
-0.00667371
-0.132825
-0.379945
1.00609
0.0453296
0.260615
-0.305944
0.0256255
-0.767518
0.220298
-0.040471
-0.179827
-0.905214
1.17433
-0.269118
-0.247079
0.544918
-0.29784
1.16094
-0.510746
-0.650194
0.00860033
-0.607674
0.599074
0.0675583
0.00602046
-0.447406
0.91716
0.563827
-0.857754
1.01397
-0.341123
-0.183471
0.156803
-0.859027
0.0302057
1.08103
-0.354983
-0.0148316
-1.07778
0.227491
-0.0228452
0.2583
0.563673
-0.821973
0.553734
-0.127947
-0.425787
0.645629
-0.970839
0.32521
-0.127162
0.00960964
0.117552
-0.206782
-0.469069
0.67585
0.352787
-0.276495
-0.484491
0.103524
0.380967
0.154441
0.262136
-0.416577
0.0767878
0.11955
-0.844112
0.993766
-0.149654
0.0634962
0.00839539
0.437279
0.205939
-0.643218
0.438441
0.372865
-0.811307
0.150542
0.489714
-0.0139193
0.989851
-4.64879e-05
0.786598
-0.786551
-0.000934008
-0.00638141
-0.00387453
0.103355
-0.0994803
0.660033
-0.574993
-0.08504
0.444129
0.541587
0.276022
-0.254811
-0.0212108
-0.27356
0.793881
-0.52032
0.00666088
0.161764
-0.168425
0.305118
-0.679128
0.37401
-0.517084
-0.170628
0.687712
0.789269
-0.114547
0.296485
0.257249
-0.380101
0.0910782
0.289023
0.297704
-0.805249
-0.0411495
0.24508
-0.20393
0.186221
-0.0670217
-0.119199
0.000418963
0.0671393
-0.070931
0.692899
-0.621968
-0.103432
0.977844
0.757833
-0.621521
-0.136311
0.617662
-0.546822
-0.529446
0.179869
0.349577
-0.00135422
-0.421843
-0.202471
0.160171
0.0423007
0.0623738
0.135878
0.136394
0.734456
-0.87085
0.208716
0.186115
0.12282
-0.873529
-0.431972
0.176756
0.255216
-0.315135
-0.243039
0.558174
0.478088
-0.226705
-0.8413
0.549975
0.337946
-0.282852
-0.055095
-0.528557
0.785376
-0.256818
-0.429774
0.446636
-0.435347
0.562024
-0.126677
-0.677383
0.934474
-0.25709
-0.021048
0.199042
-0.177994
0.110943
-0.098258
-0.341198
-0.640558
0.97148
-0.330922
-0.536893
0.673329
0.506589
-0.509702
0.00311335
-0.0508154
-0.216358
0.267174
-1.04851
0.753642
0.294864
0.00360126
-0.0659869
0.0623856
-0.0181026
0.551051
-0.839255
0.686064
-0.403262
-0.368428
-0.58475
-0.698559
0.698513
0.491105
0.0217148
0.346921
0.168273
-0.515194
-0.326786
0.305675
0.021111
0.334692
-0.285983
-0.0487088
0.144991
-0.426478
0.281487
-0.194155
0.441965
-0.24781
-0.758385
-0.186094
0.944479
0.197789
-0.248604
0.49542
0.164613
-0.940824
0.708193
0.232631
0.258191
0.0128858
-0.271077
0.00338719
0.181401
-0.231191
0.0497901
-0.652506
-0.308326
0.453317
0.133879
0.198237
-0.157677
0.310521
-0.149261
0.208376
-0.497084
0.0333866
0.273139
-0.233509
-0.00414251
0.237652
-0.569324
-0.432821
1.00214
-0.133887
-0.246214
-0.515169
-0.0737305
0.588899
0.132534
0.176298
-0.308831
-0.0283847
1.12334
-0.735972
-0.387368
0.171112
0.65096
0.0308842
0.441725
-0.392686
-0.049039
-0.269009
0.697524
-0.428515
-0.571027
-0.218921
0.789948
-0.448712
0.183454
-0.395474
-0.133971
0.999407
-0.44939
-0.550017
-0.230917
0.0166978
0.21422
0.37616
0.0628237
-0.438983
-0.168093
0.19059
-0.199966
0.467528
-0.267562
-0.0208149
-0.0214096
-0.207608
-0.00706505
0.555051
0.444356
-0.496968
0.898273
-0.287913
0.8767
-0.237145
0.00622779
-0.834861
0.263834
0.708756
-0.623654
-0.10878
-0.623248
0.13292
0.7396
-0.778822
0.686156
-0.703456
0.816455
-0.0209624
-0.188291
-0.11352
-0.261297
-0.0904224
0.351719
-0.294338
-0.0292145
0.719541
0.133368
-0.852909
0.0185672
-0.247583
0.229016
0.00737649
0.349939
-0.962217
0.612278
0.852591
-0.0559579
-0.894949
0.920715
-0.0257661
0.207477
-0.136814
-0.953013
-0.0954925
-0.329037
0.867675
-0.029374
0.275778
1.07392
-0.419846
-0.654074
-0.602048
-0.0582415
0.660289
0.0848016
0.510406
-0.595207
-0.694852
0.0424113
-0.179602
-0.127156
0.306758
-0.470807
0.602164
0.144124
0.505852
-0.649976
-0.67563
0.0153199
0.66031
-0.904796
0.0874614
0.817335
0.171283
0.514781
-0.224586
0.50443
0.286295
-0.275535
-0.14976
0.717844
-0.852709
0.042665
-0.351351
0.308686
-0.345631
0.221726
0.668173
0.0362265
-0.7044
0.600646
-0.888559
-0.00308858
-0.0649483
-0.38047
0.807155
-0.426685
-0.579514
0.334823
-0.0139204
0.269713
-0.255792
0.24564
-0.198062
-0.0475782
0.248208
0.0437722
-0.24646
0.583331
-0.053789
-0.243638
-0.149289
0.162722
0.357781
-0.224752
-0.0239792
0.0423729
-0.179625
0.173386
0.00623877
0.200746
-0.222156
0.0214097
-0.70733
0.565301
0.106325
-0.621494
-0.0113899
-0.263235
0.0281371
0.53483
-0.562968
0.314495
-0.335066
0.324828
-0.750721
0.425893
-0.406439
0.686189
-0.27975
0.25299
-0.964422
0.073864
-0.0257607
-0.923273
0.43724
0.702506
-0.731823
-0.109476
-0.660673
-0.290254
-0.402871
0.175923
0.0316987
0.105011
-0.136709
1.11103
-0.548488
0.911651
-0.223313
-0.222578
-0.15237
0.374947
-0.979487
0.384327
0.595159
0.33099
-0.177354
-0.133737
0.536069
0.156091
-0.088399
-0.34833
0.282588
-0.237258
-0.274732
0.403689
-0.128957
-0.104316
0.823857
0.176074
-0.218853
0.0427789
0.876792
-1.21128
0.568509
0.642774
0.231098
0.193605
-0.424703
0.358523
-0.412966
0.0544423
-0.511576
0.264498
-0.312911
-0.00355893
0.379718
0.885274
-0.971228
0.394742
-0.171497
-0.378964
0.676668
-0.999369
0.708737
0.290632
0.338157
-0.714711
0.376554
-0.68887
0.730978
-0.0421079
0.389347
-0.522021
0.0137172
0.218807
0.257948
-0.0133579
-0.600653
0.198063
-0.890991
0.367841
0.52315
0.241114
-0.843161
0.734589
-0.0428925
-0.571294
0.136685
0.265331
1.01817
-0.339403
-0.678771
-0.398176
0.258976
-0.574111
0.149492
-0.934686
0.876444
-0.685902
0.385639
0.459243
-0.770161
0.678378
0.0917834
-0.911007
0.604297
0.30671
-0.310796
-0.110158
0.144787
-0.968324
0.682453
0.285871
0.611663
-0.991608
-0.830299
-0.0138129
1.07125
-0.403794
0.227447
0.289529
-0.516976
-0.0203884
-0.128223
0.148611
0.103174
0.481047
0.527605
-0.76957
-0.000591526
0.161241
0.191546
0.222809
0.33872
-0.561529
0.365266
-0.213443
-0.0624781
-1.01225
1.07472
-0.331334
0.391535
-0.793324
-0.558096
-0.391808
0.949904
0.241619
-0.30581
-0.655304
0.210199
0.445105
-0.00311626
0.0141264
-0.0110102
0.808783
-0.918156
0.415603
-0.796073
0.46328
0.232401
-0.695681
0.235069
-0.0182121
-0.784086
0.225376
0.558711
-0.720473
0.203389
0.424105
-0.693114
0.393171
-0.350506
-0.00155374
-0.00156252
-0.0369674
0.987736
-0.589925
0.730849
-0.140924
0.950562
-0.00280487
-0.947757
-0.730961
-0.00437941
-0.240112
0.0628581
0.670288
0.117228
0.0286159
-0.0333286
-0.123329
0.40332
0.484273
0.094775
0.239917
-0.830658
-0.0687084
-0.873323
0.427874
-0.802254
0.16846
0.176799
-0.345259
0.85331
0.0476199
-0.90093
-0.0993605
0.0926868
-0.324126
-0.70489
-0.74983
-0.108592
-0.311565
0.91221
-0.316525
0.439671
-0.123146
-0.824689
0.255366
-0.263594
0.486403
-0.402229
-0.612468
-0.250243
-0.286231
0.343641
-0.452918
0.0641594
1.00095
-0.133271
0.4792
-0.493045
0.0138452
0.0865218
0.0705799
0.246076
0.985749
-0.937676
0.00541254
-0.20926
0.306219
-0.473713
0.490023
-0.433474
-0.497007
0.20018
0.170189
-0.370369
-0.766243
0.033096
-0.104827
0.730638
-0.625811
-0.0993207
-0.795628
-0.673628
0.751118
1.15965
-0.500599
-0.659049
-0.111749
0.311203
0.827845
-0.432134
-0.395712
0.249399
-0.270808
0.106524
-0.110399
-0.190214
0.0329754
0.157238
-0.152455
0.499375
-0.391317
1.00298
-0.0221277
-0.143603
-0.258934
-0.0800791
0.339013
-0.0101077
0.818891
0.19704
0.145115
-0.342154
-0.354714
0.543868
0.395562
0.398318
-0.33015
-0.101822
0.491341
-0.174747
-0.316594
-0.0149829
-0.0015111
0.016494
0.0814689
-0.733804
0.652335
-0.876625
0.126794
0.204002
-0.387746
0.81562
-0.0037583
0.253157
0.121248
-0.437773
-0.990655
0.50318
-0.923939
0.314438
-0.425575
0.0482814
-0.387484
-0.556314
0.943799
-0.953516
-0.12076
0.0252398
0.0955201
0.810038
-0.616801
0.661251
-0.576449
0.141398
0.503828
-0.645226
0.18531
-0.364912
-0.683255
-0.250061
0.933316
-0.132367
0.316441
-0.184074
-0.400357
0.790525
-0.390168
0.811407
-0.521888
-0.289518
0.80336
0.0244703
-0.82783
-0.483501
-0.727782
-0.303467
-0.0184823
0.359612
0.641715
-0.0109541
0.0862337
-0.0752796
-0.628372
-0.155715
0.66589
0.566503
-0.503968
0.609866
-0.105899
0.129892
-0.126602
0.140833
0.369288
-0.510121
-0.0413791
0.217454
-0.1047
-0.863624
-0.884715
0.360586
-0.0226397
-0.140704
0.318489
0.0756747
0.691684
-0.767359
-0.482753
-0.117924
0.622244
0.260043
0.0648156
-0.219866
0.105221
-0.389413
0.284192
0.0946992
-0.347517
0.252818
0.0533713
0.344404
0.233527
0.783364
-0.355836
0.863075
-0.471539
-0.10823
-0.232014
0.340244
0.711292
0.0690385
0.0318341
-0.634668
0.427887
0.539162
-0.54927
-0.450017
-0.385427
0.835443
-0.563405
-0.416082
-0.920668
0.944234
-0.0235656
-0.0994504
-0.357108
0.266686
0.532527
0.250837
0.0771077
-0.294511
0.217403
-0.321034
-0.646543
-0.171918
-0.706361
0.878279
0.516908
-0.309222
-0.278446
0.237296
0.547339
-0.871466
0.433022
-0.345179
-0.383309
0.949378
-0.566068
0.396167
0.475942
0.285703
-0.761646
0.966915
-0.596964
-0.369951
-0.335265
-0.716231
1.02874
-0.312506
0.520291
-0.0410905
-0.26455
0.260792
0.39812
0.76282
-0.192943
0.172554
0.0362724
-0.022761
0.902984
-0.502025
0.433747
0.677285
-0.380652
0.201545
0.179107
0.229585
-0.440467
0.703974
-0.0358003
0.673496
-0.446049
-0.648648
-0.0773345
0.725983
0.173969
-0.0278971
-0.146072
0.134537
0.0829402
0.139703
-0.912205
-0.260887
0.282277
0.650595
-0.571325
-0.0792703
0.143726
0.347615
-0.138598
0.0708698
0.222616
0.225255
-0.447871
-0.440976
0.800363
0.0264221
-0.453369
1.05084
-0.597469
-0.251676
0.406117
-0.118342
-0.557288
1.04861
-0.497444
-0.314832
0.4867
-0.128177
0.275207
-0.286597
-0.143065
0.122017
-0.273311
-0.127856
-0.00551244
0.514762
-0.142648
0.766966
-0.624318
-0.241776
0.320728
-0.321588
0.0950707
-0.302724
-0.000743354
-0.867727
0.61912
0.212278
0.224627
0.0958526
-0.337877
0.242024
0.249309
0.0617703
0.777415
0.432938
-1.21035
-0.0926621
-0.0156145
0.108277
-0.07528
-0.708727
0.757955
0.401693
0.736585
-0.660911
-1.05079
0.0158131
0.0915413
-0.129024
0.431668
0.620775
0.266684
-0.887459
0.341344
-0.0268493
-0.0272883
-0.294384
-0.0862683
-0.523966
-0.462712
0.461358
0.27519
0.660403
0.539966
-0.535509
-0.00445711
0.165508
0.00787748
-0.0668727
0.22952
-0.0287732
0.721639
0.175659
-0.897299
-0.534906
0.260174
-0.208908
0.129701
0.0792067
-0.316833
0.00447058
0.312362
0.407643
0.373073
-0.780716
0.215695
0.262393
0.645799
-0.0130354
-0.243083
0.34896
-0.472289
-0.0590049
0.0806046
-0.0215997
-0.911052
0.513613
0.780356
-0.622059
-0.158298
0.011569
-0.120671
0.109102
0.799773
-0.870704
0.664959
-0.148051
0.208673
0.452577
-0.118148
-0.00970744
0.462452
-0.253605
-0.208847
-0.524449
-0.107319
0.99677
-0.508099
-0.488671
0.942976
-0.59041
-0.352567
0.371132
-0.646259
0.275127
0.0286166
0.480691
-0.00897177
-0.115723
0.500856
-0.385133
0.249133
0.213319
-0.31858
-0.200787
-0.0180668
0.704648
0.000773995
-0.705422
-0.340971
-0.0638407
-0.169668
-0.279413
0.0246014
0.177717
0.629438
-0.135215
0.170964
-0.0362356
0.00599723
-0.119528
0.136161
-0.359638
0.501036
0.0131242
0.199961
-0.269704
-0.297095
0.727536
-0.0255419
0.565508
-0.130059
-0.103616
-0.223128
0.445744
-0.19419
0.756877
-0.562687
-0.745576
-0.099326
-0.371484
0.724467
-0.352983
0.0297548
-0.230541
0.282164
-0.0594293
-0.0196136
-0.211749
0.231363
-0.744212
0.246768
0.103632
-0.115299
0.438888
-1.09979
0.295501
-0.871168
-0.221568
0.590522
-0.301049
0.459549
-0.234294
0.01318
-0.596868
0.678337
0.00204701
-0.135442
0.123752
-0.490867
-0.0820689
-0.551228
0.633297
0.274507
0.270336
1.11363
-0.725146
-0.388485
-0.202691
0.0544064
0.185298
0.0202703
-0.205569
-0.726302
0.136376
0.167464
0.0187566
-0.00510789
-0.109861
0.114969
0.39364
-0.765124
0.0768733
0.400995
0.0336002
-0.434595
-0.840107
0.645917
0.12234
0.0342579
-0.156597
0.319298
-0.959856
-0.12625
-0.000677473
0.126927
0.156642
-0.0343029
0.000911743
0.651424
-0.500881
0.539686
0.446853
-0.231158
-0.802482
0.244385
-0.616071
0.490008
0.126063
0.383942
-0.833959
-0.439485
-0.276882
0.716366
0.0762405
0.350875
-0.26724
0.219734
0.988078
-0.133053
-0.855025
0.00560576
-0.836264
0.733201
0.0701589
0.411611
0.416234
-0.141272
-0.00198304
0.123555
-0.259494
-0.29337
0.0367042
-0.111451
0.0747464
0.0268021
-0.718789
0.691987
-0.0412377
0.245366
-0.204129
0.269728
-0.814473
0.544746
-0.0971977
-0.483849
-0.0256645
-0.00971631
0.603929
-0.296868
-0.177682
0.474551
-0.323209
-0.360632
0.394929
-0.22474
-0.177763
-0.0194476
0.19721
-0.254174
0.350027
-0.855173
-0.115059
-0.0343013
0.14936
0.104902
0.278953
-0.383856
0.626585
-0.87559
0.249005
0.0238397
-0.495072
0.139307
-1.04452
-0.450206
-0.562545
1.01275
-0.847397
0.0336235
0.813773
-1.12074
-0.71397
0.0251
-0.23638
0.244304
-0.00792408
-0.911056
-0.305055
1.02669
0.331231
-0.175029
0.0705945
-0.293723
-0.153608
0.416001
0.131157
0.081724
-0.340658
0.0131083
-0.101316
0.0882078
-0.19502
0.0545817
-0.0696035
0.0811726
-0.231303
0.462401
-0.952446
0.606673
0.345774
-0.329819
0.371641
0.532852
0.178983
-0.00501389
-0.23111
0.308217
-0.419177
-0.236128
-0.479071
0.176126
0.302945
-0.0106933
-0.142545
0.153238
-0.349757
0.444457
-0.0684742
0.633208
0.553461
-0.356422
0.483142
-0.806351
0.394523
-0.51922
0.124696
0.0938688
-0.0037591
-0.0476773
0.019262
-0.939202
0.551717
0.587363
0.355613
0.0140192
-0.167633
0.153613
-1.16361
0.471068
-0.176241
0.236587
-0.168817
-0.0136028
-0.194303
0.207906
-0.493391
0.196523
-0.921054
0.816354
0.78118
-0.3179
-0.153113
0.137085
0.0160282
0.257072
-0.0744327
-0.131358
-0.98232
0.390708
0.591613
-0.123003
0.107388
-0.0599416
0.242158
-0.182217
0.405213
0.259746
0.00558546
0.224268
-0.229854
-0.223892
0.237016
0.000361585
0.102666
0.582648
-0.783421
0.923218
0.0440818
-0.388911