/*--------------------------------*- C++ -*----------------------------------*\
| =========                 |                                                 |
| \\      /  F ield         | OpenFOAM: The Open Source CFD Toolbox           |
|  \\    /   O peration     | Version:  2306                                  |
|   \\  /    A nd           | Website:  www.openfoam.com                      |
|    \\/     M anipulation  |                                                 |
\*---------------------------------------------------------------------------*/
FoamFile
{
    version     2.0;
    format      ascii;
    arch        "LSB;label=32;scalar=64";
    class       surfaceScalarField;
    location    "2.3";
    object      phi;
}
// * * * * * * * * * * * * * * * * * * * * * * * * * * * * * * * * * * * * * //

dimensions      [0 3 -1 0 0 0 0];

oriented        oriented;

internalField   nonuniform List<scalar> 
20045
(
1.01009
-1.09572
0.0856264
-2.14398
0.791645
1.35233
0.659213
4.18717
-4.84639
-0.779993
1.04139
-0.261399
-1.7403
1.61054
0.129757
-1.23477
4.41432
-3.17955
-1.9122
0.612289
1.29991
0.101098
0.897091
-0.998189
0.994976
0.821036
-1.81601
-1.611
-0.217312
1.82831
-0.876726
-0.24018
1.11691
4.32574
-2.07416
-2.25158
0.712099
-0.726744
0.0146446
-2.48454
2.15858
0.325957
-0.486715
1.98798
-1.50126
-2.12921
0.518216
-0.418715
0.379098
0.0396172
0.220308
-0.618076
0.397768
-3.38212
4.92609
-1.54397
-1.49223
0.0797514
1.41248
-1.21713
0.989312
0.227814
0.234745
0.477354
-0.294475
-1.8495
3.7791
0.235524
-4.01462
1.62679
0.399205
-2.02599
-0.673033
4.45213
0.242654
-0.182028
-0.0606261
-2.63473
5.36329
-2.72857
3.07868
0.751318
-3.83
-6.00121
3.51796
2.48326
-0.466411
1.25551
-0.789096
2.6324
-1.96828
-0.66412
-0.820668
2.87536
-2.05469
5.83852
-3.16758
-2.67094
-1.14033
1.24143
4.0522
-1.99743
-2.05477
2.05019
0.618699
-2.66889
-0.1235
0.770357
-0.646857
-4.11778
2.11121
2.00657
1.18491
1.07265
-2.25756
0.0499297
0.925312
-0.975242
0.350544
-0.47834
0.127796
4.79424
-4.79501
0.000760811
2.94577
-1.08657
-1.85919
1.35721
1.58856
1.95014
2.3756
0.138019
-1.00055
0.862527
2.63512
0.7518
-3.38692
2.87003
-0.819842
0.512266
3.71786
-4.23012
2.62269
-4.39282
1.77013
3.72696
-2.52788
-1.19908
-2.22029
-1.5779
3.79819
-0.192627
-0.59821
0.790838
0.812773
-0.966066
0.153293
-1.36867
-0.371634
-0.203492
4.41277
-4.20928
3.0551
0.575867
-3.63096
2.74178
-3.56245
3.06349
-2.624
-0.439493
-1.17061
-0.209019
1.37963
0.64514
2.41835
1.6123
-3.53753
1.92523
-0.789381
-0.427745
1.81054
-0.954145
-0.856398
2.17306
0.726396
-2.89946
0.325032
-0.972293
0.647261
-1.34171
0.300061
1.04165
1.7216
-0.726628
3.24326
-3.30617
0.0629045
0.816197
-0.491165
0.66001
0.152763
-0.508008
-2.084
2.59201
1.1758
-0.739758
-0.436042
2.22961
0.0108328
-2.24044
3.45728
-3.66077
-0.380667
2.61028
0.993386
-1.4801
1.07336
0.415408
-1.48877
0.023007
-2.29088
2.26787
1.98188
2.16899
-4.15086
1.76508
-1.39979
-0.365285
2.93052
-1.31822
-5.11529
0.773844
4.34145
0.0443631
0.965726
-1.0799
1.25675
-0.176858
0.879944
-2.29554
1.4156
-3.21535
0.117291
3.09806
2.01722
0.359787
-2.377
-1.64133
1.49885
0.142478
-2.66057
-0.30849
2.96906
1.47492
-0.308722
-1.1662
0.823683
-1.17383
0.350145
-0.352118
-1.60309
1.95521
1.1905
-1.29019
0.0996878
3.03688
0.45969
-3.49657
0.0121597
0.230494
-0.106294
0.958519
-0.852225
2.44343
-1.25852
-0.568379
0.468247
0.100132
2.78042
1.27178
-0.872272
-1.61227
1.06578
-1.17208
-0.90826
3.96336
-0.0755578
-1.00434
-0.522839
-0.0455397
0.839031
2.44571
-3.28474
2.04086
-3.82243
1.78156
1.21138
-0.966818
0.828215
0.138603
-0.572087
0.713359
-0.141272
2.21668
-1.79885
-0.41783
-0.998752
0.806125
2.55858
-5.41998
2.86141
-0.359088
0.649032
-0.289944
0.105084
-0.685427
0.580343
2.25659
-0.629796
4.07468
1.76384
-2.33878
1.83077
2.15837
-3.16739
1.00902
0.638504
-0.418196
-1.33964
0.169022
-1.58167
1.26486
0.31681
-2.07691
0.227927
-1.19085
0.962924
2.42757
1.2994
2.17117
-2.8554
0.68423
3.15771
0.391923
-3.54963
-5.13628
3.69992
1.43636
1.35206
-3.1833
1.83124
3.85844
-1.43087
-0.187503
-0.813043
1.2547
-0.222031
-1.03267
-0.0137712
0.0751689
-0.0613977
2.29423
1.58682
-3.88104
2.38441
-2.27526
-0.109146
-0.785684
0.298137
0.487547
-0.68439
-0.282429
3.56026
-1.40189
-1.32198
1.37753
-0.0555499
2.16546
-4.44227
2.2768
0.633584
-2.85388
2.0368
0.906482
-2.94328
2.73816
-2.71516
4.49645
-0.52875
-3.9677
1.48073
-2.57305
1.09232
3.75748
-2.43643
-1.32104
-0.31469
0.807035
-0.492345
-0.313434
4.42038
-4.10695
4.1669
-1.08822
-3.30547
0.105384
3.20008
-1.94182
1.56144
0.380378
3.75014
-1.76827
0.639494
1.12558
-2.47913
3.04841
-0.56928
-3.47173
4.13094
0.0422007
-0.842478
0.800278
-0.579455
0.601381
-0.0219261
-0.090283
-0.730597
0.82088
2.54297
0.567447
-3.11041
5.53656
-2.75886
-2.7777
-0.893334
0.803051
1.41867
-2.52326
1.10459
0.432267
-0.0817234
-3.43614
-1.80645
2.66863
-0.862181
-2.62123
1.88426
0.736964
-0.0598913
-0.109898
0.16979
1.6938
2.06367
0.0299267
-0.0436979
-0.0636034
1.3183
-2.78676
0.307631
-2.94169
3.70536
-0.763673
-2.61163
2.93014
-0.318519
-2.08782
-1.70652
3.79434
0.305875
1.21284
-1.51871
1.75012
-1.79392
0.0438022
3.87928
-0.142029
-3.73725
-0.00299252
-2.97433
2.97732
-1.40946
3.44626
0.7626
-2.19269
1.43009
-2.58435
5.14293
-3.1545
2.12934
1.02516
-0.133434
0.11292
0.0205136
2.10404
-4.92712
2.82309
-4.26715
1.63242
-2.18066
-1.97541
5.30272
-3.31575
-1.98697
-1.16228
1.21221
0.675228
-0.721214
0.0459866
-2.24525
-0.698357
2.94361
-3.98046
5.54132
-1.56086
3.83959
-3.01841
-0.821186
0.28718
-0.970007
0.682827
-1.46729
-1.81395
3.28123
0.241213
-1.11794
-1.44382
2.79589
-2.99274
-0.915479
3.90822
0.468984
0.113391
-0.582375
0.566738
-2.37319
-1.20114
0.734732
3.41418
-0.256476
-0.644228
0.520728
-0.746354
0.903767
-0.157413
-1.15538
3.69835
-3.54837
2.08108
-0.582977
0.448779
0.134198
-2.80691
0.564148
2.24276
1.03643
2.80317
5.18437
-3.08033
3.52718
-5.77174
2.24457
4.30345
-7.03934
2.73589
0.138469
-1.6307
-1.97142
2.81045
2.55357
-3.78833
2.98434
-4.38134
1.397
-6.36859
3.37039
2.9982
-0.0896096
-1.55172
0.740824
0.561705
-1.30253
2.89865
-0.974251
-1.9244
0.0495318
-3.06717
2.75373
-1.00774
-0.314233
2.54382
4.07941
-3.29157
-0.787846
-0.0385242
-0.53181
0.570334
2.60387
0.521038
-3.12491
-0.328623
-1.58762
1.91624
-1.65726
3.73902
-2.08175
-1.84712
2.72706
2.27516
-1.51256
-0.525816
1.3597
-0.833881
3.75961
-1.59415
0.456366
-0.0439527
-0.412413
-0.799547
-0.550965
1.35051
-0.539789
0.564224
-0.0244357
5.2051
-3.2284
-1.9767
1.08897
-5.06943
-0.600421
0.0606319
-3.37605
1.06573
2.31032
4.99766
-2.1223
0.964917
-3.9066
6.0776
-2.50497
-3.57264
-0.0710091
0.539994
3.5879
-2.13634
-1.45156
-2.42311
0.515088
1.90802
-3.82412
3.83584
-0.0117233
2.88299
-5.09621
2.21321
0.422259
0.260069
-0.682327
-1.85535
2.47588
-0.620522
0.105366
0.941151
-1.04652
-0.593819
0.234731
-0.690867
0.11878
-2.1635
-1.65893
1.36156
-3.69516
2.3336
-1.72299
1.53734
0.185656
1.60026
1.03215
4.08645
-1.10211
-0.711067
0.131612
2.19781
2.79985
-1.98543
0.0946938
1.89073
1.74232
1.84558
1.5432
0.444776
-1.69285
-0.0301464
-1.1455
-0.12125
1.26675
0.0954751
-0.228909
-3.9554
2.29814
0.588509
-1.33568
0.747168
-3.62519
3.49562
0.12957
-1.20013
1.32778
-0.127651
-0.78502
-0.442293
1.22731
3.01783
-3.3266
0.308772
-3.52581
-2.84279
4.90063
-3.08985
-1.81078
-0.424659
0.386135
5.44501
-2.56201
-2.3802
3.74176
-3.0035
1.71107
1.29244
3.71775
-1.13828
-2.57947
4.2615
-1.27827
-2.98323
-1.27979
-1.72372
3.32234
-1.98509
-1.33726
-0.696011
3.156
-2.45999
-0.525176
-2.84535
3.37053
0.327301
1.01689
-1.34419
-0.373026
0.159294
0.213732
4.87437
-4.21451
-0.659856
-2.95584
-2.18044
2.66989
1.40952
-3.30443
-0.320753
0.445886
-1.24543
1.45176
-3.09026
1.6385
0.012541
0.662687
-2.15361
4.44784
2.15135
3.05375
5.74639
-3.51859
-2.22779
-4.22882
3.31334
2.70985
-4.60568
1.89583
-2.48632
-0.198224
2.68455
-1.08836
-0.61158
1.69994
2.21292
-0.794257
-0.694238
0.111261
1.82507
-0.220927
-1.74736
-2.15492
3.1772
-1.02228
-0.889661
0.143307
-0.722993
0.197177
0.473084
-4.2972
1.21256
-3.05968
0.624778
-0.863862
1.09591
-0.232047
0.0754005
-0.855394
-1.9314
1.44523
0.486174
1.38342
0.833262
2.56764
-0.850128
-1.71751
1.91797
0.466445
-1.61418
3.06593
2.27507
-0.257851
-0.832017
-1.97489
4.86492
-4.20454
-0.660383
2.79176
-3.44636
1.78235
1.664
3.13768
-3.46104
0.323367
-1.75921
1.40709
-0.533092
-0.252592
-0.508027
-2.15254
1.19325
-2.15186
0.958611
1.65434
1.668
2.56806
-4.34348
1.77543
0.981563
-2.13573
1.15417
-3.90465
0.689301
0.0793049
1.39562
-2.082
3.08012
-0.998119
-0.965198
1.2149
-0.249701
-1.73292
-0.179277
-0.491633
-0.916293
1.40793
0.394981
0.00753235
-0.402513
-1.22224
-0.71958
1.48436
1.79228
-3.27664
3.35284
-1.61052
0.909523
-1.79167
0.0324594
1.87506
-0.893494
-2.58462
-0.569882
1.16758
-1.01857
-0.149011
3.72883
-1.09371
-1.88618
2.98349
-1.09731
-0.472339
0.540822
-0.068483
2.89795
0.000700848
-1.70905
-1.38121
-2.00853
3.64175
-1.63322
2.32609
-4.32051
1.99442
2.29334
2.60729
-0.0699742
0.069658
0.00031614
0.390925
-2.87725
2.41407
-3.61125
1.19718
0.375677
0.800123
-0.346305
2.51748
-1.54927
2.76183
-2.28919
6.59264
0.799604
-4.18172
-3.18568
1.75397
1.43171
2.55301
-0.439805
-2.11321
3.74209
-0.724264
-2.63082
-2.03004
-1.72615
2.51798
0.754988
-0.418549
-0.336439
1.2642
-1.18445
-2.87156
2.52525
3.76221
1.03204
-3.12803
1.24185
3.97358
-1.30369
-1.14769
1.09914
0.0485504
0.111719
-2.46786
2.35614
-3.61056
0.667673
2.94289
3.35208
-3.35208
-1.73601
3.31222
-1.57621
1.7898
0.777843
2.65441
-1.39402
-1.26039
-3.73339
3.88483
-0.151444
1.34249
-0.149291
-1.1932
1.05575
-0.42414
-0.631606
0.453991
-1.23901
0.567485
1.6339
-4.0141
-3.29953
3.85721
-0.557684
-1.14892
2.63328
-0.94663
-0.0305451
0.977175
0.134482
-0.817746
0.683264
-1.4918
1.63027
5.58934
-4.19162
-1.39772
-0.322179
-2.06479
2.38697
-0.916338
1.00517
-0.0888356
0.508612
-1.09748
0.588872
-3.26597
1.25718
2.00879
0.688361
0.353031
-1.19267
0.0449813
-0.253812
0.844549
-0.590737
2.54384
2.33053
-0.72704
-0.21959
-0.199169
-1.10554
1.30471
-2.02588
3.20105
-1.17517
-0.038298
0.629088
-0.59079
1.60634
-0.994049
2.4029
-0.89515
-1.50775
0.0666485
-1.66974
0.809976
3.0693
1.73866
1.14794
-2.8866
1.84976
-1.61204
-0.237723
-4.0498
0.744336
-1.57602
0.652698
0.923319
1.67489
3.00853
-4.68343
-2.52539
2.32717
0.27555
-3.62248
3.34693
-0.514231
0.801411
0.00328379
0.0345901
-0.0378739
0.114441
-1.25994
-0.887602
1.18311
-0.295512
-2.62819
-0.747859
2.44271
0.436773
-0.379535
-0.0572378
-0.487083
0.0147444
0.649549
-2.80741
2.15787
1.02337
2.06792
-3.09129
1.78413
-2.80174
3.42238
-0.620637
-2.88467
2.18866
0.0272793
-0.209307
-1.5265
-1.09473
-1.02964
0.27267
0.756969
-3.45989
1.43401
2.64372
-2.9659
1.68288
2.2907
-1.24323
1.22112
0.0221113
0.539919
-4.42389
3.88397
0.620589
-1.07965
0.459059
1.34473
-3.05378
-2.47287
-0.138758
-1.25316
-0.0885471
0.891351
-0.520087
-0.371264
2.06354
0.142817
-0.24069
0.097873
4.50416
-2.82927
-1.95146
3.28923
-1.33777
1.04461
0.727136
-1.77175
-1.43139
0.917161
-0.858399
-0.171239
1.82439
0.830022
-0.902765
-2.26463
0.850045
0.317535
2.44183
1.65285
0.622216
-3.59327
4.10553
0.486387
-1.80418
1.3178
-0.365702
-3.29691
3.66261
-0.705666
0.817624
-0.111958
-1.51481
1.82068
-2.99514
2.46996
2.70362
-1.22289
-1.65864
-0.272768
0.0454536
-1.6467
1.60125
1.59488
-3.6827
-0.500174
-1.8164
2.31658
-0.339001
1.02624
-0.687244
-2.5752
0.165115
2.41008
3.54614
-2.79434
-0.0708765
0.357298
-0.286421
-0.856245
-0.0600926
0.710137
1.44263
-2.15277
0.571445
-0.695056
0.123612
2.41801
1.3165
-3.73451
-1.25713
4.29401
0.392789
0.00219133
-1.37996
-2.42466
3.80462
1.22601
2.33425
3.72615
-2.70278
-1.39843
0.906793
-0.0327283
-0.340298
-1.73615
4.446
0.516518
-3.05739
2.54087
3.20659
-0.536564
-2.67002
-1.8856
2.75744
-0.871841
1.55529
-1.67508
-1.66744
3.34252
-0.422504
0.760729
-0.338225
-1.12727
-1.95462
3.08189
-0.681055
0.815537
0.136023
-0.195914
2.03806
-3.16533
-2.80385
-0.859432
3.66328
-0.223451
-1.94288
2.16633
-0.480009
5.15778
-5.3514
0.19362
0.842773
-0.573619
-0.269154
-0.00879027
-1.23444
1.02153
0.933676
-1.28864
0.200276
-3.179
4.0305
-0.851503
-0.763446
1.35196
0.668024
2.07014
-3.74905
-1.04596
0.774506
-0.225728
-0.548778
2.11897
-0.466122
-0.81723
0.893498
-0.0762678
1.17555
-1.07019
-4.68959
2.50893
3.62573
0.788593
-0.484647
0.993259
-0.804165
1.84877
3.90935
-2.27545
-0.831839
0.0146091
-0.441734
-2.42982
0.78303
0.941557
-0.899356
-3.68903
0.0784763
-0.951206
0.844172
-0.223584
-2.82692
2.04231
0.784615
2.7252
0.518066
0.736141
-0.235997
-0.500143
1.14074
-1.03965
-0.10109
-3.15845
1.16102
-4.0607
2.05217
1.74374
-0.744019
-0.999719
-0.0128048
0.757103
-0.744298
4.16241
0.0132281
-4.17564
0.775632
0.056908
-0.83254
-0.555914
-1.02575
0.905449
-0.0817656
-0.307424
0.250047
0.0573769
1.56202
-0.200695
-1.36133
-0.110419
-0.197005
3.05462
-2.59493
-0.122056
-0.553868
0.675924
-4.09416
0.915162
0.116204
-0.276326
1.34211
0.367948
0.068825
-0.200765
-0.510302
0.947207
0.661029
-1.60824
0.55688
1.25366
1.7147
-1.22831
0.866197
-0.761113
0.2848
-1.25
1.90322
0.689088
-2.59231
2.16325
-0.176746
-1.98651
-1.68153
-0.891522
-1.18476
0.27921
0.905552
1.56081
-1.63747
0.0766598
4.31502
-0.0988881
-4.21613
-1.20731
0.604449
0.60286
-1.98709
2.64596
-0.658866
2.39532
2.43199
-4.82731
1.30229
-1.51131
-1.10372
1.72071
-0.616987
0.83083
0.385332
-1.21616
-4.27295
3.10772
1.16523
0.251075
-0.0010281
-3.38788
0.584027
1.21283
-0.751615
-0.461219
1.90016
-2.41151
0.511359
-0.327605
-0.76811
0.618362
4.53942
3.28076
-0.564576
-2.71619
-3.33701
0.53527
1.34535
-2.17736
3.46473
-5.1746
1.70987
-0.394616
1.13544
-0.0578144
-1.48051
1.28134
-0.609606
0.837533
-0.852823
-3.59546
4.44828
3.16677
2.27824
-2.90483
3.1056
-0.200776
0.515488
0.375863
-2.31234
-0.9774
-0.458504
0.508882
-0.0503787
1.11734
0.959365
-2.0767
0.0706039
0.478374
-0.548978
-0.272704
2.17286
-2.96959
-0.362484
3.33208
-3.13837
-0.946587
4.08496
1.85208
-1.39346
-0.458621
-0.950096
0.0926461
0.85745
0.468106
-0.0219056
-0.4462
-3.89421
0.207641
3.68657
0.112298
0.72629
-0.838588
3.09864
-3.52352
0.424882
-2.02667
-0.780383
4.04611
-3.26573
0.0326328
-0.491136
0.482798
-4.2458
3.76301
2.48098
-5.06533
-3.78219
3.29924
0.482945
0.687885
-0.11644
2.92977
-2.26175
-0.18153
-0.985949
1.16748
-0.0464098
0.694199
-0.64779
-0.645995
3.41324
-2.76724
2.6583
-1.29259
-1.36571
4.01578
-3.85239
-0.163394
3.07748
-1.12945
-1.94803
0.182163
-0.88662
0.704457
-1.12127
-0.0695804
-3.96595
3.48351
0.482437
0.217117
-4.18306
-0.859632
1.69539
-0.835756
-2.16871
-2.0458
0.737099
-0.636028
-0.101071
-3.20387
-0.890289
-0.702346
0.464463
0.237883
-1.40911
1.08049
-3.74615
3.57512
0.171031
-0.74044
0.0437451
-0.783503
0.835845
-0.0602129
-2.35861
0.503261
0.523694
-0.630831
0.107137
0.587735
0.0359436
-0.623678
1.44528
-0.102782
-0.942479
2.67464
0.223303
1.3893
-0.542611
0.326172
0.216439
-0.341003
2.09113
-2.43971
1.583
0.856709
0.276905
-0.0258305
5.44776
-2.281
3.59517
-3.05525
-0.922807
-0.59345
1.51626
2.42033
-4.35959
1.93926
2.20939
-2.43284
3.64398
-1.66454
-1.97945
-0.0219738
-2.06625
-0.373457
-2.04013
3.67545
-1.63532
-0.085622
-1.35771
4.88489
-4.17084
0.966964
1.13835
-0.811046
-0.348696
0.251667
0.581428
-0.0172039
-1.91888
-1.84748
6.47412
-3.01684
-1.67384
0.972767
0.701076
0.248893
0.806854
-2.51973
-1.79657
4.31629
0.96719
1.24573
-0.00403537
-0.539325
0.543361
3.29036
-0.693045
0.315745
0.3773
2.57569
-0.672474
-1.38937
-3.932
0.63247
-0.856706
0.0505033
0.806202
2.43898
3.63863
0.646879
-1.97232
1.32544
3.86276
0.153023
2.39487
-3.36793
0.973061
-3.23929
-0.0630823
3.30237
-3.20008
4.11794
-0.917859
0.515208
-0.00933321
-0.505875
-2.38782
4.86879
-0.229691
-1.67814
1.90784
0.176898
-3.08173
1.38158
-0.495678
-0.885901
-3.75724
4.93165
-1.17441
-0.903613
2.12369
-1.22008
4.64367
-2.05041
-2.59326
-0.0198529
-2.33616
2.35602
0.0496726
-0.0150825
-1.93491
4.33023
1.48276
-3.21877
4.22903
-1.90293
-0.704463
0.582407
-3.41268
0.173394
4.56512
-1.99706
0.0412217
-5.15651
0.993394
-0.0680819
1.63486
2.10949
-3.74435
2.17767
-0.505159
-1.67251
1.62807
-3.64768
2.01961
-0.688715
0.0389532
0.649762
-0.774947
-1.89445
2.6694
1.36952
-1.08473
-0.463589
-0.180306
0.643895
0.442302
1.09068
-1.53298
0.304266
0.432833
-3.75806
4.44513
-0.687066
-0.784468
0.0788023
1.78448
0.798912
-2.58339
1.51788
3.03957
-4.55745
0.633994
1.91902
-0.105692
4.60214
-0.0331793
3.15111
-3.11793
-0.0089154
-0.0293826
0.84567
-0.459385
-0.386285
6.89176
-3.98426
-2.9075
1.72457
1.91942
0.566158
-0.0922225
-0.473936
-1.12436
3.1811
-2.05675
0.0451276
0.601683
-0.64681
3.40941
-4.70163
1.29222
-0.947813
-1.91369
2.86151
3.28765
-0.683781
1.15902
1.01866
-1.5007
0.246151
1.25455
1.12249
-3.18728
0.967181
-1.62639
0.659208
0.721499
-0.280714
-0.440785
0.220362
-0.170689
-0.283585
3.16341
-2.87983
-0.745284
4.46314
3.05458
-2.4788
-0.575777
2.50848
-2.1487
-2.02001
0.623377
1.39663
0.547526
-1.94155
1.05959
-0.614505
-0.445089
0.219393
0.516748
0.600845
2.90079
-3.50164
0.870329
0.691691
0.497363
-3.63574
-1.76616
0.562579
1.20358
-1.29315
-0.902518
2.19567
1.88525
-0.938044
-3.33595
2.18703
1.11551
-0.84811
-0.267405
-1.69317
3.74871
-2.05553
-1.70168
1.76833
-1.77813
2.01664
-0.238514
-2.17425
3.80948
-1.63522
-0.081196
0.824657
-0.743461
-0.914423
0.901618
-0.971927
-2.16487
3.5969
-1.43203
-2.14655
2.7107
1.9708
-2.03216
0.0613545
0.478412
1.26936
-1.74777
-4.87907
3.13924
1.73983
0.211048
0.0969813
-0.308029
0.270213
2.71475
-3.36074
4.172
-1.75167
-1.25848
-1.92719
-2.81379
2.78061
1.93616
-0.0518959
1.50364
0.442788
-1.94642
-1.28103
1.17133
0.109701
-1.14797
0.544853
0.60312
-2.52794
0.289402
2.23854
0.639176
1.39439
-2.03356
-2.88165
-1.03338
3.91503
-1.13285
1.61126
3.41695
3.47481
-3.56976
2.10727
1.46249
-1.94639
0.698901
1.24748
0.0246438
0.660244
-0.869354
0.20911
-2.03996
-3.43928
0.911341
0.511173
0.75938
-0.577217
-0.597383
1.71472
-0.333696
-2.8496
0.103342
1.08716
0.35943
-0.151234
-0.208195
-2.86945
-2.0774
4.94685
-0.809143
-0.69156
-1.96735
-0.38965
2.357
0.441456
0.747549
-1.18901
0.143654
4.40845
-2.82209
-1.58636
0.691184
2.58958
0.406004
-1.57285
-1.06605
2.6389
-2.69129
3.6681
-0.976816
-2.18098
-1.00734
3.18833
-1.77517
0.671445
-1.57476
-0.445249
4.30107
-1.88645
-2.41461
1.45986
-0.137578
-1.32228
1.48479
0.22083
-1.70562
-0.620993
0.733291
-0.81939
0.31867
0.50072
-0.40905
-0.113487
-0.779847
-0.0463293
2.52847
1.7726
-1.36815
3.47935
-1.70297
5.22092
1.5435
-0.0836387
-3.3385
1.15751
2.84616
-2.45524
-0.39808
-2.47025
0.483161
0.544851
-1.40448
2.81544
-2.70372
3.25307
-0.11539
-0.759044
-0.414784
-0.985286
-0.319164
1.30445
-1.14751
-0.142685
2.96375
0.532426
-3.49618
0.0817435
-0.975133
0.893389
-0.171789
1.85491
-3.57459
1.71968
3.37861
-0.27997
-4.24709
4.77079
-0.523702
0.826052
-0.525991
-4.08836
-0.790711
-1.16682
3.58392
-0.100406
2.21618
4.31083
-1.57141
-2.73942
-2.50249
-0.128331
2.63082
0.907382
1.87736
-2.78474
-2.75041
0.175214
-0.652155
-0.498008
1.15016
-1.84525
2.36176
0.517171
2.00978
-2.52695
-1.11104
-0.328732
1.43977
-3.76555
0.483056
3.2825
2.01282
2.15918
-0.92721
2.20612
0.871359
-1.10064
-0.475377
3.55346
-4.08221
2.02731
-0.447653
-1.57966
1.56846
-0.266166
2.64359
0.160642
-2.80423
3.44627
-5.14924
-0.145122
0.567381
-1.12044
2.47526
-1.35482
-3.74013
4.22293
-0.0848581
1.07935
-0.994487
-0.414921
0.463708
-0.0487875
-1.58749
0.0726784
-0.992596
2.33794
0.792343
0.951395
-0.563387
0.59602
-2.17306
0.585443
0.882468
-0.622399
-0.728941
0.693363
0.0355781
0.750356
-0.855413
0.105058
-1.79681
1.80764
0.524661
-2.49201
-0.0964403
-1.06584
0.0441847
2.18277
-2.22695
1.21695
-1.3382
0.76265
-2.97617
2.21352
-0.753742
3.02953
-2.27578
0.907233
-3.06216
-2.85264
-0.0897727
-3.69241
3.15443
3.31969
-2.9079
-0.428047
-1.83391
-1.61245
-1.55982
0.643529
-0.138613
-0.447252
0.585864
5.41151
-2.97253
3.14651
-0.732444
-0.889248
-0.569172
1.45842
-4.58345
2.19773
2.38572
-1.37717
1.13699
-3.43151
2.65113
0.590442
-0.355697
-0.953975
-1.67338
1.44369
1.24693
-1.18348
-0.0634459
-0.485101
3.44885
-1.25015
1.31539
-0.0652408
3.12708
-4.9495
2.21832
2.73118
0.760203
0.87144
-1.63164
1.96292
-0.594167
-1.36875
-1.99716
1.09355
-2.39797
0.0138523
1.47094
3.53014
-3.89585
1.51542
-0.684586
-1.56053
2.68302
-3.48527
2.46373
1.02154
3.51665
-4.95092
1.43427
-2.72006
2.88968
-0.169622
1.61624
-1.95724
0.0414158
0.881941
0.970142
1.04272
-3.33359
1.55425
-4.35652
2.78935
1.56717
0.889291
-3.39178
2.27444
-0.141137
-2.28197
0.462632
1.00204
4.04874
-1.37613
-2.67261
0.0419334
0.963531
-2.25668
0.568822
-3.70789
3.57956
-2.99763
1.32255
1.86011
-2.40398
1.22505
1.17893
-3.43966
1.98723
1.45242
-0.617503
0.481128
-0.820129
-3.83992
2.71029
1.12964
2.52113
-4.90895
-3.74661
-0.0114548
5.06691
-1.60218
0.405605
0.31777
-0.723375
-0.0922699
-0.55751
0.649779
-0.481997
1.72011
2.07732
-1.33981
-1.06417
0.636975
0.73255
0.840514
1.36165
-2.20216
1.42025
-0.858548
-0.110512
-4.15571
4.26623
-1.24727
1.48946
-2.89893
-2.83237
-1.89237
4.72474
0.900045
-1.20877
-2.60391
0.804742
1.79917
-0.0671501
-0.20246
0.26961
3.70713
-4.55996
1.26639
-2.38683
2.99909
2.43186
-5.43095
-1.35839
-0.315456
-3.13913
0.890702
2.24843
-2.74739
1.79958
0.860917
-3.5522
0.482445
1.54487
-0.0860547
0.0189046
-0.0886309
3.29522
-2.31833
2.914
-0.595663
3.38412
0.0121407
-3.39626
-2.39049
-0.0575319
-0.80633
0.176016
3.17607
0.422395
0.118426
1.06309
2.87032
-1.08052
1.93022
-0.823797
-0.324177
-3.51378
-0.232369
-3.19551
1.00852
-3.14486
0.633146
0.7077
-1.34085
3.33582
0.150421
-3.48624
-0.387749
0.378416
-1.29167
-2.76904
-2.97971
-0.481331
-1.81155
5.25782
-1.26878
1.72102
-0.452242
-4.07688
1.20743
-1.06798
1.9085
-0.990839
-1.83608
-2.07514
-1.17111
1.21491
-0.752679
1.34041
4.14082
-0.556907
2.15365
-0.786401
-1.36725
0.375921
0.983776
0.932914
3.89597
-3.62042
-0.0146261
-0.845413
1.19556
-1.87428
1.96898
-1.69341
-2.19172
0.810381
0.608175
-1.41856
-3.41668
0.0645916
-0.47994
2.93415
-2.45421
-0.0218851
-4.2252
-2.61217
3.13321
5.461
-2.58193
-2.87907
-0.474553
1.12725
2.91384
-1.50239
-1.41144
0.947044
-1.06053
0.251531
0.594139
-0.654459
0.0428267
0.611632
-0.413434
1.91707
-2.36617
4.88731
-0.113109
-0.522919
-1.028
-0.301151
1.32915
-0.239844
3.94698
3.85779
-0.673001
-3.18479
-1.43189
2.14203
1.61058
1.57052
-1.44763
-0.318528
1.95859
-0.745804
-1.21278
-0.540581
0.373004
0.167577
0.565414
-3.0381
2.47268
-3.51995
0.540238
0.818218
-2.13145
3.13997
-0.0468132
0.993858
0.447906
-1.71669
-3.59131
1.86517
-3.95741
1.19855
-1.66765
0.17585
-1.51487
-2.15007
3.66494
-2.96298
0.0603577
-0.241021
0.180664
3.8124
-3.03855
2.96262
-2.05524
0.54888
2.01032
-2.5592
0.767889
-1.42004
-1.72308
-1.29414
3.01723
1.14775
-1.13267
-0.0150782
-2.96154
5.23668
-2.27514
2.86203
-1.90713
-0.954897
2.83352
0.0850827
-2.9186
-2.05994
-2.88955
-1.20094
-0.0522232
1.59275
2.26569
-0.0641433
0.330594
-0.266451
-2.51897
-0.62016
2.66524
2.26086
-2.00739
2.40979
-0.402399
-0.631329
0.947073
-0.458505
1.33624
-0.877734
0.0852638
-1.33541
-0.398501
-3.44142
-3.4996
1.01414
0.101371
-0.0891728
-1.11197
0.271042
2.77463
-3.04568
-1.89487
-0.463748
1.74883
1.60401
0.261884
-0.946274
0.569913
-0.646179
0.0762665
0.253802
-1.31132
1.05751
0.391093
0.936683
1.47831
3.11273
-1.45839
3.18093
-1.69147
-0.393449
-0.927761
1.32121
2.81161
0.344392
0.0868156
-2.50368
1.72874
2.34936
-2.58921
-1.48984
-2.77567
4.26551
-2.26862
-2.31482
-4.29672
4.36686
-0.070143
1.60624
-1.36528
1.04611
2.07325
1.03948
-1.22906
1.69279
-0.463736
-1.07203
-2.23414
-1.13297
-1.79628
2.92925
1.90481
-0.937622
1.68426
-0.71708
2.14894
-3.44061
1.72607
-1.32686
-1.64975
3.50263
-1.85289
2.48622
1.77356
1.12088
-2.89444
4.17788
-2.34497
-1.8329
-2.90601
-2.43573
4.13727
-1.70154
0.896397
1.25725
-1.04678
0.99997
1.61302
3.03064
-0.761109
0.668839
0.0882055
0.0546113
3.60059
-2.01377
1.79248
3.61903
-1.48748
0.771191
0.716291
0.779945
-1.70275
2.81224
-0.168645
1.09903
-0.693423
-2.51056
-0.482354
2.99291
0.666271
-0.125731
-0.54054
0.512265
0.330508
0.514394
-3.71447
-1.02766
1.1421
2.57401
-2.27514
-0.29887
0.617318
1.34127
-0.515181
0.279183
0.931387
0.825584
-1.75697
-1.26564
4.00743
-0.653621
-2.09287
4.2409
-2.14802
-1.02992
1.47222
0.368693
-1.47973
4.07199
-2.0282
-1.27623
0.769555
1.19336
1.08695
-1.18339
-0.650612
0.569416
-1.06502
-0.486385
-0.000698447
0.789926
-0.565906
3.0281
-2.4622
-0.966737
0.712925
-1.33718
0.351235
-1.1785
-0.0224353
-3.93091
2.55095
0.892889
0.82782
-2.18973
2.01767
0.172058
0.937349
0.319406
3.06629
1.64292
-4.70921
-0.330939
-0.0835218
0.414461
0.690341
-2.6418
3.7934
1.6676
2.91823
-2.64719
-4.17188
-0.357264
-0.28905
0.174915
1.72345
1.46804
1.35568
-2.82373
1.3706
-0.153647
-0.129651
-1.16502
-0.322467
-1.91351
-1.60152
2.14904
1.74701
1.54222
2.06374
-2.12859
0.064852
0.675922
0.0174406
-0.237775
0.8857
-0.135344
2.82663
0.752787
-3.57942
1.19691
0.0500127
-0.794708
0.474936
0.319772
-1.2137
-0.0202501
1.23395
1.19344
1.99849
-3.19193
0.797859
1.08739
2.55267
-0.0719118
-0.92684
1.85068
1.01964
0.408189
-0.738075
0.329886
-3.88238
1.90698
3.11955
-2.46783
-0.651717
0.0590782
-0.509099
0.450021
3.11181
-3.39539
2.17791
-0.273094
1.43724
1.52538
-0.428542
-0.0578428
-0.0805743
0.253009
-0.172435
-1.89843
-0.431702
3.99799
-2.04973
-1.94826
1.59607
-0.196113
-1.39996
1.51576
-2.54483
1.02907
-0.283932
1.83287
0.0421877
-2.31129
4.87549
-2.5642
0.0978026
-0.178377
-1.82093
1.40691
-0.0915249
3.51861
-0.0110816
-3.50753
-1.18498
-0.144331
0.503761
-0.234356
0.142134
0.688853
1.78641
-1.24891
1.31951
0.117509
-0.25152
-0.514154
0.438596
-1.42928
1.97816
0.0474378
0.894119
0.151364
-0.94962
2.54988
-0.190318
2.25406
-0.86004
-0.395082
-0.80636
1.73775
-0.472264
3.25751
-2.78525
-2.95432
-0.433562
-3.16773
4.98871
-1.82098
0.0883983
1.31851
1.1065
-0.209413
-0.0644999
-0.85356
0.91806
-3.0134
0.985198
0.375773
-0.446649
2.11951
-4.63924
1.68893
-4.1136
-4.08593
4.32145
-1.78789
1.80492
-0.979335
0.036792
-2.24994
2.81536
-0.00689258
-0.524918
0.51103
-1.90449
-0.37512
-2.17119
2.54631
-1.50746
2.17603
5.56264
-3.7227
-1.83994
-0.749441
0.278739
0.80547
0.0693434
-0.874813
-2.88848
0.570146
0.626441
0.0950575
-0.0339143
-0.421626
0.45554
2.05533
-5.22305
0.336047
1.5848
0.121307
-1.7061
-3.67509
3.20283
0.515056
0.125456
-0.640512
1.44695
-3.61182
-0.462214
-0.0190092
0.481223
0.670469
-0.155413
-0.0370002
2.58034
-1.94635
2.12775
1.75663
-0.958771
-4.01127
1.1789
-2.38979
1.94793
0.441859
2.63744
-4.12728
-1.77998
-1.0429
2.82289
0.154988
1.40645
-1.03535
0.886055
4.04205
-0.624515
-3.41753
-0.0181811
-3.4956
2.57226
0.261255
1.43728
1.47656
-0.515609
-0.0237162
0.506212
-0.942306
-1.20956
0.3108
-0.222201
-0.0885983
0.0378138
-3.53103
3.49321
-0.25001
1.09815
-0.848143
1.8282
-3.97096
2.14276
-0.356479
-1.91879
-0.129955
0.0701098
2.36622
-1.21682
-0.657664
1.87448
-1.25535
-1.37284
1.51457
-0.906396
0.796622
0.562364
-1.35899
-0.901328
-1.2884
-2.85605
-0.446539
-0.120835
0.567375
0.564842
0.873524
-1.43837
1.42682
-2.96079
1.53397
0.0975619
-1.94707
0.649567
-4.40681
-1.83422
-3.57182
5.40603
-3.39939
0.154141
3.24525
-4.40522
-2.81697
0.0969104
-0.997689
1.01691
-0.0192218
-5.1273
-1.22314
4.04977
1.31375
-0.652721
0.320015
-1.12637
-0.546896
1.63429
0.500612
0.300117
-1.32812
0.0605928
-0.543124
0.482531
-0.542707
0.228017
-0.359167
0.418245
-0.99048
1.75068
-3.63256
2.08819
1.54437
-0.46598
-0.228258
2.00359
0.665391
0.000879751
0.405854
-1.63491
-1.69817
-0.90574
-1.89248
0.642438
1.25004
-0.332912
1.14779
-0.814883
-1.44435
1.69815
-0.287236
2.53
4.39655
-0.538765
1.84943
-3.10479
1.51472
-2.01877
0.504051
0.350184
0.00711406
0.0612998
0.00835821
-3.62002
2.10515
0.2464
1.34967
0.0422365
-0.675997
0.633761
-5.68795
2.21622
0.825133
-1.3761
-0.649962
-0.0741193
-0.729477
0.803596
-1.94463
0.727812
-3.66884
3.27034
5.78678
-2.7877
-0.841292
0.767104
0.0741884
0.778473
-1.0042
-0.496128
-2.51194
0.462252
2.04969
-0.471076
0.387554
-0.279111
1.2
-0.920891
1.36392
0.813988
0.539334
0.422923
-0.962257
-0.928414
0.975852
0.951
-0.575323
1.82163
-3.31254
3.61287
0.249887
-1.989
-0.306538
3.33473
-0.0949214
-3.23981
-0.465922
-0.914496
1.38042
1.77
-3.68888
-2.67133
2.94924
-0.277907
-0.247012
0.0823332
0.164679
-3.7697
3.81295
-0.043257
-1.44487
2.20752
1.88677
0.77153
3.71347
-1.36502
-2.34845
0.124796
0.653686
-0.778482
-0.322749
-1.08836
-0.0329111
-1.03185
-0.0565126
0.102785
-1.11895
1.01617
-0.326245
3.34763
-3.02139
-2.9582
1.07331
1.88489
0.9169
3.24551
0.106816
0.100343
-0.207159
1.97064
0.84657
-2.81721
0.401271
-0.539883
-1.47491
3.3311
-1.85619
-2.98873
0.47817
2.32377
0.936647
-2.71663
-0.00907802
-0.406786
0.415864
3.74857
-1.13663
-2.61194
1.57986
0.760158
-3.89356
2.04607
3.80761
-3.91813
-1.77646
0.399916
1.37654
-0.511252
0.640117
0.535235
-1.17535
0.0277286
-0.976293
0.948565
-0.0358767
0.419287
-0.38341
1.00369
-1.05141
0.0477209
-1.96978
4.11872
-0.991445
1.0369
0.586851
-0.865962
1.21592
-1.89065
0.674728
-2.02213
-1.46314
0.463582
0.00452393
-0.161498
0.0535645
0.107934
3.62157
-1.90361
-1.71796
0.36315
2.21086
-0.811054
-0.469978
-1.94633
0.299629
1.52944
1.53501
-3.06445
-0.0805362
0.042871
0.0376652
-0.0671034
1.20785
0.696737
-1.35627
0.659538
5.19411
-2.66156
-2.53254
-4.57672
0.981265
1.04187
-4.18737
-0.0443647
4.23173
1.17413
-2.7234
-1.24759
0.971259
0.105033
-0.0437332
-0.96109
3.46864
-2.50755
0.486016
0.104426
0.383099
0.606212
-0.791193
0.678084
-0.639807
1.24426
-3.62349
3.04632
0.577168
2.32356
-1.42109
-0.902468
1.61282
-1.22173
0.804653
0.200521
-0.789929
0.648657
-0.115126
-1.28467
1.16248
-2.45507
-4.6755
2.36421
0.090266
-0.112172
0.459554
0.210915
-0.174707
-0.072305
3.02492
-3.07462
0.049694
3.33768
-1.66349
0.679873
0.983616
0.320092
-1.16551
-1.46732
-3.13642
-0.817927
0.692195
-0.543483
-0.930218
1.4737
-2.76174
0.615187
0.654849
1.35187
-2.00672
0.269174
0.878577
-0.828852
-1.72634
4.76591
-0.0208451
-2.55862
0.845249
-1.76817
0.922919
-0.893128
1.15501
-2.2913
-3.39665
-0.298017
-0.116904
2.25089
-3.57606
1.25019
2.32587
-0.0834731
-1.05685
0.0932603
-1.18938
1.09612
-3.7332
-2.03854
-0.523832
0.504823
3.29991
1.88445
1.12915
2.59969
-2.54024
-1.78027
3.18433
-0.187839
-2.9965
3.44626
-3.77995
4.15128
-2.99554