/*--------------------------------*- C++ -*----------------------------------*\
| =========                 |                                                 |
| \\      /  F ield         | OpenFOAM: The Open Source CFD Toolbox           |
|  \\    /   O peration     | Version:  2306                                  |
|   \\  /    A nd           | Website:  www.openfoam.com                      |
|    \\/     M anipulation  |                                                 |
\*---------------------------------------------------------------------------*/
FoamFile
{
    version     2.0;
    format      ascii;
    arch        "LSB;label=32;scalar=64";
    class       volVectorField;
    location    "2.3";
    object      U;
}
// * * * * * * * * * * * * * * * * * * * * * * * * * * * * * * * * * * * * * //

dimensions      [0 1 -1 0 0 0 0];

internalField   nonuniform List<vector> 
13486
(
(5.68241 -0.797715 1.40052e-20)
(6.68981 1.07984 6.95408e-21)
(10.6488 0.0135031 0)
(-7.19917 3.51644 -4.62453e-20)
(9.22651 -1.69611 -4.13393e-21)
(9.6084 0.684757 7.84712e-22)
(9.96316 -0.539165 1.72351e-22)
(7.8967 -2.69625 -1.92409e-21)
(7.73077 -1.44411 0)
(7.79117 2.86368 0)
(-0.516632 8.25177 -1.11487e-20)
(9.69983 -0.269901 0)
(5.04059 -1.55575 -1.3931e-20)
(9.57061 3.04349 5.27922e-22)
(9.46442 -0.785179 -3.00104e-21)
(7.69561 3.00845 -4.93463e-21)
(-2.99756 -1.60704 1.17134e-20)
(0.0938233 -2.24153 -5.81857e-21)
(8.83445 -0.0653839 8.46848e-24)
(6.39309 -0.233215 -1.38122e-20)
(-7.8351 2.1934 -2.10567e-20)
(5.11569 -1.60705 1.79472e-20)
(6.79806 1.04462 -5.57071e-21)
(15.4281 2.82143 0)
(8.11183 2.30978 1.50861e-21)
(15.3923 2.54945 -1.27364e-20)
(2.25684 0.305395 1.62149e-20)
(11.7578 -0.245599 1.97765e-20)
(7.84932 0.749774 0)
(12.4655 -1.11491 -1.61662e-20)
(-7.72701 0.434942 -1.66504e-20)
(9.18006 -0.547583 2.21796e-21)
(11.9361 0.853257 1.1875e-20)
(10.3367 -0.856375 0)
(7.90112 -2.56141 0)
(6.97468 0.0718719 7.44535e-23)
(6.02633 -0.316375 -2.29454e-21)
(6.08483 -2.78949 5.49626e-21)
(7.21872 -0.992345 -3.23407e-22)
(7.81131 -0.840217 4.78137e-21)
(10.1945 -3.00777 0)
(4.39688 -2.08441 -1.69442e-20)
(8.85777 0.0287533 0)
(8.14938 1.99603 -7.26112e-21)
(8.19199 2.00328 2.9298e-21)
(9.65456 -0.264054 6.57992e-23)
(-1.57148 -5.26007 7.36542e-20)
(7.69347 0.726711 1.77067e-23)
(6.02157 -0.173615 1.73198e-21)
(11.0477 0.318264 7.35095e-21)
(7.97011 0.0936217 7.73891e-21)
(7.45186 -0.436358 0)
(9.50455 -0.603866 1.21419e-22)
(6.39451 -2.29141 -8.20783e-21)
(-0.111742 -3.23557 0)
(9.07901 -1.77652 1.91687e-21)
(11.428 0.998084 4.31346e-21)
(7.52532 -0.660745 -1.55151e-21)
(12.303 1.10732 1.58536e-20)
(5.94712 -1.21297 0)
(-0.955999 9.71425 -1.52569e-20)
(5.99772 -1.25048 0)
(13.6254 -0.414068 -1.25358e-20)
(-7.69133 2.18091 -2.40426e-22)
(2.76425 -7.40323 0)
(5.91932 -0.429933 -1.23403e-21)
(-8.09413 3.73474 -4.36861e-20)
(5.68921 0.228832 4.97841e-21)
(7.66791 -1.5058 -2.43849e-21)
(6.60591 0.0452126 5.33785e-22)
(-7.30048 3.57312 5.04419e-20)
(0.0632176 -3.14476 -4.02823e-22)
(7.81655 -0.431895 3.96049e-21)
(-2.37314 8.63267 -2.23658e-20)
(5.53083 -0.608346 -3.24736e-22)
(11.1697 1.31654 -8.93984e-22)
(5.26801 -0.357669 1.18808e-21)
(9.47502 -0.820286 1.25367e-21)
(-2.62671 -8.90811 -2.59284e-20)
(7.40582 -3.71613 0)
(7.42108 0.15928 -1.2856e-24)
(6.50264 1.47326 -4.58539e-22)
(13.9733 -1.61532 -2.42912e-21)
(10.6511 -0.0964319 1.88888e-22)
(5.67763 -0.813247 -2.72235e-20)
(5.71709 6.57005 0)
(5.1653 -1.49356 6.95289e-23)
(8.05322 0.176728 -1.1864e-20)
(7.42798 0.760504 -5.48786e-21)
(7.02495 4.00854 -5.8805e-21)
(9.08661 -0.67612 8.03474e-22)
(8.30034 -2.22109 -7.7574e-23)
(5.95404 -1.23086 3.40165e-21)
(6.60223 0.310577 3.69556e-22)
(7.35248 -2.17665 1.00503e-21)
(7.61022 0.614077 -5.95631e-24)
(1.52245 0.273873 0)
(-8.47822 4.2216 2.41317e-20)
(7.78547 -0.821111 -9.14778e-21)
(-3.94439 -2.96296 7.31467e-22)
(7.45361 0.060805 0)
(9.48859 3.05795 1.23329e-22)
(-8.66243 3.98287 1.03832e-21)
(7.43041 -0.596069 1.81979e-21)
(5.29276 6.33161 0)
(-4.54636 -2.33531 1.21129e-21)
(7.81895 0.135969 4.32181e-24)
(7.28551 -1.1427 -7.07144e-22)
(-3.89644 -7.4436 4.08924e-20)
(8.09093 -3.65747 0)
(6.596 -3.08795 0)
(9.06393 -0.310896 5.04247e-21)
(6.46928 -2.23751 1.54744e-22)
(10.349 1.82013 -1.2398e-22)
(4.20838 -0.208046 0)
(6.45009 -3.04212 -3.18444e-21)
(8.01978 2.46372 0)
(10.869 -0.856407 0)
(7.72237 -0.400105 0)
(6.17397 0.0921809 -1.00813e-21)
(0.898848 -2.17975 1.9281e-21)
(-2.55517 9.23707 0)
(7.17843 -1.9456 0)
(7.26601 -1.00321 1.05153e-21)
(7.47998 -2.46074 0)
(7.46199 -0.449545 0)
(8.64899 -0.906429 4.58237e-23)
(8.6045 0.379342 2.08548e-21)
(9.8126 -0.653304 -1.63989e-21)
(6.63808 -10.4317 -4.73324e-20)
(7.33115 -0.375448 -1.99799e-22)
(-0.849326 -6.10106 -1.83908e-20)
(4.95699 6.97914 4.42585e-20)
(0.193257 0.944297 2.18769e-20)
(7.97797 0.0375809 -1.25837e-21)
(7.48147 1.67772 -6.49149e-21)
(4.05385 2.96349 -4.75334e-21)
(7.90841 -3.47939 0)
(6.19065 0.14382 2.80625e-22)
(7.93169 -2.15728 -9.28807e-22)
(11.7216 0.819701 -1.38943e-20)
(9.64374 -0.652404 -1.14169e-22)
(9.24901 -0.544189 0)
(7.45951 -3.49148 0)
(9.74094 0.115875 -1.72854e-22)
(11.0486 0.226315 -7.63398e-21)
(8.26906 -0.402339 5.11233e-22)
(-2.93565 6.15644 0)
(11.1306 0.453332 0)
(7.87023 0.728268 0)
(8.03686 0.0413089 1.18731e-22)
(9.62253 -1.05462 0)
(7.484 0.101427 1.34547e-24)
(6.18771 1.42807 -3.92876e-21)
(8.61575 1.31098 0)
(10.9333 -0.00757329 0)
(7.99858 -3.50458 0)
(-1.83164 3.86747 1.63429e-20)
(6.82427 -2.5781 9.75949e-21)
(7.04155 -0.9751 -1.48418e-21)
(10.5257 0.195289 4.35391e-21)
(6.85908 -2.50904 -1.44713e-20)
(9.34022 -0.77729 -7.56882e-23)
(4.01829 -1.98624 7.36919e-21)
(7.56869 -0.517661 0)
(10.0455 3.04115 -2.07692e-21)
(9.21228 2.78497 7.0894e-22)
(1.77207 -0.444798 -2.05694e-20)
(8.00508 -0.303662 -1.17317e-21)
(0.367008 1.15177 5.98827e-21)
(5.25073 6.15851 4.22908e-21)
(8.58491 1.19537 1.98124e-21)
(7.93795 0.269083 -9.65902e-21)
(8.99707 -0.655041 -5.64562e-25)
(7.4404 0.300944 -2.66782e-23)
(-7.25461 6.81684 0)
(9.43369 4.34389 1.65524e-21)
(11.805 1.08426 1.73207e-20)
(7.87658 0.11605 -1.21075e-20)
(9.28595 -0.521914 0)
(7.95584 -1.03482 8.32161e-21)
(10.1881 1.64475 -1.97414e-22)
(9.15867 -0.569799 -4.31107e-23)
(1.0232 -0.548027 0)
(10.2897 -0.350881 -3.77461e-22)
(11.1353 -0.183223 -8.97563e-21)
(8.31436 0.701192 8.0844e-24)
(11.549 -1.01122 -4.11355e-21)
(10.0608 -2.92912 0)
(5.92817 -2.83534 -5.04021e-21)
(5.9879 0.0034365 0)
(10.6121 0.224955 0)
(7.67167 -0.906863 0)
(5.3625 3.10328 -8.86882e-21)
(7.88017 -1.06246 0)
(-1.72954 6.5589 -3.73281e-21)
(2.56206 -9.06277 1.07388e-19)
(10.7727 0.135274 2.48832e-21)
(5.43466 -2.65 -2.78131e-21)
(9.90712 2.81532 -7.14498e-22)
(-7.61366 -0.147253 1.8241e-20)
(8.62014 0.448431 -6.14847e-23)
(6.03202 -2.85436 -6.36904e-21)
(8.9137 -3.58079 -2.75268e-21)
(7.11191 -1.02786 1.86971e-21)
(7.9709 -1.00994 -1.35298e-21)
(-1.31861 -2.77678 -6.15205e-21)
(7.53312 -0.177854 9.24093e-21)
(7.66424 -0.891701 0)
(10.3978 -0.28595 0)
(11.6628 -0.390953 1.36855e-20)
(21.4359 1.03566 4.66908e-20)
(6.44586 -0.117623 1.26769e-20)
(7.75023 0.170846 3.22081e-23)
(9.67535 0.842087 -9.04945e-22)
(10.181 -5.37202 2.23605e-21)
(12.4208 -0.702223 0)
(7.15248 3.72384 1.50882e-20)
(6.31736 -1.32624 0)
(12.529 3.03532 0)
(-3.51791 -1.65144 -2.15954e-20)
(11.0735 0.546204 0)
(7.85813 -2.14322 2.05338e-21)
(10.8236 0.258647 0)
(9.54152 -0.771386 -6.80136e-24)
(5.19268 -2.38628 4.79573e-21)
(10.146 1.48024 -1.85374e-22)
(-9.60338 0.538584 1.35815e-20)
(9.3712 -3.30712 4.77749e-22)
(6.36581 -1.6449 -5.77159e-23)
(7.98342 -1.02497 -2.69154e-21)
(10.1994 -1.29499 3.17239e-20)
(11.7719 0.919751 1.74508e-20)
(4.29687 -2.02399 5.87905e-21)
(-8.57037 3.20568 0)
(5.00928 -2.42282 5.39293e-22)
(11.0391 -1.17658 6.85623e-21)
(10.6932 0.182224 2.00256e-22)
(5.04312 -2.39624 1.50494e-20)
(9.21686 -0.412488 0)
(12.3451 1.49625 0)
(8.0124 0.228447 1.48638e-20)
(10.2539 0.958837 0)
(4.87247 -2.39116 4.70906e-21)
(7.00256 -1.20124 -6.07827e-22)
(7.22412 0.230815 0)
(9.60301 -0.108421 -2.04629e-22)
(14.7173 0.251619 3.71311e-20)
(-5.01754 5.17085 4.26161e-20)
(7.99091 1.88034 0)
(-7.41011 5.73399 -9.11743e-21)
(4.11437 -0.0947 2.2856e-21)
(6.05533 -2.95232 3.64999e-21)
(7.32661 -1.16573 0)
(8.40093 -3.15071 1.11187e-21)
(-6.74916 8.39689 7.78311e-21)
(9.22335 -0.589687 -1.63904e-21)
(9.91332 -5.75638 -2.82561e-21)
(3.12453 3.70124 -1.7111e-20)
(12.1903 0.976981 1.13251e-20)
(7.0728 0.841034 0)
(6.9763 -1.15725 -1.45808e-23)
(9.4118 -0.804676 6.59139e-21)
(-7.33977 7.0091 -9.71704e-21)
(8.9918 -2.74137 3.37866e-21)
(2.24799 -0.722513 0)
(9.52089 -3.17573 -3.40308e-21)
(-8.23397 0.740315 -2.44341e-20)
(8.32185 -0.0205623 -4.72391e-21)
(3.10186 -2.0945 0)
(5.95174 3.55743 6.58493e-21)
(7.92285 0.185498 -3.36516e-21)
(12.3605 -0.870988 0)
(9.72918 -0.521458 -1.17315e-23)
(5.31276 -2.4834 6.35514e-21)
(14.136 -0.547657 -2.0797e-20)
(8.44161 -2.80341 0)
(-0.89478 -8.6 0)
(7.38853 -1.33045 -7.40185e-22)
(8.62683 -0.805822 -9.65145e-22)
(-1.50532 -9.22413 2.17992e-20)
(8.36895 -0.671785 -2.63467e-21)
(7.7277 0.225602 7.39282e-21)
(13.3108 5.11594 -1.22416e-20)
(-3.1881 9.26434 2.10625e-20)
(1.27674 -1.9517 2.86381e-20)
(11.5704 0.926772 1.46688e-20)
(9.55499 -0.7792 2.15639e-21)
(10.6691 -0.770492 4.25606e-23)
(8.07358 -0.0348962 0)
(-9.0041 2.95373 0)
(6.72521 -1.11739 8.87976e-22)
(6.36704 -2.98584 3.78466e-21)
(8.00563 0.0577087 -1.21961e-21)
(10.9181 -1.12518 6.0983e-21)
(11.3219 -1.13561 0)
(10.3264 -0.0117551 -5.78893e-21)
(9.84308 -0.444727 3.10744e-23)
(7.68329 0.210877 -6.70978e-21)
(10.4459 -1.33073 -9.79356e-21)
(7.66867 -0.660701 2.24109e-22)
(-1.47666 -2.05336 8.30865e-22)
(8.81276 -0.669171 8.22485e-22)
(9.24438 -0.572415 -1.99077e-21)
(6.2573 -0.0454872 3.47215e-22)
(7.74091 -3.72826 0)
(6.18802 -0.771574 0)
(8.56925 -0.134729 4.3919e-22)
(6.05577 -1.76138 -1.59503e-24)
(6.01718 -0.119693 0)
(7.35906 5.42978 -3.13936e-20)
(-7.65143 3.50784 0)
(9.02447 4.24594 1.73607e-22)
(9.25797 -0.354547 4.30137e-21)
(5.04214 8.11399 0)
(7.53639 1.49636 -4.00855e-21)
(6.67204 -1.02277 -1.3205e-21)
(7.4027 0.732478 -4.70709e-22)
(7.49861 -0.15275 -1.03238e-20)
(9.90662 -3.14409 0)
(5.81612 -0.295797 2.25549e-21)
(6.67507 -1.00518 1.82623e-24)
(7.89152 0.14224 1.52715e-21)
(6.55901 0.491928 -7.03373e-21)
(2.6998 3.13501 8.63266e-21)
(9.25988 -0.637905 -1.34218e-21)
(8.8238 -1.23606 9.34137e-22)
(8.40869 -0.657587 0)
(10.0909 -0.464529 9.81695e-24)
(8.95311 -1.21445 9.23462e-22)
(7.98903 0.0491856 1.71674e-20)
(8.37728 -2.21843 0)
(8.82288 -0.749005 2.30221e-22)
(5.71802 1.4866 0)
(9.80312 -0.460058 1.87868e-20)
(7.52293 -2.00195 -2.30263e-21)
(3.28563 -1.47908 7.55832e-21)
(9.58696 -1.1869 5.51145e-21)
(8.10956 0.704802 0)
(6.93166 -1.1784 -9.8133e-22)
(9.72692 -3.08875 4.01064e-21)
(6.60298 0.493571 6.65135e-21)
(9.05315 -1.22686 -2.45208e-21)
(9.14385 -0.567086 -5.01535e-22)
(-4.37029 6.80772 -1.59138e-20)
(7.7083 0.680435 1.72562e-24)
(8.81689 -0.622951 0)
(4.03125 -1.30032 1.74058e-20)
(12.7325 2.83458 0)
(6.66767 -1.06087 -3.58621e-23)
(8.76445 -0.371225 3.04645e-21)
(9.98151 -0.495166 9.80961e-23)
(9.78797 -0.48435 -2.26973e-23)
(0.922936 -0.66438 -1.99695e-20)
(7.74849 0.215083 8.36411e-21)
(7.03372 0.0961339 0)
(-3.0731 7.11957 -1.87589e-20)
(8.64683 -0.893376 -8.95635e-22)
(6.46074 -1.73268 -4.86513e-23)
(18.9901 -0.759471 3.05724e-20)
(10.2765 -0.0754729 0)
(9.47183 -0.769763 -4.08014e-22)
(7.16603 0.545476 1.39313e-20)
(7.82779 0.201515 1.02119e-20)
(12.4632 -1.24121 0)
(7.51303 0.104048 -1.68357e-24)
(11.2436 -1.08889 -6.43931e-21)
(1.94144 -4.00098 1.30654e-20)
(6.27932 -0.169767 1.77331e-21)
(8.67199 -0.770086 8.54267e-22)
(9.22403 0.0485067 6.47008e-23)
(8.77264 -0.621397 0)
(9.45327 -0.805457 -1.23039e-22)
(-7.11708 6.39482 7.93959e-21)
(9.55852 1.70508 9.01684e-22)
(8.03646 0.0957919 6.4114e-21)
(6.56815 0.0206315 0)
(6.82913 -1.05818 -1.38248e-21)
(6.75293 9.17894 0)
(12.9023 5.66348 -8.88905e-21)
(8.32124 -0.0770961 0)
(8.48459 -2.64043 -2.66971e-22)
(5.33717 -0.444969 -4.04244e-21)
(6.04899 2.92349 1.5427e-20)
(0.712778 -3.86795 -5.10822e-20)
(8.68915 -2.8312 0)
(8.98046 0.29829 -6.81294e-22)
(8.08136 0.773259 -3.93907e-21)
(-8.2026 2.9207 -1.69782e-20)
(-6.96319 0.971097 2.58325e-21)
(6.59412 -0.221193 -1.87955e-20)
(12.2163 -0.632189 7.28214e-21)
(8.19525 0.756098 2.61596e-21)
(5.79791 -1.71243 0)
(5.45232 1.17953 8.33944e-21)
(6.21491 0.327696 -8.42673e-22)
(-7.92314 3.59005 2.67851e-20)
(-7.14553 5.85597 -2.85925e-20)
(-7.68366 2.36808 -2.46777e-20)
(11.6701 0.940374 0)
(-8.49729 2.98431 0)
(8.06609 4.66187 0)
(8.32403 -0.260144 0)
(6.14834 -1.76652 -1.31301e-20)
(9.62935 -0.395566 0)
(5.57566 -1.28721 0)
(6.66375 0.387555 2.70038e-21)
(11.7246 1.0419 -1.7797e-20)
(8.72752 -0.602263 -2.45737e-21)
(6.71477 1.20211 2.41073e-20)
(8.01052 0.145693 -1.91017e-21)
(8.93833 6.56179 0)
(12.0604 -0.248464 0)
(7.68563 0.231532 7.19662e-21)
(7.89256 0.0623461 1.21431e-21)
(4.93701 3.46047 0)
(0.693324 0.147017 1.63685e-20)
(8.90057 -2.82086 -3.78995e-21)
(4.18961 5.75268 0)
(9.24242 -0.387858 4.49472e-22)
(7.91096 0.152446 -8.12087e-21)
(2.16845 1.39388 3.1201e-21)
(4.00937 -1.26161 0)
(7.97586 0.762594 7.47321e-21)
(10.3143 0.922002 0)
(11.5311 -0.988114 0)
(8.76365 0.802107 -2.93773e-22)
(7.69993 0.271926 3.89361e-21)
(2.54149 0.360598 -2.12502e-20)
(9.12352 2.7318 5.47556e-22)
(5.33153 -1.27773 -6.77318e-21)
(8.31659 -0.245044 5.98353e-22)
(8.30316 0.818152 2.01357e-21)
(10.5519 -0.834578 4.13424e-22)
(9.2928 -2.66647 0)
(13.6897 0.396517 1.6435e-20)
(5.40359 -0.226861 0)
(6.74636 -1.07793 7.81254e-22)
(8.94755 -0.663 0)
(5.7753 0.229303 1.05733e-20)
(-6.02678 -1.3716 -6.45121e-20)
(12.3075 -0.515841 0)
(-1.87797 0.00577011 9.04737e-22)
(12.3338 -0.246078 -1.52907e-20)
(6.74582 -1.18203 -5.1224e-22)
(7.06838 -1.0355 1.51789e-20)
(5.73104 2.88491 -9.67346e-21)
(5.31868 -1.26509 -1.97006e-20)
(14.2051 5.28728 0)
(6.13135 0.0191791 9.25973e-22)
(-5.14118 8.22883 -3.99052e-20)
(7.9801 0.807135 0)
(7.3628 0.834622 5.15706e-22)
(10.6054 0.172741 -1.59308e-21)
(10.4788 4.53472 0)
(8.00466 0.0217036 0)
(-5.9924 4.26789 0)
(-7.60276 6.43011 4.06307e-20)
(13.8126 7.01662 1.44983e-20)
(10.67 1.08753 -1.12424e-21)
(8.96876 4.01513 0)
(6.8021 -0.598693 1.13214e-20)
(7.3886 0.296959 4.56148e-23)
(9.08649 2.51842 -8.56234e-22)
(-7.63965 2.90816 4.06199e-20)
(7.6419 0.599065 0)
(7.74879 0.73644 0)
(3.14061 -0.463607 -1.23582e-20)
(5.69175 -1.67614 -4.5613e-21)
(7.80292 -0.652229 0)
(7.27457 -3.38889 -8.1984e-22)
(7.60744 0.091123 -2.71677e-23)
(7.64346 0.557247 1.45986e-23)
(3.52633 -1.55357 0)
(8.51942 -0.509567 2.07704e-21)
(6.244 0.181471 7.68632e-22)
(10.3512 0.886323 4.33331e-21)
(7.48649 -2.11858 0)
(0.546806 -3.23303 -4.33052e-20)
(9.84337 -0.455527 -3.39365e-23)
(7.95961 0.352704 1.53306e-21)
(6.7698 0.151061 2.7192e-22)
(10.257 2.9513 0)
(6.73117 1.22614 -6.38651e-21)
(12.0743 1.83425 -6.82724e-21)
(-6.78402 1.49649 2.81165e-21)
(8.03766 0.173459 0)
(-6.57932 1.05349 -2.65087e-21)
(2.12845 -0.264103 0)
(8.06682 0.159537 -5.89621e-21)
(7.9646 0.222642 2.58027e-21)
(7.54061 0.159261 -1.42161e-21)
(-7.33736 7.33553 0)
(10.404 -0.124738 1.6415e-22)
(4.5087 1.87992 2.32155e-20)
(9.20705 -2.68625 0)
(6.56953 0.338552 8.31474e-21)
(10.286 -1.49747 1.12797e-20)
(8.74756 0.0695377 0)
(-8.10101 0.589581 1.21202e-20)
(7.42552 -3.32491 -1.66215e-21)
(9.31811 0.0690221 0)
(-4.97222 -3.65972 2.6597e-20)
(7.32164 0.755077 0)
(7.01877 -3.12755 3.09893e-21)
(-7.61185 5.82304 1.77745e-20)
(8.27684 0.788112 -7.79142e-24)
(9.71187 0.706252 -2.11579e-21)
(5.42006 1.14621 4.39092e-21)
(7.05193 -1.14228 -5.49399e-21)
(8.68374 -2.53561 -1.24398e-21)
(7.03898 -3.0461 1.25461e-22)
(8.60057 -0.793343 9.81861e-22)
(10.2468 2.8788 4.27911e-21)
(8.60145 -3.78835 0)
(7.99247 0.047043 -5.6823e-21)
(4.21371 6.53651 -2.34474e-20)
(5.50444 -0.271914 0)
(5.75544 0.661181 -3.6308e-22)
(6.6087 0.0394248 0)
(4.83831 -1.29872 1.75394e-20)
(8.42794 -2.97026 0)
(7.31996 0.0547112 -1.5539e-22)
(8.89796 -0.337755 -1.75939e-21)
(-8.75556 0.44607 2.31105e-20)
(-7.29155 4.70525 2.73433e-20)
(10.0017 -0.116298 -6.10751e-24)
(7.48139 -3.5483 -2.13919e-21)
(7.1208 -1.93837 4.62616e-21)
(5.93147 -1.24382 0)
(1.89949 -2.05349 -9.6748e-21)
(9.35496 -2.49064 7.02704e-22)
(1.79008 -1.95037 -1.1444e-20)
(7.62628 0.629547 5.92644e-24)
(5.74103 -2.16364 0)
(8.83262 0.0539705 -2.56948e-23)
(1.32974 0.481098 0)
(-8.39759 4.38297 8.94819e-22)
(0.0705446 1.88888 -4.99841e-21)
(2.72322 3.76115 0)
(8.25487 -2.00019 4.85114e-22)
(0.621759 -5.25231 0)
(10.5299 4.30432 0)
(6.68376 -3.12362 -4.10011e-21)
(5.78388 1.23597 6.70845e-21)
(5.94717 -4.18168 0)
(7.24091 0.662478 -3.86176e-21)
(10.7 0.195262 7.6013e-21)
(-6.60003 6.79144 3.48465e-20)
(10.4957 5.67121 0)
(8.39422 -0.0143486 0)
(-4.18628 7.99096 -1.70119e-20)
(7.48781 -0.394938 0)
(10.4545 -0.171572 0)
(-2.40085 9.501 2.53303e-22)
(8.24713 -1.40453 -3.66024e-21)
(6.88893 -1.57298 4.30098e-21)
(12.6056 1.13762 1.67594e-21)
(2.68578 -1.19452 2.13199e-20)
(7.94988 0.157211 2.95953e-21)
(6.09783 -1.35437 0)
(8.57406 1.92731 -1.07071e-21)
(5.67436 -0.717141 0)
(9.97973 -0.0512676 0)
(8.0047 0.403978 0)
(8.68067 0.751178 -2.31916e-22)
(7.46693 -0.139123 4.80057e-21)
(9.98295 0.753319 2.87793e-22)
(6.29235 -1.40532 0)
(0.332673 0.570827 -1.60537e-20)
(7.94397 4.39804 2.05854e-21)
(7.45226 -2.48178 2.85672e-22)
(9.59905 -0.921121 -3.52515e-21)
(14.5635 -0.467253 3.41273e-20)
(8.19771 0.0691782 -4.59938e-21)
(-6.67124 -1.01108 0)
(9.82271 -0.468063 0)
(5.60001 3.48671 0)
(4.89721 -2.13488 -1.23013e-20)
(-7.77459 -5.13893 -3.80402e-20)
(3.26468 0.80057 0)
(8.66132 1.92868 0)
(10.029 -0.775669 -1.07134e-22)
(7.86093 -0.0279675 -9.51701e-22)
(7.5709 2.49419 7.06257e-21)
(9.22789 -3.63286 0)
(2.68481 -2.72542 -5.41888e-21)
(9.14268 0.295164 -2.87116e-22)
(5.55613 -1.53726 -1.10548e-20)
(8.71176 0.381389 -1.08951e-21)
(9.04674 2.51407 1.9311e-21)
(13.8723 6.02297 4.63466e-20)
(4.83493 -2.11664 2.13001e-20)
(11.1194 -9.52187 2.53272e-20)
(10.3626 1.49785 -2.31627e-22)
(8.00508 0.0323202 -1.41814e-21)
(6.60602 -3.17794 9.0349e-23)
(7.52664 -3.02288 7.13491e-22)
(6.3405 8.50282 -1.24631e-21)
(7.07278 -3.32184 7.71848e-22)
(9.94946 -0.413254 0)
(6.15683 -1.51863 2.92892e-23)
(8.50081 0.00234356 -4.6265e-21)
(11.5091 3.23312 3.50293e-21)
(5.44549 -1.39707 -1.03022e-20)
(7.40276 -2.39805 -3.58847e-21)
(8.22146 -0.0460177 5.97193e-21)
(10.419 -0.239635 -3.43198e-21)
(5.46287 -0.43728 -5.69865e-22)
(11.5893 0.978351 -7.73537e-21)
(4.53891 -0.596448 -2.48039e-20)
(8.72615 0.0221356 -3.60648e-21)
(4.49421 -0.866044 0)
(-10.5965 0.518966 -5.61293e-20)
(8.48369 0.0689031 1.06448e-20)
(6.63776 0.0434524 1.0365e-23)
(-2.9186 7.40484 0)
(7.7733 -3.49559 0)
(8.04305 1.73439 5.79722e-21)
(4.05172 -0.566811 1.57209e-20)
(-1.07696 1.9521 -9.75751e-20)
(8.58913 -2.63032 6.91534e-22)
(8.91593 -1.24545 -6.23128e-22)
(12.7514 2.7561 0)
(8.04866 1.90389 3.18974e-21)
(-0.489579 -1.83617 -6.46054e-22)
(9.69535 4.14094 2.13432e-21)
(7.89244 -0.953714 -5.20747e-21)
(2.96209 -1.97851 -3.4185e-20)
(14.1807 -1.13083 -3.19605e-20)
(14.4429 0.534941 8.14468e-21)
(8.72793 4.79725 0)
(10.7011 -2.53572 -3.21864e-21)
(7.52329 0.135503 1.27638e-21)
(7.43542 0.200996 -2.55114e-23)
(4.0067 -1.93596 2.06186e-20)
(7.83385 -0.966291 7.89778e-21)
(7.50346 -1.24657 9.57047e-22)
(-6.65001 6.25527 -1.93921e-20)
(10.9761 -0.433344 -6.92965e-21)
(8.60867 0.116519 3.21778e-21)
(-1.99651 8.78146 -2.63404e-21)
(9.31179 4.04983 -9.39883e-22)
(-4.69391 -3.93114 -2.88997e-20)
(5.1586 -2.46788 -5.82318e-21)
(7.5307 0.196257 0)
(11.143 1.64989 3.12242e-21)
(-4.67989 9.37469 -1.42126e-20)
(5.29057 -0.531084 2.15091e-20)
(8.62835 0.628862 0)
(8.4405 -0.830994 3.73267e-22)
(4.63823 -1.81306 4.99272e-21)
(8.01807 0.121407 -1.26131e-20)
(-4.48176 5.57282 -1.69353e-20)
(6.03732 -3.9695 -3.89113e-22)
(8.76037 -0.623872 1.63584e-21)
(8.96053 0.322503 8.61843e-22)
(7.12594 -3.18476 -3.67301e-21)
(10.204 0.966061 -5.42723e-22)
(-6.0776 -4.91617 -1.08753e-19)
(8.5129 0.0131011 4.3371e-21)
(8.27573 -0.22398 -2.62917e-21)
(8.49141 0.461633 -1.26945e-22)
(9.40217 -0.0419266 -4.77632e-21)
(4.49844 -1.89794 -9.65544e-21)
(10.2159 1.38365 0)
(-8.64126 5.59907 3.35851e-20)
(8.36112 0.0652628 8.87981e-22)
(4.41912 0.286378 4.66923e-21)
(9.91125 0.239243 -1.66275e-21)
(8.71567 -1.3662 -4.28901e-22)
(7.98904 0.0727084 -9.88953e-21)
(8.29226 1.32341 1.6222e-21)
(0.435454 0.65986 -1.68245e-20)
(10.5633 -0.155908 0)
(6.81947 -1.01082 7.07361e-22)
(9.94576 -0.537113 -1.00543e-22)
(5.78411 -2.10153 0)
(8.40964 0.375548 2.5519e-21)
(10.0121 -0.474278 -2.69218e-22)
(10.4571 -0.0991273 -7.99572e-26)
(10.6488 -3.32887 8.15522e-21)
(8.18837 -0.949998 0)
(7.02208 1.44734 1.18011e-20)
(7.85672 -1.46349 -1.52146e-21)
(6.8687 -3.20342 2.94114e-21)
(8.04937 -0.667563 0)
(5.78152 1.24375 -1.93396e-20)
(1.57745 -1.91705 7.76741e-22)
(9.52668 5.90853 -6.15449e-21)
(4.58715 -0.669447 2.42186e-20)
(9.16488 0.0994068 -1.24118e-22)
(-6.8904 4.66888 1.99522e-20)
(7.7448 -0.359686 -6.74628e-21)
(13.206 0.539124 -2.07044e-20)
(7.08071 0.543543 -8.08817e-21)
(9.32629 0.1309 0)
(8.00254 0.0636403 -5.34408e-21)
(0.00311268 -0.368035 6.04923e-20)
(-1.39024 6.11634 0)
(18.8001 2.5045 0)
(7.4335 0.224452 0)
(-5.94352 -0.664134 0)
(8.1359 1.25658 0)
(4.3288 -0.561336 0)
(10.9919 -5.11051 -2.9503e-22)
(10.9258 2.23833 -5.58053e-21)
(10.2458 1.55334 0)
(7.10722 1.37808 1.77033e-20)
(3.25598 -2.66821 -2.24917e-22)
(8.24118 0.832413 1.86978e-22)
(-3.67085 9.48931 -5.53603e-21)
(4.39262 0.323248 -2.89825e-25)
(-0.454241 1.82795 1.44085e-20)
(8.17675 -0.0107796 -8.14946e-22)
(10.9288 0.311486 1.04294e-21)
(8.06951 1.20114 -3.85401e-21)
(7.48905 0.687101 -1.08687e-20)
(7.71256 4.08424 -5.14017e-21)
(13.6897 5.39298 0)
(-7.26438 1.85292 7.84289e-21)
(4.91127 -1.36696 -1.91893e-20)
(8.0036 0.0264291 -1.60926e-20)
(9.4697 -2.40587 9.14213e-21)
(9.03835 -0.035443 9.16052e-22)
(11.3544 -1.82306 -1.40739e-20)
(8.4232 -1.10237 -3.32649e-22)
(8.26845 -1.9517 -1.56265e-21)
(8.02945 0.651944 4.08286e-21)
(7.57456 5.74959 0)
(8.50614 -2.19656 -1.07044e-21)
(6.75101 0.276473 -2.4902e-21)
(9.4188 -0.271243 0)
(7.45793 -1.21093 0)
(7.55343 -3.36984 -1.30645e-22)
(-7.69568 4.69647 2.35247e-20)
(10.8747 -5.46551 -1.24304e-20)
(7.07885 -0.367502 0)
(7.62321 -0.245076 -9.46801e-21)
(7.19417 0.7926 -2.13539e-21)
(-9.88905 3.35831 1.96919e-20)
(10.2267 -0.346272 -3.00101e-22)
(-1.60706 2.71903 0)
(-7.54933 1.99537 9.028e-21)
(10.2679 -0.420282 0)
(10.5952 -2.72625 3.33298e-21)
(9.09541 -0.737035 4.65389e-22)
(8.08415 0.0466449 -9.64512e-24)
(9.26286 2.85534 -1.26173e-21)
(10.4778 5.06756 -9.17485e-22)
(6.91815 -1.85086 1.01255e-20)
(-5.33536 -0.989637 0)
(1.29836 -11.4159 -9.43829e-20)
(3.18687 -5.58422 0)
(10.4527 1.55347 -1.70218e-21)
(-9.95429 4.33815 3.69086e-20)
(20.906 2.53762 3.68746e-20)
(6.90864 -1.0237 -6.87595e-22)
(-5.66325 8.95105 -4.46988e-20)
(6.22603 -2.90396 -3.39691e-21)
(5.08736 -1.38734 -1.09243e-20)
(6.13216 0.280464 3.04186e-22)
(3.29758 -10.9555 7.72277e-20)
(4.56251 -1.93679 7.93645e-21)
(5.32945 -1.4986 1.15566e-20)
(-7.88056 -2.97851 4.72723e-20)
(8.05003 -8.91523 -5.17142e-20)
(7.4082 -2.20605 3.87643e-21)
(-0.651132 -1.99177 5.6329e-20)
(10.2894 0.265615 -2.66834e-22)
(3.13039 -2.73445 2.33934e-22)
(9.24816 1.79419 -5.16212e-22)
(9.03933 -1.8401 0)
(-5.09456 0.315145 -3.49522e-20)
(8.28614 -0.00500875 -5.56564e-21)
(7.97279 0.458192 0)
(10.3561 1.48596 0)
(-1.84909 -10.1114 -3.76845e-20)
(12.8762 1.98128 -1.74987e-20)
(9.57539 0.967856 2.6221e-21)
(8.23624 -1.35644 4.79253e-21)
(7.68042 3.9148 4.75237e-21)
(6.98004 -0.0620695 3.31137e-21)
(-9.75147 4.88675 -2.69882e-21)
(7.08336 2.53074 0)
(5.48003 -1.63184 1.0788e-20)
(-3.68503 -3.57753 3.02322e-21)
(-5.95694 7.67588 3.46004e-20)
(6.81018 -2.46172 1.52326e-21)
(8.11021 -3.7268 3.24272e-21)
(8.08162 -0.0733592 1.61439e-21)
(7.13536 -1.00653 3.50082e-22)
(12.1449 -1.40626 1.6686e-20)
(-8.92257 5.14263 -2.36904e-20)
(9.51556 0.926565 -1.93415e-21)
(7.73926 0.184487 4.14275e-21)
(4.4554 -0.839545 -9.948e-21)
(7.54283 -0.297347 5.82865e-21)
(3.79781 -0.566977 0)
(9.54717 1.63816 -1.41198e-21)
(7.88801 0.134111 9.11163e-22)
(5.87756 -1.09138 -3.49301e-21)
(7.52345 6.76121 1.15137e-21)
(7.32005 -2.17115 3.23501e-21)
(8.1124 0.0176561 1.66171e-21)
(5.42441 0.575752 -1.46682e-20)
(9.68704 -0.499801 0)
(6.86339 -0.930006 -1.32636e-21)
(8.76667 0.404929 1.47453e-21)
(9.66426 -1.03726 0)
(5.64163 0.167891 8.26291e-21)
(10.3127 -0.330213 0)
(6.47076 6.98391 5.74119e-21)
(9.96858 -0.127838 0)
(8.53252 -2.4712 0)
(9.7718 -0.198858 5.68851e-23)
(9.52983 0.739192 -9.57788e-22)
(11.6218 1.37672 -1.11461e-20)
(7.666 0.517692 -4.8412e-21)
(5.87928 4.21324 -4.3465e-21)
(7.87679 0.320943 -1.8694e-21)
(8.23327 1.30543 0)
(4.77917 -5.68838 -2.52251e-21)
(9.89271 0.719079 2.83545e-21)
(10.3366 -2.81639 -6.57839e-21)
(9.05506 -1.85885 0)
(11.6352 3.10818 5.34734e-21)
(8.33678 6.62153 2.77424e-22)
(10.1599 0.213107 -9.54387e-22)
(1.64384 9.87834 0)
(-0.635386 9.73645 1.4868e-20)
(8.1311 0.647697 0)
(12.1304 -0.990948 -8.11197e-21)
(-3.74546 4.54943 0)
(11.6031 -3.54877 0)
(9.75661 -9.94051 0)
(8.24023 -2.92605 0)
(0.317607 2.91599 -2.32836e-21)
(-7.17486 6.56586 -9.2776e-21)
(7.50392 -0.126478 -7.18393e-21)
(-9.48012 0.383568 -2.83471e-20)
(4.8946 -2.02593 0)
(-10.8203 -0.494476 -2.66556e-20)
(-4.97941 5.72037 -4.2266e-20)
(6.20981 -2.8552 0)
(5.79478 -1.94575 -1.09498e-20)
(5.31282 -0.706256 -4.75538e-22)
(9.19068 1.71516 1.13713e-21)
(10.2019 -3.1346 -6.92017e-21)
(7.44831 0.634179 0)
(8.87182 -2.59804 0)
(12.4657 0.944848 4.65574e-21)
(7.55089 -2.64383 1.61156e-22)
(6.22484 -0.146387 -6.93227e-22)
(-1.18778 -10.2179 1.87754e-21)
(7.9636 0.0164096 3.96111e-22)
(11.1806 1.83428 -4.12452e-22)
(8.01737 0.640232 5.77729e-21)
(6.7489 -0.987088 7.01439e-22)
(7.48483 -1.94221 0)
(4.77874 1.13105 0)
(10.1406 0.838453 0)
(6.74935 0.0969772 0)
(6.86398 -1.21937 4.16646e-21)
(11.4956 0.519699 0)
(-2.41826 8.99155 2.52478e-20)
(11.9113 5.94589 4.79555e-21)
(5.1979 -1.54645 -1.76005e-20)
(2.98449 -2.26862 7.06135e-23)
(-9.06152 4.27141 -1.74138e-20)
(-1.50397 7.6556 -9.86493e-21)
(8.40243 0.115003 1.3141e-21)
(-8.12015 6.21554 -2.03242e-20)
(6.68071 -0.993904 1.19108e-21)
(9.86981 -0.146172 0)
(9.32293 -0.966187 0)
(4.99506 -2.09107 0)
(8.71551 -1.45359 9.66948e-23)
(6.27282 -7.22465 0)
(7.22126 2.46318 0)
(8.0091 0.0137144 0)
(6.97393 -1.57508 4.00982e-21)
(8.38533 0.774364 -5.27252e-21)
(6.7402 -1.29103e-05 0)
(11.8219 -4.68065 -1.10978e-20)
(7.87665 0.730683 -5.71972e-21)
(9.65899 3.95787 -4.72514e-21)
(6.25853 -2.81827 5.40591e-21)
(7.45762 2.78289 1.07649e-22)
(7.32813 -3.89229 -1.49914e-22)
(7.34905 -1.30296 7.27457e-22)
(8.84672 -3.25356 -2.53419e-21)
(9.41054 0.793374 1.43672e-21)
(6.23121 -0.0211317 -1.51367e-21)
(7.26992 0.285528 -7.55732e-21)
(8.42423 0.0190321 0)
(6.82126 2.06628 -3.37673e-21)
(7.794 0.17303 7.51826e-21)
(0.15859 -2.46958 3.0762e-21)
(8.43657 -1.03403 -1.09717e-21)
(4.15504 -0.663988 -1.71011e-20)
(9.44773 0.678321 -2.737e-22)
(12.303 1.97028 9.87651e-21)
(7.9774 0.32197 0)
(5.28605 -1.13137 -4.47247e-23)
(7.12141 -0.55062 -3.89232e-22)
(8.97385 -3.24061 5.56687e-21)
(-7.70781 2.77906 -4.63423e-20)
(8.00085 0.0282983 3.55095e-21)
(10.3524 1.26 2.12827e-22)
(9.08807 0.110508 6.73028e-23)
(9.86868 0.815564 0)
(2.70735 -1.47873 0)
(5.83297 -2.73502 7.40459e-21)
(-3.81085 4.47797 1.82927e-20)
(7.49942 0.113479 1.22457e-24)
(7.88668 0.193124 1.49212e-20)
(5.5976 -1.32503 3.25128e-22)
(5.76621 1.07512 0)
(7.13569 0.333236 0)
(6.37234 -1.28941 -1.67642e-22)
(9.64411 -0.104507 9.16375e-23)
(7.63031 2.58082 9.52871e-21)
(9.30262 -0.513798 0)
(10.0437 0.0617137 0)
(8.25872 -2.10353 2.79939e-22)
(7.9353 -0.591187 4.57525e-21)
(-0.415373 1.83385 -7.1689e-21)
(9.11309 -0.601305 0)
(11.6968 -3.7605 6.40581e-21)
(14.6206 -4.12411 -5.66745e-21)
(-4.33922 8.61469 -1.62532e-20)
(7.95101 -0.100882 -7.23498e-21)
(10.5682 0.62258 0)
(12.9686 1.53573 1.4226e-20)
(3.60557 8.54584 -5.79099e-20)
(-1.16994 0.342557 0)
(6.67233 0.134653 -8.48474e-22)
(7.66612 0.395788 -5.08091e-21)
(7.42602 0.0739268 -3.80307e-25)
(9.30093 -0.687133 -4.14523e-22)
(5.4335 5.80519 8.82999e-21)
(8.48669 0.0608371 0)
(4.08887 -1.39109 -1.75876e-22)
(5.04467 -1.07021 -4.20542e-22)
(6.87692 8.92635 -1.51085e-20)
(8.15516 1.21305 4.56379e-21)
(-5.18605 -0.957638 1.64803e-20)
(8.00905 0.0443087 -1.63295e-20)
(6.98838 -1.13221 -4.90892e-22)
(7.08018 -1.20266 6.69056e-22)
(6.83975 -1.48498 0)
(7.37399 -0.066451 -1.90176e-21)
(4.45688 -1.98988 6.40506e-21)
(8.77629 -0.324306 -3.79383e-21)
(7.93841 0.131754 -6.68968e-21)
(11.8405 -1.21508 7.05085e-21)
(6.63472 -0.554683 1.70269e-20)
(10.1403 0.192227 3.04976e-22)
(7.09539 0.387957 4.46837e-21)
(5.6646 0.563709 -1.44393e-21)
(12.5425 1.43239 -1.85707e-20)
(9.48682 4.39192 -3.24787e-21)
(2.78841 4.56779 7.67007e-20)
(8.0407 -0.0689975 0)
(5.52997 -1.93635 0)
(9.03273 -0.443511 0)
(5.18814 -1.41106 1.36988e-20)
(8.19676 0.0588779 -1.05967e-20)
(7.14909 0.868173 0)
(6.03155 -1.15567 -1.00176e-20)
(7.15015 0.785212 0)
(6.91829 -1.08835 -6.79149e-21)
(10.2476 -2.98093 -7.31292e-21)
(7.3421 -1.74382 -4.3203e-21)
(8.60693 0.0704349 0)
(7.76998 0.11801 0)
(9.66992 -1.12212 3.08658e-21)
(10.1183 1.35605 1.84423e-22)
(11.1404 0.185622 8.22201e-21)
(8.79279 6.94312 -6.47778e-22)
(9.18623 -0.558417 0)
(6.87543 -2.39456 -2.43884e-21)
(-2.91704 6.07086 0)
(2.94037 3.00284 -8.9213e-21)
(10.5913 5.06594 0)
(10.2074 1.17212 -3.80952e-22)
(4.55676 -0.50455 6.45642e-21)
(6.0549 -0.4833 5.88715e-21)
(8.71243 -0.675577 -3.0964e-21)
(13.9644 3.91861 -2.34366e-19)
(7.83152 -0.687139 1.164e-20)
(8.17961 1.28222 -1.80457e-22)
(10.8595 -1.71499 1.72389e-20)
(7.93259 -1.52924 -1.80764e-21)
(-2.06766 4.51221 1.39221e-20)
(10.294 2.1152 0)
(7.90635 0.128382 9.57222e-24)
(6.18261 -1.43304 0)
(7.0654 -1.11508 -7.23132e-22)
(6.9679 -2.38103 -1.17162e-21)
(6.69469 -0.463457 -5.5468e-21)
(7.42893 0.0742122 1.86919e-24)
(10.572 0.324738 -5.8079e-21)
(6.61402 -0.113223 1.20435e-20)
(9.39491 -0.279409 -4.56158e-22)
(6.15202 -0.0673349 0)
(1.75146 -2.03537 0)