/*--------------------------------*- C++ -*----------------------------------*\
| =========                 |                                                 |
| \\      /  F ield         | OpenFOAM: The Open Source CFD Toolbox           |
|  \\    /   O peration     | Version:  2306                                  |
|   \\  /    A nd           | Website:  www.openfoam.com                      |
|    \\/     M anipulation  |                                                 |
\*---------------------------------------------------------------------------*/
FoamFile
{
    version     2.0;
    format      ascii;
    arch        "LSB;label=32;scalar=64";
    class       volScalarField;
    location    "3.2";
    object      p;
}
// * * * * * * * * * * * * * * * * * * * * * * * * * * * * * * * * * * * * * //

dimensions      [0 2 -2 0 0 0 0];

internalField   nonuniform List<scalar> 
13486
(
9.7847
8.01288
0.17092
-4.34256
3.07036
-1.14861
1.25326
5.51768
6.60021
3.68799
-41.8194
1.52685
10.338
-0.848806
2.41071
4.09962
-21.5034
0.371495
2.12885
8.86446
-2.75897
10.2157
7.83558
-12.7496
3.53403
-11.538
-23.3147
-4.94507
-0.000553515
-4.55561
-1.74145
1.76582
-9.30719
-3.14858
5.5259
0.032571
-0.163299
8.0344
-0.797177
6.58589
0.894546
10.7532
0.121078
3.45654
3.28591
1.43064
-15.3794
0.00190815
-0.158202
-4.55246
5.70443
-0.853104
1.14906
8.13527
0.130511
3.37426
0.106396
-0.867863
-8.82818
-0.207725
-49.6714
-0.164014
-11.9984
-2.50001
-8.36824
-0.156493
-5.68768
9.86481
6.55168
-0.32959
-5.7886
0.210554
6.61647
-20.6752
-0.113142
0.119872
-0.110608
2.3533
-15.4734
-1.11929
0.00576194
8.0915
-11.9738
0.20205
9.82552
3.71922
-0.618966
5.38127
6.55562
4.15252
1.29752
4.75792
9.38567
8.47442
6.88709
0.0115006
-23.609
-8.31425
6.46944
-21.1839
0.0438387
-0.518957
-8.29777
-0.838999
4.32751
-21.0214
6.58334
-0.822113
-16.3895
4.34873
6.39392
1.3843
8.13147
0.142813
11.5072
6.70085
3.56932
-2.97517
6.67961
-0.116553
0.373641
-47.0331
7.20148
-0.819541
6.34337
-0.804172
4.59061
1.49594
-2.627
-5.77747
-0.77788
-13.4571
-28.1412
-14.6986
5.98164
5.47494
11.5365
4.53108
-0.116738
5.647
-7.28374
1.16412
1.75969
-1.1581
0.148317
-17.6493
-0.461617
7.10677
-4.8975
-0.00404891
3.70355
2.20375
0.00539266
8.25514
1.87495
0.136076
3.59991
-0.303526
7.27122
-2.95697
-3.46151
7.26393
0.938875
10.6939
-0.867667
-2.01555
0.0419047
13.1946
-0.443432
-14.9436
-27.8319
1.93396
4.53366
3.37472
-0.00973723
-26.0866
-1.39856
-8.31376
6.59098
1.81388
6.14216
0.139132
2.72786
-28.3981
0.159596
-4.91388
0.00931937
-4.10056
1.17597
7.02482
-0.132812
0.159726
-0.993527
8.55856
-1.12313
-39.9958
-6.31759
-3.77267
8.85637
-1.69293
-1.87714
1.39554
8.04568
2.55823
-2.3591
-1.16191
0.190435
7.16605
-0.928002
0.188004
-4.42295
-8.73309
8.74504
6.58694
-1.11871
-2.30375
-4.72523
4.31162
8.89691
-8.8602
-21.4203
-5.02342
5.80104
-3.75665
0.738797
9.61004
-2.29739
-6.36508
-1.83621
-0.655094
6.06626
-1.46269
-7.6086
10.9708
-5.65434
9.20059
-3.48692
0.165527
9.2919
2.83281
-9.58048
4.43221
0.178322
8.78748
-0.799891
7.55783
2.90603
-7.31721
-15.3861
3.90002
-19.5474
11.6335
6.44481
-0.841644
-1.46151
-32.8444
1.70622
-2.19297
-0.211039
-9.38415
7.27704
-0.782462
2.35119
-30.445
3.5715
-28.738
-1.87586
-2.3512
6.22745
0.241272
6.77453
6.41973
-4.91484
1.14685
9.62485
-6.74908
-1.47115
-1.05466
-0.910844
-0.383878
-1.24885
5.368
6.63554
-23.2066
-43.6599
-21.3732
-6.74623
-2.76674
0.729149
6.2878
-5.16162
-0.739485
6.91661
6.03723
-3.3311
-3.78875
-3.65583
1.01775
6.77685
1.05038
0.895835
0.212456
-0.459446
1.88272
-0.181392
2.64333
-1.38684
3.08795
-0.63205
-0.13946
-13.5604
-4.03222
-0.333536
1.39201
-47.8597
5.59886
-0.814755
6.57635
7.20769
-2.17221
-0.153853
-0.621889
6.52652
8.53979
11.4381
1.38551
4.08334
5.23922
0.534994
3.7497
5.43263
4.50068
1.17387
9.17265
1.1915
6.48828
11.9422
2.38244
4.04433
-0.78233
-2.01934
8.45827
3.58368
2.79586
-31.9073
0.00428374
4.30661
11.5151
-8.91877
-0.784007
4.08724
0.749055
1.07771
-24.0604
6.72698
-0.0489299
-21.8105
4.46179
-0.675025
-8.19383
2.21234
1.17251
7.37859
6.441
-4.74625
0.00439475
-3.61308
-14.4498
8.96174
4.51938
0.0939044
4.39274
0.676375
-23.1444
-0.713408
5.8412
6.55165
-0.744649
-45.1938
-13.7548
6.09855
4.43939
10.3439
7.14515
-15.1142
-1.55643
0.318612
3.93298
-21.635
-1.13939
8.5968
-5.33656
2.7965
9.3507
9.71453
-0.0733575
-4.80312
-21.9987
-21.7693
-7.18323
-21.8292
2.19421
5.73841
-1.43998
1.43113
-0.0782642
8.33548
-8.13091
4.62332
7.5565
3.79207
-3.44649
-5.71818
6.79478
6.50988
8.28324
-27.5377
3.67703
-26.8293
2.94129
6.5898
0.676179
11.5542
4.24947
-2.9021
-3.9201
1.36837
6.63559
-22.6303
0.505781
10.1029
5.76594
2.73626
0.656615
2.93602
-7.96859
10.3123
-0.733514
3.5785
9.70052
-21.8264
-4.97474
-13.9424
-5.85619
-1.22526
7.76043
7.9152
10.1677
-14.6193
-0.142168
-32.9579
4.1327
6.70436
-4.49372
-4.98061
6.38361
-18.0532
-26.746
-26.3141
-17.2228
0.122495
8.23424
-0.00502201
0.603631
-3.0979
6.31463
0.00110992
12.5638
9.51677
6.62121
5.33307
0.0113373
0.00477921
11.865
-1.60941
-0.108708
-2.82913
6.55305
-21.2034
0.943671
4.62804
-0.0731792
-2.72927
7.76782
-8.26436
-21.6755
4.24566
-1.25507
13.1464
4.32281
5.77603
7.17442
-27.8011
0.422037
10.7277
3.20951
8.58573
1.28911
1.8225
-2.73596
-1.13033
0.105073
-20.513
6.84445
6.5566
-20.1766
0.00482408
-1.39186
9.80071
7.78147
-1.55047
6.67634
4.70689
-2.5324
3.66057
5.86406
-27.8206
10.1864
-0.0205275
-0.300729
10.6418
4.52924
0.0138081
4.16958
-3.34353
-15.076
2.54452
4.15925
7.30326
9.40765
-27.1958
2.87007
-27.3242
0.0125334
9.18851
1.85504
-28.2312
-9.29963
0.645429
-0.250577
5.2619
-7.67991
-4.77365
6.69684
9.06448
-0.811605
7.23877
-16.6063
-26.1079
-5.91666
2.61668
-33.6882
7.19111
0.333602
-51.9935
5.53931
7.71917
-9.59392
-27.2599
5.79603
9.16877
2.20232
9.87397
0.373936
4.43952
1.48268
7.30438
0.138049
8.92072
-23.7211
2.0551
6.32169
-2.42075
-6.35812
6.5067
-22.1981
1.0805
7.76595
10.2135
-3.31413
-0.158973
1.92627
0.943441
5.78734
4.94425
2.17785
-29.6969
-0.0151681
9.744
1.00507
0.748405
-20.3315
10.284
-3.01669
0.135697
6.28338
5.20119
-1.15289
-0.773744
5.6408
0.349621
-0.49727
2.49658
-6.4315
9.93127
6.50633
4.37474
4.54899
0.34457
-6.68444
11.1402
1.99222
11.1734
-5.45214
6.34192
0.0101133
-21.0308
3.99316
3.88417
11.6829
-16.7242
4.23514
3.92318
-9.63676
3.71368
0.354947
-2.09576
6.34629
-27.6624
-6.0278
-8.40985
-0.416929
-2.68412
7.11568
-0.00365863
10.8844
6.5077
-2.04504
-24.7863
-4.29654
2.13573
-41.763
-0.892093
-20.886
9.13259
0.00413782
0.124863
-47.2798
10.37
0.00269397
0.925878
10.6548
5.78834
-26.6375
-0.825408
4.52714
0.471752
6.31728
0.165025
-5.04678
2.45667
5.89911
1.91142
5.23398
10.8173
0.138693
-16.5888
6.49688
0.704466
-1.46654
4.35377
4.88667
2.96546
-26.7288
0.332083
-0.718005
0.664212
9.16982
1.98262
0.447578
0.254268
0.485249
-1.24382
6.77638
-0.685773
6.19781
6.14349
9.15773
0.454677
-3.82803
11.0831
0.0816957
-17.0569
6.85373
-7.87586
7.49455
0.140415
6.29409
-1.45558
-17.0435
-10.9115
-0.00263443
-21.587
3.60323
11.3959
-2.64609
-17.0553
-2.63205
6.94723
0.104303
2.91272
-50.5687
11.3019
-26.4175
3.3415
-4.8236
3.92407
6.62101
2.86853
-12.4051
-1.94137
10.5105
6.50572
2.70617
5.80865
0.127326
5.04715
5.16847
3.85885
-13.5526
-1.46902
8.24648
1.27865
-0.929603
5.51473
-15.0479
-2.53882
-0.617842
7.07878
7.09392
-10.4833
0.270824
-25.148
-2.18479
0.382363
-2.60273
1.19249
6.28284
-0.178341
-5.27997
7.64777
-0.403374
-4.14877
-0.510683
-3.29641
-10.3362
-9.5288
-0.715892
-39.5567
6.29297
10.3031
-0.0930466
-4.10658
10.6846
9.99144
-2.98304
-6.1884
6.75707
-19.4683
0.14237
0.0509031
0.30858
3.59188
-21.6355
2.87143
4.48229
-2.93435
-1.75932
-10.7755
-0.974222
5.58194
3.26473
4.09576
-13.3517
5.88422
9.80538
-25.0186
-36.5837
7.34835
2.32567
4.074
-0.77865
-4.35473
-14.445
-0.779944
6.71504
11.1876
7.1821
0.323963
-0.739142
6.54924
9.51554
-0.698888
6.9926
6.50074
9.96718
1.41256
-0.662454
0.901289
-2.07639
9.95076
0.304644
0.288611
4.25762
-1.47678
1.43178
-0.69946
-6.89095
6.29287
5.09081
4.57113
3.2077
-10.2104
-1.89032
-2.40625
3.61149
-6.91304
-2.28531
0.154417
-45.0331
-54.4681
3.50055
-4.35149
-15.2111
-10.8494
-3.06529
4.87723
-35.6744
-24.3257
7.38016
-3.82428
10.2561
-6.19604
-15.7305
7.77505
9.22883
-0.0980923
0.456774
1.51396
6.82253
3.66695
-10.8402
-1.12
-0.179172
-1.58178
6.30422
0.131904
3.88342
-0.656624
6.56119
-22.5834
0.15104
-0.0357828
7.94287
-6.04276
-44.4421
-19.7764
10.1277
0.186319
-16.7395
-41.0716
6.49297
-19.1258
-0.653116
1.3716
2.99746
-0.15463
4.3718
-7.7212
5.60694
6.35235
7.5584
2.9926
-0.402475
-2.99658
5.03243
-1.80441
7.90339
4.74896
-1.14811
-0.860643
-1.64047
-0.530458
-0.156048
7.48657
2.57618
0.77485
6.53319
0.299608
5.12821
11.5569
-0.696067
-8.48285
4.51662
-0.263682
-0.614409
-1.73044
-3.03753
6.50661
0.154221
0.0821645
0.130567
0.532482
8.40836
-25.5191
0.00161196
6.56861
-0.197215
9.3984
7.59351
8.73292
1.51679
4.37636
1.91419
0.0882045
4.85472
6.34631
-1.65636
-2.44627
-9.77224
-4.48149
-44.8481
6.48535
-15.631
-11.5062
-41.5597
-1.56494
-0.0683145
6.61879
0.00373764
1.24225
-13.9621
6.54598
11.4254
-0.154092
-46.0344
3.791
-0.296722
6.38229
-2.57379
-0.79975
7.8671
-0.91211
10.8451
4.32901
6.49728
-4.2093
8.51139
0.140374
7.64462
-0.032217
-9.74193
-1.23922
-18.4825
4.18213
-0.352302
-1.28918
10.1737
6.52886
7.18495
9.25791
7.30922
7.92979
-2.3418
6.79758
6.54535
6.73041
-2.16251
-2.3019
-5.10561
-4.56652
1.59625
7.34114
-16.959
9.87084
-5.39563
0.156958
11.1131
9.3743
-2.40925
-12.7636
6.52658
3.49436
0.0643947
6.10119
-15.3776
-2.70955
6.47567
9.04534
-0.787523
7.22815
8.41687
0.00683247
-3.3313
8.48225
2.76487
-0.141451
-30.5331
0.160383
-6.67698
6.19942
4.93586
-0.330937
-0.748868
-5.37405
1.60623
-0.532229
1.4124
9.60739
-0.741367
12.3591
6.52751
2.01461
7.35517
-27.1551
-21.4204
-17.5471
6.50106
-0.792544
-13.1726
-1.6861
3.2194
4.03412
-0.770082
4.69259
-17.0138
3.2083
0.210032
-0.727538
5.11604
1.95147
8.48142
6.69277
6.98588
6.22303
-2.44217
-7.89979
-5.95987
0.283653
-4.29792
-0.0978305
5.00354
-2.82517
-0.360473
-0.363428
0.912507
-53.0671
4.43272
3.33916
-2.47853
-5.69497
3.02443
-4.77494
-8.22283
0.857409
-0.375645
7.21633
4.88436
8.41841
-14.0751
5.92115
0.141516
9.17488
-0.113709
3.49976
0.456476
-0.984817
10.6224
11.0233
5.33473
3.57723
4.52034
5.95462
10.749
4.38388
-8.3668
-48.0179
1.18309
-4.5066
-8.7269
6.53185
6.32946
-0.177342
1.70664
5.51897
5.86653
11.6838
-17.9392
5.25001
-22.1826
-0.483585
9.42677
-1.64316
5.38729
-2.02207
2.5098
2.45866
12.1673
-1.0965
-5.15366
3.30073
0.929192
-32.8184
-15.7196
0.448391
7.35323
-6.00785
3.55778
9.97385
9.19411
-1.21291
-11.8001
-1.42855
1.29003
7.69214
6.17322
9.10747
3.88129
-42.5781
9.54748
5.91897
-9.98211
4.95662
6.77935
8.24644
-44.0697
-1.68883
0.00951024
5.62701
10.5121
3.3539
0.924744
-6.70034
11.7333
-29.4519
-7.0811
10.965
5.77347
0.171307
5.12067
-5.19277
3.43909
-3.71313
-30.8142
-0.728657
-21.277
0.165992
-2.87565
-20.7845
-21.5773
-11.4567
0.155937
-21.6459
-20.4337
5.51013
6.13808
3.47983
-16.8875
1.62689
1.1608
-2.50572
12.294
4.21135
-5.3624
5.76284
-3.64128
-23.1705
5.37117
5.36704
6.32383
12.4139
0.0133377
-1.62571
-13.3133
0.201105
4.35932
6.42681
-2.68666
9.69348
4.80899
6.9567
-2.76429
-1.10845
0.154671
6.74312
6.57201
7.02865
6.57146
11.4442
11.2414
-3.76467
5.80345
8.36538
-5.19743
9.08745
-0.624944
11.1107
9.01095
0.147156
7.5096
3.32436
4.90861
-0.0179113
6.74471
-7.57129
5.61578
2.22388
4.39612
-1.17047
6.41695
-0.496081
1.58177
10.7331
10.7308
4.23696
-14.5945
1.4639
0.360242
-1.52687
5.48681
9.5877
-14.3039
6.7476
6.17383
3.06895
6.69365
-36.6953
-2.04999
-0.363929
11.6114
1.76419
-1.84655
7.66316
-1.19302
0.128673
3.21368
1.17844
5.06407
2.63393
-4.23542
3.77749
5.19202
4.17285
4.80864
11.2793
9.27668
8.15645
7.72686
10.5154
3.01866
-0.675117
0.147326
-6.06042
10.5851
-2.85072
6.43815
5.78281
-27.2548
3.25987
7.21539
-12.549
3.13251
4.41127
12.571
-24.1395
2.74364
0.0721523
7.50112
0.124904
-5.69649
10.3994
8.88838
6.23249
6.48529
-4.17254
3.08816
-20.6165
11.2163
0.00803836
12.0743
-0.687436
0.900181
-21.5431
3.53327
-20.1066
1.14687
-0.940221
2.33617
-0.53968
2.23442
-7.46831
0.00304886
-2.47465
-13.6952
-4.75318
-11.1977
-0.62317
-1.1729
-2.53317
-46.2245
6.67503
6.80471
8.50613
6.39715
2.5154
2.4252
13.1231
6.28056
-22.5527
-0.00460401
-0.768175
5.12366
5.67037
9.71951
-6.44892
-6.4906
5.36307
0.00510352
1.54462
8.3157
-15.1656
-30.8131
-20.7862
11.3474
-8.20944
4.35192
8.3506
-1.07239
5.10437
-0.428786
-28.956
-25.5999
-1.43905
4.46286
7.75542
8.17839
-11.4131
-14.1322
4.29101
-17.0301
-4.78027
-2.49074
1.27419
-3.65946
-0.715714
-9.32095
-24.6671
-11.6407
10.0517
-3.05606
10.9483
-35.1843
-1.5042
2.36017
0.129217
9.26217
6.41739
7.87135
-0.366718
-3.76681
-31.2555
8.94385
-13.4633
4.81944
-0.675033
8.13215
9.23323
-0.682296
6.49845
10.5144
7.1286
7.02355
-11.6448
-0.784244
2.60262
-7.37519
-0.932681
3.87828
4.68632
0.131032
-35.467
1.39154
-0.409489
5.68173
4.81615
-4.60427
11.0733
0.160324
0.00818352
0.811536
6.35039
-5.76821
0.009639
7.05753
-3.39685
0.0727486
-1.69604
6.90926
6.37316
6.10868
-0.772705
6.21469
7.59951
7.30978
-3.59899
0.165011
1.61318
5.54555
-6.50013
-25.7094
-14.3888
-8.5687
-5.11914
0.0463382
-0.878087
0.118854
-16.0957
-4.99714
-57.9454
-0.568135
-3.99579
2.49398
-29.3684
6.97441
13.272
2.39154
-2.3894
3.05929
0.865729
1.46348
0.0665148
-4.49375
-37.4822
0.460052
8.59684
0.00716008
10.3305
0.0872347
6.08872
5.28484
2.75695
-22.4139
3.80326
11.4183
-2.55515
6.41413
6.2966
9.66921
0.500473
8.84586
7.0301
-20.8367
7.48898
-24.7594
-23.5719
9.0604
5.78793
-10.54
0.622359
8.48223
0.668012
-12.9876
0.130185
0.14353
5.26795
3.48541
6.65014
6.09851
5.45233
-14.062
-4.94829
-3.37479
6.51745
12.0917
-5.0614
-25.8999
-22.6273
6.55924
0.309696
0.354663
2.78061
0.355327
4.9672
-1.43908
1.41535
10.1387
2.78421
0.292245
-2.04014
-12.1409
-8.16531
-22.1391
-11.22
-32.1943
7.88616
3.48631
-5.65001
10.5758
-0.0023286
-32.2453
-2.6692
-24.7428
7.02069
-13.671
2.22453
6.44022
-0.785687
-3.6808
-1.01909
-23.2901
-4.5929
7.21564
-55.5336
-0.524691
-20.6954
6.30547
6.99134
-8.81283
8.25762
7.60293
9.96167
10.2051
7.21249
0.984042
11.6134
-20.6817
6.31964
1.02557
-45.6232
8.08919
-12.1535
10.0025
3.14874
-7.64788
-20.3357
-12.2496
7.05205
-14.4095
-4.60542
-0.399834
-3.98576
0.291086
4.12016
1.2163
4.63439
11.3353
-16.2372
-11.1223
-2.44249
6.80186
5.12962
-7.53355
13.0941
-0.654139
-0.356997
4.50975
-6.8865
6.22026
6.65748
7.44748
7.59801
0.370799
3.35798
6.16672
1.32799
-1.54807
-0.00609156
7.0323
7.3107
9.01781
-1.83962
0.151284
3.36288
4.00125
1.0869
-29.9977
5.53939
-2.61453
5.71543
6.77671
-21.4951
10.3367
-11.8461
11.2336
7.38074
-54.7704
0.018766
-0.140297
3.00206
6.94416
-47.0328
8.85057
6.27776
3.31751
0.118523
1.22026
-1.24516
3.34556
-21.1428
4.00474
-3.9558
6.37918
-25.8086
-0.657753
-3.23039
8.10078
9.3759
3.61922
-24.7116
3.27606
-1.25617
0.0603477
3.63216
-1.42901
-1.61105
10.946
-3.23867
-0.447267
-7.25315
-26.8366
-0.878136
6.53164
-21.3644
-2.6844
6.92669
4.0679
7.01351
-19.1087
2.82848
11.0867
-13.7076
6.43268
1.9272
-1.27129
2.29048
1.38283
-3.20153
11.3131
7.41508
-0.185198
11.0102
8.46968
8.07843
-16.8649
-25.1896
4.1963
-8.1912
-0.812247
-14.6252
-6.98347
-13.632
5.04654
2.38613
3.84053
4.2377
-1.26959
4.91411
6.61222
-34.8469
6.83546
4.14965
6.43155
-1.27113
-0.0773974
-9.07751
-22.3549
-16.0598
-3.10665
6.53687
-50.2202
10.0253
-26.5704
6.24493
3.97772
-0.399051
0.883979
6.62923
3.19728
1.52491
5.77531
1.08023
0.28658
9.49681
7.95905
-8.06701
-20.835
-0.357379
5.8536
0.0944063
2.88364
-11.3102
-0.0123634
-1.44116
-2.05996
5.57681
5.51198
0.835888
3.16716
-0.114637
-0.465195
-47.9135
8.20403
-11.1133
6.41312
0.00585827
5.67628
6.8812
3.78525
5.95467
-0.0687509
-7.54717
-0.619535
-25.9438
-13.8534
-10.6134
0.0907482
-1.31913
5.35621
-0.437209
6.31967
-0.775597
0.275735
-10.4219
-0.594655
6.73903
-25.474
6.26674
1.51623
-33.934
-0.577786
-12.2072
4.43083
6.63428
-0.473579
1.11979
-22.3838
7.67139
0.106186
1.88159
-31.0844
8.17929
3.07688
-0.00335837
6.9627
6.69523
7.87906
1.86106
8.20967
-14.6335
-1.09825
-1.26572
6.32088
4.21462
1.62449
0.491536
-20.9416
-37.5732
3.41967
0.0709589
-44.3696
10.2668
-12.7534
7.74494
4.56386
-4.68496
-0.726651
-4.26803
-1.07928
0.748864
0.888691
6.19235
-0.561082
6.55054
-10.6999
2.66258
-1.56834
1.44654
-23.7056
8.15117
11.116
7.11701
3.68666
1.29141
4.55182
-22.3609
-0.145958
-0.848751
-1.47178
-9.4628
-57.584
-26.3591
-5.40801
5.70535
6.4131
-13.7751
1.56574
7.41966
-4.78851
-9.68215
7.06443
-0.720228
-42.0916
0.119739
-1.72722
0.0119405
10.4896
-0.907789
6.22346
-6.62015
-4.52584
-4.66996
6.26988
1.53865
5.32452
-4.97897
-6.11773
-2.99975
1.04564
7.6202
5.62708
1.16326
-0.869122
-3.2787
11.5343
-1.81095
7.34273
8.14337
0.106478
-0.864426
2.87313
-23.0126
-2.31052
5.76767
3.98748
6.20316
-18.5392
7.17496
0.806486
9.35372
1.08307
5.8573
8.2493
5.52751
1.23326
-27.1132
2.14495
-22.4253
5.65537
3.08276
7.8459
0.532116
9.92505
1.0425
10.5864
0.0140005
8.22016
-0.979758
4.76194
-32.8111
6.24591
3.02171
2.92295
9.90037
6.50472
1.55951
-4.76411
3.61314
6.13573
-0.582177
-21.6117
4.55367
-6.35071
8.46806
-9.46066
10.0843
1.67612
13.2525
10.1778
4.78033
4.25433
-37.0518
0.321847
10.8111
-0.419101
-0.453655
-1.31999
10.7363
3.45185
5.49085
9.3071
-4.76351
7.04788
-2.60506
7.7385
0.122588
7.33004
6.55799
9.04875
-0.685268
-13.3299
1.79564
-13.4349
2.90602
1.06228
-1.59888
8.54232
9.49017
0.0739241
2.12339
-2.37175
8.53511
5.25529
5.88637
4.07937
-1.07347
-25.0337
-3.39893
6.7203
-10.82
-0.398742
1.19889
4.46939
2.97679
-4.89178
11.4355
-1.18078
10.0219
1.89369
10.264
-4.43819
1.39958
-0.301483
0.159326
5.3865
6.41131
0.41094
-0.298054
0.0126837
-0.540688
9.47429
-2.02554
-0.0312599
-1.34305
-0.206847
2.26476
7.97432
2.93885
-1.5691
0.0018566
6.49267
12.1093
-14.1179
-3.47322
6.25687
-0.0244082
3.26876
-0.73297
4.68482
-0.23992
-18.5765
-0.770204
-2.57077
-1.52079
-0.428374
-14.9887
-14.1694
0.120317
5.10357
6.91344
5.7023
11.7794
-49.7819
10.7003
-22.0439
10.1436
-48.1179
-5.43513
11.391
2.79752
-5.43525
6.58667
-0.74419
7.12944
-1.74698
-20.8761
1.0095
-5.28974
-6.62543
-0.00146753
-1.53631
2.65577
8.12707
-48.9501
2.91072
-10.557
1.56026
-1.26867
-0.56765
0.764247
-1.36776
-8.64096
8.70651
-0.358754
9.51517
2.37374
-24.7734
2.39237
-5.48463
-0.26972
5.61891
8.13546
11.7802
5.01219
5.68526
2.90982
-16.1446
11.4046
12.174
7.16728
-4.2468
-17.9331
-23.3237
5.93446
4.1947
2.28784
5.67142
-1.95074
-0.43925
-36.8268
9.85762
0.787731
0.743997
-6.58974
6.25308
2.14929
12.9503
12.1521
5.65602
1.12404
1.61305
-17.4356
2.91026
12.4644
0.353401
-0.234828
4.7248
0.0376863
1.26876
-1.23696
-2.10881
1.30519
0.911537
2.7869
-0.0172918
2.15149
9.08696
2.0839
6.87025
-7.7174
-2.56348
11.0292
-19.4449
1.083
1.61501
2.95313
1.58348
-10.0516
1.30773
-1.70892
1.04996
13.0344
-21.9745
-13.8811
-16.1034
-3.77357
0.0881919
1.61641
-7.64431
-13.3602
-0.00726374
-12.1893
-5.09172
-7.15212
1.55848
-1.43235
0.546346
12.7512
0.742611
1.77519
-1.49334
1.35821
-13.6205
-3.22069
9.02976
6.48438
1.83404
-0.197736
6.13444
6.91418
-0.0196602
-52.7796
-0.956055
8.99663
-5.06998
6.05989
0.15608
9.98251
0.714829
-9.05715
0.497233
7.10366
-4.41638
5.86449
-4.81693
12.3523
-6.82098
-1.83697
-37.6725
3.27559
-10.3946
-5.92499
-7.47072
0.583549
2.96056
-21.639
-1.53199
-1.11433
1.23522
-7.61659
-5.23782
5.02639
-22.4649
5.56749
-8.31138
7.17296
11.3434
6.08135
-14.106
6.53438
0.495532
1.15796
-1.21899
-2.8265
-21.3503
-1.17805
-3.76215
2.89869
-0.0269315
-3.37927
-0.956409
-31.7129
3.2243
6.50245
-5.21304
-11.3482
-2.36259
-0.0554903
-0.291435
3.74492
-10.1595
-12.4165
6.75169
-0.944682
3.76508
-7.94223
-37.2581
-30.0028
-51.969
12.7608
1.97154
-6.20285
2.32952
10.7278
11.0542
-10.5866
-2.6844
6.448
-0.423933
-1.01155
11.0079
3.54484
5.79668
12.9638
-1.76408
1.88444
0.973921
9.80622
6.758
6.71619
8.36704
4.65582
0.096889
0.15002
3.10164
1.48646
-22.4762
11.2193
-2.12039
-3.10093
-0.022224
-7.03461
3.11412
-6.63211
-2.95536
1.53963
6.75822
7.08114
7.45946
-21.7957
9.6826
10.9228
-14.5994
3.92275
-1.08706
-0.601573
1.10314
3.96772
-1.24348
-4.83142
-2.87702
12.1005
-24.7453
7.49048
6.54223
8.66837
4.86049
5.03363
-0.297606
0.0862754
3.88381
-0.860403
-26.4688
-10.033
0.093225
-5.5951
8.00458
-19.3566
-0.429462
1.50138
-13.3179
-8.63082
-21.3045
5.61889
-2.61305
-0.730025
2.90122
-21.0208
2.23182
-13.9605
-1.09136
7.0164
-29.1907
11.2006
-0.0224371
11.8505
0.00371125
-0.851287
0.840438
5.76218
5.49105
-13.1548
-1.39832
-1.12199
0.643474
4.48026
12.9543
8.70549
2.07293
-4.81777
3.32783
0.210288
7.46838
-0.450754
4.01604
-3.78956
-6.69166
-13.3456
2.45655
0.0892794
-13.4609
4.32069
3.96255
10.7978
11.5847
-21.838
-21.3224
0.371502
-6.20971
11.2846
0.138783
-2.14666
2.88208
4.7598
-3.4656
0.0931969
0.663893
-0.708183
5.97227
-2.33669
1.88079
-0.0922929
-4.91853
-11.5751
-1.7155
-12.0887
-10.8374
7.17238
-12.269
-7.74838
-2.89765
0.433915
12.2643
4.88372
6.12899
-3.2403
3.23083
-0.435466
2.58157
2.04949
-7.55797
-23.3545
11.2598
6.9099
-0.145026
-18.3477
12.6946
-9.51664
-26.8294
-3.27719
3.20814
-11.4412
-3.35318
9.72968
-0.514711
5.93573
2.67426
-4.63234
0.541002
-0.813861
3.094
-13.2556
0.0443004
2.19226
6.33002
-13.2663
-26.8208
0.172295
-4.1448
-7.25634
-6.66565
11.9429
4.39629
-47.9069
3.00929
1.67651
10.5315
3.57926
-23.3196
3.93122
8.31109
7.1319
-5.47531
5.86035
-0.342015
11.1702
0.0868118
6.75925
-31.9261
-4.9441
-0.0423992
-4.93937
3.86513
2.32669
-22.5916
-13.8121
7.64516
-0.325365
-0.678338
9.12297
5.19047
8.89074
6.0668
-6.38828
0.0551177
0.208212
6.38638
0.0082399
8.08685
5.08326
11.0429
-6.21367
8.65341
3.34489
11.1826
-4.2504
-4.55229
11.403
-6.77549
5.03316
-25.8496
9.86886
11.01
7.06659
-10.235
6.41889
8.41076
-7.05669
3.12029
-7.55509
9.00973
-7.52892
-1.49776
-21.0426
-20.678
8.25835
3.18276
-21.322
3.2779
10.9958
-2.79801
-0.807112
-20.5744
-5.85307
5.51755
-1.63903
6.21251
6.02981
-19.6361
12.2722
-0.881961
9.40283
9.27786
-1.73105
-0.0675708
5.7168
-9.6923
-2.19941
5.71163
4.8512
-2.35023
6.05001
-3.26321
9.83242
7.14646
2.46132
0.0635346
7.28374
-1.51403
4.22008
8.66393
1.32022
-0.00850943
8.36633
6.9358
-4.98714
-15.5004
4.98597
7.26507
11.1451
-21.908
11.75
11.5779
11.9221
-0.750787
8.1055
-33.3165
6.5217
8.81639
8.57053
7.19353
9.60473
12.9447
5.76596
-23.664
0.65876
-23.2305
12.8088
3.40803
-0.431268
-10.532
6.32795
9.74343
6.11867
2.18242
-1.31753
9.64559
-13.2999
6.94319
-11.3804
2.99532
-0.467635
2.16718
4.12449
-29.0252
-28.6608
-1.14915
-3.94182
-0.447245
7.94456
-1.23257
0.609575
6.00426
-28.0059
4.10429
-0.0498685
-23.9878
-29.7605
-24.1414
9.15569
9.87249
-8.41963
3.24522
8.42238
7.88141
0.0754154
-32.2553
7.09201
-22.2752
9.02916
-20.7498
8.79946
4.33859
0.960438
8.21836
4.18604
8.54244
2.31399
3.12677
-4.38872
-14.4766
-35.8137
-0.916467
8.37177
-35.5708
-4.96423
-29.8213
9.4718
8.47085
2.56973
4.74401
9.46995
-10.5805
6.11893
-0.502754
-4.86473
6.09947
-9.05311
-23.4973
-6.24623
-22.0363
-2.93819
-53.3379
-0.566015
-25.1947
-16.3197
5.26665
11.2451
12.2486
10.6755
-41.0425
7.02207
-34.1932
5.95382
9.51296
1.12349
8.22757
-24.9897
2.26152
-4.83115
-0.558071
8.97729
-4.26218
7.35242
-21.7917
-1.74079
-21.5673
7.54288
7.29746
6.443
-28.5526
6.07767
-1.43111
-20.5859
-20.4276
2.09799
11.3103
-12.2713
-3.13896
-12.5553
6.31235
6.24288
-0.842028
4.12213
-27.0876
9.60892
8.87812
-4.05337
-1.45174
9.34512
-8.91612
-54.753
0.00478739
8.55884
9.6151
-29.8792
4.65539
-0.617432
11.057
-22.7533
-10.1193
-0.666945
10.369
-0.0775417
-4.24372
-0.56149
8.92764
5.21411
8.83211
-0.90176
-11.3384
7.2036
12.6824
-15.623
5.92644
-0.281556
-17.344
-0.151301
2.32659
-13.2935
4.57205
-3.40828
4.3303
-1.91516
-7.2175
8.07649
9.74472
6.03445
-9.12967
-9.1755
7.58853
-24.4365
2.36706
-4.85387
3.13318
-29.1456
7.21582
7.57878
-0.358867
7.14621
10.9413
-2.30847
5.32875
7.43356
-20.5595
4.18843
-2.98908
3.13454
2.3459
5.22153
0.0106725
2.17999
-2.17783
-10.1263
9.15396
2.57763
0.905041
-10.4046
-2.01249
6.75414
-29.1556
11.8786
-25.5683
-21.4901
-0.936195
8.35925
7.32741
8.75679
-19.3481
10.5324
-38.6588
5.21464
0.330813
-21.3885
6.09835
2.9013
-2.47935
4.36635
-24.5714
5.29971
-21.5442
-10.5633
-0.00263707
-17.8093
-19.6532
5.80233
10.7774
-0.874729
-34.2705
8.36705
-12.4503
9.79521
3.06863
0.170327
4.11292
6.60239
3.28245
-0.985617
0.324456
-0.229692
1.80974
2.61703
-26.1657
-12.7237
0.109471
3.9209
-0.139451
12.8537
6.98901
6.50312
9.92396
1.27013
7.34565
-20.3182
-12.542
-16.7665
6.4876
12.5629
5.9816
-4.93069
9.13322
6.18834
6.23536
-0.818247
-0.304852
3.37913
11.9489
0.153539
-7.07254
9.05664
9.36011
6.91198
6.36645
7.90558
4.35128
-1.70823
-30.2627
7.10032
-20.2049
-13.5681
6.46204
-21.9505
0.0242696
2.14107
7.08194
7.37617
7.40944
-0.355915
8.71254
8.94839
1.28854
7.8302
6.78793
5.73831
5.2668
4.48248
3.23078
-0.883826
8.32373
7.79205
0.368184
5.92932
-0.450088
-0.340204
10.6759
8.07816
0.0492934
-33.8978
0.729346
8.32954
4.60201
1.9524
-0.498939
0.613089
-4.46466
1.12342
-18.3516
-1.42013
4.87155
-1.74647
-22.4997
-28.6586
10.1216
-12.7524
-23.5498
-22.4284
10.8062
-1.81017
1.52932
1.53193
-21.1585
5.44687
6.13148
4.07293
9.55763
5.10155
0.0334804
-22.6021
-31.5146
0.0653607
7.68399
0.521983
-31.2362
-21.1988
-3.91159
-24.7195
-19.1948
-12.8912
-1.96492
2.51948
6.4021
8.50889
-2.99695
-0.538054
9.56946
7.22893
-29.3591
-0.355743
-22.5898
3.90311
0.43721
3.49086
5.57317
-0.210212
-2.20977
-3.17119
1.92535
-39.3987
-22.4612
0.0959647
-29.9848
-22.7258
-21.977
-28.9249
0.259865
-19.2884
3.20345
-29.3547
6.47334
5.81318
1.64214
8.4642
-49.7021
10.8642
-6.00088
0.336192
-5.8027
6.37489
3.80663
-14.5911
-15.8276
6.69284
8.00177
11.2498
-35.6064
-22.8743
-44.3468
-1.75118
0.0298637
-25.8404
2.32273
-21.5396
3.70416
-33.4777
5.04984
0.478977
-1.05816
9.82274
5.68062
-3.55953
-0.275357
-8.45569
-22.5907
8.62185
12.2955
-26.2592
8.01106
6.04531
0.00295347
-1.39144
8.23775
7.96115
-13.2644
-1.50532
-19.3805
-52.045
-5.31977
-23.0906
-4.48718
4.56986
-0.287075
7.2608
-32.6257
-22.435
6.14819
-4.75425
-20.9082
0.463703
5.27372
-20.6651
-3.03081
-21.1514
-25.5172
-21.0662
11.4326
-15.1477
-1.21872
-37.1083
7.07998
-21.0662
-0.540719
-13.1035
-51.033
-4.63346
7.31307
-0.000378801
-23.8595
5.52561
0.0151549
-7.27861
-22.8882
-30.0491
4.57489
5.29754
6.54408
-10.583
9.79339
-5.00137
0.012143
-2.23662
-11.0135
-33.2875
-27.2237
-19.6805
1.47347
2.71473
-0.73
-1.30984
-7.89005
6.02862
-59.2862
6.59588
-34.3655
4.15848
-2.88447
-0.979063
0.205556
12.634
-0.942895
-20.5782
-9.66027
-8.17399
6.4603
-0.998189
0.282606
0.0168806
-19.195
-34.2958
-16.6996
-21.9328
7.16581
-30.7784
0.910758
-19.3204
-0.424271
5.54127
-1.46832
2.79913
-3.06272
8.57622
-21.6652
-12.2436
9.18465
2.52718
-21.1929
-1.44818
-26.8729
-7.61011
-1.99327
8.3421
-12.2952
3.03224
-22.2841
-23.1057
-40.2475
-34.1528
-25.4818
3.86263
-2.0146
6.49762
2.73282
-44.6642
-1.78032
-40.3732
8.10996
9.7209
-20.8984
0.821459
6.92732
6.33039
5.12695
-16.894
-20.0882
-17.6917
6.5042
1.95249
-9.06677
-29.8673
3.64049
7.86598
-1.03599
0.325939
0.390632
9.05874
-7.50889
-7.9677
-0.405689
5.63674
1.02143
0.121813
9.85074
8.13424
-0.805621
-31.5513
8.24388
3.38945
-0.395643
6.06962
-4.41688
-19.5047
-19.6796
-26.5244
8.01539
6.96271
-1.38931
-4.93839
-0.0399232
-0.435208
7.07681
-36.8658
4.97913
8.63244
9.26543
-3.83406
6.52305
5.7102
7.26898
7.68994
-0.591545
7.71895
-0.00459475
6.55674
3.95878
7.05908
-28.4237
8.19294
7.77596
5.86893
4.52343
-10.8091
4.50803
-0.9476
-6.42449
8.86157
8.89337
-30.619
7.72057
-22.1445
-17.8694
6.99356
7.03611
-12.6543
-0.670324
-22.792
-33.5764
-4.34568
-8.82327
-13.949
-1.60585
5.85735
11.812
8.24384
-3.49556
-4.31473
6.8853
3.42024
-1.71174
-21.014
-8.93652
-7.87225
-18.2466
-14.5064
6.20677
-0.119705
3.07596
0.0715115
0.0704145
-0.0443856
0.104091
1.50978
3.22803
4.8483
-5.65174
3.17496
-11.1174
-59.8402
4.40386
3.6782
-1.11119
0.0380901
4.58566
-0.670465
2.78
-5.30823
6.52598
5.30878
10.3826
6.53259
-17.7932
-1.73629
-4.95461
-7.65058
-0.46665
-0.386947
-1.65964
-29.4899
12.029
0.141025
-0.0521401
9.65634
-13.4548
-3.68707
-1.56493
-29.2841
-19.3202
1.87781
-6.63865
6.33289
-2.21856
-15.6834
0.337626
-5.74906
-6.05041
-1.40889
-0.378556
5.18252
-7.55974
-9.701
-7.16487
2.46539
-8.25395
7.00527
9.94377
-7.36789
7.15147
3.59912
4.79852
10.931
-16.0617
4.14404
3.32628
2.9671
9.3989
-1.24836
-1.74795
-1.205
6.8843
9.94067
-12.1164
-0.532437
-10.7606
-7.79081
3.51265
-12.2843
-10.8462
-9.67734
2.82512
-21.8041
1.39324
2.03766
5.77572
1.06056
-23.6668
-0.214012
-0.707497
-1.2925
10.6018
11.8517
8.7931
12.4357
5.97721
2.92236
7.39757
6.40155
6.22147
-10.8745
6.61797
-1.73245
-17.7835
9.6557
-2.27188
-7.62108
11.3382
0.152044
-49.584
3.58777
3.00537
7.99077
-8.49053
6.11456
10.5232
-14.2072
-18.2426
-9.1195
4.46563
-31.0252
8.40565
-0.89018
8.02852
6.49273
-10.5266
7.5941
-4.26133
-24.5533
-24.7171
-24.5328
7.89729
-8.59371
6.53408
-0.799835
-24.5587
-0.340153
-0.277034
-4.99194
-12.1378
-18.0411
7.99922
1.36437
-20.9858
-2.52768
4.46036
1.65179
-36.8367
3.41251
-0.939168
3.3705
-20.5172
4.14289
1.81185
4.02294
-1.33867
6.04383
3.86508
2.11964
-22.048
12.3961
-5.84201
-20.4006
6.09519
5.28301
-21.4432
-7.29012
-25.6048
4.05392
3.3514
-7.49565
-0.734582
-1.74175
12.3099
-0.0644854
-13.9613
-0.383824
-4.56537
4.41306
-2.60494
5.8975
4.44287
-28.9879
4.02606
-22.5876
5.19153
2.53402
6.49263
4.74145
0.00566957
0.0266547
3.14319
7.07989
1.21326
-0.0208222
-20.5185
-2.76272
-3.21649
5.82966
-20.2746
3.1936
-11.6053
7.90053
-25.6191
-1.4382
8.5788
7.71083
3.35622
-19.5263
-21.6879
7.21557
0.0866982
8.1236
3.68811
0.424201
6.56827
1.84641
2.01476
1.24855
-4.50611
-8.60268
4.61047
-0.766388
8.78797
1.98981
12.5008
-0.219133
1.92886
7.8273
0.896844
1.69583
6.94664
5.46081
3.89926
-9.62952
-0.754709
6.10875
4.0995
2.203
-44.05
-1.64981
-29.9929
-22.1867
-5.27179
5.92737
-2.95174
5.35999
-0.194773
10.811
8.25719
2.65744
5.25488
2.4864
-21.476
6.15166
4.69352
0.555668
2.65714
8.0429
7.1279
-0.917783
-31.9368
-10.0768
5.70608
2.89464
0.456002
6.96499
-54.6933
5.95686
-12.4304
6.29392
3.26784
-0.888577
3.01301
7.47008
-1.32235
6.5828
8.50182
1.09737
-3.56869
3.93334
0.798589
9.99147
-25.6719
9.03977