/*--------------------------------*- C++ -*----------------------------------*\
| =========                 |                                                 |
| \\      /  F ield         | OpenFOAM: The Open Source CFD Toolbox           |
|  \\    /   O peration     | Version:  2306                                  |
|   \\  /    A nd           | Website:  www.openfoam.com                      |
|    \\/     M anipulation  |                                                 |
\*---------------------------------------------------------------------------*/
FoamFile
{
    version     2.0;
    format      ascii;
    arch        "LSB;label=32;scalar=64";
    class       volScalarField;
    location    "4.3";
    object      p;
}
// * * * * * * * * * * * * * * * * * * * * * * * * * * * * * * * * * * * * * //

dimensions      [0 2 -2 0 0 0 0];

internalField   nonuniform List<scalar> 
13486
(
2.45942
1.9582
0.146173
-0.118863
0.82895
-0.217297
0.394843
1.3982
1.67806
0.853342
-9.62644
0.409673
2.58996
-0.313182
0.660288
0.949724
-6.41022
0.0420057
0.574064
2.21684
-0.112091
2.55966
1.91893
-1.40146
0.809892
-1.29818
-7.28682
-0.790444
0.00386147
-0.641073
-0.0939518
0.487662
-1.58999
-0.466503
1.40151
0.0155762
0.0368687
2.01551
-0.0390241
1.67526
0.270217
2.68713
0.033046
0.808964
0.768773
0.386124
-7.29666
0.00748684
0.0345214
-0.833217
1.42251
-0.0664764
0.274481
2.04742
-0.012074
0.892264
0.0732195
-0.0666004
-1.51779
0.0552094
-7.50665
0.0518903
-3.86389
-0.103888
-0.600313
0.041146
-0.123564
2.45705
1.66796
0.00630095
-0.122891
-0.000743281
1.68135
-5.28703
0.0472718
0.0747943
0.0459666
0.645768
-8.95934
-0.167349
0.00500463
1.97798
-4.25174
0.161401
2.46968
0.809379
-0.479582
1.34353
1.6175
0.924323
0.332698
1.22116
2.36063
2.10292
1.74171
0.00448674
-7.17221
-0.128255
1.64845
-6.76032
0.0254742
-0.217256
-0.136868
-0.0649412
1.0095
-6.99877
1.64056
-0.0445941
-8.51574
1.10659
1.61234
0.421887
2.04584
0.0616272
2.88501
1.68738
0.813067
-0.437751
1.69439
0.0305532
0.0345129
-7.47726
1.81891
-0.0444133
1.60819
-0.0581068
1.19788
0.378661
-0.377788
-0.522445
-0.0561142
-6.83704
-4.5746
-4.81762
1.49761
1.30916
2.86318
1.14976
0.0279853
1.44042
-1.30219
0.267966
0.471448
-0.165751
0.0620472
-3.92367
-0.214446
1.6887
-0.907484
0.00150547
0.936343
0.61866
0.00424009
2.01849
0.445744
0.144411
0.92218
0.0918469
1.83012
0.0889547
-0.64121
1.83067
0.208066
2.67918
-0.0714482
-0.58238
-0.0576375
3.31376
-0.174511
-4.80708
-4.64727
0.461844
1.12433
0.90203
0.00562415
-0.669988
-0.561522
-1.57025
1.64256
0.482816
1.57404
0.0619925
0.725597
-1.99821
0.161586
-0.797597
0.000625998
-0.60615
0.337526
1.77214
0.0325542
0.108455
-0.0912321
2.08543
-0.118839
-9.57622
-0.533225
-0.6666
2.2148
-0.489959
-0.106135
0.354473
2.01977
0.686603
0.0857188
-0.126096
0.0401502
1.7993
-0.0807412
0.165116
-0.686983
-0.91019
2.18722
1.63898
-0.216553
-0.321462
-0.679402
0.956787
2.23805
-2.18913
-6.48357
-0.932206
1.47662
-0.676713
0.118485
2.39781
-0.520868
-0.258449
-0.256984
-0.350609
1.5551
-0.123423
-1.36063
2.74015
-0.149996
2.30477
-0.513598
0.114435
2.32808
0.751593
-1.56001
1.10261
0.0671081
2.1969
-0.0163661
1.8735
0.779134
-0.927117
-5.18621
0.917925
-0.351652
2.91721
1.63113
-0.0523087
-0.196015
-0.967238
0.469079
-0.31129
0.10767
-1.46621
1.79092
-0.00998451
0.648096
-0.862076
0.926603
-2.12954
-0.261014
-0.11169
1.57024
-0.0548216
1.61359
1.60131
-0.706197
0.286117
2.4016
-0.881095
-0.195533
-0.174515
-0.064799
-0.25126
-0.19477
1.38338
1.65587
-2.52123
-6.45295
-8.18807
-1.30941
-0.401757
0.109222
1.58449
-0.139148
0.0455137
1.74535
1.51523
-0.487283
-0.554991
-0.636928
0.269468
1.69063
0.345653
0.187116
0.0342269
-0.178764
0.518725
0.0266505
0.715196
-0.140631
0.814103
-0.247182
0.0342499
-4.68071
-0.118052
-0.275864
0.420305
-6.70885
1.33904
0.0500225
1.61961
1.80691
-0.304503
0.0389319
0.0314541
1.62767
2.11707
2.82915
0.361352
1.06838
1.35471
0.166114
0.991601
1.35711
1.16948
0.290337
2.25309
0.38222
1.64561
2.9878
0.657739
0.998477
-0.00248696
-0.281228
2.09462
0.957127
0.745922
-2.10026
0.00479969
1.1229
2.88432
-2.20293
0.0430074
1.08498
0.191221
0.268944
-6.72534
1.67799
0.0180573
-5.29554
1.1721
-0.184381
-0.886397
0.590648
0.293205
1.82263
1.6066
-0.670251
0.00383826
-0.529925
-5.42135
2.23976
1.18389
0.0294702
1.14127
0.0691393
-0.516185
-0.175361
1.45873
1.6684
0.0240124
-6.16498
-3.38934
1.55337
1.13722
2.59226
1.71355
-5.89423
-0.209321
0.107532
0.973297
-5.7614
-0.03439
2.15087
-0.775768
0.688691
2.34934
2.4066
0.0309273
-0.123714
-0.453478
-5.88373
-1.35109
-5.79091
0.370639
1.4741
-0.19071
0.434021
-1.49529
2.07077
-1.49786
1.19973
1.846
0.954449
-1.27685
-0.862615
1.69252
1.65109
2.00803
-1.59396
0.951606
-4.66069
0.779395
1.64374
0.27983
2.89421
1.04887
-0.595341
-0.574208
0.343541
1.65063
-7.50382
0.0493299
2.53921
1.4796
0.672088
0.0632387
0.775184
-1.05169
2.57875
0.0391673
0.945882
2.41634
-6.02677
-0.724881
-4.85641
-0.870865
-0.0758823
1.96017
1.89461
2.55378
-3.44077
0.0321625
-2.33153
1.02101
1.65011
-0.815886
-1.4295
1.62518
-0.29302
-0.700148
-2.56003
-3.60053
-0.144079
2.07124
0.00601859
0.080844
-0.117829
1.55786
0.00610227
3.15199
2.38759
1.68341
1.34609
0.0203403
0.00372849
2.97068
-0.212043
0.0305754
-0.581001
1.66066
-8.27416
0.244427
1.15065
0.0202312
-0.739623
1.89706
-1.92674
-6.01699
1.0637
-0.0462382
3.30183
1.08464
1.43948
1.78547
-0.734705
0.194455
2.65809
0.83831
2.13006
0.400564
0.452877
-0.128593
-0.157732
0.0327235
-7.82593
1.68476
1.65069
-0.374143
0.00355609
-0.268554
2.43163
1.96609
-0.206885
1.68156
1.22317
-0.708848
0.932711
1.46392
-4.66472
2.54946
0.0386854
0.0106767
2.66809
1.15013
0.00134945
1.10354
-0.162461
-0.201012
0.676222
1.0594
1.84504
2.36653
-4.08031
0.767131
-4.33355
0.00464912
2.30093
0.452012
-1.71032
-0.15065
0.2604
0.0947074
1.34869
-0.553921
-1.35403
1.68658
2.22914
-0.167048
1.78609
-4.1382
-0.739502
-1.86682
0.67665
-3.02535
1.81611
0.185671
-6.7243
1.41886
1.94757
-1.4587
-3.71027
1.44523
2.30722
0.499369
2.47965
0.187804
1.09305
0.368407
1.8277
0.0544695
2.24546
-6.91154
0.349631
1.60287
-0.34597
-0.828859
1.62269
-5.79314
0.283078
1.86181
2.55318
-0.260159
0.0856531
0.436375
0.190298
1.47869
1.15647
0.582308
-7.24502
0.0277101
2.44374
0.262238
0.110723
-1.27843
2.56972
-0.387103
0.0647131
1.59024
1.32666
-0.156417
-0.525443
1.42154
0.149601
-1.13459
0.634347
-1.6061
2.49399
1.64738
1.16461
1.19479
-0.141052
-1.33001
2.79562
0.491814
2.80298
-0.228871
1.58617
0.0141517
-5.35635
1.01887
0.912502
2.92924
-0.783227
1.09253
1.03127
-2.35461
0.873069
0.0531278
-0.708926
1.61822
-3.54992
-0.794156
-1.07263
-0.313094
-0.374831
1.77258
0.00641794
2.7209
1.65477
0.0788167
-0.631115
-0.676158
0.530899
-6.96553
-0.415101
-7.43591
2.28677
0.000908812
0.0756069
-2.82551
2.60063
0.00261934
0.17312
2.66448
1.44434
-1.11943
-0.163188
1.1749
0.138942
1.59166
0.0640371
-0.328479
0.621593
1.504
0.479142
1.35519
2.70284
0.0627883
-0.395765
1.61831
0.31559
-0.262602
1.14113
1.21536
0.704938
-1.37773
0.185816
0.0194279
0.168659
2.29758
0.497761
0.146136
0.171927
0.183859
-0.143254
1.64904
0.0870073
1.55709
1.56736
2.26147
0.0483575
-1.34683
2.78136
0.0240844
-0.254586
1.73058
-1.09474
1.84909
0.0611025
1.58948
-0.18747
-5.14066
-1.11114
0.0052606
-6.12918
0.866176
2.85958
-0.361017
-3.20295
-0.595553
1.69007
-0.0840683
0.718038
-3.89885
2.8253
-1.25148
0.865808
-0.875308
0.942336
1.63418
0.588157
-3.16657
-0.0858947
2.6384
1.6648
0.732813
1.47878
0.144364
1.30382
1.32676
0.953672
-4.70142
-0.191417
2.05194
0.402836
-0.0726051
1.38639
-0.200859
-0.348926
-0.0242075
1.77752
1.74045
-0.280056
0.169232
-0.934019
-0.0972344
0.162775
-0.362412
0.299029
1.58234
-0.1126
-1.60305
1.92997
0.00693247
-0.4089
-0.143545
-0.737516
-0.25757
-1.00205
0.00646534
-1.33514
1.58068
2.5864
0.0314102
-0.414361
2.67143
2.50833
-0.23925
-0.569181
1.71057
-5.33403
0.0689475
-0.0842919
0.0502051
0.934726
-5.90645
0.762188
1.10342
-0.654565
-0.232857
-1.52043
-0.19974
1.43035
0.691182
1.07291
-0.30752
1.39474
2.45714
-12.8508
-1.16593
1.85533
0.616189
1.0944
-0.0314412
-0.621357
-0.314529
-0.15442
1.67534
2.80969
1.80959
-0.166364
-0.172411
1.63256
2.39108
-0.500908
1.7688
1.62519
2.48697
0.430272
0.0100288
0.236434
-0.2927
2.47954
0.168285
-0.23554
1.1399
-0.193039
0.400541
-0.127586
-1.47296
1.55434
1.16396
1.13432
0.769777
-8.1324
-0.371553
-0.336686
0.941005
-1.70123
-0.931644
0.0580147
-1.77861
-6.60622
0.858248
-0.632835
-5.12647
-5.56617
-0.388035
1.23635
-10.0948
-0.638016
1.84453
-0.170592
2.56301
-0.270559
-5.24701
1.957
2.31629
0.0489469
0.0860797
0.420721
1.68305
0.955339
-2.70771
-0.142199
0.0289099
-0.224575
1.59603
0.0712574
0.95498
0.0272731
1.66374
-7.90336
0.0628277
0.0144853
2.0061
-1.07155
-8.98715
-1.21738
2.54016
-0.0624518
-0.42852
-11.056
1.63208
-0.415014
0.0362609
0.379635
0.797281
-0.277218
1.14454
-0.596429
1.33031
1.61255
1.91192
0.737777
0.00573282
-0.404057
1.23576
-0.618551
1.98566
1.10699
-0.175592
-0.0532882
-0.22381
-0.0926571
0.0290661
1.85534
0.661787
0.313703
1.62378
0.0258535
1.32226
2.89831
-0.125433
-2.00053
1.12164
-1.81847
-0.0198756
-0.240449
-0.116775
1.62413
0.0671856
0.0257524
0.0529772
0.0696068
2.11245
-0.948913
0.00467139
1.63268
-1.80859
2.32351
1.87648
2.19885
0.414652
1.01587
0.510118
0.117876
1.24392
1.61709
-0.139053
-0.351436
-5.84518
-0.565507
-2.48315
1.63665
-3.02458
-1.6261
-1.68838
-0.13458
0.0203199
1.64301
0.0194389
0.316223
-4.91523
1.65947
2.86113
-1.64474
-5.17778
0.911857
0.0169017
1.58774
0.0811425
-0.0220585
1.98424
-0.0773416
2.71118
1.14147
1.62406
-0.613012
2.13668
0.0666047
1.8868
0.0381265
-1.50314
-0.557666
-0.871851
1.1121
-0.422462
-0.0770565
2.55599
1.65608
1.76336
2.32949
1.7998
2.00061
-0.329196
1.72338
1.67249
1.68174
-0.302511
-0.512797
-0.875217
-1.59797
0.429504
1.8538
-5.24149
2.43758
-1.59893
0.0656931
2.7866
2.3499
-0.346091
-0.99859
1.66067
0.839707
0.126319
1.554
-5.15539
-0.656329
1.62301
2.27741
-0.024533
1.82409
2.11457
0.00542284
-0.628032
2.12171
0.737116
0.0304871
-6.0583
0.160154
-1.41072
1.52426
1.11077
0.0428504
-0.0509792
-0.715755
0.44032
-0.0211394
0.392744
2.39411
-0.0477224
3.09608
1.64465
0.553233
1.84785
-1.14991
-4.91715
-0.361515
1.61819
-0.0299883
-4.59678
-0.104196
0.805535
0.951986
0.00313839
1.18743
-4.31607
0.865204
-0.0761545
0.0284464
1.32772
0.517639
2.13696
1.67054
1.71434
1.58772
-0.351758
-1.28574
-1.07371
0.170765
-0.293739
-0.317309
1.3034
-0.162111
-0.0008962
0.0472556
0.165458
-3.8667
1.16712
0.763906
0.0985014
-0.747944
0.804216
-0.910454
-1.11121
0.201705
-0.521386
1.82063
1.21731
2.11519
-4.87579
1.4821
0.0567879
2.29651
-0.247884
0.856728
0.0393318
-0.221956
2.66345
2.73424
1.37181
0.922227
1.11179
1.51635
2.69309
1.13921
-1.4166
-3.37357
0.317101
-1.56902
-7.74148
1.64889
1.59395
-0.341038
0.475058
1.38946
1.49948
2.92682
-3.49985
1.28571
-5.80699
-0.399464
2.3484
-0.219185
1.37817
-0.195895
0.485551
0.654414
3.04798
-0.140482
-0.876631
0.822428
0.228458
-2.70933
-5.12925
0.0544311
1.8154
0.0602139
0.927684
2.50567
2.30431
-0.137006
-2.97296
-0.0456745
0.276309
1.93574
1.56499
2.28629
1.01748
-10.7932
2.39621
1.50482
-2.42231
1.27621
1.67044
2.07339
-4.72594
-0.117329
-0.000808899
1.39576
2.62672
0.871426
0.163162
-1.39987
2.93966
-12.9063
-1.29067
2.73946
1.44071
-0.271389
1.31997
-0.119313
0.924233
-0.47268
-12.7142
0.00189269
-0.460307
0.0714962
-0.388744
-5.55653
-6.13555
-5.80762
0.154617
-5.82468
-0.392644
1.25947
1.50953
0.889538
-4.71225
0.446654
0.24043
-0.357605
3.0807
1.10035
-0.971086
1.44019
-0.484754
-0.534796
1.36323
1.35139
1.59001
3.11473
0.00315427
-0.214822
-1.40314
0.162537
1.13279
1.61838
-0.637597
2.42063
1.12482
1.73219
-0.139711
-0.145777
0.0802496
1.70894
1.63973
1.76996
1.63293
2.86234
2.8111
-0.501929
1.44763
2.09026
-0.935564
2.27763
-0.0253232
2.77839
2.25654
0.061725
1.85551
0.797222
1.26488
0.0866283
1.65647
-1.25027
1.44036
0.624255
1.12581
-0.211829
1.58416
-0.0173022
0.418258
2.68503
2.67803
1.10715
-4.90608
0.401021
0.151477
-0.197098
1.31963
2.40593
-4.94472
1.68479
1.57944
0.814602
1.69902
-1.53052
-0.206822
0.0434383
2.90227
0.510626
-0.00671987
1.88122
-0.212013
0.077948
0.825685
0.313606
1.24649
0.689205
-0.623864
0.991859
1.3308
1.09894
1.24175
2.8321
2.32497
2.05029
1.87504
2.62651
0.803304
-0.0354439
0.0126635
-1.85429
2.65454
-0.17299
1.64039
1.48208
-1.014
0.875658
1.8135
-0.966656
0.830712
1.0286
3.15327
-6.4733
0.733613
-0.474002
1.88517
0.142416
-0.160904
2.61087
2.23056
1.59392
1.61252
-0.539046
0.806451
-7.80666
2.80517
0.0422041
3.02586
-0.0687954
0.156128
-5.69357
0.903161
-5.3001
0.280535
-0.0746319
0.586458
-0.53889
0.557079
-0.170995
0.00191808
-0.293511
-4.82956
-0.802251
-2.88663
-0.92943
-0.131678
-0.124533
-6.551
1.6866
1.7187
2.06502
1.61831
0.674472
0.640817
3.30426
1.59991
-8.2128
0.00788124
-0.167801
1.25475
1.45224
2.42549
-1.30777
-1.28988
1.34995
0.00434582
0.42017
2.04531
-4.99163
-1.64108
-7.20424
2.83707
-0.12119
1.15361
2.0974
-0.122697
1.30992
-0.00320842
-6.76187
-5.34888
0.0837324
1.09688
1.95593
2.05733
-2.93041
-4.89573
1.09921
-10.2617
-0.644344
-0.358248
0.323659
-0.443977
-0.143404
-0.162237
-6.20312
-1.39132
2.51784
-0.116776
2.74535
-3.13304
-0.243087
0.638795
-0.119556
2.32796
1.61887
1.92203
-1.50492
-0.480626
-7.47176
2.24049
-4.81497
1.19792
0.017821
1.96742
2.3222
0.00542364
1.6142
2.63761
1.80923
1.76394
-3.32454
-0.0468984
0.695744
-1.03264
-0.0704986
1.00997
1.18472
0.146979
-9.43269
0.388519
0.0832945
1.44096
1.23094
-0.719345
2.76921
0.164628
0.00346385
0.20424
1.60577
-0.5566
0.00913922
1.78779
-0.876496
0.125
-0.334598
1.74345
1.61264
1.53543
-0.111744
1.53446
1.88336
1.85367
-0.486309
0.0684747
0.36318
1.42342
-1.35222
-4.3316
-0.399361
-2.1006
-0.120503
0.0340091
-0.0634795
0.0611597
-5.24051
-0.943965
-4.27839
0.0837589
-0.472784
0.608785
-3.27034
1.7361
3.33217
0.551712
-0.296778
0.729748
0.183542
0.400052
0.0233869
-0.604788
-1.48378
0.197981
2.1661
0.00553694
2.59209
0.022588
1.53175
1.35503
0.733082
-5.57907
0.973297
2.84755
-0.128863
1.63506
1.57229
2.41537
0.191381
2.22147
1.76948
-5.7025
1.88168
-6.86845
-11.0312
2.26835
1.44037
-2.61331
-0.00906571
2.12052
0.22784
-0.786258
0.0584671
0.0572789
1.25873
0.882141
1.63553
1.54513
1.40418
-3.25439
-0.807926
-0.451222
1.59769
3.02356
-0.673418
-12.7444
-5.45754
1.65145
0.174814
0.17983
0.743547
0.0851364
1.28299
-0.128619
0.41109
2.50009
0.737144
0.000340044
-0.0984391
-0.150858
-1.02143
-5.8936
-1.3872
-1.72129
1.94052
0.878892
-0.878343
2.62148
0.00879471
-6.31411
-0.329648
-11.417
1.77904
-4.68236
0.544018
1.64232
-0.172751
-0.498912
-0.181813
-8.53872
-0.209327
1.77585
-4.43377
-0.00987029
-7.29162
1.57374
1.75393
-0.123591
2.07569
1.92312
2.49552
2.55719
1.83097
0.26548
2.90276
-7.60729
1.603
0.344981
-2.57582
1.98342
-0.323563
2.49642
0.770853
-1.77186
-3.72561
-5.58584
1.74542
-0.423074
-0.466243
-0.0707197
-1.37376
0.0071809
1.0146
0.291066
1.20551
2.83425
-4.99644
-1.29088
-0.981423
1.71342
1.22976
-0.864305
3.29186
-0.0270744
0.080067
1.05042
-1.6732
1.56745
1.69318
1.8883
1.9096
0.0199221
0.902466
1.57292
0.365033
-0.172296
0.0144732
1.78106
1.83489
2.26222
-0.117031
0.134901
0.871433
0.998559
0.263476
-2.0443
1.35263
-0.252262
1.42433
1.68356
-6.26204
2.58465
-0.879806
2.79293
1.87208
-3.17993
0.00404779
0.0429229
0.614436
1.71841
-1.88986
2.22814
1.54683
0.868232
0.0488861
0.343719
-0.404267
0.868396
-6.53616
1.03065
-0.200961
1.5929
-4.00378
0.00292727
-0.430854
2.01577
2.34501
0.780082
-3.9036
0.797901
-0.150388
0.157836
0.91876
-0.132918
-0.0886855
2.7468
-0.855762
-0.132901
-1.18535
-11.411
-0.0506045
1.67471
-6.35344
-0.376385
1.71168
1.06392
1.75372
-0.32606
0.755745
2.77163
-3.13325
1.57498
0.522456
-0.106731
0.57013
0.378353
-1.23519
2.83088
1.87961
-1.48964
2.73677
2.13432
1.99787
-9.63793
-3.99873
1.0707
-1.96056
-0.0408294
-3.41747
-1.7217
-3.18938
1.30212
0.637927
1.00574
1.10958
-0.122376
1.25084
1.6036
-12.3202
1.72275
1.0205
1.62755
-0.152303
0.0183548
-0.131398
-5.93667
-0.22801
-0.440103
1.58668
-2.76705
2.50662
-0.992467
1.57496
1.03157
0.0485438
0.309929
1.68121
0.745212
0.39038
1.48021
0.118003
0.0301967
2.3726
1.92674
-0.901124
-3.07754
0.0381095
1.44088
0.0197199
0.774498
-2.77025
0.0311065
-0.175252
0.0076885
1.43102
1.38905
0.14781
0.736845
-0.0311341
-0.00526899
-2.06242
2.01567
-0.142553
1.57937
0.00297098
1.4063
1.73913
0.931166
1.52684
0.0791916
-0.185065
0.0508279
-4.65673
-0.336018
-0.858472
-0.142738
-0.0563602
1.30453
-0.0660067
1.59635
0.00394836
0.0664582
-2.55307
-0.0208781
1.70443
-5.62335
1.59688
0.421177
-1.41257
-0.0398281
-0.152676
1.1713
1.71567
-0.00161668
0.302491
-5.0076
1.93125
0.169103
0.511266
-1.86584
2.05589
0.817505
0.0236309
1.74279
1.70279
1.98838
0.224602
2.0033
-3.30424
0.0824158
-0.200683
1.59384
1.04999
0.445458
0.2194
-1.84996
-1.73578
0.914846
0.13595
-1.89143
2.5369
-3.61463
1.95749
1.18758
-0.465451
-0.0452492
0.0849594
-0.130613
0.193423
0.230419
1.52938
0.0525434
1.63306
-2.6582
0.708564
-0.078278
0.437786
-1.96281
2.04673
2.78225
1.78091
0.949516
0.386632
1.06861
-7.71491
0.0866281
-0.0645257
-0.189185
-0.965072
-3.62544
-1.93269
-0.842673
1.46208
1.62236
-4.07607
0.423627
1.84177
-0.815075
-2.30583
1.75051
-0.040261
-7.80724
0.0432798
-0.307558
0.00443023
2.5945
-0.0450662
1.58142
-1.62027
-1.00989
-0.790664
1.60269
0.457615
1.3621
-1.35482
-1.05699
0.0932828
0.347249
1.87999
1.44284
0.29764
-0.148483
-0.486905
2.89214
-0.10628
1.8622
2.04412
-0.129903
-0.0698294
0.76585
-5.14911
-1.03275
1.42039
0.94318
1.58089
-0.429018
1.77649
0.205275
2.32835
0.359709
1.43894
2.06161
1.35486
0.305781
-1.26827
0.534548
-10.2322
1.42499
0.742703
1.98032
0.148724
2.48744
0.277391
2.64578
-0.185906
2.06691
-0.224202
1.23619
-6.15401
1.56401
0.801588
0.675889
2.43623
1.61446
0.402698
-0.811364
0.950069
1.54549
-0.0207624
-5.90221
1.19862
0.0614772
2.12558
-0.124475
2.53277
0.413407
3.33867
2.54532
1.21959
1.08545
-6.49564
0.108595
2.71372
-0.109793
-0.0670213
-0.162475
2.66413
0.804014
1.40893
2.25453
-1.05065
1.76963
-0.366941
1.95276
0.0780519
1.84884
1.66258
2.264
-0.044715
-8.80124
0.485819
-0.165327
0.775508
0.316667
-0.026022
2.07963
2.38383
0.0289273
0.584807
-0.337045
2.14044
1.35229
1.50854
1.01581
-0.192094
-4.37218
-0.125121
1.66864
-2.62991
-0.0330284
0.0434623
1.17079
0.793101
-0.827434
2.86057
-0.0594955
2.50653
0.525885
2.53486
-0.591035
0.401133
0.0519422
0.0743143
1.38997
1.60224
-0.0368104
-0.0381422
-0.163103
-0.031748
2.36738
-0.527717
0.0268303
-0.100889
-0.0555066
0.602388
2.00612
0.805638
0.08023
0.0424779
1.61561
3.03199
-0.177873
0.0901364
1.59992
0.0870006
0.837789
0.0137844
1.18731
-0.0448603
-3.79186
-0.488473
-0.241175
-0.229674
-0.573087
-3.10555
-0.797544
-0.0217935
1.27322
1.74353
1.42192
2.94739
-8.28676
2.65108
-4.66148
2.50667
-1.85868
-1.16834
2.84983
0.672102
-0.386056
1.66951
-0.0441521
1.79667
-0.197179
-6.9316
0.278118
-0.789847
-0.920731
0.00496544
-0.209228
0.654486
2.03973
-1.97869
0.729601
-2.60848
0.424082
-0.0871397
-0.015305
0.218153
-0.0568712
-2.09238
2.12013
0.0119749
2.33847
0.637684
-5.91544
0.547712
-1.41994
0.0535153
1.4011
2.04867
2.9509
1.23354
1.37407
0.798335
-4.95846
2.84727
3.04735
1.77621
-0.987709
-0.398167
-10.6046
1.52028
1.0909
0.618788
1.31365
-0.124349
-0.000860425
-11.8656
2.42884
0.137999
0.194504
-0.179443
1.58556
0.301588
3.25301
3.04856
1.45546
0.112725
0.479964
-3.77823
0.63719
3.12837
0.228514
0.0535224
1.22078
0.00635381
0.323335
-0.216024
-0.406669
0.363021
0.19335
0.771879
0.0390916
0.518251
2.28596
0.551939
1.73242
-0.217443
-0.493058
2.75634
-2.76646
0.319582
0.466853
0.70531
0.24518
-0.13447
0.384955
0.0863849
0.25365
3.27778
-5.70942
-3.73601
-1.18051
-1.10708
0.174518
0.465193
-0.116712
-2.9553
0.0255713
-3.69335
-1.31439
-1.02107
0.242308
0.101812
0.153152
3.20389
0.158044
0.481926
-0.230063
0.335712
-4.85709
-0.453424
2.22943
1.60427
0.497083
-0.0684548
1.55691
1.73534
0.104522
-3.27893
-0.029122
2.22139
-0.858927
1.52109
0.0705172
2.50875
0.109308
-0.266409
0.0735804
1.77451
-0.715381
1.44797
-1.07164
3.09785
-0.124249
-0.357507
-10.2983
0.738875
-0.153396
-1.20117
-0.136978
0.204497
0.771559
-0.547229
-0.0962526
-0.116485
0.310399
-0.822152
-1.33276
1.32804
-10.837
1.42779
-0.160011
1.79345
2.83475
1.54258
-5.00171
1.65972
0.196246
0.327652
-0.140859
-0.550052
-7.53971
-0.106744
-0.494345
0.752303
0.000784069
-1.17952
-0.0522786
-5.39149
0.842817
1.65322
-1.77724
-0.143896
-0.559225
0.0333517
-0.0755514
0.986766
-3.33458
-0.167815
1.64623
-0.0144592
0.96235
-1.36555
-7.33047
-3.67964
-8.07261
3.20159
0.539418
-1.00263
0.440982
2.66355
2.76275
-0.323734
-0.37956
1.61661
-0.000771007
-0.181726
2.73972
0.931178
1.45775
3.26472
-0.490306
0.526996
0.25193
2.44723
1.68771
1.70094
2.03361
1.15758
0.0495202
0.100928
0.764951
0.389312
-5.79966
2.80994
-0.863279
-0.926154
0.0362501
-0.805079
0.827427
-0.192618
-0.413982
0.39683
1.71528
1.75613
1.88138
-7.57358
2.40395
2.73681
-3.69486
1.04142
-0.175153
-0.170577
0.334903
0.956828
-0.0627902
-0.83049
-1.10787
3.03384
-7.25847
1.89704
1.6353
2.16903
1.25151
1.30076
-0.0621957
0.0429886
0.991552
-0.0625451
-12.9532
-2.44827
0.126358
-0.120297
2.01665
-0.500453
0.0264312
0.336994
-4.81932
-0.209418
-6.46386
1.45725
-0.369132
-0.21622
0.772376
-1.48269
0.60207
-4.35724
-0.169748
1.75589
-6.33162
2.79349
0.0319625
2.96613
0.00581739
-0.092414
0.246668
1.43026
1.40949
-3.32075
-0.176436
-0.334617
0.219111
1.17096
3.26868
2.17597
0.584751
-0.817406
0.890193
-0.0104434
1.88413
-0.104944
0.966069
-0.137118
-0.154821
-4.69299
0.643093
0.046984
-4.79436
1.07639
1.05822
2.70704
2.89803
-5.95252
-7.47281
0.0113732
-1.52102
2.82375
0.128481
-0.697324
0.722962
1.18432
-0.199789
0.17249
0.0902592
-0.0416934
1.51299
-0.158367
0.529022
-1.37582
-1.12858
-2.98691
-0.437116
-2.95621
-2.71107
1.81956
-0.390853
-0.233921
-0.393889
0.0741097
3.07695
1.23394
1.5291
-0.412309
0.859094
-0.0620303
0.703148
0.500741
-0.12024
-3.82491
2.81505
1.72849
-0.0178914
-5.62514
3.18644
-0.19711
-4.27957
-0.125612
0.86598
-0.172467
-0.175502
2.43728
-0.110418
1.52047
0.661832
-0.117926
0.207837
-0.356263
0.818333
-3.13165
0.0245461
0.508231
1.61378
-0.168103
-4.70447
0.130931
-0.554006
-1.76582
-1.60574
2.99416
1.0766
-2.26321
0.823054
0.423441
2.64203
0.950441
-4.37432
1.01614
2.06862
1.79376
-0.804043
1.44367
-0.0524934
2.79192
0.0446001
1.6686
-4.24895
-0.745737
0.0346903
-0.156669
1.00659
0.565974
-5.04123
-0.207064
1.93772
0.000500862
-0.112302
2.28818
1.29339
2.22753
1.52388
-1.10952
0.0222239
0.0607675
1.63052
0.00335229
2.03653
1.29606
2.76754
-0.122465
2.16801
0.859113
2.7911
-0.119531
-1.02963
2.8595
-0.129669
1.26804
-7.99864
2.46604
2.75409
1.76461
-2.62382
1.62076
2.12216
-0.785128
0.712633
-0.279583
2.26595
-0.145565
-0.0622919
-7.90669
-8.32302
2.0839
0.83766
-11.3744
0.875721
2.752
-0.859691
-0.253646
-8.84195
-1.25434
1.3972
-0.242097
1.55282
1.5423
-11.428
3.07929
-0.0717467
2.33328
2.32136
0.104798
0.0165599
1.46452
-2.33935
-0.308422
1.45437
1.25102
-0.578479
1.54953
-0.118936
2.40311
1.76536
0.665682
0.0971208
1.83109
-0.112643
1.00055
2.17481
0.362287
0.0311914
2.10699
1.75853
-0.906472
-4.92575
1.27354
1.83998
2.78836
-5.5462
2.94218
2.87597
2.98754
-0.137938
2.04415
-3.48951
1.62867
2.20395
2.14
1.82181
2.40777
3.25026
1.41972
-5.37298
0.239328
-3.6423
3.21812
0.904326
-0.0481412
-0.136086
1.53515
2.41985
1.55253
0.591676
-0.159106
2.40816
-3.42066
1.76071
-0.15066
0.753698
-0.00623787
0.57061
1.08657
-1.52524
-1.20444
-0.072185
-0.532793
-0.140016
2.00336
-0.342242
0.176183
1.53277
-5.05672
1.0505
0.035306
-4.21664
-4.47344
-4.92337
2.30367
2.47455
-0.174802
0.613894
2.11113
1.90329
0.0305252
-1.19137
1.79844
-5.73353
2.26247
-3.58321
2.2026
1.03222
0.245774
2.04577
1.10591
2.15474
0.624689
0.77199
-0.71428
-5.01545
-9.73231
-0.109292
2.11416
-1.79564
-0.246871
-1.79282
2.33188
2.13391
0.588875
1.23474
2.37054
-2.63015
1.56665
-0.264179
-0.810713
1.56067
-0.28353
-7.82997
-1.49003
-6.11092
-0.415731
-2.65209
-0.230486
-11.9361
-5.18287
1.35535
2.81839
3.07334
2.6785
-1.77216
1.7798
-4.91419
1.52085
2.35676
0.245674
2.0754
-1.7614
0.608887
-0.764551
-0.102773
2.25838
-1.20045
1.863
-8.40296
-0.41541
-6.63872
1.88697
1.84766
1.62774
-7.5545
1.5521
-0.115657
-10.3291
-9.26399
0.568675
2.83391
-3.20779
-0.407388
-0.179446
1.5833
1.56437
-0.0649745
1.02904
-8.88276
2.4045
2.1675
-0.213176
-0.337691
2.34836
-0.316967
-7.22251
0.0179003
2.14418
2.41405
-2.96603
1.19212
-0.216107
2.76885
-12.5188
-0.755161
-0.112845
2.60196
0.00386002
-0.686104
-0.0454869
2.24328
1.29662
2.22417
-0.162719
-2.90433
1.82538
3.18412
-5.20413
1.49081
-0.0409796
-11.0204
-0.021055
0.62509
-0.164946
1.16591
-0.120378
1.07782
-0.131115
-0.971343
2.03573
2.43571
1.54057
-2.16645
-0.780825
1.9083
-8.55345
0.651751
-0.832089
0.834244
-12.6765
1.76332
1.90999
-0.0676184
1.79809
2.73644
-0.303544
1.35539
1.85773
-8.18218
1.00885
-0.622725
0.831679
0.641356
1.28698
0.0073246
0.586479
-0.307776
-3.35634
2.29198
0.700639
0.222782
-0.376098
-0.290393
1.68794
-10.9693
2.97567
-6.62592
-6.7328
-0.060784
2.08532
1.86006
2.19391
-3.96587
2.63426
-2.92614
1.31463
-0.0244623
-5.20612
1.50742
0.769084
-0.350554
1.13943
-3.99928
1.32483
-6.13223
-0.342819
0.0108681
-3.08435
-3.71939
1.47735
2.70092
-0.278542
-3.96516
2.10717
-2.97702
2.45854
0.794286
0.0540908
0.915441
1.64113
0.875245
-0.0758762
0.167051
-0.0166832
0.416021
0.606155
-6.0989
-0.215711
0.0893854
1.00243
-0.22888
3.23215
1.77351
1.61918
2.48232
0.275397
1.82249
-1.69009
-5.09254
-0.48368
1.63628
3.15548
1.5274
-1.15048
2.29611
1.55793
1.58066
-0.117046
-0.0596842
0.888375
2.99097
0.117738
-0.975393
2.17868
2.34126
1.74085
1.62159
1.99394
1.15791
-0.128607
-0.836917
1.80188
-5.40916
-4.87118
1.58143
-0.605111
0.0745937
0.587561
1.78638
1.85387
1.87682
-0.145636
2.18933
2.24018
0.37231
1.97122
1.72258
1.34748
1.24426
1.13736
0.85977
-0.0712598
2.08577
1.95977
0.0154708
1.50876
-0.165454
0.0385817
2.67771
2.03222
0.0156826
-2.03007
0.150299
2.09345
1.19476
0.351065
-0.00699792
0.214215
-0.35533
0.305404
-0.294196
-0.25806
1.22876
-0.25546
-2.69797
-8.10552
2.53112
-0.152836
-4.26045
-0.464044
2.71148
-0.202629
0.396187
0.339169
-9.91864
1.28897
1.52943
1.05671
2.38885
1.31612
0.0341413
-4.04367
-1.47978
0.0288844
1.89269
0.0676821
-3.77651
-12.1581
-0.426086
-4.17694
-0.339423
-3.71123
-0.276289
0.61868
1.60425
2.13507
-0.359587
-0.181574
2.39957
1.81902
-2.63423
-0.243818
-3.60529
1.0253
-0.0111478
0.917814
1.38871
0.0096526
-0.232473
-0.288571
0.444545
-2.46209
-4.66538
0.159943
-1.24798
-5.88149
-11.0422
-0.935016
0.17143
-3.7768
0.854109
-4.02311
1.60665
1.44555
0.480996
2.1099
-2.26139
2.71655
-0.805247
0.0937996
-1.41387
1.62195
1.00382
-4.86968
-4.13013
1.6607
1.97365
2.81606
-2.78463
-5.75604
-1.56344
-0.238302
0.00715818
-7.51691
0.637522
-7.82185
0.974712
-4.37712
1.27274
0.2137
-0.104807
2.46332
1.45642
-1.20472
0.0122527
-1.97231
-5.53408
2.11423
3.07742
-4.85316
2.01252
1.54261
0.00433818
-0.11633
2.05315
1.96655
-4.09797
-0.185764
-0.527431
-2.148
-1.32139
-8.91369
-1.18961
1.08138
-0.128873
1.79518
-7.01341
-11.5261
1.52254
-1.20958
-8.31518
0.0941691
1.24876
-8.8341
-0.709187
-11.7332
-6.30499
-7.88167
2.8578
-4.42172
-0.27578
-4.63999
1.78145
-7.45292
-0.112356
-3.19062
-8.62104
-0.758314
1.85632
0.0139395
-7.43781
1.42458
0.0191172
-0.687049
-4.97705
-9.10713
1.18524
1.35694
1.63297
-6.48681
2.4462
-0.505053
0.00308817
0.1003
-2.6512
-0.977332
-8.34428
-1.85901
0.375587
0.700662
-0.162076
-0.350462
-1.39535
1.54295
-6.05545
1.70781
-4.96538
1.03562
-0.401726
-0.0298173
-0.0237707
3.16812
-0.188096
-9.37802
-5.46975
-1.2363
1.63179
-0.00550832
-0.0117122
0.0696915
-11.4683
-2.3677
-5.04006
-8.14014
1.79883
-12.719
0.226661
-11.5874
-0.0636323
1.42883
0.107241
0.765987
-0.589257
2.15299
-6.18148
-1.04976
2.30151
0.683145
-6.7449
-0.358307
-4.46906
-1.28841
-0.443588
2.10229
-0.347133
0.704476
-5.74136
-3.78672
-11.1349
-11.8538
-4.1544
1.00161
-0.275591
1.59549
0.626237
-4.01802
-0.534834
-1.34662
2.01277
2.4259
-9.95893
0.107546
1.744
1.60699
1.30799
-1.41681
-2.60674
-2.66429
1.64066
0.479933
-1.34489
-6.55091
0.961187
1.93808
-0.279399
0.05602
0.0822078
2.276
-1.8187
-1.97613
0.0248475
1.40539
0.115893
-0.034832
2.46197
2.02896
-0.0936977
-1.70828
2.07623
0.817675
-0.109496
1.52554
-0.552864
-2.03502
-3.24421
-1.69564
1.98603
1.75627
-0.169713
-0.840124
-0.104773
0.039189
1.79487
-1.68221
1.25739
2.16798
2.31822
-0.316197
1.62966
1.45674
1.82659
1.93451
-0.186268
1.94341
0.00666139
1.62952
0.912742
1.76336
-1.35818
2.05405
1.96343
1.46788
1.07912
-0.911032
1.17546
0.0860647
-1.02508
2.21843
2.17616
-1.08026
1.83185
-1.65168
-5.40761
1.77544
1.76937
-2.76805
-0.110301
-5.79405
-1.50062
-1.40932
-0.225565
-2.91785
-0.434282
1.50074
2.95917
2.0698
-0.390213
-0.142043
1.7481
0.870602
-0.0786503
-2.015
-0.735571
-1.93728
-5.19309
-5.04945
1.5571
-0.193861
0.82554
0.0382454
0.038617
-0.0535154
0.0373593
0.387921
0.872418
1.10684
-0.769884
0.820034
-2.85537
-4.78694
1.15015
0.905649
-0.113807
0.158327
1.09059
-0.0416429
0.643621
-0.814256
1.60211
1.36439
2.60482
1.62839
-1.37382
-0.431272
-0.831241
-0.668575
-0.000520046
0.0315863
-0.256696
-1.15124
3.01656
0.154028
0.0524446
2.42223
-0.176653
-1.02719
-0.124773
-1.40349
-4.77415
0.531846
-1.54437
1.60605
-0.31342
-1.22948
-0.00507737
-0.377217
-1.17745
-0.0725974
-0.715583
1.27641
-0.125412
-0.215689
-1.67653
0.659995
-1.34693
1.75613
2.48384
-0.630643
1.79074
0.954489
1.18925
2.7408
-0.224161
0.998783
0.876951
0.762935
2.34671
-0.472245
-0.234743
-0.0853735
1.73237
2.48102
-0.408217
-0.174628
-1.45277
-1.1683
0.849311
-1.0048
-2.58976
-0.708543
0.654728
-5.7124
0.384177
0.55047
1.4304
0.292828
-5.40122
-1.68553
-0.0124
-0.214555
2.64747
2.96641
2.2063
3.12294
1.45085
0.794701
1.85747
1.61375
1.4902
-1.1928
1.68331
-0.406652
-5.14078
2.42556
-0.320223
-1.34747
2.8397
0.0434565
-2.7853
0.879944
0.76409
1.99194
-6.312
1.50954
2.61322
-0.182404
-5.3738
-2.13979
1.16967
-4.62033
2.11161
-0.157975
1.99541
1.62488
-0.200869
1.92088
-0.790571
-4.47671
-5.0718
-0.666346
1.985
-1.268
1.67803
-0.0568193
-8.13332
-0.0216622
-0.0825286
-1.62399
-0.82353
-5.94205
2.01419
0.341093
-7.46172
-0.670328
1.05693