/*--------------------------------*- C++ -*----------------------------------*\
| =========                 |                                                 |
| \\      /  F ield         | OpenFOAM: The Open Source CFD Toolbox           |
|  \\    /   O peration     | Version:  2306                                  |
|   \\  /    A nd           | Website:  www.openfoam.com                      |
|    \\/     M anipulation  |                                                 |
\*---------------------------------------------------------------------------*/
FoamFile
{
    version     2.0;
    format      ascii;
    arch        "LSB;label=32;scalar=64";
    class       surfaceScalarField;
    location    "4.6";
    object      phi;
}
// * * * * * * * * * * * * * * * * * * * * * * * * * * * * * * * * * * * * * //

dimensions      [0 3 -1 0 0 0 0];

oriented        oriented;

internalField   nonuniform List<scalar> 
20045
(
0.250638
-0.271687
0.0210495
-0.538058
0.193375
0.344682
0.171595
0.911629
-1.08322
0.0553759
-0.0758432
0.0204674
-0.423016
0.413307
0.00970926
-0.282451
1.10099
-0.81854
-0.512674
0.222541
0.290134
0.0351902
0.217457
-0.252647
0.237481
0.211276
-0.448758
-0.411739
-0.0595014
0.47124
0.185165
-0.133492
-0.0516731
1.13927
-0.553882
-0.585388
0.180543
-0.181904
0.00136118
-0.64436
0.541901
0.102459
-0.166225
0.535495
-0.369269
-0.546325
0.134586
0.0530566
-0.0203539
-0.0327028
0.438653
-0.33086
-0.107793
-0.852865
1.24446
-0.391597
-0.384296
0.0342964
0.35
0.166671
-0.155044
-0.011627
0.0611446
0.119398
-0.0688444
-0.469213
0.267803
0.487226
-0.755029
0.417685
0.101685
-0.519371
-0.514797
0.7826
-0.313477
0.344249
-0.0307716
-0.594892
1.14212
-0.547226
0.880024
0.117231
-0.997254
-1.09155
0.611748
0.479801
-0.0725126
-0.147085
0.219598
0.723309
-0.507611
-0.215698
-0.424472
0.780203
-0.355731
1.13066
-0.656538
-0.474118
-0.280132
0.315323
1.08953
-0.541956
-0.547571
0.732781
0.10524
-0.838021
-0.0302607
0.186537
-0.156276
-0.968814
0.378129
0.590685
0.298814
0.259506
-0.558321
0.0262283
0.197752
-0.22398
0.0652241
-0.09417
0.0289459
1.07005
-1.07205
0.00200214
0.748509
-0.276321
-0.472189
0.346521
0.401989
0.525984
0.613286
-0.0999577
0.364409
-0.264451
0.630202
0.285221
-0.915422
0.921363
-0.188582
0.0712737
0.928845
-1.00012
0.649333
-1.0991
0.449763
0.901975
-0.668568
-0.233406
-0.603443
-0.437859
1.0413
-0.0444248
-0.153927
0.198351
0.424491
-0.104385
-0.320106
-0.350044
-0.0729721
0.0213517
0.75828
-0.779631
0.810221
0.0391628
-0.849383
0.435178
-0.85965
1.05795
-0.701463
-0.356483
0.242469
-0.0551744
-0.187295
0.439114
0.618832
0.36454
-0.940678
0.576138
0.142955
0.0237161
0.396865
0.0511749
-0.44804
0.829088
0.107169
-0.936256
-0.0200952
0.0772221
-0.0571269
-0.338213
0.0853227
0.25289
0.42692
-0.189439
0.90366
-0.919018
0.0153585
-0.0465217
0.0264265
-0.0575104
0.482001
-0.122651
-0.52394
0.646591
-0.0431903
-0.0751898
0.11838
0.919268
-0.172576
-0.746693
0.691317
-0.669965
-0.0135464
0.932815
0.217028
-0.383253
-0.19119
-0.172582
0.363772
0.219757
-0.591975
0.372218
0.524275
0.605331
-1.12961
0.454036
-0.35423
-0.099806
0.820962
-0.456422
-1.20925
0.229362
0.979887
0.0101051
0.240533
-0.276695
0.316702
-0.0400071
0.167073
-0.39227
0.225197
-0.8042
0.0361072
0.768092
0.516031
0.0774548
-0.593485
-0.43319
0.394824
0.0383656
-0.727253
-0.113654
0.840907
0.364572
-0.0625739
-0.301998
0.203238
-0.291816
0.0885774
-0.0815445
-0.411815
0.493359
0.297565
-0.316045
0.0184806
0.752804
0.198893
-0.951697
-0.295021
-0.0184561
-0.0151345
-0.0722437
0.0873782
0.609694
-0.310879
0.0937812
0.0632978
-0.157079
0.734795
0.354732
-0.241827
-0.402533
-0.117684
0.10255
-0.13893
0.94915
0.00165954
-0.278354
-0.169625
0.263406
0.230302
0.602454
-0.832756
0.58756
-0.874973
0.287412
-0.291148
-0.208846
0.182286
0.0265602
-0.0989844
0.126302
-0.0273179
0.622827
-0.455054
-0.167773
-0.248953
0.204528
0.660845
-1.08462
0.423774
-0.0854752
0.160019
-0.074544
0.0229011
-0.12284
0.0999392
0.579336
-0.161651
0.828743
0.301914
-0.582204
0.459553
0.697374
-1.003
0.305627
0.290852
0.147801
0.102519
0.139951
-0.391474
0.318683
0.0727913
-0.381254
0.0484031
-0.294825
0.246422
0.651312
0.250663
0.56298
-0.716513
0.153533
0.81375
0.0904348
-0.904185
-0.988092
0.760783
0.227309
-0.167881
-0.373986
0.541866
0.956052
-0.30474
0.00238346
0.362026
0.0184658
-0.0550747
0.0366089
-0.0540731
0.0300634
0.0240097
0.569147
0.401836
-0.970983
0.607229
-0.579768
-0.0274611
-0.17916
0.107371
0.0717894
-0.149784
-0.0590622
1.12184
-0.424466
-0.325798
0.348776
-0.0229782
0.636462
-1.07507
0.438613
0.183525
-0.786968
0.571828
0.22823
-0.800059
0.649528
-0.429771
0.973669
-0.12881
-0.844858
0.280893
-0.88192
0.601026
1.30749
-0.995918
-0.311575
-0.132833
0.238857
-0.106025
0.00259416
1.02318
-1.02577
1.07385
-0.19383
-0.826473
0.0277413
0.798732
-0.479022
0.419687
0.0593348
1.01782
-0.493544
0.169441
0.284595
-0.639841
0.778717
-0.138876
-0.746404
0.917999
0.010781
-0.152387
0.141606
0.0252804
-0.0329776
0.00769719
-0.0167117
-0.188993
0.205705
0.959315
-0.146493
-0.812822
1.30414
-0.644003
-0.660138
-0.223557
0.206845
0.32082
-0.654175
0.333355
0.0767748
-0.0115507
-0.807498
-0.483842
0.685067
-0.201225
-0.668948
0.500076
0.168872
-0.0125507
-0.0246829
0.0372337
0.350863
0.95663
-0.0474824
-0.00659069
-0.031239
0.0497049
-0.706651
0.06681
-0.73289
0.933057
-0.200167
-0.658798
0.76007
-0.101272
-0.604995
-0.425748
1.03074
-0.191747
-0.0605793
0.252326
0.455967
-0.485588
0.0296206
0.845694
0.110259
-0.955953
0.01518
-0.757575
0.742395
-0.365783
0.937612
0.199077
-0.548836
0.34976
-0.415636
1.07648
-0.83463
0.544124
0.290506
0.113772
-0.152823
0.0390508
0.403966
-1.17532
0.771355
-0.917385
0.322493
-0.621608
-0.404667
1.03202
-0.633097
-0.398919
-0.267165
0.293393
0.123716
-0.130741
0.00702519
-0.775625
-0.177871
0.953496
-0.811959
1.14438
-0.332418
0.919508
-0.645071
-0.274437
0.0851458
-0.254543
0.169397
-0.235131
-0.484565
0.719696
0.160761
0.0244042
-0.462337
0.294457
-0.662941
-0.220101
0.883043
0.0893005
0.0248285
-0.114129
0.118837
-0.602679
0.134633
-0.207146
0.870664
-0.0569142
-0.139944
0.109683
-0.129263
0.15744
-0.0281775
-0.0412464
1.00056
-0.767445
0.532314
0.30935
-0.0140027
-0.295348
-0.697677
0.129139
0.568538
0.318734
0.600774
1.22142
-0.817451
0.708521
-1.18605
0.477532
0.214505
-0.733842
0.519337
0.024609
-0.408905
-0.484662
0.714964
0.661857
-0.944308
0.286979
-0.702748
0.41577
-1.19019
0.669758
0.52043
-0.023514
-0.409676
0.179936
0.142379
-0.322315
0.71117
-0.20951
-0.501661
0.116354
-0.70765
0.710244
-0.255007
-0.0707917
0.641199
1.09857
-0.888761
-0.209811
-0.0110075
-0.128212
0.13922
0.678719
0.0998496
-0.778569
0.188327
0.044448
-0.232775
-0.121755
0.637138
-0.515382
-0.252913
0.419986
0.571164
-0.372087
-0.0555988
0.150294
-0.0946957
0.897449
-0.260987
0.0905512
-0.00800108
-0.0825501
0.139821
0.00567712
-0.145498
-0.103934
0.107623
-0.00368876
1.02118
-0.657128
-0.36405
0.236918
-1.04888
-0.11346
0.00952587
-0.880527
0.286602
0.593925
1.10153
-0.321327
0.248319
-0.981209
1.26903
-0.589571
-0.679464
-0.0117433
0.101044
0.831919
-0.337717
-0.494202
-0.615207
0.141794
0.473414
-0.960512
0.961208
-0.000695892
0.27664
-0.801451
0.524811
-0.0257244
-0.0420636
0.0677881
-0.469967
0.631007
-0.16104
-0.0974524
0.032848
0.0646043
-0.145206
0.0597304
-0.114848
0.015864
-0.600184
-0.274788
0.43079
-0.758265
0.327475
0.376712
-0.201482
-0.17523
0.40795
0.315359
0.626061
-0.339083
0.0110157
0.0142647
0.667197
0.434332
-0.496685
0.0138105
0.482874
0.246609
0.585311
0.382043
0.153452
0.236845
0.139867
-0.286515
-0.0193604
0.305876
-0.0579397
0.171712
-0.676523
0.554767
-0.184815
0.239061
-0.0542464
-0.907151
0.867731
0.0394201
-0.379083
0.605998
-0.226915
-0.219837
-0.110392
0.330229
0.76513
-0.829086
0.0639558
-0.721168
-0.46902
1.30732
-0.84343
-0.463885
-0.0939141
0.0829066
0.895078
-0.618438
-0.354658
0.785449
-0.106533
-0.243848
0.35038
0.801942
-0.123554
-0.678387
1.36415
-0.280667
-1.08348
-0.388542
0.28201
0.828005
-0.484037
-0.343968
-0.15775
0.781433
-0.623683
0.634346
-0.822016
0.187669
0.207315
-0.242806
0.0354912
0.391242
-0.124784
-0.266458
1.21285
-0.966798
-0.246055
-0.525934
-0.462157
0.744663
0.353909
-0.826325
-0.0808256
-0.0202046
0.160026
0.144022
-0.768404
0.624382
0.00405147
0.119664
-0.54063
1.10978
0.381639
0.639539
1.12348
-0.692724
-0.430761
-0.756277
0.536176
0.754283
-1.22154
0.467254
-0.626704
-0.0377078
0.664412
-0.231678
-0.177428
0.409106
0.539404
-0.218584
0.0539941
0.255356
0.368232
-0.025788
-0.481823
-0.710697
0.982615
-0.271918
-0.148255
0.0189919
-0.0578175
0.0022187
0.117957
-1.07847
0.285805
-0.538717
0.145739
-0.217186
0.302968
-0.085782
-0.00253063
0.0579065
-0.518165
0.37798
0.140185
0.348847
0.27398
-0.344175
0.675264
-0.331089
0.494884
0.112345
-0.644968
0.78899
0.570819
-0.0547886
-0.19891
-0.498767
0.974198
-0.722464
-0.251734
0.934327
-0.879847
0.26547
0.614377
0.797889
-0.86438
0.0664914
-0.438574
0.35703
-0.114719
-0.0644419
-0.116136
-0.611117
0.281641
-0.542803
0.261163
0.42071
0.407296
0.765054
-1.14152
0.376468
0.222817
-0.536597
0.313781
-0.972429
0.168229
0.00896701
0.355605
-0.577647
0.88933
-0.311683
-0.260617
0.308706
-0.0480893
-0.405955
-0.106719
-0.129685
-0.223434
0.353119
0.0835073
0.000844501
-0.0843518
-0.332461
-0.146561
0.375375
0.446901
-0.822276
0.789523
-0.542914
0.297676
-0.453839
0.0152646
0.462497
-0.239681
-0.666588
-0.168042
0.00640144
-0.121605
0.115203
0.976251
-0.346049
-0.453403
0.748926
-0.295522
-0.116434
0.135596
-0.0191622
0.745514
-0.0343434
-0.19734
-0.571065
-0.49977
0.92206
-0.42229
0.676916
-1.15164
0.474723
0.579383
0.727933
0.297064
-0.275224
-0.0218403
0.0881649
-0.714869
0.682999
-1.03992
0.35692
0.108693
-0.151883
-0.07156
0.63454
-0.192466
0.47827
-0.516287
0.730792
0.188839
-1.0417
-0.902693
0.492327
0.410366
0.634925
-0.0997813
-0.535144
0.93288
-0.16775
-0.421791
-0.535525
-0.482783
0.466356
-0.27934
-0.0236823
0.303022
0.322105
-0.287809
-0.71206
0.6405
0.852835
0.217213
-0.785173
0.33177
1.09786
-0.353195
0.103433
0.0138703
-0.117304
-0.00401842
-0.609534
0.613552
-0.90294
0.170296
0.732644
0.727535
-0.727535
-0.231546
0.816546
-0.584999
0.434111
-0.778287
0.674777
-0.403208
-0.271569
-0.928291
0.962884
-0.0345939
0.339349
-0.0471677
-0.292181
0.261754
-0.109586
-0.152167
0.109219
-0.329056
-0.276956
0.465848
-0.820507
-0.849043
1.00346
-0.154414
-0.285799
0.661173
0.0606339
0.00325616
-0.0638901
-0.104929
0.186663
-0.0817345
-0.382933
0.407542
1.06449
-0.863858
-0.200627
-0.0885771
-0.524273
0.61285
-0.231075
0.250072
-0.0189976
0.118318
-0.278402
0.160085
-1.04559
0.424998
0.62059
-0.055957
-0.0198862
0.0272439
0.0761895
0.00318894
-0.0546235
0.0514345
0.52066
0.692194
0.0558978
0.00473609
-0.0546213
-0.289823
0.344444
-0.493972
0.791553
-0.297581
-0.00635866
0.0750285
-0.0686698
0.433504
-0.210963
0.991132
-0.529785
-0.461347
0.00737366
-0.419188
0.0517323
0.793962
0.423917
0.30284
-0.726757
0.466557
-0.410858
-0.0557
-1.01292
0.186444
-0.434116
0.187151
0.246964
0.42864
0.549566
-0.978205
-0.624174
0.586466
0.0459988
-0.914789
0.86879
-0.125579
0.210725
0.101715
-0.136286
0.0345706
0.020245
-0.30676
0.121614
-0.0662723
-0.0553421
-0.67575
-0.204777
0.617634
0.107922
0.0198696
-0.127791
-0.122349
0.0059156
0.169651
-0.710371
0.54072
0.208955
0.544513
-0.753468
0.339292
-0.716367
0.865052
-0.148685
-0.715045
0.557294
0.179367
0.164882
-0.401466
-0.267482
-0.25555
0.0659164
0.189634
-0.86038
0.366408
0.666399
-0.754976
0.429595
0.668264
-0.298369
0.303631
-0.00526179
0.364171
-0.883267
0.519096
0.14673
-0.265623
0.118892
0.551733
-0.749072
-0.640988
-0.0178101
-0.304811
-0.0334024
0.0456595
0.224663
-0.270322
0.343318
-0.00600766
-0.0283432
0.0343508
0.915225
-0.486585
-0.719873
0.659873
0.0600002
0.26016
0.18005
-0.44021
-0.369816
0.244237
-0.2142
-0.0413503
0.389333
0.285444
-0.246186
-0.756815
0.177105
-0.170703
0.616552
0.404699
0.16612
-0.880623
0.951897
0.0968027
-0.462476
0.365674
-0.0858285
-0.82791
0.913738
-0.00944034
0.00301408
0.00642627
0.159765
-0.351512
-0.210879
0.845226
0.911051
-0.630158
-0.432609
-0.0855566
0.011665
-0.410877
0.399212
0.405313
-1.01031
-0.107448
-0.478995
0.586443
0.0283157
-0.122885
0.0945692
-0.654006
0.053268
0.600739
0.960837
-0.675616
-0.0176475
0.0828182
-0.0651707
-0.212581
-0.0184932
0.179746
0.356425
-0.536171
0.0955406
-0.121231
0.0256907
0.63958
0.367987
-1.00757
-0.39732
1.15012
0.0807761
0.00273113
-0.255785
-0.567302
0.823086
0.391972
0.729867
0.91225
-0.703295
-0.350534
0.220849
0.245111
0.146131
-0.429771
1.18405
0.135123
-0.766812
0.631689
0.93514
-0.138808
-0.796332
-0.459123
0.710266
-0.251142
0.397713
-0.384346
-0.473534
0.85788
0.0393837
-0.0525653
0.0131816
-0.283842
-0.486138
0.76998
0.0710246
-0.175953
0.0310827
-0.0436334
0.506008
-0.78985
-0.707079
-0.206526
0.913605
-0.0636858
-0.476666
0.540352
0.176266
1.15963
-1.18484
0.0252095
0.210113
-0.152032
-0.0580811
0.00894107
-0.307311
0.261612
0.231747
-0.315002
0.0833241
-0.810846
1.01685
-0.206008
0.00644678
-0.191262
0.335105
0.314423
-0.828217
-0.243833
-0.119714
0.343198
-0.223484
0.536189
-0.13149
-0.195913
0.216393
-0.02048
-0.100272
0.00282003
-1.16915
0.547543
0.931569
0.169421
-0.132965
0.251283
-0.200003
0.460163
0.805945
-0.340097
-0.203861
0.0079486
-0.0963646
-0.615695
0.225944
0.205768
-0.194987
-0.918127
0.0151869
0.0903754
0.208764
-0.0620338
-0.996974
0.639945
0.357029
0.761189
0.142471
0.185533
-0.0606006
-0.124932
0.276131
-0.260193
-0.0159383
-0.834016
0.29206
-1.02584
0.526074
-0.220318
0.204413
0.015905
-0.0135829
-0.00751293
0.0210958
1.03997
-0.00343125
-1.03653
0.140224
0.00777822
-0.148002
-0.133803
-0.257671
0.224411
-0.0211724
0.188982
-0.20411
0.0151283
0.386151
-0.0607827
-0.325368
-0.0470167
0.235998
0.848482
-0.649589
-0.0271799
-0.142691
0.169871
-1.01209
0.201242
-0.0511073
-0.0147216
-0.102963
-0.0871311
0.195053
0.00851127
0.00250442
0.245827
0.153108
-0.398935
0.427203
-0.0303378
0.436394
-0.339591
0.190252
-0.167351
0.0617476
-0.322364
0.613954
-0.0357037
-0.57825
0.528263
-0.031221
-0.497042
-0.642111
-0.239808
0.0753356
-0.143155
0.0678189
0.395374
-0.446307
0.050933
1.11103
-0.0418921
-1.06914
-0.0447689
-0.187065
0.231834
-0.495529
0.654907
-0.159377
0.512213
0.628072
-1.14029
-0.283182
0.228008
-0.261646
0.428559
-0.166912
0.214251
0.0924933
-0.306744
-0.967157
0.474483
0.492674
-0.196288
-0.00782183
-0.843517
0.136438
0.299774
-0.18382
-0.115954
0.479131
-0.615823
0.136692
-0.0813933
-0.190294
0.178933
0.980695
0.820152
-0.135873
-0.684279
-0.841867
0.1255
0.341069
-0.53998
0.683645
-1.09832
0.414678
-0.0991294
0.279066
0.00204268
-0.395046
0.340425
-0.160354
0.208757
-0.112354
-0.768443
0.880797
0.387169
0.507909
-0.744366
0.773717
-0.0293506
-0.142365
0.188024
-0.642155
-0.260598
-0.112281
0.125691
-0.0134104
0.203218
-0.322374
0.119156
0.0315881
0.00833544
-0.0399235
-0.0808079
0.559939
-0.797863
-0.1097
0.907562
-0.730202
-0.244433
0.974634
0.475176
-0.354481
-0.120695
-0.164242
0.0190276
0.145214
-0.191281
-0.144729
0.33601
-1.00196
0.0452575
0.956705
0.0256682
0.183413
-0.209081
0.808198
-0.90295
0.0947515
-0.508914
0.58748
0.068538
-0.656018
0.0116939
-0.123975
-0.202073
-0.425395
0.627468
0.621558
-1.03719
-0.948458
0.823581
0.124877
0.110925
-0.0153845
0.658043
-0.322938
-0.0539607
-0.248227
0.302187
-0.00800756
0.121582
-0.113575
-0.283654
0.947611
-0.663957
0.467244
-0.212533
-0.254712
1.03239
-0.977185
-0.055204
0.798303
-0.324488
-0.473815
0.0432777
-0.220535
0.177257
-0.286007
-0.00881846
-0.938618
0.825731
0.112887
0.0531715
-0.99179
-0.387176
0.6344
-0.247224
-0.587177
-0.379621
0.182719
-0.159634
-0.0230847
-0.790251
-0.221838
-0.174025
0.115226
0.0587994
0.234214
-0.0458871
-0.891384
0.852681
0.0387029
-0.194436
-0.120474
0.0452846
0.151275
-0.0110513
-0.599099
0.129132
0.126684
-0.153862
0.0271773
-0.49093
0.350829
0.140101
0.354315
-0.0149662
-0.254957
0.6488
0.0967142
0.354687
0.0769366
0.270488
-0.347425
-0.106564
0.562531
-0.608373
0.389463
0.218909
-0.17619
-0.0200981
0.885324
-0.498155
0.746566
-0.382394
-0.23622
-0.169238
0.405458
0.348336
-0.78948
0.441145
0.546932
-0.610618
0.989769
-0.431988
-0.557782
-0.00361884
-0.510466
-0.097907
-0.810589
0.982329
-0.17174
0.0892059
-0.277751
0.986272
-1.06207
0.271823
0.0376599
0.169655
-0.107607
-0.289339
0.110605
-0.00298188
-0.493551
-0.518232
1.17181
-0.480496
0.313256
-0.0182981
-0.294958
0.0637813
0.197972
-0.667644
-0.368321
1.03596
0.195299
0.344104
-0.00414342
-0.135945
0.140089
0.819629
-0.0592268
-0.0676713
0.126898
0.589735
0.0242191
-0.361256
-1.02431
0.175262
-0.203605
0.00877761
0.194827
0.568806
0.700229
0.283371
0.0254265
-0.308797
0.97747
0.0549195
0.591654
-0.839845
0.248192
-0.83178
-0.00697013
0.83875
-0.75801
0.981071
-0.223061
0.131166
-0.00542277
-0.125743
-0.400923
1.02248
-0.0835021
0.246829
-0.163327
0.0204844
-0.764851
0.154618
-0.0410818
-0.113536
-0.936106
1.20734
-0.271236
-0.242838
0.534642
-0.291804
1.16176
-0.511122
-0.65064
-0.00147648
-0.597925
0.599402
-0.133982
-0.00230427
-0.496153
1.00837
0.546122
-0.777669
1.12748
-0.450561
-0.176709
0.149529
-0.865944
0.0341642
1.21618
-0.451126
-0.0248527
-1.1844
0.219854
-0.0221015
0.273523
0.529855
-0.803377
0.548976
-0.124074
-0.424903
0.705101
-0.975758
0.270657
-0.123087
0.00946418
0.113623
-0.197599
-0.470792
0.668391
0.345865
-0.284117
-0.452821
0.172192
0.280628
0.1355
0.285251
-0.420751
0.0761705
0.106548
-0.860896
1.00872
-0.147827
0.0139599
-0.0234003
0.449853
0.193175
-0.643028
0.522646
0.40093
-0.923576
0.150974
0.483951
-0.0134049
0.987074
0.00308601
0.78339
-0.786476
7.84724e-05
-0.00643713
0.0245911
0.0727655
-0.0973566
0.737599
-0.691783
-0.0458156
0.44944
0.540329
-0.0409525
0.0174572
0.0234953
-0.284761
0.805806
-0.521045
0.0131166
0.146688
-0.159805
0.392195
-0.739513
0.347318
-0.586045
-0.30862
0.894666
0.819517
-0.140797
0.296977
0.252
-0.454372
-0.113952
0.568324
0.285988
-0.81026
-0.302358
0.275411
0.0269463
0.179754
-0.0769207
-0.102833
-0.0438018
-0.09018
-0.0684106
0.649672
-0.581261
-0.126902
1.05575
0.77001
-0.619992
-0.150018
0.620422
-0.542967
-0.527401
0.163484
0.363917
0.0605721
-0.46378
-0.160688
0.125225
0.0354635
0.0561179
0.129415
0.137133
0.735567
-0.8727
0.203519
0.182632
0.120088
-0.850289
-0.419343
0.172557
0.246785
-0.312087
-0.239258
0.551345
0.468394
-0.222567
-0.841735
0.555936
0.299682
-0.245704
-0.0539777
-0.475514
0.78039
-0.304876
-0.431731
0.439105
-0.425326
0.55029
-0.124964
-0.615627
0.879149
-0.263522
-0.0207401
0.193501
-0.172761
0.0260144
-0.0395973
-0.310553
-0.620472
0.93309
-0.312618
-0.544606
0.673746
0.503871
-0.505259
0.00138777
0.0390369
-0.205551
0.166514
-1.16966
0.843575
0.326085
-0.0368509
0.0970001
-0.0601492
-0.0177332
0.631896
-0.91555
0.736629
-0.388294
-0.371226
-0.531467
-0.696342
0.699428
0.494842
0.00523424
0.37935
0.143473
-0.522823
-0.318793
0.296142
0.022651
0.292068
-0.248492
-0.0435763
0.075869
-0.407212
0.331343
-0.215151
0.514225
-0.299073
-0.758041
-0.224991
0.983032
0.174869
-0.135833
0.606849
0.13075
-0.854585
0.668402
0.186182
0.412099
-0.255829
-0.156269
0.00321488
0.167721
-0.21794
0.0502183
-0.653616
-0.381471
0.45734
0.127023
0.189814
-0.146536
0.299352
-0.0961333
0.142229
-0.516214
0.0306617
0.266903
-0.2623
0.265975
-0.00367545
-0.580167
-0.450583
1.03075
-0.068003
-0.386369
-0.512163
-0.0833891
0.595552
0.130489
0.172034
-0.302523
-0.0015688
1.13101
-0.738762
-0.392253
0.167899
0.652253
0.061476
0.423959
-0.409623
-0.0143353
-0.312719
0.819373
-0.506655
-0.574336
-0.229995
0.804331
-0.440476
0.178829
-0.409838
-0.117563
0.928593
-0.434436
-0.494157
-0.0877902
-0.0933116
0.181102
0.383089
0.0511436
-0.434233
-0.157503
0.183171
0.17467
-0.114158
-0.0605118
0.210616
-0.0226426
-0.200914
-0.00680146
0.504592
0.424001
-0.454731
0.83286
-0.341104
0.952852
-0.16425
0.0764594
-0.8472
0.272864
0.712338
-0.624173
-0.0978548
-0.61147
0.11594
0.207303
-0.594479
0.701722
-0.705741
0.81469
-0.016801
-0.187546
-0.104269
-0.28355
-0.0759323
0.359482
-0.285575
-0.0304699
0.719233
0.14047
-0.859703
0.0327484
-0.24836
0.215611
0.00817819
0.293986
-0.883243
0.589258
0.868898
-0.0606995
-0.902737
0.943798
-0.0410606
0.208754
-0.123431
-1.06014
-0.10952
-0.337511
0.85394
-0.0282092
0.330432
1.12346
-0.419672
-0.703793
-0.617096
-0.0543484
0.671444
0.150597
0.517306
-0.667902
-0.684553
0.0305466
-0.167879
-0.146179
0.314058
-0.464174
0.599297
0.135107
0.51173
-0.646837
-0.522053
0.289591
0.232462
-0.932216
0.0892385
0.842977
0.239081
0.497548
-0.219555
0.543929
0.254373
-0.299326
-0.13479
0.740099
-0.868909
-0.142104
-0.355189
0.497293
-0.332332
0.0491493
0.667359
0.0428183
-0.710177
0.63009
-0.971194
0.0142315
-0.0399559
-0.594137
0.849192
-0.255055
-0.611021
0.408949
-0.0130436
0.263579
-0.250535
-0.105601
-0.115057
0.220657
0.286426
-0.126661
-0.238021
0.57909
-0.011967
-0.208351
-0.142421
0.154115
0.280536
-0.236088
-0.0557626
0.013699
-0.173437
0.167328
0.00610856
0.191116
-0.214017
0.0229003
-0.704867
0.532291
0.11644
-0.628603
-0.0106438
-0.256521
0.0246231
0.538753
-0.563376
0.307832
-0.327192
0.245243
-0.802571
0.557327
-0.314475
0.663866
-0.349391
0.228816
-0.939513
0.0354163
-0.0258204
-0.922637
0.472563
0.69925
-0.738061
-0.103674
-0.646944
-0.232903
-0.393171
0.169736
0.270095
0.068383
-0.338478
1.14014
-0.571333
0.901647
-0.218648
-0.22267
-0.143542
0.366211
-1.0722
0.432248
0.639955
0.0584096
-0.191902
-0.0527839
0.640264
0.148246
-0.0871014
-0.493035
0.17516
-0.258662
-0.119487
0.148304
-0.0288172
-0.10723
0.826463
0.194425
-0.0897453
-0.10468
0.817203
-1.28356
0.588479
0.695084
0.228373
0.187848
-0.416222
0.599501
-0.233911
-0.36559
-0.502017
0.259179
-0.411163
0.00950114
0.373588
0.885776
-0.971605
0.384263
-0.170012
-0.390081
0.676069
-0.956872
0.682663
0.274209
0.426896
-0.77647
0.349574
-0.686993
0.72236
-0.035367
0.417586
-0.52415
0.0131006
0.228407
0.246769
0.0657635
-0.657739
0.201757
-0.901416
0.430485
0.470931
0.239966
-0.857062
0.736429
-0.046441
-0.568766
0.133844
0.174488
1.01061
-0.332607
-0.678001
-0.38837
0.255299
-0.567386
0.139801
-0.949222
0.894874
-0.749951
0.365605
0.468883
-0.888878
0.332988
0.55589
-0.869414
0.58631
0.283104
-0.264278
-0.0842114
0.112527
-0.986996
0.690218
0.296778
0.60856
-1.00948
-0.845747
-0.0151491
1.08894
-0.405291
0.317944
0.111752
-0.429696
-0.019659
-0.123775
0.143434
-0.0960777
0.482293
0.525946
-0.357516
-0.531362
0.173138
0.172727
0.224649
0.336129
-0.560779
0.353626
-0.211247
-0.0453962
-1.06569
1.11108
-0.317919
0.413357
-0.77914
-0.559527
-0.398852
0.958379
0.236057
-0.298631
-0.649523
0.202921
0.446603
0.00307665
0.00669817
-0.00977482
0.770313
-0.882667
0.120725
-0.714862
0.448423
0.315808
-0.764231
0.120123
0.193134
-0.787111
0.214792
0.572319
-0.908846
0.322801
0.51033
-0.823049
0.415588
-0.557691
0.00131895
0.00175771
-0.0377972
0.972937
-0.588907
0.728227
-0.13932
0.922403
0.0010918
-0.923495
-0.691301
-0.00936319
-0.207823
0.0628079
0.664727
0.107822
0.0277741
0.633616
-0.226911
0.661023
0.485249
0.0825812
0.209487
-0.834895
-0.0564895
-0.851836
0.389369
-0.727085
0.160611
0.176143
-0.336754
0.819908
0.050433
-0.870341
-0.0934807
0.0880579
-0.320759
-0.705086
-0.756375
-0.108005
-0.362745
0.992835
-0.319873
0.430174
-0.110301
-0.847877
0.26771
-0.260242
0.484891
-0.379019
-0.617955
-0.29996
-0.304826
0.334447
-0.440016
-0.0509132
0.98027
-0.12633
0.540593
-0.192591
-0.348002
0.0829491
0.0673453
0.233638
0.985141
-0.939142
0.0071869
-0.207784
0.296362
-0.472932
0.486742
-0.422673
-0.483383
0.197681
0.163189
-0.36087
-0.763813
0.0362777
-0.109022
0.729416
-0.620394
-0.0848442
-0.817893
-0.67874
0.77859
1.26401
-0.54249
-0.721515
-0.130426
0.317577
0.795268
-0.430028
-0.365241
0.241758
-0.2644
0.0578038
-0.0332127
-0.200473
0.0506416
0.149831
-0.131083
0.510432
-0.419638
1.0282
-0.0308385
-0.128796
-0.257222
-0.0669213
0.324143
-0.011655
0.781968
0.113264
0.242054
-0.355318
-0.356592
0.536338
0.40651
0.399296
-0.320588
-0.0987542
0.482499
-0.173136
-0.309363
-0.0464737
0.0368634
0.00961031
0.110429
-0.761108
0.650678
-0.879111
0.122736
0.200645
-0.357519
0.746888
-0.00562004
0.247378
0.105557
-0.42543
-0.973124
0.490341
-0.965462
0.321459
-0.416887
0.0339538
-0.399701
-0.546548
0.946249
-0.934686
-0.0707216
0.288832
-0.218111
0.892166
-0.662804
0.726071
-0.575474
0.149074
0.497064
-0.646138
0.203768
-0.371647
-0.691642
-0.204493
0.896135
-0.107766
0.275317
-0.16755
-0.405026
0.874098
-0.469071
0.780528
-0.490092
-0.290436
0.758661
0.0223766
-0.781038
-0.523796
-0.759767
-0.302158
-0.00265227
0.341852
0.6142
-0.0130188
0.0787482
-0.0657294
-0.641486
-0.145625
0.665227
0.579235
-0.50245
0.594108
-0.0916575
-0.121412
0.053741
0.0662031
0.355639
-0.421842
0.0918438
0.102581
-0.109879
-0.877117
-0.81225
0.301563
-0.00188145
-0.133445
0.268078
0.070291
0.695079
-0.76537
-0.48043
-0.118669
0.580347
0.209175
0.0633334
-0.213117
-0.201451
-0.00471062
0.206162
0.0937091
-0.340941
0.247232
0.305271
0.300728
0.169602
0.773544
-0.352835
0.854974
-0.441618
-0.100302
-0.229771
0.330073
0.709001
0.0724325
0.0309297
-0.626694
0.429095
0.441383
-0.453038
-0.497256
-0.450585
0.947842
-0.601227
-0.470975
-0.990447
1.0298
-0.0393559
-0.0390034
-0.363476
0.287544
0.524218
0.249326
0.0319409
-0.22876
0.196819
-0.305251
-0.613768
-0.125253
-0.722912
0.848165
0.423045
-0.227746
-0.341965
0.0396069
0.547024
-0.867783
0.44283
-0.341145
-0.303046
0.983911
-0.680865
0.480298
0.479981
0.272576
-0.752557
1.03024
-0.619071
-0.411166
-0.360622
-0.693312
1.11653
-0.423214
0.178531
0.362062
-0.258412
0.252792
0.398853
0.762909
-0.186027
0.166368
0.0255629
-0.0315706
0.902515
-0.500679
0.431414
0.708725
-0.368683
0.188429
0.180254
0.215605
-0.451825
0.711445
-0.0440854
0.532044
-0.214101
-0.653657
-0.089771
0.743428
0.166157
-0.0308922
-0.135264
0.118018
0.0920954
0.130202
-0.888212
-0.255643
0.275888
0.654701
-0.572116
-0.0825849
0.142446
0.340054
-0.129318
0.0687175
0.217935
0.221007
-0.438942
-0.476292
0.91147
0.257113
-0.525931
1.11315
-0.587222
-0.272578
0.408078
-0.341539
-0.180514
1.04795
-0.502084
-0.324241
0.23687
0.362631
0.269122
-0.279765
-0.138578
0.117838
-0.268727
-0.119638
-0.00271103
0.60243
-0.134173
0.760523
-0.626349
0.0375807
-0.0343918
-0.331334
0.0831071
-0.284363
-0.0177959
-0.845569
0.589785
0.209267
0.219292
0.048021
-0.290955
0.242934
0.271931
0.0447707
0.787974
0.425652
-1.21363
-0.0813985
-0.0186959
0.100094
-0.333731
-0.386142
0.823376
0.440629
0.735125
-0.664834
-1.12308
0.132336
0.0113301
-0.161969
0.428482
0.739359
0.143267
-0.882626
0.333294
-0.0254618
-0.0309012
-0.294599
-0.0740847
-0.493923
-0.445752
0.506324
-0.0174414
0.677314
0.536927
-0.540215
0.0032873
0.15992
0.007408
-0.0605596
0.221372
-0.0302557
0.69225
0.177694
-0.869944
-0.291031
0.171545
-0.19997
0.122261
0.0777086
-0.308102
0.0034665
0.304636
0.35412
0.484123
-0.838243
0.211232
0.257162
0.645045
-0.0143218
-0.234631
0.518816
-0.745727
-0.0427196
0.0572008
-0.0144812
-0.918328
0.513661
0.777394
-0.62347
-0.153925
0.0113947
-0.114982
0.103588
0.787825
-0.856236
0.51937
-0.0963252
0.278555
0.447516
-0.106938
-0.0127005
-0.0718608
-0.00841217
0.080273
-0.554415
-0.101482
0.998559
-0.509963
-0.488596
0.565794
-0.0292286
-0.536566
0.367149
-0.638924
0.271775
0.0212651
0.471814
-0.00931711
-0.19609
0.579457
-0.383367
-0.0556479
-0.016213
-0.274237
-0.206923
0.117178
0.674098
0.00174349
-0.675842
-0.312617
-0.251664
-0.0106365
0.0242675
-0.0068103
0.438796
0.410396
-0.128165
0.159753
0.00127434
0.060092
-0.132371
0.134031
-0.352024
0.501098
0.0129986
0.19277
-0.225134
-0.294225
0.702175
-0.0354061
0.572333
-0.121884
-0.0944173
-0.218551
0.436486
-0.192511
0.809967
-0.617456
-0.74409
-0.099427
-0.453735
0.784351
-0.330616
-0.128053
-0.0788709
0.27571
-0.0582536
-0.0195329
-0.206322
0.225854
-0.754096
0.252012
0.0882892
-0.105937
0.445904
-1.11355
0.306614
-0.873916
-0.217031
0.704258
-0.331747
0.450807
-0.2298
0.0127878
-0.594791
0.70522
0.0013268
-0.129539
0.133088
-0.487569
-0.083368
-0.549652
0.63302
0.210859
0.343568
1.15149
-0.751982
-0.39951
-0.195489
0.0571148
0.179383
0.0195262
-0.198909
-0.720205
0.131298
0.152794
0.0269598
-0.00564926
-0.102604
0.108254
0.375192
-0.828927
0.075539
0.405798
0.0201254
-0.425923
-0.896276
0.703765
0.117983
0.0328744
-0.150858
0.298362
-0.918834
-0.117783
-0.00200311
0.119786
0.151134
-0.0331508
0.00149376
0.645715
-0.494742
0.541617
0.43826
-0.227028
-0.797304
0.237777
-0.607675
0.484904
0.122771
0.439394
-0.93665
-0.435216
-0.271005
0.706221
0.0761085
0.343579
-0.261587
0.214419
1.01808
-0.132384
-0.885691
-0.00310883
-0.831786
0.693001
0.0656604
0.376038
0.41923
-0.132455
-0.00348967
0.117004
-0.25512
-0.287684
0.0551448
-0.0647086
0.00956376
0.0223428
-0.683208
0.660866
-0.0396867
0.237076
-0.19739
0.296557
-0.815578
0.519021
-0.0973111
-0.482457
-0.0291688
0.0268016
0.603316
-0.29305
-0.171751
0.464802
-0.310345
-0.365405
0.385402
-0.222213
0.0707582
-0.233513
0.162755
-0.272564
0.320585
-0.816895
-0.120674
-0.0175686
0.138243
0.101353
0.273659
-0.375012
0.71632
-0.738847
0.0225267
0.0184041
-0.487617
0.139602
-1.07571
-0.435019
-0.596256
1.03128
-0.847669
0.0369053
0.810764
-1.16809
-0.703055
0.0160622
-0.229081
0.237009
-0.00792834
-0.995842
-0.315892
1.00814
0.323874
-0.170766
0.0688604
-0.287411
-0.150039
0.407202
0.123603
0.0673251
-0.324547
0.0126797
-0.0981548
0.0854752
-0.206634
0.0738008
-0.0665046
0.0778993
-0.225081
0.453454
-0.910251
0.583981
0.326269
-0.302344
0.356339
0.538847
0.166913
-0.000756649
-0.218549
0.25049
-0.421381
-0.228142
-0.470121
0.171178
0.298943
0.101028
-0.000818031
-0.10021
-0.342131
0.43584
-0.0583291
0.626867
0.602894
-0.48963
0.488648
-0.798993
0.381527
-0.515333
0.133806
0.082586
0.000232239
-0.284183
0.00895935
-0.940578
0.540877
0.0180697
0.547725
0.0133483
-0.161893
0.148545
-1.26874
0.52234
-0.144428
0.150106
-0.161822
-0.0151178
-0.185776
0.200893
-0.482937
0.189887
-0.954225
0.844347
0.848475
-0.400052
-0.146952
0.131386
0.015566
0.185383
0.157815
-0.123432
-0.976885
0.366355
0.61053
-0.114107
0.0954107
-0.0569558
0.231891
-0.174935
0.320267
0.199103
0.028985
-0.0265989
-0.0023861
-0.217366
0.230365
-0.00374079
0.112434
0.518105
-0.739182
0.933615
0.0438551