/*--------------------------------*- C++ -*----------------------------------*\
| =========                 |                                                 |
| \\      /  F ield         | OpenFOAM: The Open Source CFD Toolbox           |
|  \\    /   O peration     | Version:  2306                                  |
|   \\  /    A nd           | Website:  www.openfoam.com                      |
|    \\/     M anipulation  |                                                 |
\*---------------------------------------------------------------------------*/
FoamFile
{
    version     2.0;
    format      ascii;
    arch        "LSB;label=32;scalar=64";
    class       volVectorField;
    location    "4.4";
    object      U;
}
// * * * * * * * * * * * * * * * * * * * * * * * * * * * * * * * * * * * * * //

dimensions      [0 1 -1 0 0 0 0];

internalField   nonuniform List<vector> 
13486
(
(2.89769 -0.462348 1.91698e-18)
(3.32128 0.520689 1.0032e-18)
(5.38921 0.0434244 0)
(-4.62993 2.21497 -6.29841e-18)
(4.76207 -0.809066 -2.38075e-19)
(4.87104 0.385188 7.03272e-21)
(4.98468 -0.184107 -4.58324e-20)
(4.02717 -1.40739 -4.74587e-19)
(3.89337 -0.711438 0)
(3.92836 1.45627 0)
(-1.12705 5.90476 -3.15414e-18)
(4.90992 -0.165249 0)
(2.56497 -0.818579 -1.89957e-18)
(4.75126 1.53144 4.87794e-22)
(4.75373 -0.317601 -7.52808e-20)
(3.84164 1.43435 -6.94334e-19)
(4.24798 -1.403 2.68141e-18)
(0.521773 -1.38827 8.68269e-19)
(4.35992 -0.043081 6.89927e-21)
(3.22709 -0.120838 -1.96692e-18)
(-5.0505 1.21539 -2.97266e-18)
(2.60766 -0.852391 2.47276e-18)
(3.3718 0.501554 -7.98258e-19)
(9.15699 -0.806174 0)
(4.01832 1.1714 2.35382e-19)
(9.09064 -0.940203 -1.8957e-18)
(0.380785 -0.299849 2.81044e-18)
(6.18115 -0.306484 2.29597e-18)
(3.97679 0.32482 0)
(6.02938 -0.959229 -2.00851e-18)
(-4.59623 -0.0410591 -2.01225e-18)
(4.59782 -0.247538 -2.16126e-19)
(6.75883 0.479764 1.57672e-18)
(4.9334 -0.471876 0)
(4.04233 -1.33899 0)
(3.44265 0.024611 8.58083e-21)
(3.03982 -0.0296887 -3.16065e-19)
(3.09552 -1.43354 8.03227e-19)
(3.60378 -0.430249 -6.73279e-20)
(3.93025 -0.441559 7.92007e-19)
(5.30561 -1.51803 0)
(2.02506 -0.986196 -2.23796e-18)
(4.25317 0.0112488 0)
(4.05858 0.998079 -1.10657e-18)
(4.10438 0.976399 4.60869e-19)
(4.90368 -0.172756 2.35337e-19)
(-1.8363 -2.03938 5.63625e-18)
(3.90535 0.314369 1.37695e-21)
(3.0454 0.0132819 2.38378e-19)
(5.67114 0.164704 7.22489e-19)
(3.99736 0.0425628 1.17804e-18)
(3.72607 -0.152446 0)
(4.86075 -0.393109 -4.50132e-19)
(3.26615 -1.1792 -1.20036e-18)
(0.475418 -1.94806 0)
(4.6682 -0.824031 4.83407e-20)
(5.52232 1.02329 4.46306e-19)
(3.74733 -0.249949 -3.10315e-19)
(6.76342 0.544044 1.97322e-18)
(2.83992 -0.468331 0)
(-1.60053 6.44874 -4.40865e-18)
(2.79088 -0.431381 0)
(6.62061 1.46163 -7.25264e-19)
(-4.95088 1.18593 -3.13562e-20)
(3.27833 -4.82139 0)
(2.96243 -0.0585743 -1.70644e-19)
(-5.1543 2.43812 -6.20599e-18)
(2.85736 0.0725741 6.88962e-19)
(3.88832 -0.767231 -4.17081e-19)
(3.28852 0.0290404 9.05558e-20)
(-4.73619 2.37138 7.07084e-18)
(0.514642 -1.79396 2.94429e-20)
(3.96189 -0.227248 6.28438e-19)
(-1.51964 -0.0856594 -1.87525e-18)
(2.73098 -0.0633946 -4.48679e-20)
(5.58318 0.934584 -8.94696e-20)
(2.68157 0.0230125 1.45273e-19)
(4.77188 -0.325393 3.95688e-20)
(-1.14462 -1.10173 -3.05053e-18)
(3.69806 -1.47499 0)
(3.78517 0.0647434 -1.03435e-21)
(3.20872 0.724826 -6.34393e-20)
(5.47115 1.27885 -1.46045e-19)
(5.47934 -0.00776106 -7.50926e-21)
(2.88558 -0.466614 -3.769e-18)
(2.54273 3.18739 0)
(2.96549 -0.670606 1.97956e-21)
(4.01372 0.0803222 -1.78867e-18)
(3.74074 0.39765 -7.8933e-19)
(3.60265 1.94363 -8.18272e-19)
(4.55314 -0.376356 -2.58169e-19)
(4.27973 -1.14692 -1.68325e-19)
(3.01565 -0.638806 4.81564e-19)
(3.30697 0.119526 5.31041e-20)
(3.7048 -1.10889 1.65491e-19)
(3.8722 0.264734 -9.10063e-22)
(0.529136 -0.578865 0)
(-5.54667 2.71189 3.84738e-18)
(3.9619 -0.440504 -1.51469e-18)
(4.00981 -1.11907 9.5387e-20)
(3.76467 0.0353354 0)
(4.71012 1.5227 -1.14245e-20)
(-5.69443 2.5331 2.18863e-19)
(3.72545 -0.217501 3.64147e-19)
(2.59739 3.04638 0)
(3.36912 -1.07697 7.61717e-20)
(3.93573 0.0844413 9.55881e-22)
(3.62532 -0.484884 -1.46444e-19)
(-1.10771 -0.841569 3.94743e-18)
(3.99953 -1.7769 0)
(3.04276 -1.4375 0)
(4.51387 -0.0941291 -6.74328e-20)
(3.28874 -1.13194 1.38216e-20)
(5.05398 0.84951 -9.97649e-21)
(2.16647 -0.127385 0)
(2.88986 -1.42095 -5.52249e-19)
(4.00272 1.20913 0)
(5.28664 -0.435751 0)
(3.94422 -0.207993 0)
(3.16585 0.132243 -1.36686e-19)
(0.857823 -1.30369 -3.80008e-19)
(-2.12978 6.28247 0)
(3.65151 -0.999672 0)
(3.62014 -0.431708 2.15822e-19)
(3.81303 -1.29807 0)
(3.72012 -0.144668 0)
(4.38789 -0.430799 1.23613e-20)
(4.33736 0.173681 4.44184e-19)
(4.4456 -0.26501 -2.62473e-19)
(4.5894 -5.49842 -3.64573e-18)
(3.66422 -0.120082 -3.85053e-20)
(-2.15573 -2.03477 -1.41759e-18)
(1.09021 0.594626 3.53214e-18)
(-0.851444 0.68844 2.37755e-18)
(3.99858 0.0192534 -1.89697e-19)
(3.75762 0.807021 -9.58619e-19)
(1.24846 1.31317 -6.21573e-19)
(3.99633 -1.72316 0)
(3.1816 0.149264 3.81233e-20)
(4.05899 -1.07561 -2.01352e-19)
(6.3057 0.499714 -1.64176e-18)
(4.85108 -0.40786 3.86679e-19)
(4.67126 -0.282951 0)
(3.76209 -1.37919 0)
(4.57797 0.0194974 -1.55837e-20)
(4.26511 1.91292 -1.47696e-18)
(4.14238 -0.4096 -1.58618e-20)
(0.673743 3.31027 0)
(5.72717 0.224808 0)
(3.99242 0.305244 0)
(4.03073 0.0190191 1.90514e-20)
(4.88466 -0.4931 0)
(3.80405 0.0477204 1.08869e-21)
(3.16669 0.697859 -5.48014e-19)
(4.3374 0.654063 0)
(5.68131 0.0547848 0)
(3.79944 -1.72069 0)
(-0.598697 1.39449 2.1759e-18)
(3.48681 -1.3703 1.51723e-18)
(3.58086 -0.61633 -2.15158e-19)
(5.54626 0.116493 3.6902e-19)
(3.51243 -1.30909 -2.30224e-18)
(4.57035 -0.487632 3.45335e-19)
(1.87158 -0.881826 9.80656e-19)
(3.77199 -0.177957 0)
(4.94688 1.53884 -1.51192e-19)
(4.61131 1.39126 2.15784e-19)
(0.975218 -0.269415 -2.58259e-18)
(4.10526 -0.396109 3.15392e-20)
(-0.832592 0.732097 6.37745e-19)
(0.502263 0.51595 5.43357e-20)
(4.32566 0.592035 3.71607e-19)
(3.99316 0.157724 -1.51518e-18)
(4.57218 -0.282467 1.50398e-20)
(3.78923 0.144008 -3.53333e-21)
(-4.91218 3.15206 0)
(4.67789 2.10017 7.49877e-20)
(6.39189 0.708253 2.07496e-18)
(3.94599 0.0716325 -1.83588e-18)
(4.69558 -0.275316 0)
(4.04997 -0.528488 1.45165e-18)
(4.99682 0.776181 -1.5214e-20)
(4.63045 -0.252658 -2.07103e-21)
(-0.0414933 0.303465 0)
(5.21209 -0.140242 4.28018e-20)
(5.72537 -0.27308 -1.02871e-18)
(4.17895 0.300155 8.66834e-24)
(5.7003 -0.743061 -5.23561e-19)
(5.24132 -1.45103 0)
(2.68916 -1.28667 -7.48416e-19)
(3.07022 0.0991891 0)
(5.27385 0.119157 0)
(3.82535 -0.340317 0)
(2.60773 1.55933 -1.17918e-18)
(3.92744 -0.432076 0)
(-1.56489 5.67242 -7.99157e-19)
(3.8133 -5.78829 8.11895e-18)
(5.73896 0.0871355 2.39399e-19)
(2.55288 -1.25292 -3.73378e-19)
(4.91539 1.45706 -3.65429e-20)
(-4.3207 -0.329278 2.11414e-18)
(4.3578 0.218299 -1.3401e-20)
(2.98738 -1.42995 -9.33807e-19)
(4.18032 -1.717 -2.62355e-19)
(3.64813 -0.601943 2.67399e-19)
(3.96936 -0.404586 -2.77209e-19)
(-0.59158 -1.743 1.26114e-19)
(3.80382 -0.107332 1.39264e-18)
(3.79541 -0.353724 0)
(5.2647 -0.110232 0)
(6.12274 -0.405132 1.64419e-18)
(8.92565 -2.6595 4.6132e-18)
(3.26526 -0.0902152 1.79297e-18)
(3.91174 0.0834998 5.07119e-22)
(4.8762 0.473744 -8.09544e-21)
(4.63225 -2.13642 2.85161e-19)
(6.08306 -0.774733 0)
(3.6038 1.88041 1.99447e-18)
(3.18876 -0.671412 0)
(5.95796 1.6558 0)
(3.4801 -1.33778 -5.05961e-18)
(5.78425 0.315726 0)
(4.00935 -1.07685 4.48654e-19)
(5.48174 0.125737 0)
(4.94755 -0.478827 -7.94591e-20)
(2.61677 -1.21454 6.52281e-19)
(5.10285 0.807569 -1.19887e-20)
(-4.2974 -0.651774 1.87041e-18)
(4.41085 -1.40154 4.56107e-20)
(3.21846 -0.718488 -1.33886e-20)
(4.0611 -0.521545 -4.69912e-19)
(4.4403 -0.539132 3.02511e-18)
(6.39307 0.498413 2.04942e-18)
(2.02929 -0.980463 7.72898e-19)
(-5.45648 1.73695 0)
(2.43612 -1.17781 7.45448e-20)
(5.4318 -0.683702 9.08674e-19)
(5.32287 0.101148 2.04851e-20)
(2.27285 -1.08763 2.0065e-18)
(4.65385 -0.167315 0)
(7.01128 0.582085 0)
(4.00642 0.110021 2.29497e-18)
(5.07185 0.447028 0)
(2.22206 -1.10177 6.58011e-19)
(3.51003 -0.513227 -1.24451e-19)
(3.61736 0.118762 0)
(4.72692 -0.0314823 -9.32897e-20)
(7.31904 -1.15394 4.69389e-18)
(-0.830064 0.0328988 3.63285e-18)
(3.9918 0.943326 0)
(-5.31215 3.74107 -1.61578e-18)
(2.09736 -0.0640744 2.96439e-19)
(2.61607 -1.2807 6.52429e-19)
(3.64536 -0.4912 0)
(4.09007 -1.26964 2.07484e-19)
(-4.66888 4.15126 1.494e-18)
(4.58626 -0.262871 2.34992e-19)
(4.52879 -2.23914 -3.62524e-19)
(1.06996 1.59899 -2.21714e-18)
(7.02661 0.493458 1.59742e-18)
(3.55276 0.422447 0)
(3.49834 -0.502733 -5.20234e-21)
(4.7191 -0.322721 1.40149e-19)
(-4.82324 3.61787 -1.82372e-18)
(4.57478 -1.34781 1.63181e-19)
(0.203612 0.26685 0)
(4.47524 -1.33541 -5.3898e-19)
(-5.04924 0.308949 -3.15089e-18)
(4.24394 -0.00585503 -7.56104e-19)
(1.92491 -0.969371 0)
(2.98961 1.79137 8.59274e-19)
(3.94908 0.096403 -5.05322e-19)
(6.11233 -0.850006 0)
(4.93751 -0.267726 2.15918e-19)
(2.59171 -1.23477 8.66481e-19)
(6.96166 -1.38057 -2.64338e-18)
(4.11704 -1.14536 0)
(1.19702 -4.06659 0)
(3.68709 -0.554995 -1.61791e-19)
(4.29944 -0.365644 4.73215e-20)
(1.11669 -4.41115 1.69695e-18)
(4.25428 -0.335041 -5.15568e-19)
(3.88319 0.134391 1.09289e-18)
(6.12947 1.94517 -3.10111e-18)
(-2.47669 5.99118 4.9422e-18)
(3.3475 -0.0477442 5.09881e-18)
(6.14562 0.671973 1.50327e-18)
(4.33203 -0.343285 3.4324e-19)
(5.31836 -0.49434 1.14914e-19)
(4.12694 0.00775173 0)
(-5.67735 1.83003 0)
(3.33274 -0.524572 1.37365e-19)
(2.9472 -1.41134 5.83638e-19)
(3.99469 0.0383658 -1.86214e-19)
(5.44904 -0.656352 8.41371e-19)
(5.56665 -0.728184 0)
(5.09584 -0.0355679 -5.40443e-19)
(4.98792 -0.22996 -1.66194e-19)
(3.86642 0.103206 -9.99123e-19)
(5.35027 -0.559585 -9.22079e-19)
(3.98651 -0.486525 -4.11901e-19)
(-0.37014 -1.66951 8.81863e-20)
(4.46212 -0.352342 -4.10141e-20)
(4.60767 -0.247222 2.19891e-19)
(3.17423 0.0504132 5.11631e-20)
(3.6049 -1.6475 0)
(2.45653 -0.332132 0)
(4.36214 -0.0734285 1.98029e-19)
(3.17973 -0.766275 1.14001e-20)
(3.05459 0.0612495 0)
(3.82115 2.76349 -4.17315e-18)
(-4.71374 2.29731 0)
(4.50393 2.04261 8.70698e-20)
(4.53403 -0.119582 -1.82847e-19)
(1.56842 5.82525 0)
(3.74062 0.763789 -6.03544e-19)
(3.31967 -0.530699 -2.03011e-19)
(3.72928 0.360741 -6.82344e-20)
(3.78553 -0.0963135 -1.54736e-18)
(4.68335 -1.35807 0)
(2.94438 -0.00121596 3.12563e-19)
(3.3337 -0.44547 1.7482e-21)
(3.9632 0.0767284 2.31853e-19)
(3.26807 0.23266 -9.98883e-19)
(1.5203 1.26775 1.13277e-18)
(4.59682 -0.345259 5.41058e-19)
(4.49173 -0.582166 -6.69407e-19)
(4.28733 -0.330105 0)
(5.12711 -0.216746 3.59159e-21)
(4.564 -0.566153 -2.56732e-20)
(4.00426 0.0387485 2.59529e-18)
(4.35974 -1.12055 0)
(4.44762 -0.416872 -1.62211e-19)
(2.88701 0.713059 0)
(5.05657 -0.117369 1.51272e-18)
(3.8341 -1.02127 -4.16125e-19)
(1.60373 -0.748504 9.45057e-19)
(4.85932 -0.547632 3.11168e-19)
(4.03687 0.359172 0)
(3.47447 -0.505588 -1.92205e-19)
(4.56274 -1.37797 5.87719e-19)
(3.29029 0.227397 9.41859e-19)
(4.60963 -0.570542 2.74863e-19)
(4.62314 -0.254345 3.45505e-19)
(-3.54902 4.24672 -2.99663e-18)
(3.90557 0.290374 1.33278e-22)
(4.451 -0.299747 0)
(2.06814 -0.698809 2.28696e-18)
(5.96575 1.58276 0)
(3.34147 -0.4898 -2.84239e-21)
(4.49299 -0.16438 7.78697e-19)
(5.06959 -0.244708 -1.60572e-19)
(4.95924 -0.259557 1.68437e-19)
(0.625667 -0.704586 -3.15182e-18)
(3.88436 0.104412 1.24542e-18)
(3.61947 0.0598383 0)
(-0.898329 0.355324 -1.79541e-18)
(4.40365 -0.425051 -2.40684e-19)
(3.2712 -0.718794 -1.79299e-20)
(7.95882 -3.1665 3.42317e-18)
(5.089 -0.0389012 0)
(4.70913 -0.431943 4.12328e-19)
(3.59779 0.269675 2.00199e-18)
(3.93448 0.111263 1.54201e-18)
(6.06097 -1.03081 0)
(3.82281 0.0375838 -5.28187e-22)
(5.58406 -0.687404 -8.53525e-19)
(-2.75829 -3.13344 8.37982e-19)
(3.19142 -0.125885 2.49441e-19)
(4.41658 -0.383326 2.28105e-19)
(4.39032 0.0135358 2.52782e-21)
(4.43611 -0.312383 0)
(4.96413 -0.487363 -2.64152e-19)
(-5.14851 4.16932 1.53316e-18)
(4.81441 0.850207 -3.00381e-20)
(3.99576 0.0452379 9.87684e-19)
(3.03819 0.0280755 0)
(3.39179 -0.469119 -2.29174e-19)
(1.63555 6.02927 0)
(6.31284 2.43812 -9.96249e-19)
(4.26973 -0.023364 0)
(4.3451 -1.33794 -3.33582e-20)
(2.69526 -0.255508 -5.46586e-19)
(3.01998 1.60327 2.01345e-18)
(-2.34407 -2.47461 -3.10391e-18)
(4.20531 -1.15956 0)
(4.58268 0.148418 -3.01513e-19)
(4.04842 0.380659 -6.13686e-19)
(2.01495 -1.65402 -1.12508e-18)
(-4.40159 0.453337 2.90502e-19)
(3.32022 -0.123065 -2.68966e-18)
(6.19731 -0.681467 9.16778e-19)
(4.1493 0.381534 4.45448e-19)
(2.94937 -0.892533 0)
(2.76809 0.557163 1.11805e-18)
(3.20481 0.235349 -1.09418e-19)
(-4.97546 2.39949 3.75377e-18)
(-5.18172 3.84646 -5.13032e-18)
(2.69129 -1.76489 -2.67846e-18)
(6.23846 0.611803 0)
(2.10582 -1.72526 0)
(3.91664 2.23609 0)
(4.21829 -0.137023 0)
(2.81778 -0.476588 -1.33526e-18)
(4.89044 -0.0589991 0)
(2.82877 -0.54635 0)
(3.35452 0.178407 3.81047e-19)
(6.4276 0.796294 -2.17723e-18)
(4.39806 -0.299915 -6.28679e-19)
(3.40615 0.592354 3.38596e-18)
(4.01681 0.044145 -3.11989e-19)
(4.4718 3.20131 0)
(6.25182 -0.429181 0)
(3.85427 0.109752 1.06941e-18)
(3.97658 0.0442797 1.85971e-19)
(2.57566 1.71553 0)
(-0.431878 0.514168 3.21049e-18)
(4.54429 -1.38836 -1.84784e-19)
(-0.290165 0.045423 0)
(4.64991 -0.167039 4.03328e-19)
(3.94525 0.0825721 -1.2376e-18)
(1.54782 0.549985 -4.71729e-19)
(2.05097 -0.679978 0)
(4.01399 0.377194 1.14353e-18)
(5.24053 0.520149 0)
(5.67723 -0.71583 0)
(4.38907 0.423825 -6.30016e-20)
(3.86571 0.141145 5.8e-19)
(0.543942 -0.32589 -3.63796e-18)
(4.53441 1.36835 1.20361e-19)
(2.72164 -0.676 -9.34609e-19)
(4.22216 -0.113622 1.02115e-19)
(4.15595 0.397304 3.5118e-19)
(5.36408 -0.50093 6.36948e-19)
(4.76587 -1.3212 0)
(7.25016 -0.80257 2.10842e-18)
(2.70399 -0.144148 0)
(3.34977 -0.500668 1.23925e-19)
(4.5357 -0.306528 0)
(2.90453 0.0977629 1.44487e-18)
(-1.1411 -2.38 -4.6621e-18)
(6.13722 -0.637154 0)
(-0.229871 0.646904 1.08783e-19)
(6.32372 -0.484027 -1.94311e-18)
(3.38232 -0.5329 -5.77635e-20)
(3.58348 -0.515134 2.2848e-18)
(2.78452 1.57059 -1.30654e-18)
(2.69737 -0.674507 -2.68494e-18)
(6.63382 2.43036 0)
(3.13748 0.101139 1.29023e-19)
(-3.76753 4.93476 -7.86488e-18)
(4.01919 0.408934 0)
(3.6945 0.412713 7.38791e-20)
(5.67221 0.0468353 -1.54344e-19)
(5.22416 2.29289 0)
(4.0067 0.0211638 0)
(-3.85397 2.60857 0)
(-4.74689 2.62533 7.33011e-18)
(6.0369 2.28544 3.74975e-18)
(4.79879 2.27509 -5.90944e-20)
(4.43896 1.97359 0)
(3.45457 -0.340272 1.66138e-18)
(3.76911 0.143484 6.82171e-21)
(4.52897 1.26697 -2.52046e-19)
(-4.84944 1.7932 5.20697e-18)
(3.82757 0.279556 0)
(3.93891 0.314085 0)
(1.54419 -0.241285 -1.61034e-18)
(2.891 -0.864879 -6.30492e-19)
(3.93085 -0.330309 0)
(3.20573 -1.53057 -3.11412e-19)
(3.86795 0.0409273 -6.43364e-21)
(3.88807 0.235888 1.7039e-21)
(1.76102 -0.81564 0)
(4.07971 -0.178144 3.58158e-19)
(3.20717 0.169248 1.03604e-19)
(5.23714 0.474291 3.08958e-19)
(3.8039 -1.06796 0)
(3.97129 -0.253802 -7.73386e-18)
(5.0076 -0.250717 1.81018e-19)
(4.00391 0.15728 2.36647e-19)
(3.48087 0.0698881 4.08652e-20)
(5.07215 1.52234 0)
(3.35127 0.598547 -9.0238e-19)
(5.97215 1.2886 -6.68265e-19)
(3.16246 -1.72309 5.42576e-19)
(4.0254 0.0914758 0)
(-4.36691 0.385912 -2.99704e-19)
(1.03632 -0.179438 0)
(4.0202 0.0853711 -9.15579e-19)
(3.98361 0.1133 3.92312e-19)
(3.76814 0.0683579 -2.08943e-19)
(-4.80276 3.24649 0)
(5.05042 0.00106615 -4.53402e-20)
(2.23335 0.848351 3.1315e-18)
(4.68323 -1.30353 0)
(3.28899 0.146376 1.20744e-18)
(5.25961 -0.652444 1.04307e-18)
(4.49212 0.0181618 0)
(-4.79163 -0.0665565 1.62224e-18)
(3.74492 -1.3089 -3.36527e-19)
(4.42735 0.0141486 0)
(3.15827 -0.664765 5.45168e-18)
(3.66546 0.39424 0)
(3.56067 -1.59312 5.24975e-19)
(-5.42799 3.71707 3.25907e-18)
(4.16259 0.33627 7.46192e-23)
(4.92955 0.404544 -8.94381e-20)
(2.74816 0.549592 5.89961e-19)
(3.56699 -0.563376 -8.43702e-19)
(4.21338 -1.03399 -2.24314e-19)
(3.58336 -1.57347 1.33055e-20)
(4.37091 -0.390089 2.4437e-19)
(5.05318 1.52273 3.39203e-19)
(4.1676 -1.8191 0)
(3.99401 0.0319421 -8.75858e-19)
(0.0990787 0.0277718 -1.8714e-18)
(2.76355 -0.152486 0)
(3.05174 0.434549 -4.0705e-20)
(3.18342 0.0360077 0)
(2.46791 -0.707228 2.34375e-18)
(4.27484 -1.50725 0)
(3.62799 0.0204694 -1.96821e-20)
(4.5289 -0.179309 -4.42076e-19)
(-4.60804 -0.427863 3.01991e-18)
(-4.78253 2.93649 4.73385e-18)
(4.91103 -0.0436085 -3.96162e-21)
(3.35971 -1.58892 -3.34224e-20)
(3.61815 -0.994056 7.0962e-19)
(3.00871 -0.642961 0)
(1.02061 -0.570478 -1.83065e-18)
(4.81326 -1.14092 2.7321e-20)
(1.10002 -0.552855 -2.12404e-18)
(3.87787 0.271574 -6.42575e-22)
(2.91184 -1.11642 0)
(4.43334 0.00327635 -5.28336e-21)
(-0.115293 0.576394 0)
(-5.64792 2.71982 2.24113e-19)
(0.927376 0.639172 5.48908e-19)
(1.70146 1.31928 0)
(4.18959 -0.99606 1.30378e-19)
(3.28275 -4.58716 0)
(5.29305 2.06024 0)
(3.29235 -1.53706 -6.96803e-19)
(2.95061 0.633175 9.03075e-19)
(3.17461 -1.6583 0)
(3.6187 0.321487 -5.54662e-19)
(4.0899 1.87374 1.23905e-18)
(-4.94444 4.40398 6.78258e-18)
(5.16304 2.77788 0)
(4.2849 -0.0443494 0)
(-3.4379 4.92009 -3.45194e-18)
(3.79066 -0.211102 0)
(5.29679 -0.0337468 0)
(-2.18634 6.39904 -1.25269e-19)
(4.16826 -0.686922 -7.84771e-19)
(3.51353 -0.814593 6.58782e-19)
(7.26656 0.420819 2.36921e-19)
(1.0416 -0.561994 3.8505e-18)
(3.9812 0.101071 4.45514e-19)
(3.07702 -0.70901 0)
(4.28273 0.951468 -1.8113e-19)
(2.86984 -0.413256 0)
(4.96578 0.0125475 0)
(3.99446 0.198955 0)
(4.36454 0.386204 -5.1615e-20)
(3.75895 -0.0903543 7.25374e-19)
(4.96685 0.343722 2.09178e-20)
(3.17144 -0.716979 0)
(0.445944 -0.480586 -2.59961e-18)
(3.95914 2.14879 3.10396e-19)
(3.81156 -1.32881 5.253e-20)
(4.50997 -0.374573 -5.74337e-19)
(6.91811 -1.37784 4.20624e-18)
(4.14164 0.0789765 -7.01334e-19)
(-1.04637 -2.41484 0)
(4.9758 -0.24179 0)
(2.8822 1.59709 0)
(2.49907 -1.09797 -1.66277e-18)
(-1.9318 -3.42662 -4.08504e-18)
(2.75511 1.2783 0)
(4.33657 0.981165 0)
(4.99423 -0.518468 3.64999e-19)
(3.98736 -0.0142622 -1.63051e-19)
(3.76088 1.193 1.0171e-18)
(4.21901 -1.72188 0)
(0.84078 -0.267513 -9.70655e-19)
(4.65409 0.170355 1.18046e-19)
(2.82557 -0.792889 -1.538e-18)
(4.41467 0.154022 -2.91764e-19)
(4.50382 1.27953 4.24021e-19)
(7.60442 -0.810347 5.61319e-18)
(2.46001 -1.10815 2.8925e-18)
(4.78212 -3.57717 2.09781e-18)
(5.0848 0.708834 -1.85106e-20)
(3.99919 0.0190709 -2.15612e-19)
(2.9647 -1.35831 -7.40107e-20)
(3.7794 -1.21312 1.43359e-19)
(3.03363 3.90809 -1.20771e-19)
(3.17825 -1.5086 1.8223e-19)
(5.07617 -0.197413 0)
(3.13747 -0.603054 -7.78189e-21)
(4.32581 -0.0410626 -8.69918e-19)
(5.6287 1.66712 3.79571e-19)
(2.77221 -0.728113 -1.4159e-18)
(3.76711 -1.26846 -6.27709e-19)
(4.03168 -0.0222171 1.33172e-18)
(5.22235 -0.117044 -7.53142e-19)
(2.69542 -0.561951 -2.32481e-19)
(6.0813 0.667178 -8.14392e-19)
(2.33171 -0.334988 -3.29686e-18)
(4.41789 0.00137149 -7.00113e-19)
(2.29591 -0.441719 0)
(-4.86086 -0.112556 -7.71855e-18)
(4.12595 0.0586332 1.65662e-18)
(3.19721 0.00204181 1.85585e-21)
(-1.5006 -0.204026 0)
(3.72111 -1.69029 0)
(4.01468 0.853961 8.8811e-19)
(2.06445 -0.31081 2.06802e-18)
(2.23964 -2.97629 -1.09871e-17)
(4.39505 -1.3329 -6.46427e-20)
(4.52917 -0.603293 3.50155e-19)
(6.06234 1.58597 0)
(4.03631 0.933062 4.83395e-19)
(0.0965707 -1.40575 -5.66169e-20)
(4.76699 2.16227 1.92195e-19)
(4.00469 -0.480693 -8.84425e-19)
(0.99022 -0.579297 -6.27346e-18)
(6.68647 -1.44943 -3.91715e-18)
(7.48824 -0.839393 1.1665e-18)
(4.34172 2.39245 0)
(5.05324 -1.25584 -4.56248e-19)
(3.78516 0.0602693 1.89691e-19)
(3.79057 0.0900689 -3.44522e-21)
(1.8902 -0.908832 2.69929e-18)
(3.95254 -0.48523 1.32299e-18)
(3.76616 -0.698161 1.3112e-19)
(-5.03692 4.13719 -3.90495e-18)
(5.37718 -0.45261 -8.37416e-19)
(4.37971 -0.0156376 6.24891e-19)
(-2.06082 5.74436 -5.86896e-19)
(4.60967 2.02105 4.86578e-20)
(3.68988 -0.848 -5.90691e-18)
(2.33572 -1.12996 -8.25207e-19)
(3.8302 0.0867648 0)
(5.50333 1.02643 2.90167e-19)
(-3.7111 6.00858 -3.14655e-18)
(2.68032 -0.308666 2.95062e-18)
(4.31761 0.261481 0)
(4.35051 -0.573319 3.98114e-19)
(2.37182 -0.962919 6.64071e-19)
(3.99341 0.0720048 -1.91679e-18)
(-3.50305 3.39266 -3.33102e-18)
(3.21996 -1.57995 -6.2008e-20)
(4.41243 -0.304184 4.21754e-19)
(4.54484 0.157403 4.37422e-19)
(3.6194 -1.61585 -6.69665e-19)
(5.02965 0.449558 -4.11227e-20)
(-1.35804 -3.41207 -1.15151e-17)
(4.28486 -0.0325625 8.16396e-19)
(4.1989 -0.0962378 -4.47375e-19)
(4.26821 0.21335 -2.07556e-20)
(4.63809 -0.0526626 -9.18215e-19)
(2.28501 -0.98966 -1.28642e-18)
(5.02585 0.661671 0)
(-5.29588 2.13725 5.49145e-18)
(4.21257 0.0872652 1.3557e-19)
(2.82107 0.342607 -4.30944e-19)
(5.00303 0.116274 -4.12152e-20)
(4.43676 -0.675523 -2.65907e-19)
(3.9993 0.0360401 -1.5357e-18)
(4.1516 0.655923 2.68813e-19)
(-0.636603 0.888634 -3.31181e-18)
(5.39267 -0.0293919 0)
(3.40387 -0.460478 1.19217e-19)
(5.07778 -0.261159 1.64142e-19)
(2.93266 -1.08355 0)
(4.24358 0.166442 5.00482e-19)
(5.09379 -0.225917 1.73839e-19)
(5.30792 -0.00458261 7.00246e-24)
(5.494 -1.50987 8.92016e-19)
(4.07182 -0.390075 0)
(3.54424 0.678104 1.65155e-18)
(3.95099 -1.15434 -2.54325e-19)
(3.10138 -1.48331 5.3157e-19)
(4.06725 -0.327435 0)
(2.94769 0.562013 -2.60545e-18)
(1.18634 -1.01291 -4.36024e-19)
(4.72393 2.91356 -7.17402e-19)
(2.35287 -0.376013 3.17416e-18)
(4.51673 0.0369917 -1.66599e-20)
(-4.63734 2.94696 3.62067e-18)
(3.89723 -0.188235 -1.06072e-18)
(7.11567 -0.465708 -2.74601e-18)
(3.56905 0.277336 -1.16529e-18)
(4.36345 0.0287064 0)
(3.99757 0.0397259 -8.13002e-19)
(0.561709 -0.187115 6.34261e-18)
(-0.848643 0.686896 0)
(8.84987 -2.0048 0)
(3.79516 0.0941971 0)
(3.45706 -1.64558 0)
(4.07342 0.637753 0)
(2.20715 -0.307522 0)
(4.92579 -2.11398 -4.43883e-20)
(5.51038 2.36426 -1.30684e-18)
(5.15108 0.877661 0)
(3.51538 0.642082 2.51139e-18)
(1.98506 -1.18475 6.03612e-19)
(4.14484 0.408485 1.90566e-20)
(-3.24294 6.15838 -1.30405e-18)
(2.2305 0.12619 -3.04315e-21)
(-1.06913 1.32348 2.90294e-18)
(3.91679 -0.00168804 -3.08674e-19)
(5.73425 0.127782 1.08557e-19)
(4.02645 0.599007 -6.05338e-19)
(3.74726 0.337492 -1.56486e-18)
(3.85048 2.00464 -7.33298e-19)
(6.41334 2.41182 0)
(-4.7568 0.9815 9.24567e-19)
(2.51896 -0.74662 -2.57508e-18)
(4.014 0.0227064 -2.46864e-18)
(4.8374 -1.18637 7.32401e-19)
(4.38545 0.00312896 1.54204e-19)
(5.77853 -0.907486 -1.47863e-18)
(4.29434 -0.520942 -8.43519e-20)
(4.20827 -0.973557 -4.41401e-19)
(4.0476 0.340105 6.41869e-19)
(3.61013 2.52267 0)
(4.16469 -0.89932 -1.99782e-19)
(3.39138 0.125739 -3.53169e-19)
(4.84197 -0.0186871 0)
(3.72038 -0.490417 0)
(3.79747 -1.69714 -1.86885e-20)
(-5.20129 3.10525 4.07755e-18)
(4.80247 -2.23477 -1.53245e-18)
(3.53417 -0.112703 0)
(3.83776 -0.105324 -1.45342e-18)
(3.60409 0.415191 -3.05884e-19)
(-5.4076 1.11297 3.05603e-18)
(5.18548 -0.140823 5.66726e-20)
(-1.83738 1.85884 0)
(-4.86158 1.08742 1.10485e-18)
(5.21362 -0.180992 0)
(4.984 -1.33597 4.84942e-19)
(4.57167 -0.423677 -2.98432e-19)
(4.0072 0.0282596 -2.61322e-22)
(4.65497 1.41632 -3.82507e-19)
(5.14975 2.56593 -1.17105e-19)
(3.53128 -0.946664 1.52281e-18)
(-3.26392 -0.901455 0)
(2.50247 -5.47092 -6.87741e-18)
(2.29046 -2.44603 0)
(5.27334 0.884196 -1.45659e-19)
(-5.65125 1.8276 5.74392e-18)
(9.48622 -2.03565 4.58393e-18)
(3.44563 -0.448602 -1.20384e-19)
(-4.29546 4.80977 -9.42919e-18)
(2.77087 -1.35141 -6.16212e-19)
(2.60688 -0.757514 -1.45271e-18)
(3.17252 0.212304 3.947e-20)
(3.60559 -5.59639 5.67538e-18)
(2.33947 -1.01622 1.06267e-18)
(2.71775 -0.809077 1.59279e-18)
(-1.78909 -2.89172 4.78274e-18)
(4.83784 -5.16858 -3.6633e-18)
(3.73864 -1.11168 6.57556e-19)
(-2.33089 -2.61006 3.30494e-18)
(5.02239 0.0895214 -2.28823e-20)
(1.97242 -1.30395 -5.04497e-19)
(4.61631 0.904344 -1.78475e-19)
(4.62294 -0.874583 0)
(3.1837 -1.74097 -5.56855e-18)
(4.18734 -0.0337845 -1.00647e-18)
(3.98374 0.223908 0)
(5.22487 0.810449 0)
(1.47625 -5.35882 -2.83868e-18)
(7.96951 0.0661982 -2.67883e-18)
(4.85178 0.524504 -3.88686e-20)
(4.15556 -0.678927 1.02157e-18)
(3.82688 1.91581 6.63869e-19)
(3.06521 -0.0185827 8.44505e-19)
(-5.80756 2.3371 -3.77641e-19)
(3.52531 1.24986 0)
(2.77217 -0.864576 1.52068e-18)
(-0.0327462 2.64552 8.34243e-19)
(-4.3746 4.30074 7.21869e-18)
(3.49515 -1.28526 2.33183e-19)
(3.80469 -1.71181 3.08067e-19)
(3.80501 -0.0296033 4.50594e-19)
(3.57071 -0.427462 7.2238e-20)
(5.8706 -1.04989 2.06565e-18)
(-5.49788 2.145 -3.98369e-18)
(4.80651 0.511932 3.85904e-20)
(3.89897 0.0915255 6.168e-19)
(2.2877 -0.441169 -1.31004e-18)
(3.80438 -0.168818 8.91942e-19)
(2.21641 -0.521453 0)
(4.80094 0.885783 7.8691e-20)
(3.95519 0.0758063 1.38379e-19)
(2.97399 -0.586348 -4.85321e-19)
(3.51152 3.50239 3.5682e-20)
(3.68258 -1.08902 5.22369e-19)
(4.20218 0.0503306 2.54473e-19)
(2.7631 0.239624 -1.99852e-18)
(4.89017 -0.12343 0)
(3.41876 -0.415944 -2.34182e-19)
(4.45162 0.203698 3.97814e-19)
(4.69261 -0.396352 0)
(2.81401 0.0247994 1.12475e-18)
(5.21656 -0.13325 0)
(3.40307 3.44313 6.43003e-19)
(5.00942 -0.0594052 0)
(4.15837 -1.0125 0)
(4.96502 -0.114315 1.16344e-19)
(4.80502 0.405824 7.91736e-20)
(5.92399 0.847984 -1.10563e-18)
(3.8369 0.258564 -7.14533e-19)
(3.0662 2.33112 -5.34102e-19)
(3.99026 0.177028 -2.92167e-19)
(4.12743 0.654943 0)
(-1.36332 0.046884 2.53071e-20)
(5.0354 0.399839 1.53521e-19)
(4.87154 -1.30556 -9.75426e-19)
(4.60841 -0.87624 0)
(5.70011 1.63585 5.92874e-19)
(4.15317 3.23105 2.57675e-20)
(4.94301 0.0591865 -8.06504e-20)
(1.02548 3.39248 0)
(-1.54674 6.53566 4.01198e-18)
(4.0783 0.323658 0)
(5.87735 -0.850417 -9.92443e-19)
(-0.878887 0.0749348 0)
(2.15457 -0.165879 0)
(4.68655 -4.11058 0)
(4.1739 -1.50575 0)
(-0.774012 3.66768 -4.40989e-19)
(-4.72286 2.18913 -1.60792e-18)
(3.73981 -0.0723845 -1.09436e-18)
(-4.97345 -0.203918 -3.9029e-18)
(2.50064 -1.06197 0)
(-4.31495 -0.744062 -3.36006e-18)
(-0.970099 -0.0955242 -3.55599e-18)
(3.15871 -1.46304 0)
(2.94257 -1.00778 -1.54555e-18)
(2.63446 -0.0924071 -6.23771e-20)
(4.59077 0.880883 4.30004e-19)
(5.18793 -1.5112 -6.58393e-19)
(3.723 0.318622 0)
(4.56352 -1.30431 0)
(6.19057 1.33337 4.12096e-19)
(3.77971 -1.07223 3.60422e-20)
(3.16207 0.0162382 -1.00942e-19)
(1.30951 -4.83926 2.63575e-19)
(3.99244 0.00790569 6.01819e-20)
(5.48584 1.04664 -5.09596e-20)
(4.0359 0.339195 9.26839e-19)
(3.36614 -0.449611 1.2131e-19)
(3.82843 -0.982478 0)
(1.35161 -0.529458 0)
(5.02627 0.394764 0)
(3.40807 0.0532509 0)
(3.49533 -0.610441 6.25216e-19)
(6.07213 0.29725 0)
(-1.74328 6.31196 6.91764e-18)
(5.77952 -2.31684 2.37162e-20)
(2.65275 -0.831161 -2.41988e-18)
(1.87059 -1.09152 -3.08535e-19)
(-5.1767 1.31162 -2.97224e-18)
(-1.05645 6.42599 -3.18713e-18)
(4.08145 0.0801859 2.01422e-19)
(-5.51598 3.15668 -3.67023e-18)
(3.33264 -0.459094 1.93865e-19)
(5.02687 -0.0839367 0)
(4.68137 -0.435504 0)
(2.6677 -0.94745 0)
(4.43334 -0.697161 1.29835e-19)
(4.40809 -4.58764 0)
(3.61506 1.21692 0)
(4.0053 0.00856751 0)
(3.55867 -0.832464 6.08822e-19)
(4.15823 0.39746 -8.94786e-19)
(3.28087 0.0453722 0)
(5.20031 -2.06377 -1.41516e-18)
(3.94054 0.348759 -8.72221e-19)
(4.811 1.94774 -4.04656e-19)
(3.1893 -1.46873 8.00011e-19)
(3.74076 1.34683 1.52194e-21)
(3.69789 -1.55559 -2.81836e-20)
(3.65881 -0.53641 1.60182e-19)
(4.24554 -1.34659 -4.3869e-19)
(4.75977 0.405297 -9.32268e-20)
(3.17917 0.0694035 -2.12632e-19)
(3.6412 0.135213 -1.09701e-18)
(4.25835 -0.030703 0)
(3.09581 0.309078 3.18373e-19)
(3.92226 0.0978747 1.13167e-18)
(0.44215 -1.57909 -3.89138e-19)
(4.26984 -0.495242 -2.59805e-19)
(2.12568 -0.359123 -2.26261e-18)
(4.7832 0.366182 1.33139e-20)
(5.98795 1.29124 9.55334e-19)
(3.99282 0.153849 0)
(2.85711 -0.50624 -4.67341e-20)
(3.5256 -0.200836 -7.2814e-20)
(4.31628 -1.36617 9.04834e-19)
(-4.91061 1.63814 -5.7454e-18)
(4.0654 0.0361624 5.50691e-19)
(5.09762 0.596343 1.77078e-20)
(4.48957 0.0474066 1.32612e-20)
(4.91558 0.356299 0)
(1.69629 -0.645802 0)
(2.94028 -1.39715 1.03433e-18)
(-3.18108 2.83788 3.6254e-18)
(3.82043 0.055048 1.76062e-22)
(3.92443 0.10078 2.26275e-18)
(2.92056 -0.54178 1.54998e-19)
(2.89393 0.51291 0)
(3.58525 0.167534 0)
(3.23054 -0.687294 -2.12954e-20)
(4.79091 -0.03907 1.85e-19)
(3.84114 1.29589 1.3664e-18)
(4.69237 -0.247349 0)
(4.77721 0.0787627 0)
(4.25998 -1.08695 4.00802e-19)
(4.02328 -0.297165 7.52223e-19)
(-0.794318 0.507745 -7.85684e-19)
(4.00134 -0.23419 0)
(1.06654 -1.01604 2.19386e-19)
(6.10143 -2.33448 -6.90059e-19)
(-3.72055 5.45176 -3.39417e-18)
(4.039 -0.0448432 -1.12846e-18)
(7.39069 2.10427 0)
(8.00532 0.397946 2.1776e-18)
(2.10674 2.6353 -1.05365e-17)
(-0.417942 0.166728 0)
(3.41479 0.070505 -1.2884e-19)
(3.8358 0.195526 -7.50234e-19)
(3.70141 0.0312567 -6.34019e-23)
(4.60945 -0.374158 1.70104e-19)
(2.57763 2.43711 1.29324e-18)
(4.13307 0.0405461 0)
(2.09778 -0.743213 -2.07495e-20)
(2.73259 -0.501246 -1.4931e-19)
(2.39456 5.32677 -6.35981e-18)
(4.05744 0.591181 7.20365e-19)
(-2.79209 -0.817213 1.18551e-18)
(4.12524 0.0348455 -2.52826e-18)
(3.51315 -0.637888 -6.64088e-20)
(3.53935 -0.513321 1.36743e-19)
(3.47677 -0.753868 0)
(3.593 -0.00278109 -3.60509e-19)
(2.27085 -1.03925 8.4508e-19)
(4.47266 -0.172927 -8.84624e-19)
(3.96789 0.0767126 -1.01162e-18)
(5.77667 -0.881314 8.73266e-19)
(3.35285 -0.334986 2.49863e-18)
(4.90272 0.0733305 3.02637e-20)
(3.55811 0.181097 6.56422e-19)
(3.00365 0.403948 -1.6426e-19)
(7.29856 0.488349 -2.60578e-18)
(4.64477 2.14997 -1.99951e-19)
(2.8164 -3.05712 8.51347e-18)
(3.88854 -0.0369467 0)
(2.91573 -0.870833 0)
(4.48945 -0.219681 0)
(2.65734 -0.773828 1.86833e-18)
(4.17487 0.0759929 -1.6237e-18)
(3.57661 0.441039 0)
(3.06027 -0.626218 -1.41359e-18)
(3.57367 0.36894 0)
(3.51804 -0.542436 -1.02043e-18)
(4.80268 -1.37653 -1.05809e-18)
(3.76994 -0.925397 -7.39009e-19)
(4.22382 0.0429044 0)
(3.90832 0.0741268 0)
(4.7201 -0.429621 5.1225e-19)
(5.10482 0.733134 1.19954e-20)
(5.84288 -0.0363565 8.67848e-19)
(4.48473 3.42007 -1.90776e-20)
(4.61826 -0.300786 0)
(3.51531 -1.23915 -3.88959e-19)
(-0.512691 0.902273 0)
(1.81977 1.79714 -1.1421e-18)
(5.18087 2.5615 0)
(5.04553 0.552683 -3.15566e-20)
(2.34107 -0.304709 8.65491e-19)
(3.05545 -0.250857 8.23125e-19)
(3.77663 -0.251817 -5.23791e-19)
(5.36646 -2.61333 -2.15544e-17)
(3.95692 -0.348381 1.90725e-18)
(4.09396 0.624634 -1.77788e-20)
(5.64258 -0.829652 1.71734e-18)
(4.00739 -0.791309 -3.36352e-19)
(-0.0712081 1.01526 1.81883e-18)
(5.15562 1.1163 0)
(3.97488 0.0740763 1.04006e-21)