/*--------------------------------*- C++ -*----------------------------------*\
| =========                 |                                                 |
| \\      /  F ield         | OpenFOAM: The Open Source CFD Toolbox           |
|  \\    /   O peration     | Version:  2306                                  |
|   \\  /    A nd           | Website:  www.openfoam.com                      |
|    \\/     M anipulation  |                                                 |
\*---------------------------------------------------------------------------*/
FoamFile
{
    version     2.0;
    format      ascii;
    arch        "LSB;label=32;scalar=64";
    class       volVectorField;
    location    "8.7";
    object      U;
}
// * * * * * * * * * * * * * * * * * * * * * * * * * * * * * * * * * * * * * //

dimensions      [0 1 -1 0 0 0 0];

internalField   nonuniform List<vector> 
13486
(
(3.20447 -0.634078 1.81556e-18)
(3.44735 0.351784 1.00432e-18)
(4.65194 -0.0448405 0)
(-0.590272 -1.2396 -1.53129e-18)
(5.29463 -0.582217 -4.83278e-19)
(4.68054 0.231233 -1.13559e-19)
(5.44782 0.561043 -5.8081e-20)
(4.545 -1.51288 -2.64449e-19)
(4.19834 -0.752008 0)
(3.91747 1.13663 0)
(-2.22876 2.9575 -4.50251e-18)
(4.87331 -0.188679 0)
(2.9697 -1.03155 -1.79426e-18)
(4.63088 1.18896 -1.71364e-19)
(4.95259 0.130828 -1.3382e-19)
(3.84194 1.12657 -8.13358e-19)
(0.556295 -0.18183 2.05164e-18)
(3.50162 -0.987263 -4.69933e-19)
(4.28208 -0.00715067 1.04201e-20)
(3.45533 -0.24905 -1.88778e-18)
(-2.73906 -1.69568 -2.0085e-18)
(3.00808 -1.06406 2.34277e-18)
(3.49032 0.340303 -7.98588e-19)
(5.69328 -1.84361 0)
(4.002 0.929203 2.82088e-19)
(5.5556 -1.78227 -5.21799e-19)
(-1.17996 0.968392 3.06221e-18)
(4.8884 -0.284672 3.846e-19)
(3.77457 -0.357081 0)
(4.45785 -0.917425 -1.26999e-19)
(-4.06907 0.989249 -1.0503e-18)
(4.33097 0.152936 -1.99577e-19)
(5.82269 -0.540809 9.48492e-19)
(3.7697 -0.202294 0)
(4.55843 -1.43441 0)
(2.84819 0.0755792 1.22482e-19)
(3.88527 -4.20813 -5.56792e-18)
(3.54311 -1.64624 7.05747e-19)
(3.07504 3.42173 -1.28373e-19)
(4.12391 -0.460235 7.2808e-19)
(6.56009 -1.40998 0)
(2.41245 -1.1857 -2.1185e-18)
(4.68975 0.0137625 0)
(4.03853 0.795428 -1.31401e-18)
(4.073 0.767692 5.47684e-19)
(4.88095 -0.200637 4.32393e-19)
(-0.198719 1.84588 3.20359e-18)
(3.78469 -0.302359 -8.22521e-21)
(4.93432 -4.2804 4.26736e-18)
(5.05311 -0.0599412 1.94004e-19)
(4.00049 0.026681 1.21776e-18)
(4.4687 1.91069 0)
(4.59484 -0.699736 -6.18962e-19)
(3.68496 -1.35796 -1.07305e-18)
(4.96942 -2.01043 0)
(5.17861 -0.62579 1.78568e-19)
(3.2587 -0.258372 -3.13624e-19)
(4.69654 2.31233 7.68578e-19)
(5.73463 -0.520186 1.03446e-18)
(-0.0566473 -1.15761 0)
(-2.39991 2.20008 -5.69957e-18)
(0.635375 -1.88175 0)
(6.61007 0.891051 -1.14133e-18)
(-3.63579 -2.14917 -2.89969e-20)
(4.02404 -2.68854 0)
(2.66808 -3.79885 -2.6982e-18)
(-1.50566 -0.459206 -1.01559e-18)
(3.1094 -0.121925 6.66616e-19)
(4.21537 -0.809855 -3.61082e-19)
(2.77006 -0.613267 4.20857e-19)
(-1.54237 -0.478612 1.18339e-18)
(4.57911 -1.9763 -3.81595e-20)
(4.07088 -0.240345 5.93981e-19)
(-0.717315 -0.46983 -1.44769e-18)
(1.94965 -3.06278 -4.53727e-19)
(3.09855 -0.242518 7.32834e-20)
(2.47014 -3.15353 7.49653e-19)
(5.00334 0.149578 6.87028e-20)
(-0.422351 2.45739 -1.90399e-18)
(2.63496 -3.24662 0)
(3.57472 0.099971 -3.7018e-20)
(3.35353 0.50486 -6.3813e-20)
(7.39901 0.846401 1.07971e-19)
(5.2043 0.101674 -1.61773e-19)
(3.1995 -0.641534 -3.5728e-18)
(2.71135 2.4932 0)
(5.09235 -1.51695 -8.22694e-18)
(4.00926 0.0492823 -1.87715e-18)
(3.80231 0.29182 -8.03477e-19)
(3.60545 1.53051 -1.05e-18)
(3.9093 -0.116493 -2.39189e-19)
(4.81733 -1.18291 -5.12495e-20)
(3.33075 -0.801598 4.53519e-19)
(3.47228 -0.0101009 5.17109e-20)
(4.12608 -1.23108 1.39097e-19)
(3.82987 -0.23106 4.98932e-22)
(-1.48344 1.14871 0)
(-3.77063 0.270772 1.3071e-18)
(4.14989 -0.450829 -1.39404e-18)
(-0.00771891 0.295293 -2.64491e-20)
(3.07557 0.101518 0)
(4.59357 1.18261 -7.51391e-20)
(-3.86434 -0.133176 2.5538e-19)
(4.09839 2.46412 -8.93724e-19)
(2.68938 2.35705 0)
(-0.379697 0.650698 -2.3524e-20)
(3.97212 0.052507 -3.98426e-22)
(2.59004 3.12845 -4.17142e-19)
(-0.340951 2.31539 2.30214e-18)
(4.6722 -2.01766 0)
(3.51697 -1.64095 0)
(4.38558 0.653855 3.86426e-20)
(3.70069 -1.30859 1.28248e-20)
(3.71257 -0.357565 2.46218e-20)
(2.54163 -0.38335 0)
(3.33606 -1.62874 -4.15576e-19)
(3.98439 0.954315 0)
(3.96995 -0.156705 0)
(4.06578 -0.216467 0)
(5.74186 -3.76571 -1.46839e-18)
(3.82974 -1.4602 3.33079e-19)
(-2.75621 2.58852 0)
(4.03911 -1.1079 0)
(2.26942 3.4172 2.75538e-19)
(4.27626 -1.43349 0)
(5.36169 1.70792 0)
(4.56082 -0.338496 1.04515e-20)
(4.25833 0.118887 6.24196e-19)
(3.44297 -0.0226993 1.36e-19)
(4.26938 -2.44982 -3.26391e-19)
(5.10311 1.75667 1.0601e-19)
(-0.378394 1.69109 -8.09017e-19)
(-0.0924675 0.391236 2.28843e-18)
(-0.272902 -0.0650539 2.01438e-18)
(3.99767 0.00772985 -1.94305e-19)
(3.79414 0.629241 -1.0242e-18)
(1.69127 0.874805 -6.45521e-19)
(4.63667 -1.93381 0)
(6.02183 -3.2763 3.50143e-19)
(4.53864 -1.11763 -1.4555e-19)
(5.51128 -0.164402 -8.29235e-19)
(4.52106 -0.712427 5.23836e-19)
(4.3944 -0.17957 0)
(2.30976 -2.50092 0)
(4.82623 -0.0112443 1.05864e-19)
(8.45816 -0.0464219 -3.19039e-18)
(6.68734 0.00318801 1.01986e-19)
(0.873079 2.20744 0)
(5.138 -0.0660894 0)
(3.74622 -0.357346 0)
(4.02384 0.0118175 2.18615e-20)
(5.2806 -0.0640401 0)
(3.44722 0.0749938 3.89486e-20)
(3.3104 0.478749 -5.53655e-19)
(4.26722 0.508392 0)
(5.13459 0.00978587 0)
(4.55349 -2.02341 0)
(4.50599 2.20876 3.50492e-18)
(3.93033 -1.54896 1.27988e-18)
(2.91642 1.74832 2.68957e-19)
(5.03756 -0.00299302 3.32578e-20)
(3.95526 -1.47982 -1.93984e-18)
(3.28348 0.392273 1.64279e-19)
(2.22207 -1.06058 9.26925e-19)
(4.80595 1.77536 0)
(4.81072 1.18442 7.01764e-20)
(4.51767 1.08649 5.78895e-19)
(1.45882 -0.557103 -2.53194e-18)
(6.72226 0.0585757 -3.24976e-19)
(-0.26134 -0.114247 5.43636e-19)
(-1.44619 0.043477 1.03071e-19)
(4.25443 0.455757 4.92564e-19)
(3.99196 0.102634 -1.65955e-18)
(4.61678 -0.111336 1.36333e-20)
(3.79316 0.0335193 -2.57481e-20)
(-0.553278 -2.02367 0)
(4.56191 1.66878 -3.07134e-19)
(5.75791 -0.140266 1.22441e-18)
(3.98189 0.0512492 -1.82673e-18)
(4.40778 -0.221784 0)
(4.27017 -0.530513 1.29172e-18)
(3.78231 -0.339503 5.0429e-20)
(4.57904 -0.0802884 3.7381e-21)
(-2.85673 1.55753 0)
(5.3793 0.286269 3.49926e-19)
(4.66376 -0.290045 -1.73023e-19)
(3.68581 -0.419101 -6.97673e-21)
(4.30756 -0.573245 7.8785e-21)
(6.35079 -1.33943 0)
(3.10555 -1.47776 -5.92537e-19)
(5.21289 -3.98895 0)
(4.61544 -0.0781563 0)
(3.03233 1.99883 0)
(2.86149 1.16256 -1.24091e-18)
(2.68332 1.47446 0)
(-2.81358 3.32489 -1.20625e-18)
(4.11929 -2.50179 7.60355e-19)
(4.88911 -0.0152217 2.80575e-20)
(2.94823 -1.44853 -3.39051e-19)
(4.78056 1.12139 1.0954e-19)
(-3.85473 0.140703 3.76997e-19)
(4.28 0.142444 -1.93513e-20)
(3.42683 -1.64102 -8.21745e-19)
(5.09429 -1.94031 -4.91867e-19)
(2.75408 1.7695 -2.93375e-19)
(3.02244 1.36988 6.28883e-19)
(1.33179 1.40701 4.11323e-20)
(3.91251 -0.14188 1.3353e-18)
(3.47708 2.13411 0)
(5.29559 0.273318 0)
(4.68663 -0.297333 7.70005e-20)
(4.8486 -2.16549 8.10592e-19)
(3.48471 -0.21516 1.72038e-18)
(3.95657 0.0583958 3.37001e-23)
(4.68143 0.311521 1.30796e-19)
(3.68453 -1.95166 1.50014e-20)
(4.58707 -0.797083 0)
(3.62849 1.47629 2.41518e-18)
(3.50239 -0.822975 0)
(5.75643 1.19945 0)
(0.248383 0.0605414 -3.91561e-18)
(5.18895 -0.017316 0)
(4.48197 -1.12869 3.10475e-19)
(5.11266 0.016942 0)
(4.42666 -1.04443 -1.02134e-19)
(3.03792 -1.42429 6.06579e-19)
(4.88964 0.530815 4.88782e-21)
(0.498903 -1.38264 1.82268e-19)
(3.14404 -1.49881 1.90557e-20)
(4.19055 -1.06031 1.45208e-19)
(4.27341 -0.510216 -4.19765e-19)
(6.93163 0.562792 4.4282e-18)
(5.57951 -0.259935 1.03248e-18)
(2.42902 -1.18886 7.34383e-19)
(-3.86538 -1.38913 0)
(2.80596 -1.35944 6.85318e-20)
(4.03814 -0.432597 -1.42757e-19)
(4.53036 -0.0747598 -1.50455e-19)
(2.64475 -1.27004 1.84373e-18)
(4.56875 -0.0853976 0)
(5.81591 -0.650703 0)
(4.0052 0.0747349 2.51745e-18)
(4.46761 -0.304532 0)
(2.56172 -1.27285 6.00018e-19)
(1.60994 3.98048 -9.66807e-19)
(3.72106 0.0475488 0)
(4.58765 0.00408937 -1.1056e-19)
(5.1067 -1.44484 1.13577e-18)
(0.386755 -0.431346 3.44844e-18)
(3.98441 0.742806 0)
(-3.86498 1.6864 -8.43551e-19)
(2.48073 -0.326627 2.86566e-19)
(3.04448 -1.48229 4.65096e-19)
(1.99155 3.13078 0)
(2.4478 -1.68263 -6.826e-20)
(-1.00108 -1.71968 5.53777e-19)
(4.30232 0.108106 2.34141e-19)
(3.62836 -2.03704 -1.90459e-20)
(6.13163 3.21438 -3.48577e-18)
(5.78322 -0.623641 7.59102e-19)
(3.64657 0.300483 0)
(1.42365 4.20005 1.03317e-19)
(4.9075 0.141047 2.74512e-19)
(-0.8743 -1.2417 -6.93155e-19)
(5.2373 -1.33269 4.78371e-19)
(-2.9797 1.70479 0)
(2.99621 -1.26956 3.12061e-19)
(-4.51382 -0.0375219 -1.86767e-18)
(4.26652 -0.00943383 -7.32405e-19)
(5.26621 -3.56428 0)
(3.11695 1.39475 9.48872e-19)
(3.9683 0.0557183 -5.07483e-19)
(4.58675 -0.830085 0)
(4.89266 -0.448994 3.74253e-19)
(3.02465 -1.4491 8.06097e-19)
(4.93918 -1.35969 -6.31371e-19)
(2.14752 -1.30246 0)
(4.81244 -2.16012 0)
(1.69543 2.72786 -2.45163e-19)
(6.57309 -0.453035 -2.00009e-19)
(4.59546 -2.08476 1.30437e-19)
(4.37225 -0.286037 -4.65546e-19)
(3.9282 0.092256 1.09064e-18)
(7.38299 -2.06824 -1.91956e-18)
(-3.27141 2.64287 6.2021e-18)
(-1.16816 1.28966 4.40751e-18)
(5.51509 -0.0602028 7.86356e-19)
(3.56106 -0.0956812 -1.78082e-19)
(4.76693 -1.07381 1.54743e-19)
(4.1482 0.00763856 0)
(-4.1094 -1.45686 0)
(-0.0468128 4.04975 1.95772e-18)
(3.3897 -1.61246 4.6522e-19)
(3.99604 0.022176 -1.90367e-19)
(4.00212 -0.38375 -2.08267e-19)
(4.17257 -0.520246 0)
(4.30194 -0.0812991 -5.18904e-20)
(5.07773 -0.356741 -3.36944e-19)
(3.91773 0.068296 -9.94192e-19)
(6.11035 0.0875098 -1.28689e-18)
(3.2845 0.234012 -2.05115e-19)
(1.88812 0.743931 -4.2879e-20)
(6.58866 -0.433907 1.7479e-19)
(4.40525 0.142239 2.08575e-19)
(6.65121 -3.9979 1.04754e-18)
(4.4774 -2.02826 0)
(5.52254 0.364745 0)
(4.31843 -0.0109194 2.1779e-19)
(3.07989 -0.944148 6.8009e-18)
(4.41963 -4.20074 0)
(4.12858 2.92044 -3.3125e-18)
(0.539841 -1.29169 0)
(4.40599 1.62311 2.75834e-19)
(4.40058 0.616044 -7.85036e-20)
(4.49149 -0.174902 0)
(3.77189 0.590831 -6.51273e-19)
(0.144033 3.74459 -2.76916e-18)
(3.7843 0.266058 -6.93565e-20)
(3.89213 -0.129489 -1.4911e-18)
(3.24703 -1.22892 0)
(3.84111 -4.09912 4.7832e-18)
(-0.356783 5.29718 3.54706e-19)
(3.99475 0.0531011 2.31171e-19)
(3.44481 0.0960745 -9.76789e-19)
(1.8577 0.83144 1.15496e-18)
(4.08772 -0.0882056 5.04779e-19)
(4.7655 -0.428491 -3.76174e-19)
(4.40218 -0.285772 0)
(5.44295 -0.183642 1.12869e-20)
(4.85254 -0.381425 5.37259e-20)
(4.00524 0.0213126 2.72158e-18)
(4.9349 -1.07985 0)
(3.68178 -0.120351 -1.32031e-19)
(3.08566 0.454679 0)
(5.51366 0.612378 1.94441e-18)
(4.25195 -1.09124 -3.39122e-19)
(1.98836 -0.950685 9.02822e-19)
(5.29564 -0.105157 4.97767e-19)
(4.02047 0.254453 0)
(1.59687 4.29532 -2.1283e-18)
(3.15405 -1.20104 -3.15575e-19)
(3.45208 0.0876059 9.21049e-19)
(4.91828 -0.367937 1.60117e-20)
(4.57312 -0.0770026 3.48492e-19)
(-4.4639 2.52935 -3.46742e-18)
(3.77527 -0.282549 2.05364e-21)
(4.54459 -0.170955 0)
(2.49871 -0.92974 2.1914e-18)
(5.78043 1.1501 0)
(0.634523 4.12098 -2.37798e-19)
(4.49188 -0.0849822 7.6143e-19)
(5.28688 -0.371799 -3.79024e-19)
(4.97221 -0.44344 3.17921e-19)
(-1.68206 1.23033 -3.70537e-18)
(3.92945 0.0724737 1.23766e-18)
(2.89822 0.280492 0)
(-0.868785 -0.511897 -1.25346e-18)
(4.5662 -0.304649 -2.08969e-19)
(1.5443 0.169481 -3.48041e-18)
(4.93387 -2.08665 6.74723e-19)
(4.87197 0.0148012 0)
(3.95147 -0.368861 3.93316e-19)
(3.69133 0.174362 1.98835e-18)
(3.96369 0.0688228 1.55084e-18)
(4.5118 -0.92391 0)
(3.36877 0.0528152 7.19985e-21)
(4.17588 -0.460943 1.34093e-19)
(-0.361468 1.21668 4.53461e-19)
(3.43033 -0.260401 2.38742e-19)
(4.5446 -0.276373 1.98035e-19)
(4.97196 0.0565268 -5.34865e-20)
(4.51682 -0.216379 0)
(4.50816 -1.17054 -3.63105e-19)
(-3.81265 1.7947 9.49885e-19)
(4.65568 0.617435 -2.63653e-19)
(3.99583 0.0267926 1.01772e-18)
(3.03478 0.0256334 0)
(1.52133 4.46499 -3.79136e-18)
(5.46897 -0.636095 0)
(6.01511 1.85686 -6.4713e-19)
(4.28644 -0.0253047 0)
(4.93518 -1.37747 -3.72231e-20)
(3.0046 -0.45126 -5.22469e-19)
(3.14491 1.21086 2.17025e-18)
(-0.152957 1.2601 -1.74668e-18)
(2.49747 -1.17005 0)
(4.49996 0.102905 -5.56299e-19)
(4.02964 0.276224 -6.94463e-19)
(0.822645 -0.392213 -1.15472e-18)
(-1.49772 1.95961 4.92579e-19)
(3.5264 -0.235191 -2.58101e-18)
(4.73007 -0.732062 1.60892e-19)
(4.11871 0.283242 5.38337e-19)
(3.32321 -1.07614 0)
(2.99174 0.293734 1.10716e-18)
(5.43589 -2.94009 -6.30528e-19)
(-0.415739 -0.92546 8.12276e-19)
(-4.0364 1.9279 -3.11071e-18)
(0.708512 -0.399507 -2.28392e-18)
(5.5381 -0.0826874 0)
(0.763557 -0.388326 0)
(3.87079 1.81831 0)
(4.2811 -0.121581 0)
(5.65747 -0.503504 -2.55327e-18)
(5.22876 0.708636 0)
(7.04714 -2.99395 0)
(3.51174 0.057582 3.71753e-19)
(5.73867 -0.109734 -1.27818e-18)
(4.4737 -0.210347 -5.7342e-19)
(3.52132 0.419145 3.4092e-18)
(4.01396 0.0314663 -3.53977e-19)
(4.3142 2.66006 0)
(4.90794 -0.617632 0)
(3.90523 0.0699089 1.06406e-18)
(3.98352 0.037084 1.86165e-19)
(2.77132 1.2433 0)
(-2.80971 1.44238 3.50743e-18)
(5.22212 -1.38714 -5.42717e-19)
(-1.11965 -0.424018 0)
(4.58449 -0.0831122 4.30767e-19)
(3.97444 0.0558404 -1.23241e-18)
(3.05599 2.16434 -3.34738e-20)
(2.47975 -0.909973 0)
(4.00648 0.274847 1.26925e-18)
(4.95492 0.277047 0)
(4.31722 -0.550918 0)
(4.30481 0.315061 -9.08517e-20)
(3.91609 0.0961536 5.8022e-19)
(-1.15604 0.89201 -3.98406e-18)
(4.44777 1.06701 2.18864e-19)
(3.08929 -0.875165 -8.81968e-19)
(4.25332 -0.0982588 9.70451e-20)
(4.1223 0.296048 4.29475e-19)
(4.62427 -1.16844 9.07719e-19)
(5.49779 -1.27926 0)
(5.2186 -1.22358 5.8606e-19)
(2.99593 -0.341931 0)
(-0.0637463 4.84173 2.10399e-18)
(4.58442 -0.143877 0)
(3.1501 -0.086706 1.40109e-18)
(-0.623866 1.0114 -2.95252e-18)
(4.73945 -0.69449 0)
(-0.510063 0.103629 9.23564e-20)
(4.9725 -0.691675 -4.58264e-19)
(4.45403 5.33006 -5.53126e-18)
(3.83676 -0.59676 2.11878e-18)
(2.93236 1.149 -1.41187e-18)
(3.05833 -0.869214 -2.541e-18)
(6.22149 1.82866 0)
(6.0036 -3.80698 1.73211e-18)
(-4.29399 2.50728 -8.66451e-18)
(4.0071 0.30046 0)
(3.75912 0.302103 7.50833e-20)
(5.34374 -0.110078 -4.05328e-20)
(5.0599 1.82191 0)
(4.00544 0.0130917 0)
(-3.36593 1.7342 0)
(-0.415605 -2.02391 2.10463e-18)
(7.43816 -2.52886 2.37664e-18)
(7.53224 -0.266065 2.51487e-19)
(4.35033 1.5751 0)
(3.6839 -0.441457 1.56681e-18)
(3.82283 0.0667896 5.03521e-20)
(4.44049 0.986789 -5.05955e-19)
(-1.8772 -2.06928 3.56162e-18)
(3.86657 0.205584 0)
(3.77773 -0.327061 0)
(1.98306 -0.525652 -1.56563e-18)
(3.26721 -1.05219 -5.89359e-19)
(4.09773 -0.338198 0)
(3.76653 -1.77397 -9.37719e-20)
(3.0228 0.112837 -8.21926e-20)
(3.78049 -0.211042 5.45187e-22)
(2.1819 -1.03908 0)
(3.17564 0.365224 -5.73672e-19)
(5.94747 -3.27625 8.14825e-19)
(4.93865 0.2387 -3.37226e-20)
(4.22958 -1.15683 0)
(-1.13518 1.29474 -6.72939e-18)
(5.11033 -0.397098 3.66931e-19)
(3.9968 0.101445 2.55929e-19)
(3.19234 0.336561 4.8976e-19)
(4.92247 1.15499 0)
(3.47924 0.421758 -9.08964e-19)
(5.79961 0.774544 -4.76137e-19)
(0.66782 -0.373858 5.10231e-19)
(4.01718 0.0596377 0)
(-2.99753 0.971964 -5.15577e-19)
(1.51372 -0.479057 0)
(4.01383 0.0590714 -1.00819e-18)
(3.98994 0.0612492 4.06425e-19)
(3.84849 0.0277417 -2.06024e-19)
(-1.1974 -1.46583 0)
(4.45585 0.0523108 -2.10083e-19)
(2.51244 0.485252 3.1275e-18)
(5.37973 -1.2269 0)
(3.46437 0.0203833 1.17324e-18)
(6.02218 -0.131463 1.45237e-18)
(4.42531 0.00151428 0)
(-3.91232 -1.07664 5.58359e-19)
(2.06341 -2.73363 -4.44968e-19)
(4.95883 0.0446349 0)
(-0.919989 1.31374 3.92697e-18)
(3.73554 0.290268 0)
(4.06274 -1.80263 3.912e-19)
(-3.45684 1.28843 1.7845e-18)
(3.74458 -0.411553 7.67807e-21)
(4.71106 0.264987 1.80376e-19)
(2.98765 0.288607 5.80966e-19)
(3.83965 -0.640094 -7.82531e-19)
(2.28862 -0.903747 1.98466e-19)
(4.08613 -1.7757 1.3785e-20)
(4.49741 -0.303768 2.17911e-19)
(4.90054 1.16282 -9.03059e-20)
(4.91661 -2.07342 0)
(3.99543 0.017567 -9.02568e-19)
(-1.26138 -0.248877 -1.27469e-18)
(3.05731 -0.3481 0)
(4.01177 -2.43135 -4.36951e-20)
(1.7852 -0.316247 0)
(2.86558 -0.92031 2.22172e-18)
(4.88116 -1.60626 0)
(2.83083 0.0584143 -2.23471e-19)
(4.52516 -0.107836 -4.33878e-19)
(-2.90464 -0.806961 5.38395e-19)
(-3.51566 1.79942 2.34154e-18)
(4.71462 0.00646814 -5.1356e-21)
(4.03917 -1.87549 -3.79533e-19)
(3.99981 -1.10493 6.2086e-19)
(3.33386 -0.81043 0)
(-2.1342 1.20677 -2.2493e-18)
(5.53087 -0.993569 1.06931e-19)
(-2.38292 1.47628 -2.71129e-18)
(3.83137 -0.254684 1.61974e-21)
(3.31964 -1.31241 0)
(4.37796 -0.0172878 -7.10498e-21)
(-3.00097 1.63327 0)
(-3.63817 0.0635505 2.05865e-19)
(2.99128 2.02865 -9.70203e-21)
(6.01229 2.51528 0)
(4.63047 -0.990413 8.47629e-20)
(3.98358 -2.55598 0)
(5.10229 1.6385 0)
(3.77518 -1.75021 -5.20305e-19)
(3.13838 0.395671 8.97695e-19)
(3.71948 -3.5491 0)
(3.70127 0.219457 -5.54359e-19)
(7.64262 0.167166 3.49267e-18)
(-3.82471 1.91711 4.52549e-18)
(5.00274 2.2866 0)
(4.27438 -0.0527567 0)
(-4.1989 2.59069 -3.92857e-18)
(3.93264 -0.248027 0)
(5.32901 0.150006 0)
(-2.32944 1.93534 -2.37077e-19)
(4.48631 -0.643645 -6.31773e-19)
(3.87115 -0.924723 5.9479e-19)
(5.76754 -0.784669 1.08404e-19)
(-2.37844 1.40904 4.91268e-18)
(3.98896 0.0589115 4.59789e-19)
(3.40355 -0.867736 0)
(4.22762 0.75048 -2.36491e-19)
(3.17396 -0.587767 0)
(4.19739 0.0207247 0)
(3.99052 0.128935 0)
(4.28762 0.283057 -7.43342e-20)
(3.86453 -0.129311 6.98197e-19)
(4.99101 -0.235481 -1.58315e-19)
(3.4923 -0.866763 0)
(-1.35178 0.9537 -2.94288e-18)
(3.92647 1.70928 4.96438e-19)
(4.27889 -1.4627 3.85691e-20)
(3.04545 -0.119467 3.75579e-19)
(4.86218 -1.39057 8.56013e-19)
(4.14855 0.0733801 -6.97979e-19)
(-0.556822 0.894301 0)
(5.00104 -0.379532 0)
(3.01262 1.19199 0)
(2.93315 -1.31741 -1.56992e-18)
(3.40274 -1.35827 1.85071e-19)
(6.21041 2.62736 0)
(4.27068 0.76776 0)
(4.44768 -0.960676 4.23925e-19)
(3.96661 -0.0126448 -1.57086e-19)
(3.77561 0.930152 1.14309e-18)
(5.23216 -1.9727 0)
(-3.53379 2.95622 -1.29412e-18)
(4.55379 0.111628 3.0224e-19)
(3.19611 -0.983171 -1.44592e-18)
(4.31948 0.100809 -4.63737e-19)
(4.42859 0.996584 7.05859e-19)
(5.43214 -3.14072 1.09256e-18)
(2.88756 -1.32516 2.72639e-18)
(4.23004 -2.1728 2.88949e-19)
(3.95626 -0.360346 5.62041e-20)
(3.99726 0.011476 -2.18557e-19)
(3.4904 -1.57739 7.16069e-21)
(1.71347 -2.05007 2.63849e-19)
(3.03732 3.12862 -4.58217e-19)
(3.70889 -1.73808 8.18025e-20)
(5.67954 -0.0397902 0)
(8.2582 -1.49225 1.47308e-18)
(4.31343 -0.052041 -1.0938e-18)
(5.43292 1.22471 2.0646e-19)
(3.14216 -0.923831 -1.33314e-18)
(4.22162 -1.40127 -4.97651e-19)
(4.05143 0.000995538 1.28278e-18)
(5.29816 -0.0641767 -7.25256e-19)
(5.79727 -3.10545 5.86189e-19)
(5.49988 -0.0259922 -3.99483e-19)
(2.71027 -0.563701 -3.15783e-18)
(4.35361 -0.0150929 -9.23773e-19)
(2.69439 -0.668266 0)
(0.346974 -1.15516 -9.18436e-19)
(4.225 0.0506826 1.61348e-18)
(2.48304 0.0360965 4.28979e-20)
(-0.69962 -0.463214 0)
(4.42903 -1.96295 0)
(3.99904 0.668444 1.0164e-18)
(2.47464 -0.56453 1.98767e-18)
(3.77985 -3.43882 -1.35637e-18)
(4.99314 -1.35767 8.42743e-20)
(4.82255 -0.430399 1.86646e-19)
(5.89255 1.1102 0)
(4.01667 0.732706 5.6799e-19)
(2.18137 0.378125 -3.38779e-20)
(4.64651 1.72561 -1.90411e-19)
(4.21439 -0.488831 -8.03036e-19)
(-2.44565 1.43773 -7.93114e-18)
(4.79456 -1.32991 -7.91167e-19)
(5.31836 -1.35113 3.81731e-19)
(4.26049 1.94151 0)
(3.57695 -1.00903 1.10303e-19)
(3.86842 0.0229741 1.85699e-19)
(3.6626 0.089482 -4.17801e-20)
(2.25515 -1.09877 2.55618e-18)
(4.16117 -0.497343 1.20195e-18)
(2.17322 1.97746 1.32415e-19)
(-3.99218 2.03825 -2.69093e-18)
(4.30464 -0.290022 -4.5735e-20)
(4.35399 -0.0336342 8.27224e-19)
(-3.15874 2.51919 -7.67612e-19)
(4.50064 1.60698 6.58078e-19)
(-0.645313 0.888908 -4.25139e-18)
(2.71673 -1.31757 -7.62861e-19)
(3.63205 0.0415194 0)
(3.32367 -0.28876 -2.83377e-19)
(-2.6265 0.566399 -2.26374e-18)
(2.99768 -0.502601 2.8202e-18)
(4.20539 -0.381261 0)
(3.2956 -0.0159485 1.82472e-19)
(2.79701 -1.18143 6.28604e-19)
(3.99302 0.0432507 -1.98198e-18)
(-3.97147 2.20594 -3.17694e-18)
(3.92443 -3.72181 -3.08433e-19)
(4.49866 -0.198239 3.83922e-19)
(4.41897 0.09954 8.30844e-19)
(4.13336 -1.82563 -4.624e-19)
(4.74603 -0.315753 2.13203e-19)
(3.30768 -1.85102 -2.81818e-19)
(4.25043 -0.0396693 1.02669e-18)
(4.22603 -0.0861838 -4.2695e-19)
(4.20114 0.145806 -1.70109e-20)
(4.7071 -0.0142794 -8.79651e-19)
(2.71561 -1.20913 -1.21849e-18)
(4.02266 -0.340225 0)
(-0.389494 -1.48059 1.27923e-18)
(4.26231 0.0826065 1.35024e-19)
(3.55536 1.97758 8.11959e-20)
(4.7895 0.0438777 2.03218e-19)
(4.75012 -0.544491 -1.68076e-19)
(4.0007 0.0242361 -1.64795e-18)
(4.12201 0.50898 3.2421e-19)
(-2.88894 1.50085 -3.62768e-18)
(5.29922 0.131533 0)
(0.529387 5.31457 1.99334e-18)
(5.38661 -0.368141 3.87397e-19)
(3.33703 -1.27833 0)
(4.19263 0.11957 6.66636e-19)
(5.60215 -0.14369 4.98943e-19)
(5.0975 0.10318 7.2106e-23)
(6.70069 -1.45966 1.55529e-18)
(3.09872 0.964901 0)
(3.62532 0.506243 1.69777e-18)
(2.40408 0.89447 2.16573e-19)
(3.59248 -1.69663 3.62946e-19)
(4.20235 -0.316601 0)
(3.14004 0.329262 -2.58467e-18)
(3.90008 -1.68899 3.6953e-19)
(4.58751 2.39772 -1.54933e-19)
(2.73556 -0.598777 3.02992e-18)
(5.25787 0.00714559 2.33348e-19)
(-3.63596 1.93661 2.05617e-18)
(4.01422 -0.208861 -1.00744e-18)
(5.28314 -1.03892 -8.39597e-19)
(3.67413 0.186247 -1.15628e-18)
(4.4133 -0.0173368 0)
(4.00109 0.0210978 -8.21673e-19)
(1.84853 -0.305917 1.23758e-17)
(-0.826637 -0.258347 0)
(5.28966 -2.08406 0)
(3.66882 0.0829007 0)
(0.62421 -0.357178 0)
(4.0505 0.495379 0)
(2.59657 -0.542146 0)
(3.77808 -1.77397 -7.51277e-22)
(7.47117 -0.69272 -1.76734e-18)
(4.93989 0.58873 0)
(3.59548 0.467693 2.57512e-18)
(5.20665 -3.66255 -1.50185e-18)
(4.10683 0.305839 1.59602e-20)
(-2.55342 1.01089 -1.24908e-18)
(2.57259 -0.143264 1.34625e-21)
(-3.04264 1.65151 2.91372e-18)
(3.63939 0.0211627 -3.3629e-19)
(5.09737 -0.106242 3.17601e-20)
(4.01033 0.462894 -6.9095e-19)
(3.80273 0.249031 -1.58352e-18)
(3.8347 1.57954 -1.00134e-18)
(6.07937 1.82697 0)
(-2.85293 -1.37005 1.7533e-18)
(2.91701 -0.962818 -2.4433e-18)
(4.01914 0.0223801 -2.48286e-18)
(5.546 -1.10749 1.34245e-18)
(4.50068 -0.00382307 1.48748e-19)
(6.7138 -0.293411 -2.11972e-18)
(4.52748 -0.436806 -6.87403e-20)
(4.64296 -0.949608 -2.89408e-19)
(4.03276 0.244333 7.26504e-19)
(4.46509 2.86015 0)
(2.10455 -0.622114 2.2038e-19)
(3.54923 0.0085847 -3.48264e-19)
(5.10461 0.757431 0)
(2.17288 2.50077 0)
(4.35787 -1.90989 -2.12993e-20)
(-3.8728 1.80948 2.08561e-18)
(3.77934 -1.85379 -8.5908e-20)
(6.86683 1.73484 0)
(3.93507 -0.129833 -1.39686e-18)
(3.68865 0.300842 -3.07277e-19)
(-0.718998 -1.21961 7.69992e-19)
(5.38922 0.196864 3.31281e-19)
(-3.16744 1.73247 0)
(-2.00721 -1.6516 1.51765e-18)
(5.33069 0.00503285 0)
(3.53928 -1.07179 -1.43191e-19)
(3.83113 -0.264779 -2.96028e-19)
(4.00154 0.0133034 3.17915e-22)
(4.54747 1.10138 -1.03307e-18)
(4.98755 2.0895 -1.01337e-19)
(3.89678 -1.06515 1.34894e-18)
(-1.47418 3.10715 0)
(3.87436 -2.30457 -5.07311e-19)
(4.75785 -2.98928 0)
(5.04128 0.567218 -2.92125e-20)
(-1.35518 -1.19735 1.70162e-18)
(5.05954 -2.08204 9.37633e-19)
(1.07931 5.06399 -1.69921e-18)
(-0.877273 -1.72686 -4.15412e-18)
(3.22427 -1.5583 -4.21165e-19)
(2.99687 -0.966409 -1.36616e-18)
(5.53092 -2.99836 2.44442e-19)
(4.17148 -2.2531 4.19143e-19)
(2.76619 -1.23688 1.00836e-18)
(3.0999 -1.01235 1.50082e-18)
(3.75724 -1.39066 -3.69222e-19)
(4.23349 -2.55156 -3.69869e-19)
(4.16418 -1.22896 5.43204e-19)
(-0.465559 0.99571 1.99303e-18)
(4.84565 -0.0517503 1.37819e-19)
(5.41458 -3.30539 1.31293e-18)
(4.50279 0.689173 -3.15197e-19)
(5.16666 -0.695483 0)
(0.728265 -0.400966 -4.62677e-18)
(4.19083 -0.0421233 -1.22297e-18)
(3.98128 0.148336 0)
(4.98842 0.504846 0)
(4.43002 -2.00527 -1.19033e-19)
(5.78914 -1.2178 -1.20145e-18)
(4.67314 0.354371 -5.45738e-19)
(4.46554 -0.641341 8.19401e-19)
(3.81888 1.52354 8.64547e-19)
(3.08408 -0.0206516 8.27312e-19)
(-0.933989 -1.28362 2.18833e-20)
(3.59312 0.95081 0)
(3.15401 -1.06209 1.43343e-18)
(-0.864458 3.37212 8.14243e-19)
(-1.3389 -0.914398 3.09227e-18)
(3.93296 -1.45619 1.96776e-19)
(4.74455 -2.11198 5.77855e-19)
(3.63852 -0.0210746 4.61258e-19)
(2.29554 3.85939 3.17733e-19)
(4.35969 -0.897695 1.03649e-19)
(-1.30835 -1.03859 -1.29974e-18)
(4.63659 0.345843 4.11197e-19)
(3.94476 0.0622329 6.11285e-19)
(2.6829 -0.672124 -1.25263e-18)
(3.93099 -0.20689 8.49107e-19)
(6.02309 -3.26138 0)
(4.65449 0.649787 4.8726e-19)
(3.98838 0.0510593 1.37669e-19)
(3.28738 -0.751791 -4.58279e-19)
(3.46353 2.80791 -3.33027e-19)
(4.09357 -1.21013 4.45437e-19)
(4.19754 0.0474475 2.4939e-19)
(3.01575 0.00804044 -1.94541e-18)
(5.19285 0.612314 0)
(0.752418 5.57017 -4.10084e-18)
(4.35999 0.133718 6.32311e-19)
(3.69149 -0.0731589 0)
(3.06755 -0.177522 1.08555e-18)
(5.38198 0.173335 0)
(3.32309 2.76836 1.64712e-18)
(5.07286 -0.0283219 0)
(2.15797 -0.917708 0)
(4.94683 -0.0775677 2.1513e-19)
(4.61846 0.268913 3.49082e-19)
(5.56906 0.259255 -7.23344e-19)
(3.87378 0.17956 -7.29926e-19)
(3.14284 1.80946 -6.46108e-19)
(3.98803 0.113574 -3.20362e-19)
(4.09758 0.506168 0)
(2.36679 1.83415 -3.46431e-19)
(4.78385 0.242753 -1.75636e-19)
(3.41482 -1.13523 3.45771e-19)
(5.14402 -0.688416 0)
(5.4888 1.1914 3.46312e-19)
(4.00941 2.70362 -4.27639e-20)
(4.94123 -0.0292964 5.69053e-19)
(3.48801 -4.52118 0)
(-1.84835 1.52096 4.74121e-18)
(4.05665 0.228316 0)
(4.45735 -0.746391 -4.17793e-20)
(0.424436 -0.371275 0)
(5.18842 1.24614 0)
(3.86832 -2.15601 0)
(4.74866 -1.61498 0)
(-2.71172 3.31945 -6.64888e-19)
(0.106664 -2.32437 -4.33563e-19)
(3.847 -0.109336 -1.05437e-18)
(-2.80199 -0.624463 -8.43416e-19)
(2.92638 -1.27864 0)
(1.27025 -1.54532 -1.52898e-19)
(0.211923 -0.446914 -3.42286e-18)
(3.61103 -1.67596 0)
(3.33993 -1.19905 -1.4327e-18)
(1.6102 -2.60986 -3.36988e-19)
(4.47822 0.665279 8.0001e-19)
(6.15777 -1.52629 -1.10618e-18)
(3.78418 0.225773 0)
(5.2103 -1.28949 0)
(6.29085 0.609594 4.70412e-19)
(1.47141 -1.20834 5.49693e-20)
(6.33913 -4.34855 -1.85735e-18)
(4.52764 -2.08437 -4.35292e-20)
(3.99662 0.00659396 6.08532e-20)
(3.25449 -0.306059 1.23826e-20)
(4.02711 0.245635 1.04613e-18)
(1.13474 4.58404 2.40882e-18)
(4.22992 -1.05453 0)
(-1.98144 1.66333 0)
(4.6431 -0.27863 0)
(2.65781 0.204062 0)
(3.79106 -0.717118 5.78813e-19)
(5.28495 -0.148051 0)
(-2.65572 3.02718 9.38224e-18)
(4.95581 -3.43217 -9.95104e-20)
(3.04746 -1.04028 -2.28475e-18)
(5.53351 -3.35051 6.63812e-19)
(0.147835 -1.8935 -7.68381e-19)
(-1.22832 3.17121 -4.64472e-18)
(4.18272 0.0673116 1.96949e-19)
(-1.54889 -0.629256 -1.393e-18)
(0.44854 4.42972 4.03969e-18)
(5.12826 -0.0266345 0)
(4.93141 -0.0973128 0)
(5.48767 -4.6149 0)
(4.7668 -0.576783 7.57152e-20)
(4.10299 -2.58104 0)
(3.64551 0.93986 0)
(4.0038 0.00778321 0)
(3.9109 -0.937662 5.5052e-19)
(4.10997 0.293111 -1.07936e-18)
(4.35859 -0.563652 0)
(3.87536 -1.64327 -7.85521e-21)
(3.95402 0.243523 -9.33894e-19)
(4.67789 1.54095 3.83616e-19)
(3.65106 -1.68371 6.98649e-19)
(3.76144 1.06345 6.35567e-21)
(2.85844 -2.83462 -4.52365e-20)
(2.16937 2.85194 2.42885e-19)
(2.8566 -1.51231 2.06356e-19)
(4.59591 0.279647 -4.6586e-19)
(6.47871 -3.98626 -2.91004e-18)
(3.73916 0.0693324 -1.07781e-18)
(4.2282 -0.0371071 0)
(3.37022 1.81894 -6.89096e-20)
(3.95965 0.0624028 1.1331e-18)
(3.65803 -1.09304 2.62468e-19)
(4.49616 -0.42777 -2.18629e-19)
(2.53123 -0.601255 -2.17861e-18)
(4.61283 0.23312 7.80259e-20)
(5.82168 0.751394 6.81884e-19)
(3.98907 0.102898 0)
(7.82534 -2.84507 1.70801e-18)
(7.11893 3.0056 -3.96356e-19)
(2.8565 -1.49777 -3.66242e-19)
(-2.00163 -2.10889 -3.95846e-18)
(4.103 0.0314772 5.35639e-19)
(4.28705 -0.362493 -6.19156e-20)
(5.20414 0.0240767 -1.75849e-19)
(4.7725 -0.252262 0)
(3.96534 -2.01036 0)
(3.37974 -1.61076 9.25953e-19)
(-3.79436 2.07713 3.4613e-18)
(3.47388 0.0730168 -7.15144e-21)
(3.9586 0.0658235 2.25885e-18)
(7.52124 -2.54685 -4.88593e-18)
(3.09736 0.281502 0)
(3.69816 0.0824923 0)
(3.54752 -0.833119 -2.37873e-20)
(4.80661 0.0418161 3.50355e-19)
(3.8427 1.00928 1.57982e-18)
(4.47969 -0.179167 0)
(3.96173 -0.0659003 0)
(4.78304 -1.05367 1.08515e-19)
(4.15495 -0.300787 7.02999e-19)
(3.69511 -2.44076 -1.62734e-18)
(3.27646 -0.0324174 0)
(5.09607 1.07646 5.30245e-19)
(4.34111 -1.65771 -1.01321e-19)
(-3.18872 0.936484 -2.79532e-18)
(4.08294 -0.0524964 -1.09091e-18)
(7.03907 -0.394513 0)
(5.96555 -1.16763 9.52604e-19)
(4.5072 -4.63636 -3.4197e-18)
(1.02577 -0.930327 0)
(3.07416 0.264218 -1.59807e-18)
(3.88387 0.13577 -7.53059e-19)
(2.68416 0.104175 -7.6369e-22)
(3.91926 -0.0827572 1.48993e-19)
(3.37383 3.10651 1.07129e-18)
(4.16482 0.0419456 0)
(2.52778 -0.969286 -2.16598e-20)
(7.69336 -3.48582 3.95443e-18)
(5.50912 -1.35825 -7.47643e-18)
(4.0357 0.455942 8.22263e-19)
(-0.250873 3.09288 -5.73681e-20)
(4.1239 0.0299769 -2.46286e-18)
(2.41568 1.95981 3.07278e-20)
(1.67443 3.8194 1.06614e-18)
(3.82049 -0.864277 0)
(4.82972 0.541491 1.46764e-18)
(2.70732 -1.26613 7.99852e-19)
(4.4831 -0.106604 -8.53386e-19)
(3.99491 0.0484747 -1.01116e-18)
(4.29228 -0.719649 4.68856e-21)
(3.59092 -0.442782 2.37025e-18)
(4.7248 -0.0452666 -1.60667e-19)
(3.67152 0.102364 6.47381e-19)
(4.08488 -2.60267 -3.38851e-19)
(5.79082 -0.801436 -1.23617e-18)
(4.53779 1.71219 3.96329e-19)
(3.86887 -3.70766 1.04122e-18)
(3.89319 -0.0169159 0)
(5.69945 -5.01588 0)
(6.76073 1.25124 0)
(3.0412 -0.978286 1.76248e-18)
(4.15863 0.0689358 -1.62385e-18)
(3.66683 0.315787 0)
(3.37284 -0.784875 -1.32848e-18)
(3.66208 0.255108 0)
(3.80062 -0.63959 -9.45131e-19)
(3.43216 -1.15238 2.882e-19)
(4.15896 -1.00433 -6.25399e-19)
(4.25169 0.0406941 0)
(3.95418 0.0488907 0)
(3.4535 -0.146238 -4.05708e-19)
(4.87967 0.471552 -4.88904e-21)
(5.01742 -0.212659 2.24612e-19)
(4.29416 2.8903 -4.8149e-20)
(4.23691 -0.0930614 0)
(3.94827 -1.41003 -3.26443e-19)
(-0.806543 -0.117192 0)
(2.05635 1.26495 -1.23291e-18)
(5.02656 2.06642 0)
(4.25941 -0.341979 1.30088e-19)
(2.709 -0.52801 8.30301e-19)
(3.3239 -0.407115 7.83687e-19)
(3.56289 0.0308528 3.66672e-19)
(4.57739 -3.19746 -3.49317e-18)
(4.11393 -0.358336 1.77861e-18)
(4.06933 0.486565 -1.48274e-20)
(6.7422 -0.160808 2.45756e-18)
(4.33971 -0.803835 -2.78844e-19)
(-0.568225 0.118548 1.47916e-18)
(4.96073 0.778793 0)
(4.00018 0.0491234 1.13667e-22)
(3.45249 -0.878977 0)
(1.93515 3.8764 -7.60122e-19)