# Force and moment coefficients
# dragDir     : (1.000000e+00 0.000000e+00 0.000000e+00)
# sideDir     : (0.000000e+00 0.000000e+00 -1.000000e+00)
# liftDir     : (0.000000e+00 1.000000e+00 0.000000e+00)
# rollAxis    : (1.000000e+00 0.000000e+00 0.000000e+00)
# pitchAxis   : (0.000000e+00 0.000000e+00 -1.000000e+00)
# yawAxis     : (0.000000e+00 1.000000e+00 0.000000e+00)
# magUInf     : 1.000000e+00
# lRef        : 1.000000e+00
# Aref        : 2.000000e+00
# CofR        : (0.000000e+00 0.000000e+00 0.000000e+00)
#
# Time        	Cd            	Cd(f)         	Cd(r)         	Cl            	Cl(f)         	Cl(r)         	CmPitch       	CmRoll        	CmYaw         	Cs            	Cs(f)         	Cs(r)         
5.1001        	3.566100e+02	-1.301487e+02	4.867587e+02	6.169073e+02	-2.414763e+03	3.031671e+03	-2.723217e+03	-3.084537e+02	1.783050e+02	-2.841900e-17	1.783050e+02	-1.783050e+02
5.1002        	3.565816e+02	-1.301516e+02	4.867332e+02	6.168848e+02	-2.414518e+03	3.031403e+03	-2.722960e+03	-3.084424e+02	1.782908e+02	-2.839798e-17	1.782908e+02	-1.782908e+02
5.1003        	3.565650e+02	-1.301528e+02	4.867178e+02	6.168705e+02	-2.414304e+03	3.031175e+03	-2.722739e+03	-3.084353e+02	1.782825e+02	-2.836241e-17	1.782825e+02	-1.782825e+02
5.1004        	3.565440e+02	-1.301539e+02	4.866979e+02	6.168518e+02	-2.414079e+03	3.030931e+03	-2.722505e+03	-3.084259e+02	1.782720e+02	-2.834692e-17	1.782720e+02	-1.782720e+02
5.1005        	3.564819e+02	-1.301556e+02	4.866376e+02	6.167932e+02	-2.413640e+03	3.030433e+03	-2.722036e+03	-3.083966e+02	1.782410e+02	-2.834847e-17	1.782410e+02	-1.782410e+02
5.1006        	3.564669e+02	-1.301592e+02	4.866261e+02	6.167853e+02	-2.413443e+03	3.030228e+03	-2.721835e+03	-3.083926e+02	1.782335e+02	-2.830953e-17	1.782335e+02	-1.782335e+02
5.1007        	3.564010e+02	-1.301266e+02	4.865276e+02	6.166542e+02	-2.412578e+03	3.029232e+03	-2.720905e+03	-3.083271e+02	1.782005e+02	-2.828208e-17	1.782005e+02	-1.782005e+02
5.1008        	3.563880e+02	-1.301582e+02	4.865462e+02	6.167044e+02	-2.412689e+03	3.029393e+03	-2.721041e+03	-3.083522e+02	1.781940e+02	-2.827699e-17	1.781940e+02	-1.781940e+02
5.1009        	3.564377e+02	-1.301842e+02	4.866218e+02	6.168060e+02	-2.413184e+03	3.029990e+03	-2.721587e+03	-3.084030e+02	1.782188e+02	-2.824909e-17	1.782188e+02	-1.782188e+02
5.101         	3.563842e+02	-1.301730e+02	4.865573e+02	6.167303e+02	-2.412624e+03	3.029354e+03	-2.720989e+03	-3.083652e+02	1.781921e+02	-2.821556e-17	1.781921e+02	-1.781921e+02
5.1011        	3.563409e+02	-1.301711e+02	4.865119e+02	6.166830e+02	-2.412228e+03	3.028911e+03	-2.720569e+03	-3.083415e+02	1.781704e+02	-2.821017e-17	1.781704e+02	-1.781704e+02
5.1012        	3.562745e+02	-1.301528e+02	4.864274e+02	6.165802e+02	-2.411576e+03	3.028156e+03	-2.719866e+03	-3.082901e+02	1.781373e+02	-2.818744e-17	1.781373e+02	-1.781373e+02
5.1013        	3.562667e+02	-1.301568e+02	4.864235e+02	6.165803e+02	-2.411403e+03	3.027983e+03	-2.719693e+03	-3.082902e+02	1.781334e+02	-2.814254e-17	1.781334e+02	-1.781334e+02
5.1014        	3.562279e+02	-1.301592e+02	4.863871e+02	6.165463e+02	-2.411094e+03	3.027640e+03	-2.719367e+03	-3.082731e+02	1.781139e+02	-2.813845e-17	1.781139e+02	-1.781139e+02
5.1015        	3.562090e+02	-1.301583e+02	4.863672e+02	6.165255e+02	-2.410816e+03	3.027342e+03	-2.719079e+03	-3.082627e+02	1.781045e+02	-2.809508e-17	1.781045e+02	-1.781045e+02
5.1016        	3.561364e+02	-1.301438e+02	4.862802e+02	6.164240e+02	-2.410171e+03	3.026595e+03	-2.718383e+03	-3.082120e+02	1.780682e+02	-2.808993e-17	1.780682e+02	-1.780682e+02
5.1017        	3.561194e+02	-1.301486e+02	4.862680e+02	6.164166e+02	-2.409972e+03	3.026388e+03	-2.718180e+03	-3.082083e+02	1.780597e+02	-2.807013e-17	1.780597e+02	-1.780597e+02
5.1018        	3.561081e+02	-1.301501e+02	4.862583e+02	6.164084e+02	-2.409735e+03	3.026144e+03	-2.717939e+03	-3.082042e+02	1.780541e+02	-2.803212e-17	1.780541e+02	-1.780541e+02
5.1019        	3.560720e+02	-1.301457e+02	4.862177e+02	6.163633e+02	-2.409372e+03	3.025735e+03	-2.717553e+03	-3.081817e+02	1.780360e+02	-2.798959e-17	1.780360e+02	-1.780360e+02
5.102         	3.560097e+02	-1.301286e+02	4.861383e+02	6.162669e+02	-2.408730e+03	3.024997e+03	-2.716864e+03	-3.081335e+02	1.780048e+02	-2.796508e-17	1.780048e+02	-1.780048e+02
5.1021        	3.559794e+02	-1.301288e+02	4.861082e+02	6.162370e+02	-2.408367e+03	3.024604e+03	-2.716486e+03	-3.081185e+02	1.779897e+02	-2.792860e-17	1.779897e+02	-1.779897e+02
5.1022        	3.559111e+02	-1.301295e+02	4.860406e+02	6.161701e+02	-2.407853e+03	3.024023e+03	-2.715938e+03	-3.080850e+02	1.779556e+02	-2.791246e-17	1.779556e+02	-1.779556e+02
5.1023        	3.559408e+02	-1.301792e+02	4.861199e+02	6.162991e+02	-2.408323e+03	3.024622e+03	-2.716473e+03	-3.081495e+02	1.779704e+02	-2.791863e-17	1.779704e+02	-1.779704e+02
5.1024        	3.559235e+02	-1.301762e+02	4.860997e+02	6.162759e+02	-2.408056e+03	3.024332e+03	-2.716194e+03	-3.081379e+02	1.779617e+02	-2.788488e-17	1.779617e+02	-1.779617e+02
5.1025        	3.559187e+02	-1.301903e+02	4.861090e+02	6.162993e+02	-2.408000e+03	3.024299e+03	-2.716149e+03	-3.081497e+02	1.779593e+02	-2.786571e-17	1.779593e+02	-1.779593e+02
5.1026        	3.557134e+02	-1.300890e+02	4.858023e+02	6.158913e+02	-2.405700e+03	3.021591e+03	-2.713646e+03	-3.079457e+02	1.778567e+02	-2.780730e-17	1.778567e+02	-1.778567e+02
5.1027        	3.556716e+02	-1.300789e+02	4.857504e+02	6.158293e+02	-2.405243e+03	3.021073e+03	-2.713158e+03	-3.079147e+02	1.778358e+02	-2.778937e-17	1.778358e+02	-1.778358e+02
5.1028        	3.556248e+02	-1.300729e+02	4.856977e+02	6.157706e+02	-2.404809e+03	3.020580e+03	-2.712695e+03	-3.078853e+02	1.778124e+02	-2.776537e-17	1.778124e+02	-1.778124e+02
5.1029        	3.556425e+02	-1.300914e+02	4.857340e+02	6.158254e+02	-2.404968e+03	3.020793e+03	-2.712880e+03	-3.079127e+02	1.778213e+02	-2.773558e-17	1.778213e+02	-1.778213e+02
5.103         	3.555910e+02	-1.300790e+02	4.856699e+02	6.157489e+02	-2.404422e+03	3.020171e+03	-2.712297e+03	-3.078745e+02	1.777955e+02	-2.771108e-17	1.777955e+02	-1.777955e+02
5.1031        	3.555406e+02	-1.300712e+02	4.856118e+02	6.156830e+02	-2.403908e+03	3.019591e+03	-2.711749e+03	-3.078415e+02	1.777703e+02	-2.770241e-17	1.777703e+02	-1.777703e+02
5.1032        	3.555189e+02	-1.300638e+02	4.855826e+02	6.156464e+02	-2.403511e+03	3.019157e+03	-2.711334e+03	-3.078232e+02	1.777594e+02	-2.765325e-17	1.777594e+02	-1.777594e+02
5.1033        	3.554580e+02	-1.300397e+02	4.854978e+02	6.155375e+02	-2.402700e+03	3.018238e+03	-2.710469e+03	-3.077688e+02	1.777290e+02	-2.764448e-17	1.777290e+02	-1.777290e+02
5.1034        	3.553753e+02	-1.300614e+02	4.854367e+02	6.154981e+02	-2.402539e+03	3.018037e+03	-2.710288e+03	-3.077490e+02	1.776877e+02	-2.759154e-17	1.776877e+02	-1.776877e+02
5.1035        	3.553427e+02	-1.300516e+02	4.853944e+02	6.154460e+02	-2.402070e+03	3.017516e+03	-2.709793e+03	-3.077230e+02	1.776714e+02	-2.757743e-17	1.776714e+02	-1.776714e+02
5.1036        	3.553016e+02	-1.300407e+02	4.853423e+02	6.153831e+02	-2.401579e+03	3.016962e+03	-2.709271e+03	-3.076915e+02	1.776508e+02	-2.755153e-17	1.776508e+02	-1.776508e+02
5.1037        	3.552529e+02	-1.300222e+02	4.852751e+02	6.152974e+02	-2.400935e+03	3.016232e+03	-2.708584e+03	-3.076487e+02	1.776265e+02	-2.750235e-17	1.776265e+02	-1.776265e+02
5.1038        	3.552035e+02	-1.300094e+02	4.852129e+02	6.152224e+02	-2.400377e+03	3.015599e+03	-2.707988e+03	-3.076112e+02	1.776018e+02	-2.747947e-17	1.776018e+02	-1.776018e+02
5.1039        	3.551978e+02	-1.299843e+02	4.851821e+02	6.151665e+02	-2.399988e+03	3.015155e+03	-2.707571e+03	-3.075832e+02	1.775989e+02	-2.743664e-17	1.775989e+02	-1.775989e+02
5.104         	3.550901e+02	-1.300248e+02	4.851150e+02	6.151398e+02	-2.399506e+03	3.014646e+03	-2.707076e+03	-3.075699e+02	1.775451e+02	-2.745248e-17	1.775451e+02	-1.775451e+02
5.1041        	3.551037e+02	-1.300495e+02	4.851532e+02	6.152027e+02	-2.399721e+03	3.014924e+03	-2.707323e+03	-3.076014e+02	1.775518e+02	-2.744235e-17	1.775518e+02	-1.775518e+02
5.1042        	3.550618e+02	-1.300345e+02	4.850963e+02	6.151308e+02	-2.399183e+03	3.014314e+03	-2.706749e+03	-3.075654e+02	1.775309e+02	-2.741193e-17	1.775309e+02	-1.775309e+02
5.1043        	3.550386e+02	-1.300299e+02	4.850685e+02	6.150984e+02	-2.398816e+03	3.013915e+03	-2.706366e+03	-3.075492e+02	1.775193e+02	-2.736285e-17	1.775193e+02	-1.775193e+02
5.1044        	3.550031e+02	-1.300254e+02	4.850285e+02	6.150539e+02	-2.398427e+03	3.013481e+03	-2.705954e+03	-3.075270e+02	1.775015e+02	-2.733367e-17	1.775015e+02	-1.775015e+02
5.1045        	3.549535e+02	-1.300227e+02	4.849762e+02	6.149989e+02	-2.398014e+03	3.013013e+03	-2.705514e+03	-3.074994e+02	1.774768e+02	-2.733139e-17	1.774768e+02	-1.774768e+02
5.1046        	3.549015e+02	-1.300012e+02	4.849027e+02	6.149038e+02	-2.397292e+03	3.012196e+03	-2.704744e+03	-3.074519e+02	1.774508e+02	-2.728127e-17	1.774508e+02	-1.774508e+02
5.1047        	3.548333e+02	-1.299867e+02	4.848199e+02	6.148066e+02	-2.396598e+03	3.011405e+03	-2.704002e+03	-3.074033e+02	1.774166e+02	-2.726594e-17	1.774166e+02	-1.774166e+02
5.1048        	3.548140e+02	-1.299899e+02	4.848039e+02	6.147938e+02	-2.396342e+03	3.011136e+03	-2.703739e+03	-3.073969e+02	1.774070e+02	-2.722669e-17	1.774070e+02	-1.774070e+02
5.1049        	3.547400e+02	-1.300167e+02	4.847567e+02	6.147734e+02	-2.395998e+03	3.010772e+03	-2.703385e+03	-3.073867e+02	1.773700e+02	-2.725467e-17	1.773700e+02	-1.773700e+02
5.105         	3.547010e+02	-1.299281e+02	4.846291e+02	6.145572e+02	-2.394862e+03	3.009419e+03	-2.702140e+03	-3.072786e+02	1.773505e+02	-2.715457e-17	1.773505e+02	-1.773505e+02
5.1051        	3.545634e+02	-1.298934e+02	4.844568e+02	6.143501e+02	-2.393501e+03	3.007851e+03	-2.700676e+03	-3.071751e+02	1.772817e+02	-2.711551e-17	1.772817e+02	-1.772817e+02
5.1052        	3.545385e+02	-1.298658e+02	4.844043e+02	6.142701e+02	-2.392984e+03	3.007254e+03	-2.700119e+03	-3.071351e+02	1.772692e+02	-2.707056e-17	1.772692e+02	-1.772692e+02
5.1053        	3.545569e+02	-1.299256e+02	4.844825e+02	6.144082e+02	-2.393433e+03	3.007841e+03	-2.700637e+03	-3.072041e+02	1.772784e+02	-2.706843e-17	1.772784e+02	-1.772784e+02
5.1054        	3.545214e+02	-1.299190e+02	4.844404e+02	6.143594e+02	-2.393005e+03	3.007365e+03	-2.700185e+03	-3.071797e+02	1.772607e+02	-2.704617e-17	1.772607e+02	-1.772607e+02
5.1055        	3.544750e+02	-1.299096e+02	4.843846e+02	6.142942e+02	-2.392502e+03	3.006796e+03	-2.699649e+03	-3.071471e+02	1.772375e+02	-2.701524e-17	1.772375e+02	-1.772375e+02
5.1056        	3.544410e+02	-1.299050e+02	4.843460e+02	6.142510e+02	-2.392123e+03	3.006374e+03	-2.699249e+03	-3.071255e+02	1.772205e+02	-2.698953e-17	1.772205e+02	-1.772205e+02
5.1057        	3.544047e+02	-1.298989e+02	4.843036e+02	6.142024e+02	-2.391702e+03	3.005904e+03	-2.698803e+03	-3.071012e+02	1.772023e+02	-2.696977e-17	1.772023e+02	-1.772023e+02
5.1058        	3.543491e+02	-1.298948e+02	4.842439e+02	6.141386e+02	-2.391197e+03	3.005335e+03	-2.698266e+03	-3.070693e+02	1.771746e+02	-2.694267e-17	1.771746e+02	-1.771746e+02
5.1059        	3.543071e+02	-1.298888e+02	4.841960e+02	6.140848e+02	-2.390750e+03	3.004835e+03	-2.697792e+03	-3.070424e+02	1.771536e+02	-2.693042e-17	1.771536e+02	-1.771536e+02
5.106         	3.543100e+02	-1.299065e+02	4.842166e+02	6.141231e+02	-2.390832e+03	3.004955e+03	-2.697893e+03	-3.070615e+02	1.771550e+02	-2.692726e-17	1.771550e+02	-1.771550e+02
5.1061        	3.541728e+02	-1.298374e+02	4.840102e+02	6.138476e+02	-2.389092e+03	3.002940e+03	-2.696016e+03	-3.069238e+02	1.770864e+02	-2.682163e-17	1.770864e+02	-1.770864e+02
5.1062        	3.541299e+02	-1.298356e+02	4.839655e+02	6.138011e+02	-2.388728e+03	3.002530e+03	-2.695629e+03	-3.069006e+02	1.770649e+02	-2.682003e-17	1.770649e+02	-1.770649e+02
5.1063        	3.541169e+02	-1.298354e+02	4.839523e+02	6.137878e+02	-2.388450e+03	3.002238e+03	-2.695344e+03	-3.068939e+02	1.770584e+02	-2.677564e-17	1.770584e+02	-1.770584e+02
5.1064        	3.540769e+02	-1.298326e+02	4.839095e+02	6.137421e+02	-2.388046e+03	3.001788e+03	-2.694917e+03	-3.068710e+02	1.770385e+02	-2.676193e-17	1.770385e+02	-1.770385e+02
5.1065        	3.540115e+02	-1.298170e+02	4.838285e+02	6.136456e+02	-2.387387e+03	3.001032e+03	-2.694210e+03	-3.068228e+02	1.770058e+02	-2.673827e-17	1.770058e+02	-1.770058e+02
5.1066        	3.539946e+02	-1.298164e+02	4.838110e+02	6.136275e+02	-2.387096e+03	3.000723e+03	-2.693909e+03	-3.068137e+02	1.769973e+02	-2.669543e-17	1.769973e+02	-1.769973e+02
5.1067        	3.539560e+02	-1.298172e+02	4.837731e+02	6.135903e+02	-2.386749e+03	3.000339e+03	-2.693544e+03	-3.067951e+02	1.769780e+02	-2.668414e-17	1.769780e+02	-1.769780e+02
5.1068        	3.539619e+02	-1.298361e+02	4.837979e+02	6.136340e+02	-2.386816e+03	3.000450e+03	-2.693633e+03	-3.068170e+02	1.769809e+02	-2.665724e-17	1.769809e+02	-1.769809e+02
5.1069        	3.539139e+02	-1.298362e+02	4.837501e+02	6.135864e+02	-2.386456e+03	3.000042e+03	-2.693249e+03	-3.067932e+02	1.769569e+02	-2.663710e-17	1.769569e+02	-1.769569e+02
5.107         	3.537029e+02	-1.296743e+02	4.833771e+02	6.130514e+02	-2.383321e+03	2.996372e+03	-2.689847e+03	-3.065257e+02	1.768514e+02	-2.656975e-17	1.768514e+02	-1.768514e+02
5.1071        	3.537260e+02	-1.297177e+02	4.834437e+02	6.131614e+02	-2.383766e+03	2.996928e+03	-2.690347e+03	-3.065807e+02	1.768630e+02	-2.655055e-17	1.768630e+02	-1.768630e+02
5.1072        	3.536777e+02	-1.297093e+02	4.833870e+02	6.130963e+02	-2.383270e+03	2.996366e+03	-2.689818e+03	-3.065481e+02	1.768389e+02	-2.657147e-17	1.768389e+02	-1.768389e+02
5.1073        	3.535301e+02	-1.296221e+02	4.831522e+02	6.127743e+02	-2.381397e+03	2.994172e+03	-2.687785e+03	-3.063871e+02	1.767650e+02	-2.642696e-17	1.767650e+02	-1.767650e+02
5.1074        	3.536950e+02	-1.297627e+02	4.834577e+02	6.132204e+02	-2.383505e+03	2.996726e+03	-2.690115e+03	-3.066102e+02	1.768475e+02	-2.645370e-17	1.768475e+02	-1.768475e+02
5.1075        	3.536273e+02	-1.297344e+02	4.833618e+02	6.130962e+02	-2.382689e+03	2.995785e+03	-2.689237e+03	-3.065481e+02	1.768137e+02	-2.643163e-17	1.768137e+02	-1.768137e+02
5.1076        	3.535680e+02	-1.297070e+02	4.832751e+02	6.129821e+02	-2.381865e+03	2.994847e+03	-2.688356e+03	-3.064910e+02	1.767840e+02	-2.639241e-17	1.767840e+02	-1.767840e+02
5.1077        	3.535267e+02	-1.296810e+02	4.832077e+02	6.128888e+02	-2.381142e+03	2.994031e+03	-2.687586e+03	-3.064444e+02	1.767633e+02	-2.637903e-17	1.767633e+02	-1.767633e+02
5.1078        	3.535167e+02	-1.295972e+02	4.831139e+02	6.127110e+02	-2.379410e+03	2.992122e+03	-2.685766e+03	-3.063555e+02	1.767583e+02	-2.634918e-17	1.767583e+02	-1.767583e+02
5.1079        	3.534371e+02	-1.298896e+02	4.833267e+02	6.132163e+02	-2.383826e+03	2.997042e+03	-2.690434e+03	-3.066081e+02	1.767185e+02	-2.635271e-17	1.767185e+02	-1.767185e+02
5.108         	3.534274e+02	-1.298407e+02	4.832680e+02	6.131087e+02	-2.382760e+03	2.995868e+03	-2.689314e+03	-3.065544e+02	1.767137e+02	-2.632706e-17	1.767137e+02	-1.767137e+02
5.1081        	3.533851e+02	-1.298143e+02	4.831994e+02	6.130138e+02	-2.381961e+03	2.994974e+03	-2.688467e+03	-3.065069e+02	1.766926e+02	-2.623498e-17	1.766926e+02	-1.766926e+02
5.1082        	3.533453e+02	-1.298017e+02	4.831469e+02	6.129486e+02	-2.381436e+03	2.994385e+03	-2.687911e+03	-3.064743e+02	1.766726e+02	-2.622743e-17	1.766726e+02	-1.766726e+02
5.1083        	3.532609e+02	-1.297531e+02	4.830140e+02	6.127670e+02	-2.380386e+03	2.993153e+03	-2.686770e+03	-3.063835e+02	1.766305e+02	-2.618637e-17	1.766305e+02	-1.766305e+02
5.1084        	3.532945e+02	-1.297856e+02	4.830801e+02	6.128656e+02	-2.380853e+03	2.993719e+03	-2.687286e+03	-3.064328e+02	1.766472e+02	-2.616389e-17	1.766472e+02	-1.766472e+02
5.1085        	3.532443e+02	-1.297780e+02	4.830223e+02	6.128003e+02	-2.380182e+03	2.992982e+03	-2.686582e+03	-3.064001e+02	1.766222e+02	-2.613409e-17	1.766222e+02	-1.766222e+02
5.1086        	3.532459e+02	-1.297884e+02	4.830343e+02	6.128227e+02	-2.380123e+03	2.992946e+03	-2.686535e+03	-3.064113e+02	1.766229e+02	-2.608987e-17	1.766229e+02	-1.766229e+02
5.1087        	3.531802e+02	-1.297764e+02	4.829566e+02	6.127330e+02	-2.379516e+03	2.992249e+03	-2.685882e+03	-3.063665e+02	1.765901e+02	-2.605970e-17	1.765901e+02	-1.765901e+02
5.1088        	3.531831e+02	-1.297964e+02	4.829795e+02	6.127759e+02	-2.379677e+03	2.992453e+03	-2.686065e+03	-3.063880e+02	1.765915e+02	-2.604593e-17	1.765915e+02	-1.765915e+02
5.1089        	3.531438e+02	-1.297846e+02	4.829284e+02	6.127130e+02	-2.379088e+03	2.991801e+03	-2.685444e+03	-3.063565e+02	1.765719e+02	-2.599840e-17	1.765719e+02	-1.765719e+02
5.109         	3.531073e+02	-1.297614e+02	4.828688e+02	6.126302e+02	-2.378586e+03	2.991216e+03	-2.684901e+03	-3.063151e+02	1.765537e+02	-2.596603e-17	1.765537e+02	-1.765537e+02
5.1091        	3.530501e+02	-1.297584e+02	4.828086e+02	6.125670e+02	-2.378157e+03	2.990724e+03	-2.684440e+03	-3.062835e+02	1.765251e+02	-2.594793e-17	1.765251e+02	-1.765251e+02
5.1092        	3.530514e+02	-1.297712e+02	4.828226e+02	6.125939e+02	-2.378130e+03	2.990724e+03	-2.684427e+03	-3.062969e+02	1.765257e+02	-2.591843e-17	1.765257e+02	-1.765257e+02
5.1093        	3.530057e+02	-1.297704e+02	4.827761e+02	6.125465e+02	-2.377772e+03	2.990318e+03	-2.684045e+03	-3.062732e+02	1.765028e+02	-2.589279e-17	1.765028e+02	-1.765028e+02
5.1094        	3.529598e+02	-1.297671e+02	4.827269e+02	6.124940e+02	-2.377393e+03	2.989887e+03	-2.683640e+03	-3.062470e+02	1.764799e+02	-2.585526e-17	1.764799e+02	-1.764799e+02
5.1095        	3.528456e+02	-1.297763e+02	4.826218e+02	6.123981e+02	-2.376920e+03	2.989318e+03	-2.683119e+03	-3.061991e+02	1.764228e+02	-2.581736e-17	1.764228e+02	-1.764228e+02
5.1096        	3.529437e+02	-1.297432e+02	4.826869e+02	6.124301e+02	-2.376568e+03	2.988998e+03	-2.682783e+03	-3.062150e+02	1.764719e+02	-2.579726e-17	1.764719e+02	-1.764719e+02
5.1097        	3.528875e+02	-1.297413e+02	4.826288e+02	6.123701e+02	-2.376056e+03	2.988426e+03	-2.682241e+03	-3.061851e+02	1.764437e+02	-2.578045e-17	1.764437e+02	-1.764437e+02
5.1098        	3.528000e+02	-1.297124e+02	4.825124e+02	6.122248e+02	-2.375143e+03	2.987368e+03	-2.681256e+03	-3.061124e+02	1.764000e+02	-2.575149e-17	1.764000e+02	-1.764000e+02
5.1099        	3.530101e+02	-1.298711e+02	4.828812e+02	6.127523e+02	-2.378368e+03	2.991121e+03	-2.684745e+03	-3.063761e+02	1.765050e+02	-2.574821e-17	1.765050e+02	-1.765050e+02
5.11          	3.530053e+02	-1.298938e+02	4.828991e+02	6.127929e+02	-2.378388e+03	2.991181e+03	-2.684785e+03	-3.063965e+02	1.765026e+02	-2.571770e-17	1.765026e+02	-1.765026e+02
5.1101        	3.530515e+02	-1.299517e+02	4.830032e+02	6.129549e+02	-2.379077e+03	2.992031e+03	-2.685554e+03	-3.064774e+02	1.765258e+02	-2.569382e-17	1.765258e+02	-1.765258e+02
5.1102        	3.529757e+02	-1.299236e+02	4.828993e+02	6.128229e+02	-2.378164e+03	2.990987e+03	-2.684575e+03	-3.064115e+02	1.764879e+02	-2.567215e-17	1.764879e+02	-1.764879e+02
5.1103        	3.529285e+02	-1.299098e+02	4.828383e+02	6.127481e+02	-2.377631e+03	2.990379e+03	-2.684005e+03	-3.063741e+02	1.764642e+02	-2.562831e-17	1.764642e+02	-1.764642e+02
5.1104        	3.528795e+02	-1.299031e+02	4.827826e+02	6.126857e+02	-2.377152e+03	2.989838e+03	-2.683495e+03	-3.063429e+02	1.764398e+02	-2.560255e-17	1.764398e+02	-1.764398e+02
5.1105        	3.528183e+02	-1.298927e+02	4.827110e+02	6.126037e+02	-2.376611e+03	2.989214e+03	-2.682913e+03	-3.063018e+02	1.764092e+02	-2.556965e-17	1.764092e+02	-1.764092e+02
5.1106        	3.528024e+02	-1.298828e+02	4.826852e+02	6.125680e+02	-2.376206e+03	2.988774e+03	-2.682490e+03	-3.062840e+02	1.764012e+02	-2.553714e-17	1.764012e+02	-1.764012e+02
5.1107        	3.527951e+02	-1.298711e+02	4.826662e+02	6.125373e+02	-2.375772e+03	2.988309e+03	-2.682041e+03	-3.062686e+02	1.763975e+02	-2.549979e-17	1.763975e+02	-1.763975e+02
5.1108        	3.527394e+02	-1.298608e+02	4.826003e+02	6.124611e+02	-2.375258e+03	2.987719e+03	-2.681489e+03	-3.062306e+02	1.763697e+02	-2.548583e-17	1.763697e+02	-1.763697e+02
5.1109        	3.527131e+02	-1.298620e+02	4.825751e+02	6.124371e+02	-2.374997e+03	2.987434e+03	-2.681216e+03	-3.062185e+02	1.763565e+02	-2.543223e-17	1.763565e+02	-1.763565e+02
5.111         	3.526451e+02	-1.298503e+02	4.824953e+02	6.123456e+02	-2.374394e+03	2.986740e+03	-2.680567e+03	-3.061728e+02	1.763225e+02	-2.541862e-17	1.763225e+02	-1.763225e+02
5.1111        	3.527463e+02	-1.299208e+02	4.826671e+02	6.125879e+02	-2.375639e+03	2.988227e+03	-2.681933e+03	-3.062940e+02	1.763731e+02	-2.541464e-17	1.763731e+02	-1.763731e+02
5.1112        	3.527030e+02	-1.299090e+02	4.826120e+02	6.125210e+02	-2.375101e+03	2.987622e+03	-2.681361e+03	-3.062605e+02	1.763515e+02	-2.536446e-17	1.763515e+02	-1.763515e+02
5.1113        	3.526553e+02	-1.299029e+02	4.825582e+02	6.124611e+02	-2.374640e+03	2.987101e+03	-2.680871e+03	-3.062305e+02	1.763277e+02	-2.534863e-17	1.763277e+02	-1.763277e+02
5.1114        	3.526162e+02	-1.298989e+02	4.825151e+02	6.124140e+02	-2.374256e+03	2.986670e+03	-2.680463e+03	-3.062070e+02	1.763081e+02	-2.529702e-17	1.763081e+02	-1.763081e+02
5.1115        	3.526360e+02	-1.299224e+02	4.825584e+02	6.124808e+02	-2.374503e+03	2.986984e+03	-2.680744e+03	-3.062404e+02	1.763180e+02	-2.525855e-17	1.763180e+02	-1.763180e+02
5.1116        	3.525264e+02	-1.298937e+02	4.824201e+02	6.123139e+02	-2.373344e+03	2.985658e+03	-2.679501e+03	-3.061569e+02	1.762632e+02	-2.522685e-17	1.762632e+02	-1.762632e+02
5.1117        	3.524092e+02	-1.298098e+02	4.822190e+02	6.120289e+02	-2.371662e+03	2.983691e+03	-2.677677e+03	-3.060144e+02	1.762046e+02	-2.517876e-17	1.762046e+02	-1.762046e+02
5.1118        	3.523582e+02	-1.297956e+02	4.821538e+02	6.119494e+02	-2.371096e+03	2.983046e+03	-2.677071e+03	-3.059747e+02	1.761791e+02	-2.513066e-17	1.761791e+02	-1.761791e+02
5.1119        	3.523214e+02	-1.297999e+02	4.821214e+02	6.119213e+02	-2.370831e+03	2.982752e+03	-2.676792e+03	-3.059606e+02	1.761607e+02	-2.512560e-17	1.761607e+02	-1.761607e+02
5.112         	3.522927e+02	-1.297997e+02	4.820925e+02	6.118922e+02	-2.370477e+03	2.982369e+03	-2.676423e+03	-3.059461e+02	1.761464e+02	-2.506979e-17	1.761464e+02	-1.761464e+02
5.1121        	3.522178e+02	-1.297875e+02	4.820052e+02	6.117927e+02	-2.369839e+03	2.981632e+03	-2.675736e+03	-3.058963e+02	1.761089e+02	-2.504731e-17	1.761089e+02	-1.761089e+02
5.1122        	3.521949e+02	-1.297865e+02	4.819814e+02	6.117678e+02	-2.369552e+03	2.981320e+03	-2.675436e+03	-3.058839e+02	1.760974e+02	-2.501417e-17	1.760974e+02	-1.760974e+02
5.1123        	3.521643e+02	-1.297881e+02	4.819524e+02	6.117405e+02	-2.369273e+03	2.981014e+03	-2.675143e+03	-3.058702e+02	1.760821e+02	-2.499170e-17	1.760821e+02	-1.760821e+02
5.1124        	3.521330e+02	-1.297853e+02	4.819183e+02	6.117037e+02	-2.368943e+03	2.980646e+03	-2.674794e+03	-3.058518e+02	1.760665e+02	-2.496642e-17	1.760665e+02	-1.760665e+02
5.1125        	3.521261e+02	-1.297893e+02	4.819154e+02	6.117048e+02	-2.368777e+03	2.980482e+03	-2.674629e+03	-3.058524e+02	1.760630e+02	-2.491844e-17	1.760630e+02	-1.760630e+02
5.1126        	3.520816e+02	-1.297826e+02	4.818642e+02	6.116467e+02	-2.368313e+03	2.979959e+03	-2.674136e+03	-3.058234e+02	1.760408e+02	-2.489509e-17	1.760408e+02	-1.760408e+02
5.1127        	3.520858e+02	-1.297932e+02	4.818790e+02	6.116722e+02	-2.368290e+03	2.979962e+03	-2.674126e+03	-3.058361e+02	1.760429e+02	-2.486577e-17	1.760429e+02	-1.760429e+02
5.1128        	3.520840e+02	-1.298209e+02	4.819049e+02	6.117258e+02	-2.368286e+03	2.980012e+03	-2.674149e+03	-3.058629e+02	1.760420e+02	-2.485987e-17	1.760420e+02	-1.760420e+02
5.1129        	3.519223e+02	-1.297364e+02	4.816587e+02	6.113951e+02	-2.366539e+03	2.977934e+03	-2.672237e+03	-3.056975e+02	1.759612e+02	-2.468934e-17	1.759612e+02	-1.759612e+02
5.113         	3.518776e+02	-1.297267e+02	4.816042e+02	6.113309e+02	-2.366082e+03	2.977413e+03	-2.671748e+03	-3.056655e+02	1.759388e+02	-2.469669e-17	1.759388e+02	-1.759388e+02
5.1131        	3.518507e+02	-1.297170e+02	4.815677e+02	6.112847e+02	-2.365652e+03	2.976936e+03	-2.671294e+03	-3.056424e+02	1.759253e+02	-2.465575e-17	1.759253e+02	-1.759253e+02
5.1132        	3.517323e+02	-1.296616e+02	4.813940e+02	6.110556e+02	-2.364298e+03	2.975354e+03	-2.669826e+03	-3.055278e+02	1.758662e+02	-2.464018e-17	1.758662e+02	-1.758662e+02
5.1133        	3.520633e+02	-1.299163e+02	4.819795e+02	6.118958e+02	-2.368794e+03	2.980690e+03	-2.674742e+03	-3.059479e+02	1.760316e+02	-2.463930e-17	1.760316e+02	-1.760316e+02
5.1134        	3.519751e+02	-1.299013e+02	4.818763e+02	6.117776e+02	-2.367746e+03	2.979523e+03	-2.673634e+03	-3.058888e+02	1.759875e+02	-2.462497e-17	1.759875e+02	-1.759875e+02
5.1135        	3.519783e+02	-1.298950e+02	4.818733e+02	6.117684e+02	-2.367519e+03	2.979287e+03	-2.673403e+03	-3.058842e+02	1.759892e+02	-2.456849e-17	1.759892e+02	-1.759892e+02
5.1136        	3.519348e+02	-1.298788e+02	4.818136e+02	6.116924e+02	-2.367023e+03	2.978715e+03	-2.672869e+03	-3.058462e+02	1.759674e+02	-2.453723e-17	1.759674e+02	-1.759674e+02
5.1137        	3.518767e+02	-1.298599e+02	4.817365e+02	6.115964e+02	-2.366379e+03	2.977976e+03	-2.672177e+03	-3.057982e+02	1.759383e+02	-2.451452e-17	1.759383e+02	-1.759383e+02
5.1138        	3.518481e+02	-1.298516e+02	4.816997e+02	6.115514e+02	-2.366005e+03	2.977556e+03	-2.671781e+03	-3.057757e+02	1.759241e+02	-2.447036e-17	1.759241e+02	-1.759241e+02
5.1139        	3.517916e+02	-1.298347e+02	4.816263e+02	6.114611e+02	-2.365382e+03	2.976843e+03	-2.671112e+03	-3.057305e+02	1.758958e+02	-2.443563e-17	1.758958e+02	-1.758958e+02
5.114         	3.517938e+02	-1.298508e+02	4.816446e+02	6.114953e+02	-2.365400e+03	2.976895e+03	-2.671148e+03	-3.057477e+02	1.758969e+02	-2.440618e-17	1.758969e+02	-1.758969e+02
5.1141        	3.517209e+02	-1.298254e+02	4.815462e+02	6.113716e+02	-2.364622e+03	2.975993e+03	-2.670308e+03	-3.056858e+02	1.758604e+02	-2.437681e-17	1.758604e+02	-1.758604e+02
5.1142        	3.516838e+02	-1.298116e+02	4.814955e+02	6.113071e+02	-2.364152e+03	2.975459e+03	-2.669806e+03	-3.056536e+02	1.758419e+02	-2.433515e-17	1.758419e+02	-1.758419e+02
5.1143        	3.516543e+02	-1.298033e+02	4.814575e+02	6.112608e+02	-2.363727e+03	2.974988e+03	-2.669358e+03	-3.056304e+02	1.758271e+02	-2.430141e-17	1.758271e+02	-1.758271e+02
5.1144        	3.516185e+02	-1.297925e+02	4.814110e+02	6.112035e+02	-2.363264e+03	2.974467e+03	-2.668865e+03	-3.056017e+02	1.758093e+02	-2.425974e-17	1.758093e+02	-1.758093e+02
5.1145        	3.515523e+02	-1.297687e+02	4.813210e+02	6.110897e+02	-2.362520e+03	2.973610e+03	-2.668065e+03	-3.055449e+02	1.757762e+02	-2.422308e-17	1.757762e+02	-1.757762e+02
5.1146        	3.515333e+02	-1.297642e+02	4.812975e+02	6.110618e+02	-2.362163e+03	2.973224e+03	-2.667693e+03	-3.055309e+02	1.757666e+02	-2.420258e-17	1.757666e+02	-1.757666e+02
5.1147        	3.514751e+02	-1.297375e+02	4.812127e+02	6.109502e+02	-2.361366e+03	2.972316e+03	-2.666841e+03	-3.054751e+02	1.757376e+02	-2.416294e-17	1.757376e+02	-1.757376e+02
5.1148        	3.514125e+02	-1.296948e+02	4.811074e+02	6.108022e+02	-2.360311e+03	2.971113e+03	-2.665712e+03	-3.054011e+02	1.757063e+02	-2.411881e-17	1.757063e+02	-1.757063e+02
5.1149        	3.517055e+02	-1.299344e+02	4.816398e+02	6.115742e+02	-2.364746e+03	2.976320e+03	-2.670533e+03	-3.057871e+02	1.758527e+02	-2.415542e-17	1.758527e+02	-1.758527e+02
5.115         	3.514741e+02	-1.298622e+02	4.813363e+02	6.111985e+02	-2.362615e+03	2.973814e+03	-2.668215e+03	-3.055992e+02	1.757370e+02	-2.409690e-17	1.757370e+02	-1.757370e+02
5.1151        	3.514864e+02	-1.298537e+02	4.813401e+02	6.111938e+02	-2.362453e+03	2.973647e+03	-2.668050e+03	-3.055969e+02	1.757432e+02	-2.406280e-17	1.757432e+02	-1.757432e+02
5.1152        	3.513754e+02	-1.298014e+02	4.811769e+02	6.109783e+02	-2.361087e+03	2.972066e+03	-2.666576e+03	-3.054891e+02	1.756877e+02	-2.401766e-17	1.756877e+02	-1.756877e+02
5.1153        	3.513166e+02	-1.297700e+02	4.810866e+02	6.108567e+02	-2.360186e+03	2.971042e+03	-2.665614e+03	-3.054283e+02	1.756583e+02	-2.395719e-17	1.756583e+02	-1.756583e+02
5.1154        	3.512856e+02	-1.297668e+02	4.810523e+02	6.108191e+02	-2.359807e+03	2.970626e+03	-2.665216e+03	-3.054095e+02	1.756428e+02	-2.392613e-17	1.756428e+02	-1.756428e+02
5.1155        	3.512525e+02	-1.297595e+02	4.810120e+02	6.107716e+02	-2.359382e+03	2.970154e+03	-2.664768e+03	-3.053858e+02	1.756263e+02	-2.390248e-17	1.756263e+02	-1.756263e+02
5.1156        	3.512105e+02	-1.297423e+02	4.809528e+02	6.106951e+02	-2.358794e+03	2.969489e+03	-2.664141e+03	-3.053475e+02	1.756053e+02	-2.385709e-17	1.756053e+02	-1.756053e+02
5.1157        	3.511509e+02	-1.297252e+02	4.808761e+02	6.106013e+02	-2.358142e+03	2.968743e+03	-2.663443e+03	-3.053007e+02	1.755755e+02	-2.383221e-17	1.755755e+02	-1.755755e+02
5.1158        	3.511076e+02	-1.297116e+02	4.808191e+02	6.105307e+02	-2.357592e+03	2.968123e+03	-2.662858e+03	-3.052653e+02	1.755538e+02	-2.379464e-17	1.755538e+02	-1.755538e+02
5.1159        	3.510786e+02	-1.296988e+02	4.807774e+02	6.104762e+02	-2.357072e+03	2.967548e+03	-2.662310e+03	-3.052381e+02	1.755393e+02	-2.375010e-17	1.755393e+02	-1.755393e+02
5.116         	3.510872e+02	-1.297270e+02	4.808142e+02	6.105412e+02	-2.357285e+03	2.967827e+03	-2.662556e+03	-3.052706e+02	1.755436e+02	-2.373836e-17	1.755436e+02	-1.755436e+02
5.1161        	3.509692e+02	-1.296676e+02	4.806368e+02	6.103044e+02	-2.355846e+03	2.966151e+03	-2.660999e+03	-3.051522e+02	1.754846e+02	-2.371448e-17	1.754846e+02	-1.754846e+02
5.1162        	3.509987e+02	-1.296935e+02	4.806922e+02	6.103858e+02	-2.356113e+03	2.966499e+03	-2.661306e+03	-3.051929e+02	1.754994e+02	-2.371693e-17	1.754994e+02	-1.754994e+02
5.1163        	3.508690e+02	-1.296243e+02	4.804933e+02	6.101176e+02	-2.354424e+03	2.964542e+03	-2.659483e+03	-3.050588e+02	1.754345e+02	-2.359647e-17	1.754345e+02	-1.754345e+02
5.1164        	3.508636e+02	-1.296295e+02	4.804931e+02	6.101226e+02	-2.354271e+03	2.964394e+03	-2.659332e+03	-3.050613e+02	1.754318e+02	-2.357289e-17	1.754318e+02	-1.754318e+02
5.1165        	3.507549e+02	-1.295836e+02	4.803385e+02	6.099220e+02	-2.352951e+03	2.962873e+03	-2.657912e+03	-3.049610e+02	1.753775e+02	-2.353525e-17	1.753775e+02	-1.753775e+02