/*--------------------------------*- C++ -*----------------------------------*\
| =========                 |                                                 |
| \\      /  F ield         | OpenFOAM: The Open Source CFD Toolbox           |
|  \\    /   O peration     | Version:  2306                                  |
|   \\  /    A nd           | Website:  www.openfoam.com                      |
|    \\/     M anipulation  |                                                 |
\*---------------------------------------------------------------------------*/
FoamFile
{
    version     2.0;
    format      ascii;
    arch        "LSB;label=32;scalar=64";
    class       surfaceScalarField;
    location    "10";
    object      phi;
}
// * * * * * * * * * * * * * * * * * * * * * * * * * * * * * * * * * * * * * //

dimensions      [0 3 -1 0 0 0 0];

oriented        oriented;

internalField   nonuniform List<scalar> 
20045
(
0.279865
-0.324203
0.0443375
-0.568184
0.240124
0.32806
0.177339
1.01104
-1.18838
0.17159
-0.222541
0.0509515
-0.545565
0.42822
0.117345
-0.295338
1.08157
-0.786235
-0.436245
-0.00113124
0.437376
0.0177905
0.279948
-0.297739
0.290673
0.220081
-0.510755
-0.34395
-0.0894887
0.433438
-0.0962861
-0.0138734
0.110159
1.03808
-0.500071
-0.53801
0.221912
-0.217176
-0.00473584
-0.579808
0.490716
0.0890918
-0.0193163
0.438589
-0.419272
-0.501904
0.157954
-0.0201786
-0.0933455
0.113524
-0.0556422
0.0199787
0.0356635
-0.758095
1.1195
-0.361407
-0.395768
-0.0110634
0.406831
-0.086241
0.153815
-0.0675744
0.0803925
0.141519
-0.118837
-0.449348
0.970828
0.0315374
-1.00237
0.414096
0.0593636
-0.47346
-0.151741
1.12257
0.0525494
-0.0505162
-0.00203327
-0.737418
1.45604
-0.718622
0.727068
0.223566
-0.950634
-1.62439
0.959737
0.664651
0.465215
0.224584
-0.689799
0.568589
-0.499346
-0.069243
-0.146103
0.727226
-0.581123
1.47763
-0.824205
-0.653426
-0.350362
0.368153
0.927609
-0.441989
-0.48562
0.535275
0.209194
-0.744469
-0.035193
0.224279
-0.189086
-1.13133
0.577882
0.553443
0.31814
0.301472
-0.619612
-0.0537805
0.369387
-0.315606
0.0829045
-0.119326
0.0364216
1.05707
-1.05836
0.00129864
0.700137
-0.229803
-0.470334
0.301132
0.399005
0.465163
0.572918
-0.114084
-0.149941
0.264025
0.67871
0.148042
-0.826752
0.795906
-0.260631
0.13791
0.938414
-1.07632
0.66658
-1.09947
0.432885
1.01908
-0.722271
-0.296812
-0.520377
-0.344614
0.864991
-0.0560913
-0.178991
0.235082
-0.0108173
-0.138922
0.14974
-0.374751
-0.170814
0.271174
0.700912
-0.972086
0.86993
0.13774
-1.00767
0.76069
-0.906793
0.890607
-0.723636
-0.166971
-0.192051
-0.0840208
0.276072
0.220992
0.669615
0.222101
-0.793619
0.571518
-0.187674
0.101433
-0.0617532
0.244692
-0.182938
0.579357
0.241448
-0.820805
-0.0427873
0.162932
-0.120144
-0.35101
0.0407328
0.310278
0.491377
-0.200704
0.716065
-0.729551
0.0134859
-0.164383
0.121596
0.106982
-0.1178
-0.137628
-0.56653
0.704157
0.106068
-0.0965662
-0.00950205
0.64006
0.0289268
-0.668987
0.898505
-0.62733
-0.168816
0.808876
0.348732
-0.368049
0.346114
-0.0423566
-0.303757
-0.0243999
-0.649188
0.673587
0.496575
0.539536
-1.03611
0.439719
-0.391095
-0.0486235
0.590454
-0.368353
-1.29292
0.201463
1.09146
-0.00780501
0.28767
-0.179607
0.251106
-0.0714987
0.214249
-0.644373
0.430123
-0.791884
0.0169672
0.774917
0.486543
0.13546
-0.622004
-0.40689
0.333313
0.0735768
-0.583557
-0.0195441
0.603101
0.461509
-0.126763
-0.334746
0.228762
-0.343313
0.114551
-0.128608
-0.401281
0.529888
0.342536
-0.375844
0.0333082
0.769418
0.0871163
-0.856534
0.0285348
0.0240147
-0.0791648
0.0271984
0.0519664
0.672992
-0.354852
-0.0082733
-0.094438
0.102711
0.629995
0.297613
-0.21657
-0.363238
0.0283702
-0.107535
-0.222425
1.09236
0.0443093
-0.223917
0.0941163
-0.10239
0.201783
0.635315
-0.837098
0.558783
-1.04772
0.488937
0.23203
-0.284802
0.241099
0.0437027
-0.133407
0.172278
-0.0388717
0.454524
-0.47416
0.0196362
-0.294674
0.238583
0.840559
-1.47812
0.637558
-0.133411
0.197157
-0.0637464
0.026879
-0.163288
0.136409
0.531476
-0.11738
0.996933
0.480699
-0.637893
0.500265
0.532614
-0.855278
0.322664
0.0583503
-0.113992
-0.227791
0.0357401
-0.460123
0.36648
0.0936433
-0.572542
0.0721518
-0.35668
0.284529
0.691308
0.327775
0.540852
-0.773483
0.232631
0.796111
0.0812409
-0.877352
-1.10501
0.751136
0.353879
-0.215574
-0.321059
0.536633
1.04681
-0.355501
0.197533
-0.347473
0.122139
-0.00634808
-0.115791
-0.0243878
0.0185004
0.00588737
0.578718
0.393206
-0.971924
0.612155
-0.541189
-0.0709657
-0.142911
0.0351389
0.107772
-0.20788
-0.0769212
0.942408
-0.409794
-0.402454
0.4008
0.00165413
0.518508
-1.12087
0.602359
0.120488
-0.640865
0.427401
0.241271
-0.668672
0.776585
-0.800985
0.964542
-0.13075
-0.833793
0.40486
-0.580085
0.175224
0.868416
-0.501704
-0.366712
-0.139404
0.16432
-0.024916
-0.0958798
1.11299
-1.01711
1.04299
-0.315926
-0.819014
0.0173536
0.801661
-0.556523
0.352396
0.204126
0.928661
-0.432087
0.112931
0.326787
-0.623681
0.741982
-0.118301
-0.885373
1.06271
0.00365431
-0.232681
0.229027
-0.316757
-0.147892
0.46465
-0.0262428
-0.219967
0.24621
0.653335
0.108881
-0.762216
1.36093
-0.692256
-0.668675
-0.267217
0.240974
0.305916
-0.44927
0.143354
0.0981212
-0.0152167
-0.944696
-0.424361
0.617639
-0.193278
-0.611074
0.456647
0.154427
-0.00643949
-0.0588189
0.0652584
0.47515
0.393266
-0.0109338
-0.013454
-0.0478991
0.170038
-0.672996
0.0493151
-0.750945
0.9253
-0.174355
-0.711093
0.729945
-0.0188513
-0.505303
-0.433009
0.938312
0.016229
0.433284
-0.449513
0.386387
-0.412902
0.026515
1.01739
-0.0824447
-0.934948
-0.0128006
-0.760731
0.773531
-0.360187
0.787588
0.194193
-0.602842
0.408649
-0.620918
1.46148
-0.748748
0.559419
0.189328
-0.0538951
0.0596861
-0.00579108
0.529557
-1.22195
0.692396
-1.14132
0.403903
-0.518256
-0.553781
1.45522
-0.885654
-0.569567
-0.422373
0.368592
0.162181
-0.172341
0.0101603
-0.568399
-0.238428
0.806827
-0.970519
1.37251
-0.401995
1.08114
-0.844718
-0.236426
0.000623791
-0.190697
0.190073
-0.416023
-0.512009
0.928032
-0.0300752
-0.0662109
-0.339616
0.124042
-0.715314
-0.216714
0.932028
0.112629
0.0300839
-0.142713
0.125492
-0.549853
-0.189359
0.654574
0.842502
-0.0463906
-0.172617
0.137424
-0.207823
0.270384
-0.0625611
-0.2573
0.910635
-1.01306
0.597034
-0.145206
-0.0634075
0.208613
-0.760435
0.16273
0.597705
0.301436
0.779707
1.28956
-0.760004
0.918295
-1.5712
0.652906
0.92625
-1.37628
0.450026
0.0669346
-0.462702
-0.519161
0.720944
0.625905
-0.921243
0.817532
-1.26665
0.449116
-1.70931
0.908884
0.800422
-0.0635201
-0.343369
0.20308
0.172724
-0.375804
0.672107
-0.249933
-0.422175
-0.114617
-0.776071
0.680191
-0.291103
-0.111351
0.645617
0.933013
-0.703554
-0.229459
-0.0128862
-0.154143
0.167029
0.62338
0.127573
-0.750953
-0.46202
-0.255715
0.717735
-0.455492
1.06812
-0.612631
-0.52726
0.741509
0.623851
-0.429659
-0.0224192
0.507617
-0.485198
0.956155
-0.437647
0.11441
-0.00900279
-0.105407
-0.177845
-0.138248
0.316093
-0.130087
0.135181
-0.00509323
1.46696
-0.888875
-0.578082
0.257346
-1.22786
-0.14259
0.0125028
-0.808595
0.219242
0.589353
1.3089
-0.58167
0.22283
-0.973775
1.66655
-0.745977
-0.920571
-0.0151893
0.127818
0.97368
-0.580688
-0.392992
-0.621393
0.103576
0.517818
-0.888431
0.87783
0.010601
0.788885
-1.37414
0.585251
0.0366005
0.00194065
-0.0385411
-0.471942
0.589334
-0.117392
-0.0444536
0.131408
-0.0869548
-0.18176
0.0483491
-0.157456
0.0240497
-0.591009
-0.456711
0.385904
-1.05891
0.673002
-0.421214
0.447361
-0.0261463
0.414614
0.153975
1.21122
-0.393689
-0.519044
0.202287
0.537242
0.771655
-0.535709
0.0677827
0.467926
0.470482
0.503198
0.42519
0.0133991
-0.488969
0.0677549
-0.328784
-0.0776938
0.406478
0.00380624
-0.0577013
-1.11979
0.664303
0.670632
-0.706281
0.035649
-0.972601
0.943744
0.0288565
-0.393426
0.340637
0.0527889
-0.141567
-0.149458
0.291025
0.756378
-0.850522
0.0941445
-0.948749
-0.760556
1.15332
-0.719495
-0.433826
-0.114988
0.102102
1.44211
-0.653226
-0.679363
1.06527
-0.394677
0.267219
0.127458
1.01947
-0.317624
-0.701849
0.983607
-0.328031
-0.655576
-0.143437
-0.25124
0.891259
-0.550318
-0.340941
-0.203546
0.824007
-0.62046
-0.180283
-0.4597
0.639983
0.0340324
0.145663
-0.179696
-0.133846
-0.0147366
0.148583
1.21599
-1.07876
-0.137231
-0.595365
-0.50965
0.569165
0.363848
-0.893072
-0.0795282
0.0931776
-0.271022
0.369306
-0.818998
0.449692
0.00271913
0.159462
-0.533453
1.11217
0.617222
0.849735
1.60116
-0.954926
-0.646235
-0.787794
0.571079
0.629866
-1.09145
0.461587
-0.630801
-0.074396
0.705197
-0.426054
-0.073806
0.49986
0.40165
-0.0957346
0.00110811
-0.146314
0.481903
-0.128202
-0.371144
-0.555586
0.858218
-0.302632
-0.25038
0.0425575
-0.428064
0.405645
0.094245
-0.982676
0.291944
-0.819204
0.227507
-0.170843
0.226112
-0.0552687
-0.0268337
0.198423
-0.446459
0.317024
0.129435
0.371442
0.0830822
0.502584
-0.326418
-0.176166
0.459742
0.152413
-0.435351
0.804658
0.584485
-0.0979417
-0.241034
-0.5194
1.39128
-1.18675
-0.204528
0.788551
-0.927072
0.46846
0.458612
0.800166
-0.889476
0.0893109
-0.483355
0.354747
-0.145128
0.00221677
-0.149388
-0.434169
0.378576
-0.585713
0.207137
0.42447
0.466789
0.601914
-1.05352
0.451607
0.334238
-0.58566
0.251422
-0.975069
0.183185
0.052777
0.408732
-0.452244
0.609812
-0.157568
-0.21573
0.325329
-0.109599
-0.550624
0.114379
-0.130843
-0.280079
0.410922
0.113883
0.000522549
-0.114406
-0.263862
-0.292661
0.334319
0.461779
-0.796099
0.904766
-0.434284
0.271482
-0.454982
-0.0283727
0.534492
-0.200255
-0.660732
-0.088016
0.0390889
-0.0230792
-0.0160097
0.925321
-0.246611
-0.537935
0.787373
-0.249438
-0.14414
0.173495
-0.0293543
0.640059
0.0320479
-0.441355
-0.377644
-0.559161
0.956119
-0.396957
0.539736
-1.03549
0.495751
0.551415
0.601905
-0.0321824
0.0209913
0.0111911
0.121723
-0.752524
0.590078
-0.889681
0.299603
0.053258
0.0528103
-0.130766
0.671617
-0.447722
0.739666
-0.450015
1.37626
0.167805
-0.9259
-0.647841
0.363735
0.284106
0.684141
-0.152157
-0.531984
0.95758
-0.201202
-0.715505
-0.501885
-0.421686
0.712286
0.0408413
0.153268
-0.194109
0.337804
-0.348867
-0.790144
0.659378
0.82423
0.232836
-0.821459
0.283524
0.929563
-0.360398
-0.106685
0.140317
-0.0336321
0.0129472
-0.583242
0.570295
-0.895775
0.155679
0.740097
0.735352
-0.735352
-0.461134
0.886265
-0.425132
0.176636
0.325948
0.561757
-0.283631
-0.278126
-1.00556
1.05068
-0.0451176
0.39133
-0.014896
-0.376434
0.300303
-0.0980741
-0.202229
0.140919
-0.282486
0.238374
0.463931
-1.14329
-0.825975
0.975791
-0.149816
-0.306035
0.640355
0.010861
0.0140133
-0.0248743
0.677565
-0.49218
-0.185385
-0.394972
0.461907
1.49094
-1.11323
-0.377709
-0.112006
-0.493958
0.605964
-0.276998
0.294314
-0.0173154
0.176175
-0.294528
0.118353
-0.86084
0.3922
0.46864
-0.139658
-0.0828835
-0.127868
0.0211829
-0.0360709
-0.039385
0.0754559
0.664473
0.551514
0.0519865
-0.0411255
-0.0778939
-0.22416
0.302054
-0.548898
0.858904
-0.310005
0.133923
0.196073
-0.329995
0.37006
-0.371192
0.650225
-0.284302
-0.365923
0.0567326
-0.458013
0.254047
0.763345
0.488506
0.268344
-0.75685
0.502314
-0.394064
-0.10825
-1.01289
0.193879
-0.337967
0.150943
0.187023
0.428894
0.805403
-1.2343
-0.663982
0.589586
0.0512631
-0.923045
0.871782
-0.155438
0.156062
-0.0571794
0.0633736
-0.00619419
0.0691854
-0.39797
-0.0375165
0.125998
-0.0884812
-0.662309
-0.146286
0.622515
0.316714
-0.209602
-0.107112
-0.162195
0.0180551
0.127297
-0.678819
0.551522
0.256571
0.498612
-0.755183
0.500295
-0.698433
0.833226
-0.134793
-0.747064
0.543518
-0.0153221
-0.035194
-0.370888
-0.240186
-0.300555
0.0676426
0.232913
-0.931819
0.38292
0.636999
-0.749005
0.437127
0.492436
-0.405931
0.352964
0.0529665
0.112497
-1.16482
1.05233
0.199818
-0.307266
0.107448
0.371275
-0.81263
-0.621973
-0.0891207
-0.362282
0.0112717
0.202511
-0.168375
-0.0341362
0.542186
0.0106087
-0.0225167
0.011908
1.18103
-0.752134
-0.493193
0.871288
-0.378095
0.2926
0.206933
-0.499533
-0.340215
0.184777
-0.265008
-0.035547
0.399456
0.162301
-0.282612
-0.572666
0.00902259
0.0300663
0.589076
0.456386
0.128099
-0.920848
1.05876
0.105012
-0.398986
0.293975
-0.0910535
-0.825513
0.916567
0.0549571
-0.0644633
0.00950614
-0.522068
0.538297
-0.522969
0.342687
0.631103
-0.226242
-0.362956
-0.0835028
-0.00773969
-0.448344
0.456083
0.403547
-0.90885
-0.0934792
-0.445309
0.538788
0.0777654
-0.11726
0.0394949
-0.63352
0.00628549
0.627234
0.866318
-0.718276
0.00144211
0.109537
-0.11098
-0.249426
-0.0275727
0.188643
0.39995
-0.588593
0.141244
-0.171753
0.0305095
0.537186
0.305845
-0.843031
-0.290026
1.05944
0.107381
0.00650211
-0.317151
-0.631263
0.948414
0.373659
0.56875
0.91481
-0.658238
-0.403606
0.272762
-0.142129
0.00828316
-0.429897
1.05976
0.10536
-0.748164
0.642804
0.804051
-0.124482
-0.67957
-0.434296
0.638892
-0.204596
0.383478
-0.438374
-0.350849
0.789223
0.102102
-0.0684283
-0.0336742
-0.26727
-0.495478
0.762747
0.190224
0.487341
0.0685024
-0.0749419
0.515528
-0.782798
-0.686129
-0.23257
0.918699
-0.032083
-0.523482
0.555565
-0.0556851
1.15475
-1.1812
0.0264454
0.220839
-0.10299
-0.117849
-0.0514729
-0.354458
0.254351
0.275537
-0.372942
-0.0531119
-0.80602
1.00442
-0.1984
0.0965689
0.574063
0.158918
0.617666
-0.797231
-0.261133
0.00844418
-0.0898905
0.0814463
0.534454
-0.0780675
-0.241671
0.262574
-0.0209029
0.148146
-0.192599
-1.20608
0.687823
0.89357
0.188003
-0.0905382
0.266713
-0.229606
0.522206
1.10882
-0.644894
-0.245417
0.00374549
-0.153499
-0.636645
0.183343
0.282318
-0.278663
-0.922784
0.027009
-0.0854156
0.239369
-0.0395502
-0.762838
0.42786
0.334978
0.599501
0.116564
0.230042
-0.0839457
-0.146096
0.360161
-0.308361
-0.0518004
-0.686714
0.244725
-1.07069
0.511529
0.662811
-0.651731
-0.0110797
-0.0111338
-0.0622788
0.0734126
0.936268
-0.00783004
-0.928438
0.209061
0.0152157
-0.224276
-0.164009
-0.296114
0.263439
-0.0346772
-0.0365077
0.0332252
0.00328246
0.45929
-0.00413107
-0.455159
-0.00982612
-0.0266816
0.744008
-0.656891
-0.0319047
-0.168893
0.200798
-1.00173
0.19571
0.00250672
-0.121747
0.150117
0.184919
0.131795
-0.157163
-0.361882
0.246727
0.220984
-0.46771
0.0580658
-0.119819
0.381525
-0.276513
0.238894
-0.212015
0.112761
-0.32849
0.515291
0.272299
-0.78759
0.574175
-0.0854839
-0.488691
-0.356841
-0.223244
-0.136744
0.0125152
0.124229
0.333648
-0.357495
0.0238469
1.10746
-0.0439646
-1.0635
-0.0241145
0.0422189
-0.0181044
-0.527795
0.716361
-0.188566
0.590353
0.612224
-1.20258
0.251117
-0.335137
-0.334219
0.481959
-0.14774
0.242465
0.11266
-0.355125
-1.11049
0.841574
0.268919
0.0283837
0.00484153
-0.85055
0.164421
0.350318
-0.206785
-0.143533
0.434116
-0.578143
0.144026
-0.115924
-0.208279
0.163295
0.99146
0.829606
-0.16542
-0.664186
-0.809625
0.111192
0.34412
-0.585155
0.928461
-1.42113
0.492673
-0.120394
0.323473
-0.00364767
-0.350051
0.272157
-0.180042
0.252194
-0.201732
-0.890644
1.09238
0.848489
0.593622
-0.752846
0.787234
-0.0343877
0.153818
0.0486934
-0.540037
-0.199296
-0.135137
0.151739
-0.0166022
-0.277521
0.547857
-0.270335
-0.260882
0.492494
-0.231613
-0.0944373
0.528553
-0.66403
-0.0410095
0.70504
-0.746379
-0.255163
1.00154
0.432485
-0.362623
-0.069862
-0.275243
0.00636097
0.268882
0.0478009
0.0495538
-0.0973547
-0.975033
0.0436581
0.931375
0.0232401
0.221935
-0.245175
0.785222
-0.876056
0.0908346
-0.464367
-0.324791
0.840363
-0.515573
0.0153705
-0.150507
-0.128027
-1.01831
1.14634
0.794494
-1.41541
-0.946908
0.827643
0.119265
0.164551
-0.0233075
0.826497
-0.667578
-0.0686213
-0.154368
0.22299
-0.014907
0.173627
-0.15872
-0.132909
0.826537
-0.693628
0.698425
-0.307681
-0.390745
1.02894
-0.969728
-0.0592093
0.689071
-0.242103
-0.446968
0.0420492
-0.258857
0.216808
-0.331636
-0.0250444
-0.931682
0.808786
0.122896
0.0451435
-0.976825
-0.327517
0.427868
-0.100351
-0.521312
-0.557444
0.230469
-0.184812
-0.0456568
-0.780672
-0.221058
-0.215504
0.152877
0.0626267
-0.686036
0.224017
-0.912306
0.884658
0.0276479
-0.149528
-0.0307454
-0.0658208
0.234288
-0.0252275
-0.561248
0.0893055
0.179893
-0.194062
0.0141685
0.390745
-0.0431125
-0.347633
0.455299
-0.0639684
-0.207084
0.634193
0.00586687
0.359532
-0.0315724
-0.0999237
0.131496
-0.0881319
0.474519
-0.665536
0.445797
0.21974
0.0412289
-0.0128452
1.4375
-0.589009
0.938021
-0.825524
-0.181753
-0.156508
0.338261
0.671132
-1.22174
0.550608
0.594646
-0.626729
0.905173
-0.417834
-0.487339
-0.00491637
-0.571363
-0.0941729
-0.530186
0.89551
-0.365323
0.00357249
-0.401972
1.32027
-1.05155
0.270874
0.105011
-0.0709787
-0.0958784
0.10256
0.138832
-0.00365088
-0.481694
-0.456613
1.35525
-0.456743
-0.369344
0.253548
0.115796
0.0502372
0.250066
-0.641605
-0.497974
1.13958
0.195183
0.206467
-0.00746697
-0.164385
0.171852
0.822259
0.0421662
0.00573555
-0.0479018
0.76772
-0.252429
-0.332953
-0.994159
0.168184
-0.25341
0.0164259
0.236984
0.708199
0.958349
-0.40623
-0.128923
0.535153
0.968707
0.0602296
0.649895
-0.909859
0.259964
-0.818597
0.00505128
0.813546
-0.774008
1.0014
-0.227393
0.16184
-0.00835622
-0.153484
-0.584075
1.37857
-0.100999
-0.549115
0.650114
0.0240306
-0.776877
0.396034
-0.27424
-0.121794
-0.918932
1.20037
-0.281434
-0.203923
0.582693
-0.37877
1.16316
-0.515195
-0.647968
0.0286845
-0.592732
0.564048
0.0545217
0.00885187
-0.489323
1.07968
0.403295
-0.864429
1.01877
-0.479034
-0.209003
0.177098
-0.842624
0.0240267
1.10814
-0.506223
0.00156172
-1.29448
0.34809
0.0212964
0.47259
0.602817
-1.07541
0.549042
-0.161217
-0.387825
0.441369
-0.867871
0.426502
-0.166437
0.00884108
0.157596
-0.20003
-0.52377
0.7238
0.371016
-0.258255
-0.0376894
-0.0703148
0.108004
0.107075
0.228926
-0.336001
0.0807427
0.149726
-0.930991
1.08375
-0.15276
0.0647714
-0.00981425
0.47841
0.220775
-0.699186
0.361015
0.830903
-1.19192
0.199483
0.484658
-0.0191888
0.983731
-0.012923
0.793672
-0.780749
0.207779
-0.0738567
0.0672686
-0.0212802
-0.0459884
1.3688
-0.806506
-0.562295
0.432257
0.472916
-0.0957069
0.0959385
-0.000231658
-0.246939
0.773504
-0.526565
-0.00497033
0.197128
-0.192158
0.920316
-1.33655
0.41623
-0.170596
-0.505644
0.67624
0.790169
-0.166789
0.256192
0.29285
-0.482316
0.180535
0.301781
0.30629
-0.800247
0.179696
-0.373822
0.194126
0.201603
-0.0445955
-0.157007
-0.00421026
0.058732
-0.0538204
0.530819
-0.476999
-0.197752
1.13617
0.736182
-0.624791
-0.11139
0.662017
-0.526556
-0.471443
0.175312
0.296131
0.132953
-0.416584
0.067589
-0.202819
0.13523
0.0761332
0.153909
0.142407
0.733345
-0.875752
0.302604
0.156686
0.116045
-0.862424
-0.494838
0.0192667
0.475571
-0.386372
-0.21494
0.601312
0.544557
-0.29783
-0.838571
0.532536
0.218557
-0.174915
-0.0436421
-0.475536
1.06217
-0.58663
-0.435871
0.492604
-0.54597
0.455248
0.0907216
-0.597583
1.05041
-0.452827
-0.0193701
0.242023
-0.222653
0.0178425
-0.0289763
-0.346331
-0.607244
0.97495
-0.367706
-0.569574
0.732304
0.491706
-0.545058
0.0533521
0.147212
0.473369
-0.62058
-1.20909
0.768422
0.440663
-0.00166441
-0.0541043
0.0557687
-0.120085
0.675396
-0.808305
1.16717
-0.496037
-0.232504
-0.415337
-0.706283
0.69336
0.450564
0.0060826
0.32582
0.102271
-0.428091
-0.372851
0.34117
0.0316804
-0.250663
0.481455
-0.230792
-0.0995579
-0.127481
0.227039
0.297738
0.373
-0.670739
-0.68688
-0.255587
0.942467
-0.396097
0.543309
0.646975
0.721826
-0.963132
0.570912
0.39222
-0.493865
0.117639
0.376226
0.00584102
0.212937
-0.265226
0.0522893
-0.487181
-0.414899
0.315341
0.154373
0.224929
-0.18288
-0.512645
0.235124
0.355948
-0.677007
0.0214142
0.321121
0.191281
0.0407881
-0.232069
-0.696149
-0.537086
1.23323
-0.349306
-0.13301
-0.482401
-0.0794327
0.561834
0.0659708
0.271737
-0.337708
0.0063956
1.12773
-0.739996
-0.387735
0.20111
0.628495
0.103289
-0.216789
-0.0878066
0.304596
-0.764142
0.98201
-0.217868
-0.538591
-0.239066
0.777657
-0.496671
0.162451
-0.334016
-0.137427
0.813516
-0.413564
-0.399952
0.501334
-0.0778621
-0.423471
0.323528
0.0916598
-0.415188
-0.192994
0.216234
-0.0368034
-0.0274643
0.0642677
-0.0465046
-0.0338501
-0.233367
-0.00485917
0.423801
0.389716
-0.374701
0.952583
-0.46128
1.42102
0.467961
0.0333729
-0.815929
0.277338
0.751092
-0.629369
-0.134761
-0.671872
0.144076
0.0774432
-0.40496
0.672356
-0.659409
0.840676
-0.0405101
-0.207486
-0.135827
-0.189664
-0.0823233
0.271988
-0.329037
-0.0468063
0.730066
0.154244
-0.88431
-0.0215896
-0.249885
0.271475
-0.17591
0.496332
-0.966361
0.470029
0.84138
-0.0561582
-1.14399
1.277
-0.133011
0.212895
-0.172162
-1.00277
-0.206311
-0.258286
0.828942
-0.0201565
0.633288
1.04759
-0.384204
-0.663385
-0.604285
-0.0396197
0.643905
0.259031
0.431591
-0.690622
-0.709116
0.0755962
-0.180768
-0.0761678
0.256936
-0.479184
0.584544
0.163064
0.473219
-0.636282
0.131535
-0.189836
0.0583017
-0.921594
0.115706
0.805888
0.554742
0.612427
-0.30878
0.506233
0.182838
-0.219373
-0.118594
0.883756
-1.01451
0.428142
0.0345327
-0.462675
0.384691
-0.133575
0.671448
0.0167823
-0.68823
0.928668
-1.38995
-0.00415476
0.0407552
-0.195191
0.340206
-0.145015
-1.10567
0.977639
-0.0432024
0.336629
-0.293427
-0.0216072
0.0840005
-0.0623934
-0.512524
-0.00954397
-0.278358
0.622478
0.0302535
0.632557
-0.170479
0.18585
-0.802321
0.546606
0.0587405
-0.0567999
-0.210947
0.20125
0.00969743
0.227028
-0.252744
0.0257159
-0.559167
0.588094
0.111039
-0.59344
-0.0947024
-0.32767
-0.0288736
0.576299
-0.547426
0.347934
-0.425628
0.0866785
-0.697267
0.610589
-0.182228
0.851452
-0.669224
0.280494
-0.83608
-0.360226
-0.0223742
-0.924534
0.434296
0.920951
-0.707036
-0.131535
-0.499085
-0.427987
-0.458003
0.177924
-0.0535542
-0.0590354
0.11259
1.48323
-0.775035
0.764707
-0.174629
-0.251457
-0.167556
0.419012
-1.15906
0.571949
0.587107
-0.172717
0.158844
-0.671224
0.346433
0.178092
-0.0976996
-0.212891
-0.611345
0.510346
0.167655
-0.161067
-0.00658823
-0.118076
0.848141
-0.273078
0.38253
-0.109453
0.839735
-1.2086
0.54111
0.667492
0.11477
0.306534
-0.421304
0.542674
-0.0912045
-0.451469
-0.551274
0.347351
-0.0949244
-0.0358893
0.359417
0.882712
-0.973765
0.443247
-0.200782
-0.360536
0.666826
-0.770863
0.545244
0.225619
0.928799
-1.38654
0.457741
-0.6603
0.735844
-0.0755442
0.361405
-0.449537
0.0133319
0.175205
0.257281
0.329981
-0.979169
0.428464
-1.25338
0.798049
0.45533
0.223036
-0.827321
0.575606
-0.0118668
-0.609527
0.137733
0.186432
1.03908
-0.36439
-0.674691
0.126961
0.232705
-0.619077
0.174923
-0.915506
0.875887
-0.715084
0.27671
0.446116
-0.649012
0.294686
0.354326
-0.93004
0.553549
0.376491
-0.185257
0.0639481
0.0138172
-1.03018
0.723093
0.307084
0.77825
-1.36233
-0.921293
-0.00969764
1.40077
-0.472311
0.0602405
0.112514
-0.172755
-0.0251165
-0.151392
0.176509
0.0405018
0.426776
0.51992
-0.327336
-0.321676
0.132376
0.23864
0.188473
0.379652
-0.568125
0.411951
-0.239227
-0.0310873
-0.989403
1.02049
-0.326699
0.31227
-0.672457
-0.582405
-0.427315
1.00972
0.24552
-0.372283
-0.705236
0.208857
0.496379
0.0308292
-0.00772226
-0.0231069
0.708956
-0.910687
0.115536
-0.310727
0.877442
0.585806
-1.46325
-0.330674
-0.0386697
-0.8414
0.2371
0.6043
-0.750788
0.580192
0.183988
-0.948131
-0.0379481
0.466091
0.0123692
0.01846
-0.0280377
0.832089
-0.576978
0.757671
-0.180692
0.751927
0.00346992
-0.755397
-0.471788
-0.0102395
-0.160604
0.0610951
0.674257
0.142002
0.0314927
0.322889
0.51398
-0.337344
0.489242
0.133277
-0.38394
-0.859812
-0.0524935
-0.787487
0.273601
-0.854289
0.182425
0.205545
-0.387971
0.761035
0.0526037
-0.813639
-0.117005
0.108649
-0.360269
-0.710422
-0.756739
-0.132738
-0.503202
1.43187
-0.336995
0.483963
-0.146969
-0.97636
0.280212
-0.30727
0.495743
-0.368933
-0.393905
-0.573251
-0.254035
0.28055
-0.0402778
0.431023
0.951355
-0.122413
0.593783
-0.163966
-0.429817
-0.0693948
0.577012
0.280579
0.995849
-0.944586
-0.0440028
-0.232222
0.346773
-0.460433
0.528216
-0.481062
-0.632007
0.245115
0.173199
-0.418314
-0.770008
0.0346562
-0.140257
0.769175
-0.628918
-0.0112171
-1.13277
-0.630105
0.757678
1.42422
-0.661217
-0.763006
-0.0921464
0.24309
0.645063
-0.293864
-0.351199
0.281381
-0.315231
0.0270023
0.0402664
-0.140278
-0.014698
0.154976
-0.0959123
0.421732
-0.585053
1.3633
-0.00765281
-0.177159
-0.274382
-0.104893
0.379275
-0.0371218
0.746077
0.81952
-0.265051
-0.554469
-0.397169
0.585812
0.368179
0.405325
-0.525917
0.0310789
0.562872
-0.223865
-0.339007
-0.0448963
0.0297162
0.0151801
0.135387
-0.717895
0.582508
-0.901619
0.14488
0.229924
-0.580724
0.854325
-0.0147538
0.296134
0.146337
-0.483332
-0.856827
0.43514
-0.991527
0.299271
-0.469567
0.0745949
-0.342944
-0.551177
0.894121
-0.811094
-0.0134415
-0.0577841
0.0712256
0.965919
-0.764456
0.732985
-0.473954
0.103588
0.52785
-0.631438
0.132651
-0.313419
-0.492109
-0.344515
0.836624
-0.0298112
-0.393618
0.423429
-0.81393
1.41224
-0.598307
0.6325
-0.482836
-0.149665
0.57601
0.0228245
-0.598835
-0.50031
-0.708292
-0.308204
-0.0540784
0.408074
0.638735
-0.00745487
0.106922
-0.0994668
-0.67462
-0.16678
0.593613
0.52589
-0.53407
0.655733
-0.121663
0.00640825
-0.000672704
-0.0550285
0.218974
-0.163946
0.117589
-0.390667
-0.114457
-0.915721
-0.955425
0.204096
0.014461
0.458027
-0.647386
0.0898417
0.675371
-0.765212
-0.481936
-0.0793119
0.472739
0.432028
0.0695657
-0.277446
-0.000623918
0.0680573
-0.0674334
-0.00732219
-0.326629
0.333951
0.0211265
0.319511
0.38718
0.837142
-0.412673
0.735557
-0.423287
-0.121546
-0.261311
0.382857
0.715324
0.108682
-0.0106041
-0.6813
0.48127
0.191096
-0.228218
-0.353037
-0.764561
1.1176
-0.557206
-0.601851
-1.04082
1.06849
-0.0276737
0.141627
-0.286246
0.203923
0.538773
0.298369
-0.0329237
0.622719
-0.589796
-0.255766
-0.473785
-0.290102
-0.514599
0.804701
0.386691
-0.191508
0.409281
-0.229585
0.549119
-0.909387
0.394485
-0.335122
-0.427822
0.86551
-0.437688
0.623568
0.380641
0.337822
-0.718463
1.0395
-0.569615
-0.469883
-0.80381
-0.559501
0.986458
-0.426956
0.210692
0.38309
-0.308477
0.293723
0.408786
0.754377
-0.223304
0.198188
0.0189742
-0.00836549
0.898459
-0.505253
0.521701
0.961532
-0.421558
0.230899
0.190659
0.190679
-0.372432
0.686572
-0.0151242
0.256219
-0.195979
-0.609442
-0.105398
0.714841
0.195248
-0.0213058
-0.173942
0.165913
0.0549257
0.123838
-0.897847
-0.300751
0.369936
0.626144
-0.583651
-0.0424925
0.190727
0.372145
-0.161821
0.0778753
0.312131
0.191042
-0.503173
-0.291761
1.05245
-0.120274
-0.501412
1.01218
-0.510769
-0.214906
0.321982
0.217865
-0.0863306
1.05694
-0.550214
-0.342858
0.150993
0.39168
0.316776
-0.411479
-0.180268
0.160898
-0.281923
-0.150522
-0.0116732
0.125458
-0.173068
0.768326
-0.595259
0.0199261
-0.055997
-0.243062
0.0886938
-0.339011
0.0308072
-0.88135
0.564199
0.279129
0.20283
-0.14295
0.529615
-0.386665
0.174122
0.0769838
0.72336
0.421356
-1.14472
-0.120459
-0.0102625
0.130722
0.218476
-0.711668
0.981657
0.442566
0.735349
-0.645508
-0.989399
-0.0150919
-0.0178941
0.0206609
0.422018
0.357819
0.35401
-0.711829
0.442468
-0.0945346
-0.0259446
-0.313198
-0.10836
-0.540467
-0.334745
0.467698
0.492063
0.379225
0.508746
-0.50425
-0.00449591
0.195191
0.00605887
-0.0618195
0.261264
-0.0342367
0.658005
0.150646
-0.808651
0.226741
-0.0590863
-0.23764
0.147097
0.0905426
-0.352439
-0.0221062
0.374545
0.208501
0.542995
-0.751495
0.195056
0.349502
0.633143
-0.0196982
-0.274976
0.176703
0.337277
-0.0267779
0.0754233
-0.0486455
-1.02122
0.467443
0.791335
-0.606792
-0.184543
0.0140544
-0.141612
0.127558
0.721316
-0.775136
0.473587
-0.086896
0.392345
0.34064
-0.146516
-0.00400637
-0.0584707
0.0366964
0.0217743
-0.456394
-0.126008
0.999422
-0.513478
-0.485944
0.387659
0.0293522
-0.417011
0.442663
-0.689566
0.246903
0.023274
0.469041
0.0654514
-0.478223
1.24354
-0.765319
-0.038742
-0.0197288
-0.490393
0.327364
0.0551669
0.647695
0.00388068
-0.651575
-0.407746
-0.0685731
0.259854
0.110509
-0.0145702
0.139156
0.20105
-0.543682
0.2828
0.0126015
0.00354074
-0.0741045
0.118414
-0.388952
0.49254
-0.00202998
0.284348
0.152644
-0.134311
0.548925
-0.0247429
0.533489
-0.159551
-0.127914
-0.189248
0.501379
-0.106269
0.81779
-0.711521
-0.727489
-0.123061
-0.820621
1.38198
-0.561363
-0.0580497
0.385413
0.33426
-0.054312
-0.0140096
-0.261208
0.275217
-0.801194
0.250979
0.140096
-0.138654
0.586661
-1.22827
0.444156
-1.07542
-0.824586
0.856123
-0.453532
0.510052
-0.319011
0.00916381
-0.534918
0.670305
0.00136944
-0.155513
0.082398
-0.445021
-0.119678
-0.551464
0.671141
-0.555162
0.644268
1.38527
-0.909403
-0.475863
-0.212888
0.0799451
0.224763
0.0202645
-0.245027
-0.748488
0.17151
0.200839
0.000763388
-0.00442435
-0.131065
0.135489
0.605905
-1.42653
0.0947699
0.417232
0.0608716
-0.478104
-0.915241
0.808973
0.143684
0.0383025
-0.181987
0.375286
-0.98253
-0.149178
0.00182607
0.147352
0.184179
-0.0404951
0.000757838
0.684008
-0.484525
0.531243
0.500525
-0.305469
-0.818471
0.236066
-0.596379
0.517246
0.0791335
0.714526
-1.06756
-0.497714
-0.265402
0.763115
-0.0557804
0.408177
-0.305407
0.290511
1.00811
-0.146815
-0.861299
-0.0124884
-0.847324
0.53026
0.0457505
0.346624
0.298439
-0.164486
0.000101589
0.145071
-0.208216
-0.377497
0.0293357
-0.0279868
-0.00134897
0.0121354
-0.555931
0.543796
-0.185967
0.419248
-0.23328
0.527516
-1.14758
0.620064
-0.045456
-0.495733
-0.0274906
0.00681903
0.610835
-0.353165
-0.170198
0.523363
-0.352715
-0.309594
0.445126
-0.271927
0.215908
0.0862079
-0.302116
0.314725
-0.457675
-0.782211
-0.0954501
-0.0747968
0.170247
0.24957
0.108286
-0.357857
0.342069
-0.757766
0.415697
0.0749472
-0.524295
0.148496
-1.06743
-0.628306
-0.690543
1.31885
-0.840414
0.027497
0.812917
-1.04145
-0.716534
0.0562343
-0.335074
0.314993
0.0200815
-1.38886
-0.287591
0.945596
0.395531
-0.174548
0.126563
-0.315811
-0.125098
0.4746
0.151471
0.106599
-0.380981
0.0150674
-0.125689
0.110621
-0.141782
0.00237822
-0.0844508
0.0985051
-0.322486
0.437256
-0.990716
0.592061
0.398654
0.187657
-0.186549
0.435919
0.209644
-0.0143959
0.582356
-0.61528
-0.465266
-0.23997
-0.527008
0.15835
0.368658
-0.0219804
0.0852567
-0.0632763
-0.442116
0.434794
-0.0894438
0.687149
0.775008
0.0445119
0.423264
-0.775979
0.38637
-0.473242
0.0868724
0.122283
-0.012746
0.0226635
-0.00167221
-0.88433
0.541386
-0.00284089
0.3905
0.0130897
-0.195538
0.182448
-1.44256
0.557188
0.289737
-0.427985
-0.189093
-0.0177529
-0.219556
0.237308
-0.54206
0.188895
-0.995702
0.881246
1.57272
-0.695276
-0.2339
0.222042
0.0118582
-0.0472736
-0.0426169
-0.153602
-0.683888
0.328689
0.355199
-0.146851
0.136588
0.0528128
0.328478
-0.38129
0.285597
0.18799
0.116
-0.0317018
-0.0842981
-0.300406
0.298376
0.0865263
-0.0332684
0.377308
-0.915207
0.929864
0.0388437
-0.587822
-0.0565505
0.842527
-0.0469927
-0.795534