/*--------------------------------*- C++ -*----------------------------------*\
| =========                 |                                                 |
| \\      /  F ield         | OpenFOAM: The Open Source CFD Toolbox           |
|  \\    /   O peration     | Version:  2306                                  |
|   \\  /    A nd           | Website:  www.openfoam.com                      |
|    \\/     M anipulation  |                                                 |
\*---------------------------------------------------------------------------*/
FoamFile
{
    version     2.0;
    format      ascii;
    arch        "LSB;label=32;scalar=64";
    class       volScalarField;
    location    "4.8";
    object      p;
}
// * * * * * * * * * * * * * * * * * * * * * * * * * * * * * * * * * * * * * //

dimensions      [0 2 -2 0 0 0 0];

internalField   nonuniform List<scalar> 
13486
(
22.3987
22.6577
3.09691
-161.364
-20.0866
4.81486
-27.7389
-8.23661
4.57688
18.0957
-53.7522
4.14394
23.2105
7.80948
-13.5766
18.5898
-26.2674
-2.00835
3.12951
20.4809
-191.66
22.6809
22.3015
-43.0884
15.7861
-33.2889
-26.1892
-7.63233
0.165802
-9.5389
-132.907
-1.8319
-17.5056
-3.07677
-7.86969
-2.73758
-66.7867
9.25053
4.42134
7.53157
-62.5309
24.9106
3.11932
15.5023
15.4453
4.29046
-22.658
-0.20687
-72.5129
-4.58914
16.1978
6.84048
6.80889
10.5849
-11.1426
-18.328
3.50152
6.46986
-16.6141
-20.7548
-68.4283
-31.3577
-16.507
-186.409
-13.0264
-65.1161
-152.029
25.5716
4.08039
13.898
-145.36
-9.63298
10.63
-24.9933
-57.7628
3.93434
-67.1022
-15.4286
-22.6576
-0.991257
-1.32577
23.9062
-16.4719
3.04048
22.3417
24.1495
-24.5689
16.0485
18.7024
21.5146
3.70488
-11.9653
19.4662
21.3575
3.21353
-0.317863
-26.3822
-130.531
7.56599
-26.1876
-2.44326
8.38417
-140.499
8.96989
27.6977
-26.0501
15.92
4.34837
-22.3524
-18.9855
-1.50651
-9.32492
10.575
5.08246
31.3094
-0.690705
16.3727
-1.43269
10.814
-115.502
1.20651
-63.5238
5.76609
4.57656
-1.33332
8.68398
-0.886663
10.1439
0.309342
-11.5219
9.07896
-22.3061
-23.7801
-24.0821
16.2212
18.8224
38.5513
-18.0312
-104.085
-4.90358
-11.2466
5.18952
3.03669
-1.29027
4.76594
-26.7474
-27.8117
39.0246
-5.31923
0.0561448
14.0203
-22.119
-1.26181
24.6495
11.4678
3.0566
-28.6543
-89.255
4.56709
-32.2252
-1.46017
4.57497
4.95593
24.3141
7.83094
4.89969
9.49026
39.006
-26.9129
-23.9455
-29.9764
11.4387
15.1607
-1.93358
-1.63971
-85.1836
7.97448
-13.0131
15.7006
2.7336
4.71888
5.06583
-0.804226
-24.0075
1.02622
-7.481
0.103729
-6.48483
-77.2841
2.67712
-100.577
4.75945
7.56564
30.62
5.69706
-48.1842
-12.9786
-1.38753
14.5086
5.75283
-131.674
9.99319
9.15881
-36.9241
-26.5809
6.39563
-9.61307
14.1779
7.6235
1.9887
-6.9739
-30.6724
20.2312
15.9833
4.76959
-6.67093
-9.70746
21.5073
16.8152
-9.53079
-26.0941
-5.24808
-3.88949
-1.7475
4.84092
18.5327
2.8397
-109.365
-2.02635
-21.3886
4.63737
-128.968
-12.268
26.2289
-194.908
16.4223
-4.51994
5.34645
16.9725
1.3869
-18.9792
15.0938
5.73768
13.9862
-2.67422
18.3374
2.38283
-20.4884
-24.4868
16.2319
-46.7287
31.9655
-2.88091
3.31922
0.627075
-82.9373
-0.924658
-8.48285
-75.2911
-19.4375
20.366
-3.56475
-12.8589
-78.3726
-25.2827
-24.2693
-0.120945
-163.897
11.0331
8.87521
26.3577
16.238
-10.0415
4.18341
18.6686
-18.803
1.49434
-36.3639
4.36334
-16.6964
-39.7399
3.51053
16.5294
-75.0736
-57.6833
-26.7824
-10.1624
-0.294464
6.17931
11.3194
-196.886
-14.6411
1.93997
16.1059
-3.7556
-5.5991
-1.6653
4.2976
16.3159
-42.2845
4.76484
-10.0492
-18.6848
-2.23246
-57.5513
-39.8383
-140.695
2.35493
-18.4306
-97.3904
-11.6456
-156.145
10.6161
-7.57608
-74.1087
19.1024
-20.2538
18.92
14.6396
-1.54189
-67.8995
-10.9661
15.7399
21.9309
38.4725
4.33438
-7.26536
3.14024
1.88594
-8.81539
16.1092
-13.8471
5.30522
27.3871
-28.215
1.38088
31.5197
-21.4988
14.9903
-4.99932
-1.1627
21.8964
-10.2715
-1.172
-32.3301
-0.0691946
-0.00238114
29.4077
-9.84824
-19.8896
2.02964
3.54272
3.83689
-26.0596
16.2023
-14.3792
-25.6814
-0.903087
-17.1544
-29.5565
3.46337
6.48588
19.4778
16.297
-10.1757
-0.360214
-5.19483
-22.9262
20.8868
-0.510039
2.78427
0.44423
4.46058
-37.0703
6.77411
16.0579
15.7336
-9.70488
-77.0517
-14.6219
10.2997
-17.0788
25.684
26.4942
-21.925
1.85354
7.78973
14.8602
-26.867
-131.318
19.4862
-10.1328
12.7503
18.1367
28.4533
-143.162
-161.073
-38.0197
-26.5903
-10.8747
-26.8251
16.8536
7.25428
-93.3586
-26.8631
-15.9362
21.1358
-12.4234
1.36561
22.3111
14.0663
8.81156
-10.6093
16.518
15.7142
29.4969
-23.5195
-25.8171
-29.1043
1.14936
15.7965
-14.1373
29.6767
15.3672
1.05171
-6.08465
10.1216
16.696
-26.4032
10.0981
22.7761
7.47602
12.5673
6.17627
-29.1501
-19.5477
26.1684
-11.79
-1.77905
25.1373
-26.1378
-9.7481
-23.4547
-11.0671
-64.2926
12.3112
29.2388
23.1056
-15.0587
-91.733
-33.8543
15.2333
19.1547
-4.91655
1.47745
16.0525
-20.8266
-80.9751
-77.8544
-29.3854
11.1485
16.094
-1.31906
10.1433
-178.696
17.81
-0.219871
35.5238
18.952
8.77792
-11.4996
-4.37159
0.0212558
31.2078
4.28521
-115.735
0.615801
1.51314
-26.8722
4.27955
15.4041
-14.138
3.38475
22.4362
-8.91466
-26.3683
14.8405
-130.927
38.5723
14.9196
16.2636
16.5752
-83.2759
4.70941
33.1113
-27.9042
21.4111
-38.7385
10.6743
-160.749
-1.04581
3.35425
-26.1149
19.2818
-1.17124
-50.2544
0.097969
4.18804
28.3135
12.291
1.52385
-0.26877
-0.100099
3.85468
-27.9133
16.0979
-30.7084
25.5331
-135.974
8.87952
25.2162
-17.4226
-3.78743
2.34924
-149.174
-43.306
2.60531
-21.705
6.31022
19.481
-25.4029
-31.168
-25.5615
-0.0476604
16.5192
10.3623
-23.7298
-135.678
-14.6413
-79.4581
-6.39758
-10.3406
1.42139
-0.21113
26.8461
-7.82501
19.595
-30.036
-38.0377
-0.886189
12.0964
-36.2999
12.9531
3.46247
-73.6425
-1.07776
9.69473
-22.2967
-25.1728
16.2761
18.0347
12.7955
22.9378
4.43793
15.1127
10.136
14.7401
5.13792
16.7385
-25.766
16.9255
-1.53776
0.136247
-17.6508
15.2228
-26.4699
4.36399
28.7517
22.0748
-30.8044
-60.6061
12.39
7.20932
8.29346
19.3866
-47.1845
-29.1385
6.96313
20.348
9.21224
10.3717
-80.9191
22.3063
-13.9616
5.49234
16.0777
-13.6
0.0837201
20.2696
-8.39249
2.12547
-21.2754
11.7983
-3.50627
21.6347
-0.134255
3.19017
3.82882
5.47288
-9.99509
28.8834
11.0002
28.4331
-125.335
12.4935
-3.89333
-25.6949
-22.7905
16.0076
31.3037
-42.9618
-18.0663
-8.38105
-10.7914
16.1391
-5.70091
6.84999
6.01701
-25.0724
-15.9255
-21.03
12.0343
-2.92428
16.3614
-1.83494
25.7347
6.56324
-25.9842
-35.4783
-6.16967
11.1727
-52.8356
9.0666
-26.2221
16.0895
-0.333847
4.48856
-74.9478
25.6349
0.324773
7.07302
24.6417
16.1429
-23.2996
-4.19128
0.855204
8.06341
-2.76276
5.58666
-24.378
11.7096
8.15615
10.9539
5.76319
25.3379
5.43649
-100.464
15.212
-12.2399
3.93548
-6.82966
15.4517
13.547
-23.0653
3.74401
-8.38849
3.85833
16.4559
11.0432
3.19292
3.12396
-81.5337
6.45051
21.3142
-10.882
-4.43428
6.98781
26.6862
5.38341
5.70929
28.4132
2.30042
-30.1412
11.5443
-18.2636
19.6092
4.99935
16.0513
-139.562
-24.134
-36.3752
-1.19773
-26.2316
14.6848
30.0143
-7.53143
-32.7757
2.23677
21.5366
-1.05486
12.9526
-77.5153
31.5939
-21.3852
2.49879
-5.27044
15.1523
18.5769
18.3486
-13.2605
-165.491
24.6014
16.0437
-30.0815
8.43381
-61.1433
-0.850943
-6.60549
14.6864
-20.7843
2.4826
20.4329
-21.589
5.58001
-9.59627
-45.3573
-7.81038
6.76889
13.5622
19.8
-135.533
1.86794
-19.8028
-173.295
5.11731
-3.25291
5.75447
16.0541
9.4818
0.901465
8.63871
-70.7752
-8.51587
-25.1281
0.829951
-141.909
-33.738
-4.71764
-85.9249
-2.97566
23.5582
-137.2
-10.2414
24.6624
21.7975
-31.2893
-14.5124
2.55583
-24.0766
5.20968
-6.04874
8.66643
-19.2281
-26.2815
12.6424
15.2267
1.53468
-27.4873
-26.4882
5.32155
-0.45507
18.5439
2.82224
-120.238
21.6728
20.3513
-27.6768
-80.3231
5.45686
-45.8613
3.60662
2.50223
-8.67109
-114.503
5.5443
16.0494
28.8044
13.0331
3.9287
6.5165
15.7623
20.245
17.0065
3.99494
13.7724
27.6429
-21.5556
-4.9968
8.99364
1.65547
25.8439
2.27199
21.8019
3.42093
2.22885
4.21022
5.7889
-7.54321
17.6409
26.8324
15.3755
14.0655
-15.827
3.10007
-1.49022
-19.3506
-4.3262
11.2215
5.11489
-98.0957
-79.1563
13.9925
-8.41193
-24.4142
-15.6497
-14.8237
-14.2639
-39.0628
-80.1899
14.9507
-151.016
22.384
-93.5359
-24.7679
7.60962
17.0788
-46.1346
8.95699
-57.9924
18.6618
-22.0869
-15.7209
0.872048
-56.7966
-33.9296
16.0769
4.37203
14.5765
-10.93
2.04973
-26.4795
5.54555
-13.7323
12.6665
-8.70454
-58.6223
-76.4637
22.3574
2.26297
-95.9147
-56.1083
13.5691
-89.9113
-13.0582
4.31849
-11.8734
-5.18815
-7.58041
-14.8483
21.4042
16.0608
9.32815
13.1361
14.2283
-8.94816
16.2765
7.02476
8.37329
19.7099
-2.588
2.38208
-0.281804
6.17512
-71.2477
18.1935
12.1049
-14.2694
16.1559
-5.09099
-0.27103
30.6737
5.68809
-9.09558
15.1013
-21.3626
6.53114
0.785413
-185.87
13.4843
5.61013
2.39901
5.09749
8.397
11.8998
-20.4284
-0.578677
16.1352
-13.3531
27.0474
18.7947
16.06
4.22787
19.1707
2.42231
4.73704
-10.6142
8.18334
-108.899
-0.226128
-12.5328
-13.267
-72.1403
11.9084
-29.6706
-30.0117
-99.1855
-110.633
-23.6693
17.2814
-8.54622
4.75283
-23.5882
15.6634
28.8793
-14.4118
-84.6608
15.0518
-61.3872
12.8347
-28.6738
-0.0665506
10.9533
9.66303
25.4178
2.56921
15.8141
-7.54311
17.6217
5.34262
19.058
-149.086
-21.7311
8.20161
-46.1398
2.63714
-10.1638
-70.6019
22.9837
15.6979
20.2219
18.9773
20.224
12.9937
-3.25904
3.82647
15.7877
15.7294
2.35018
2.56988
-7.12396
8.32833
2.87166
5.51092
-25.0265
38.8205
0.338595
5.58865
28.9801
21.683
0.0551648
-56.2273
8.60227
14.6201
-56.2123
1.23287
-24.7389
2.61716
15.792
17.344
1.02847
4.70385
17.4666
-0.556994
-0.878399
19.2892
1.99881
-93.2225
-29.1491
3.12329
-7.32299
17.7151
24.317
-17.9
-70.7834
-13.7685
0.969439
13.2311
4.14057
25.2383
8.68777
33.915
12.2109
3.59302
14.4041
-24.067
-28.8702
-90.8782
13.6488
1.05079
-23.0568
-109.296
13.2211
16.1067
-6.00965
-17.9963
-23.9424
-12.3332
6.48355
-11.1422
3.03224
2.53419
14.7101
16.4832
19.7538
7.15582
0.542419
-15.7127
-8.24997
3.28537
-24.4819
16.7285
2.6535
-116.532
5.66409
-15.2803
6.89603
-82.8798
3.11684
15.6793
-36.0507
-15.3867
-0.891199
-4.36372
-19.5551
4.5656
-10.1326
4.74965
15.4862
11.9036
-24.5262
16.0945
5.38569
20.0361
12.8632
14.0048
13.4278
5.7347
25.4226
34.0307
5.78343
-26.6639
15.8237
0.458676
25.6248
-11.3642
-15.5466
-73.4509
4.44816
4.17905
-15.0464
15.6145
11.6743
-4.33608
-50.522
-10.152
7.93281
30.4092
-33.9766
16.6145
-26.5407
20.4587
24.747
4.3796
-2.28038
-31.2455
23.6411
2.94666
32.938
-70.0285
-7.3943
13.3695
4.3558
-34.0227
-24.0277
3.65742
19.7082
-120.217
-23.5455
21.9831
20.4444
5.77139
-12.856
-79.5036
10.593
7.00916
10.5706
16.3858
2.64227
-54.6773
18.8643
-3.24896
-13.1376
-8.0306
18.8534
11.2552
-80.4738
-114.341
0.0795092
16.2723
23.7869
2.39776
8.96406
-8.01563
30.7043
-31.5764
-10.5007
25.9884
16.1276
-0.424204
0.573095
-162.085
-10.7603
-14.9926
-33.3862
-3.96821
-77.9861
7.37109
-8.97037
-26.0836
-26.2261
-14.1714
-52.2285
-26.6526
-39.2049
31.0789
17.7267
-28.6022
-22.5604
-0.610628
10.4454
-0.101256
33.6555
-13.4166
-6.40663
16.2132
-9.94435
-79.9676
-9.5011
-10.832
11.8003
35.1044
0.342207
3.95716
-44.0086
1.3585
-10.8411
-1.93051
2.61418
19.093
19.0632
16.6444
-139.967
0.407127
5.31742
3.25492
15.6707
2.30563
17.1212
31.8242
27.7449
-9.44149
16.1985
19.4975
-6.30365
15.8405
7.95371
26.9809
15.4836
7.35414
19.2755
14.31
-7.30645
2.05754
19.5694
-14.4685
4.11812
-20.0625
-17.7391
4.59687
12.8155
11.8561
3.42985
25.0411
24.5833
-6.79307
-24.0296
4.39902
-75.5574
3.83606
18.4237
19.506
-24.7242
15.9261
3.10761
1.04695
3.50667
-62.6976
-22.3072
-19.8369
35.0206
-13.5667
-113.885
21.881
4.38343
5.19773
13.194
4.53116
16.1874
-41.1115
-7.20918
2.75524
-7.04844
-12.8687
-9.41858
29.464
21.5041
10.0123
40.96
24.1354
-11.0311
9.72248
-11.9673
-0.568835
25.0929
-102.054
8.73126
1.02154
-27.2737
-11.6207
14.1698
-46.351
1.24256
17.9795
35.4031
-25.4564
1.79873
-3.27533
5.622
2.71972
-190.922
24.0739
15.0511
3.72029
13.5584
-13.5517
-39.8241
-25.9381
27.5774
-79.1683
32.6471
-103.78
9.96674
-28.3512
-28.5049
-24.1199
7.21367
5.5462
11.3705
-11.475
11.4093
-175.247
-0.431452
-18.1784
-25.27
-6.92185
-14.9916
-36.4871
7.25028
-146.724
-61.4357
1.00833
2.00187
29.0502
15.9374
-0.321649
2.81875
40.4638
8.38873
-27.2496
-2.01411
6.17155
16.3692
4.61059
18.9975
-8.27493
-8.53166
-10.9604
-0.508596
4.33645
22.9177
-24.5189
-31.6318
-25.7517
28.2326
-124.44
3.1167
16.5029
-62.4935
-3.33407
10.1904
-28.3231
-25.0803
-19.4129
15.745
9.25266
16.1492
-16.7342
-25.2667
-19.4153
-23.036
-11.7691
0.592154
4.61339
-15.7197
-14.2919
-139.808
-25.6948
-32.0063
21.612
-197.516
28.3021
-39.8925
-11.6297
-3.32518
6.20294
17.6149
-1.93658
23.9567
-26.6976
-14.2955
-31.4019
15.0332
-24.988
15.5888
-5.43615
25.5262
19.0593
-3.14955
13.5765
25.1006
6.44611
13.618
-13.3129
-66.912
-0.803101
-16.8586
4.22176
-14.2411
-16.0676
2.94503
-39.8047
4.28977
-9.35882
-6.41482
-13.5169
-7.1504
26.8755
1.08791
0.197518
4.17235
15.9957
-17.1674
-0.256111
7.33385
1.8514
3.81493
3.62573
1.47851
15.962
16.1163
-13.5865
17.5047
18.6018
9.42032
-8.90563
5.70887
11.3176
2.42139
-7.83875
-28.3366
-98.3512
-9.83169
-166.118
-1.40004
6.02419
4.71636
-24.5062
-4.98672
-92.9752
-11.5252
-16.4566
12.0523
-27.2337
16.9898
39.3832
12.9115
-18.5629
13.7349
9.50227
4.43726
1.91475
-11.2255
-93.3644
5.09327
15.2786
0.269005
23.9815
1.66202
16.0867
-5.20287
-0.346268
-28.5742
-24.9287
34.0304
-138.124
16.0617
16.2605
18.9567
4.63668
14.9851
2.41412
-27.7442
5.561
-25.8074
-27.3276
15.621
16.1668
-14.3651
13.0787
19.7277
-72.6216
-31.5566
4.99002
5.31509
18.4835
13.8968
19.3046
-2.47311
5.59191
-16.1395
-7.118
-9.41832
19.4875
32.2565
-13.0288
-27.6359
-28.5321
-0.999544
3.74471
3.8322
-31.9294
-9.09777
-3.18764
-29.5121
-4.71244
37.1451
12.5687
-1.14103
-154.283
-68.1845
-21.4694
-26.4193
-32.1195
-37.5275
21.8643
13.7691
-9.70242
32.1515
-1.9439
-33.8781
-16.4828
-28.175
6.83513
-20.6723
11.4937
4.06805
-31.1873
-8.92485
-39.1277
-26.7144
-125.023
19.7597
-86.9015
6.99363
-25.7877
16.3198
14.1035
-116.887
16.8314
11.8692
21.1688
25.4019
6.71757
4.27563
35.507
-25.5885
0.415537
-37.8494
-108.576
22.3932
-118.283
27.7455
13.5378
-7.98117
-25.918
-20.3034
18.7141
-91.3402
-15.8948
-28.3364
4.80879
-2.27528
14.6424
9.44787
-5.58571
28.2366
-24.2301
-32.8882
15.3373
0.838636
18.1194
-24.7324
39.2572
5.49433
-9.99476
18.3355
-4.70771
16.0833
5.66368
10.9544
6.29372
4.47141
-10.364
7.41909
4.43084
-208.161
-8.73288
5.10514
14.5217
15.7465
-124.365
3.04917
-33.1538
14.3402
6.20587
-118.569
17.0462
-14.574
16.1572
17.2006
-26.1676
22.8561
-42.4199
33.7107
8.44223
-91.2402
0.429165
-59.4829
19.0082
18.6275
-89.899
16.1392
17.8133
-26.456
4.79196
4.72425
6.83114
-27.2777
-25.9381
-16.342
-128.211
16.2427
-28.449
-62.2617
-10.1896
20.1273
17.2071
20.2428
-28.4454
13.6294
4.6705
0.732264
13.993
-109.176
-128.532
27.7312
2.31566
-26.8983
-13.7413
-28.9697
-91.4354
16.0415
-26.09
-2.30506
18.8231
-6.76307
15.3642
-18.5962
1.56156
30.7933
-15.7398
19.3251
-0.122844
-100.053
11.3404
4.24023
15.6954
30.8338
9.84986
-12.9426
32.7681
14.8779
21.2785
-22.9707
-28.1897
-20.8216
-8.69121
-89.1424
-21.3518
-6.37623
-21.1996
-0.143929
2.93697
-13.5167
-7.42296
-121.986
-13.5182
20.6217
-40.4836
1.02459
14.7278
15.8513
3.48608
-17.8335
-119.098
-26.3347
-33.0783
-4.01567
20.6996
-104.308
21.273
-24.1758
16.0767
-19.746
-27.4575
-37.3274
10.7854
14.576
10.3717
2.48511
13.4554
-5.2928
17.9504
24.9281
-27.0249
-48.6658
-63.9496
17.3217
7.97571
-38.0969
-16.4537
6.92854
6.15317
-100.522
4.51064
-9.48488
9.6386
14.5654
7.69263
8.0506
-103.381
22.3899
-72.0993
12.9064
-0.230597
16.3356
11.6649
14.3781
3.92263
-57.8697
-172.979
-26.0492
-27.1925
-114.711
-36.8964
0.202256
-106.853
16.6855
6.16142
16.0174
-105.514
-9.5204
-12.8262
7.7211
11.6097
-25.5452
7.98663
4.29166
-92.8064
-86.9246
-74.0358
3.24511
16.2409
6.1806
4.65971
-19.9378
6.7453
-61.2955
-0.50436
-30.7962
16.8081
1.87908
-22.6675
14.7259
6.23826
13.1481
24.0675
25.0771
-16.6034
-15.5638
-37.385
-3.00297
14.731
4.14798
-58.3326
-101.76
-60.7076
-9.63486
3.73821
-79.0732
35.6869
-15.4278
10.7171
1.48552
-11.9538
11.5811
-47.5728
2.20161
8.69998
3.79783
17.3465
-11.5619
15.8873
-13.5405
-37.4083
-130.253
-9.83919
-109.952
9.88426
30.234
15.6871
-25.0376
-53.2293
18.0798
-26.7204
-73.4833
-20.1826
3.98713
-34.8014
-95.1267
-115.638
-9.1259
2.44906
-0.943147
-20.0032
4.29543
17.6945
-5.79824
-12.9017
18.5129
7.17747
-53.4505
4.58435
3.44443
0.25377
33.1013
-24.6839
0.404388
-5.61421
-2.11298
-5.8216
5.31904
-8.367
-3.10558
-0.399455
-9.61239
-42.7745
-27.548
19.3989
4.98347
9.9064
-35.2815
-3.89922
31.0635
-134.191
10.6068
9.95683
10.9581
9.0767
1.98663
-28.3053
19.292
17.0737
15.8478
8.18902
-95.2989
18.3702
8.88837
24.792
-22.526
17.5675
18.9037
16.963
5.20932
-22.6991
11.2996
-27.227
-8.98357
13.566
13.2958
8.18144
20.9925
4.21988
24.1566
-1.0358
11.2856
5.90202
1.69504
-48.6014
16.2078
-0.608382
14.2747
32.9773
17.074
3.79164
-6.99855
1.57528
16.1058
8.69521
-26.4564
3.51361
-116.051
18.0028
-102.347
22.2513
10.5014
40.5105
26.9357
-14.4581
-19.9168
-59.0538
7.76928
27.3757
-23.9939
6.19895
3.91608
37.0369
15.2277
1.7609
32.419
-3.05209
14.0837
-2.11721
9.87649
5.07795
5.63034
10.515
15.5819
9.30188
-20.4477
3.89114
-56.6847
-1.30563
-56.3785
-101.238
26.7123
20.2896
1.37462
-37.3705
1.0376
12.4594
4.5044
3.80696
14.493
-37.2603
-28.7995
-202.617
17.1785
-13.1154
-36.5886
19.3073
-5.55386
1.83044
-6.72579
31.4604
-104.887
21.2698
-43.3616
34.2955
-11.579
-3.15331
-24.4742
5.5169
5.58818
15.9829
7.21826
-30.1234
2.15962
-50.6223
17.9327
4.77137
6.90098
-106.741
-22.0719
-47.6472
9.74533
-20.2557
-24.1335
-90.9844
16.2807
32.5222
-54.5645
-51.05
3.0633
-52.5017
13.2744
-8.04296
-16.5013
-23.1851
-25.8915
16.1843
-21.141
-5.38999
-36.896
-29.0483
-33.6799
8.97418
16.0161
12.1601
16.0776
30.5178
-68.4676
35.628
-23.3457
32.6956
-90.2559
-4.6383
28.5784
13.0797
-10.1809
-1.65334
9.56517
3.75408
-101.73
-25.9767
4.24209
-9.254
-15.1442
-1.3419
-0.086527
12.3403
9.83571
-99.8978
12.6446
-13.1242
1.85538
-109.858
7.72165
2.63557
-121.094
-9.86649
29.4905
13.4326
31.0871
2.92977
-25.1321
13.0611
-2.12839
-26.9485
16.058
15.3743
34.5347
16.1106
19.1581
-18.773
-24.032
33.3631
32.813
18.5497
-0.865056
-101.057
-27.1335
4.4203
-11.5961
-2.57126
23.4803
-114.099
8.82129
-44.8212
31.623
10.0318
8.53683
-181.806
-0.156584
22.1795
38.0283
35.6251
6.83208
13.8495
-14.1437
-20.1872
15.8741
36.2
-51.7417
-34.2845
-8.41233
0.565664
4.59425
4.3445
1.54677
4.44613
5.80866
2.76558
-148.543
11.7773
18.359
-48.8125
12.293
-166.761
0.646065
26.4768
-49.2423
-0.508666
-43.2037
13.4158
14.866
-96.8517
-49.0374
-22.7349
7.53052
39.1721
-28.5228
-22.041
-64.7816
3.19185
-61.517
-43.9287
-124.489
-24.3696
-24.9134
-16.2635
-1.27053
-15.7564
14.5889
-26.6027
8.23206
37.9791
9.24744
3.88859
-7.12334
9.5866
-23.9605
-4.56141
25.7945
13.9295
4.00039
-20.4414
10.6805
13.7096
-57.1421
-86.8799
-20.887
26.0327
-7.10214
16.0837
7.36502
22.8167
3.63327
-141.479
13.8211
16.0839
-5.74657
17.0785
-3.0169
34.2658
-156.466
3.10461
-43.5199
16.0702
-114.337
-7.02895
-155.936
4.14564
-36.3773
-88.1191
-110.253
7.53665
5.39737
-24.141
-1.59424
5.2916
-27.1403
1.75006
-159.516
15.8926
32.1971
-1.36647
-25.2414
2.52498
4.59963
0.871917
7.30033
-0.0366133
-26.6763
-130.23
-11.4258
-34.4687
7.60988
5.6195
-87.6111
-52.3563
2.53474
15.7833
7.60137
-83.0494
3.18318
-153.275
-24.9761
-4.27911
-11.9292
-89.3675
20.7013
-109.809
-25.9518
-14.4001
-56.5892
-27.7839
-73.5861
40.6312
-2.1777
-11.0723
16.9487
32.2088
26.6235
-109.881
-2.19089
15.8537
8.10361
-100.381
32.0135
0.920159
-7.40019
40.6107
5.2686
-40.6741
9.32507
24.759
16.6205
2.44722
26.2978
15.4856
0.940241
5.45195
13.2883
4.3779
-26.7798
29.7948
13.1774
3.92202
-126.074
-22.706
-3.85958
-177.658
-3.87547
4.55308
5.49703
18.0844
6.42509
-26.6235
26.987
28.4694
-27.0292
2.09589
-3.2714
-5.2395
-2.23266
14.9602
-90.9471
-5.93389
14.5657
32.9941
-26.72
9.37738
13.2774
13.2499
-9.42406
3.61222
-24.0075
-1.50412
-25.9299
8.65913
-28.3967
-13.0777
3.272
-167.893
14.9173
-89.0911
-8.48233
10.927
-23.7727
-166.654
-25.9449
7.55122
-1.54587
-23.7658
12.6145
-92.9353
-1.05924
-19.1561
-2.3773
14.999
-28.7175
32.5299
-115.295
36.4499
-1.16409
-25.571
5.04464
16.3784
1.09398
-17.4149
3.2968
6.58792
5.02882
-5.0888
41.77
13.2597
-14.6122
-6.80059
-9.31023
-6.01073
6.31702
-33.8975
15.1296
-207.972
-180.316
-27.8309
-43.6195
0.6253
-26.6789
14.8573
1.81398
26.6408
33.744
-26.2737
-26.7061
8.23652
-4.45159
28.0608
-47.2237
5.76566
12.5935
15.565
-89.4709
-64.5143
5.27367
10.8952
-4.24061
-89.2377
-40.9962
-11.5848
-2.60849
-15.6446
4.91841
-15.3899
-13.6405
6.96188
-89.8195
-155.647
-7.61594
-0.821832
34.1212
-14.5872
16.3287
-14.4745
-2.93357
5.98548
-11.3412
11.1964
-132.843
-28.021
27.7474
14.6746
7.1903
-26.3481
36.5207
-153.203
-29.7229
-204.618
-16.6864
-110.064
-126.935
24.102
6.68909
1.83532
12.3842
-171.176
-15.0452
-46.9128
2.47628
-16.4455
7.41228
12.683
7.75046
-69.0551
-31.6064
-46.0179
-10.6793
-5.53817
-5.77943
34.8202
15.3091
-82.9835
-18.9512
10.542
25.4281
-8.59345
-27.2681
-16.3751
20.3235
3.22973
-10.373
17.2096
-26.4614
27.31
-1.23046
18.3882
-31.5183
-8.85619
-164.773
-202.563
-20.2243
11.8251
-27.9779
-87.8209
11.667
-48.9861
5.44809
20.7478
15.7663
19.9081
16.0636
-9.91887
1.31424
7.61109
4.56249
-0.120044
11.355
-11.2856
27.7242
-156.571
19.1653
-31.9523
31.9417
-170.281
-1.89425
30.3092
-158.992
-14.1868
-27.4637
20.2336
30.0492
15.802
-9.30091
15.8911
15.2567
-24.2372
14.7771
-111.781
17.4786
-162.116
-143.984
-26.5515
-26.3103
14.8167
-27.2099
-26.2023
-1.69897
29.3048
4.6665
7.12406
-26.0335
-5.50326
-9.40691
-4.8891
16.2083
5.52981
-24.2797
35.6978
9.52692
25.7659
16.8386
-21.4855
-16.522
-0.497217
-12.1625
-6.41579
-3.92033
-5.04775
3.12296
5.15997
-191.62
35.0371
19.0462
-3.20999
-60.4091
4.17124
-83.3839
16.546
13.6536
4.53243
-71.9219
13.5803
6.8644
-5.73586
-23.9352
-11.6392
8.13961
27.2797
-27.3333
30.5485
38.0402
31.865
-37.449
14.4796
-34.7472
15.6311
14.0112
20.7069
8.20788
19.3232
37.5599
17.2553
-27.9698
-59.9682
-30.0845
37.6699
-0.839017
-28.7095
-93.8157
20.3168
27.3666
10.6216
-2.54314
3.83827
24.0509
-20.0941
5.10223
-98.6399
12.8076
7.18004
-49.5262
0.557994
-26.5286
-31.5837
-92.2198
-9.29167
-20.657
14.072
6.13614
3.7056
5.93323
-46.5322
-20.8898
-159.432
-43.4789
-27.4875
-28.3644
18.1667
24.7503
-157.68
23.1111
18.3982
27.0169
1.90784
-78.025
8.24171
-27.1511
20.5834
-41.4887
19.7605
16.6569
9.1532
19.8799
3.14844
15.8068
-1.73136
13.2831
-6.10744
-24.0168
-46.8413
0.704671
15.3742
-112.916
-87.145
-117.147
30.3705
14.1833
13.8199
-3.96722
23.126
-13.4636
5.28501
-7.40242
-7.41184
5.6955
-128.819
-27.0071
-4.90895
-26.1349
-3.39477
-93.2178
-10.7628
-27.4873
-24.4048
1.19759
29.7209
33.948
26.4813
-104.995
5.20145
-36.4294
6.22777
26.3518
10.0105
15.0625
-114.62
-0.761029
-7.52467
6.05108
17.5885
2.44114
8.49144
-27.2184
4.34944
-25.835
16.3968
8.68784
15.7983
-28.0964
6.05517
-109.899
-25.7705
-25.7103
-1.63522
28.4068
-16.467
-13.2505
-94.1019
12.0553
16.2582
9.15788
14.5474
-28.3382
23.7921
29.6923
-98.6606
4.83981
19.7116
-98.5716
-80.2127
7.17094
19.0248
21.1488
-27.4896
-14.6397
7.93034
29.3089
-24.7698
-26.678
5.69858
24.3186
6.86937
-5.5535
-44.1636
15.5747
15.7531
17.0396
5.31694
-14.9068
8.6211
36.5424
-25.4159
-6.21134
6.64876
-21.9943
7.04091
0.350142
-58.9264
-16.5084
-178.42
14.8375
-101.544
-18.0411
14.5907
19.4295
6.39451
-11.2759
-27.3865
6.35642
-27.7733
-23.153
-6.48833
-1.2285
-32.201
21.1294
7.26719
6.8878
3.21465
26.2107
-19.1393
-9.15049
15.8958
-25.6156
15.5741
1.02863
-3.18884
-33.3017
16.451
-0.134585
-0.0684391
1.41779
-7.22707
16.1917
-30.7797
4.39292
-69.8348
-6.81247
15.5757
-30.7842
31.522
-26.218
-25.6194
-63.2896
19.7834
7.98978
13.8607
-24.1884
23.9725
-101.753
-11.9489
-0.824607
-30.165
17.0831
-0.243997
0.640789
-5.67218
-29.2797
16.0095
-26.1372
-100.196
-1.20607
-37.3914
-37.9395
-2.93056
26.3486
-69.2245
-37.0235
13.8156
-19.6257
20.7523
-35.7522
7.36946
19.7806
16.98
-1.17641
-67.893
-43.8221
6.60265
11.8017
13.3617
-36.6444
-110.508
5.95665
-22.7277
12.3447
38.7041
5.58681
15.1438
20.5844
10.5182
17.5877
-98.7356
-21.3345
-79.2065
15.645
37.3646
6.65819
-2.44948
16.8433
-4.04082
-1.82344
-29.213
7.07613
1.4188
31.5897
-63.445
-16.7644
32.0177
17.3742
1.63146
8.89221
14.2327
3.29711
-115.262
-82.9346
8.67461
-24.9499
-24.2589
13.8181
-76.5341
-76.5006
-36.7406
3.83747
4.77076
8.0422
8.25268
14.279
14.9306
-1.9793
8.8672
5.96117
26.6177
20.431
-19.3019
-2.06817
9.11699
18.2682
7.77116
3.98095
-2.81579
7.87405
-15.4746
26.2236
10.4727
0.742064
-39.5239
10.1418
11.2814
-10.8593
15.0239
6.7333
3.089
-7.34657
4.53459
-32.9189
4.16166
-15.7032
-29.114
-62.7446
-28.6798
21.764
-59.9739
-24.7643
-49.0007
27.5462
-19.5099
3.54579
11.1806
-26.4536
20.5817
16.3838
-14.1743
18.4192
4.24319
7.19444
-26.9315
-38.5863
2.5467
21.6058
8.16215
-30.0075
-24.0329
-13.1187
-32.08
-59.5701
-19.178
2.31849
12.0977
15.9541
12.3696
-14.9602
-4.52929
19.0531
13.5045
-26.0696
9.89355
-27.973
-7.20931
0.168757
1.5932
15.9482
-35.6751
-19.0086
-12.3469
12.1396
-113.407
-27.1476
0.547788
-82.0925
-26.5493
-26.9787
-45.2069
3.32302
-25.2722
-0.943005
-27.1491
16.9347
16.4104
-8.7057
20.2968
-88.3848
25.729
-15.103
7.65808
-3.77348
9.24403
1.81164
-24.026
-23.4979
17.3268
21.5129
27.8993
-42.1226
-27.1174
-88.9327
3.91994
0.441937
-26.5279
-31.4119
-26.938
1.7452
-34.7001
-13.1739
-40.4396
8.18486
23.8365
3.13093
4.84656
11.9739
-9.65014
-28.1658
26.0538
33.4522
-27.4934
9.13291
9.90371
-0.165413
-108.075
19.4959
21.1987
-17.0587
-24.7701
-79.3257
-92.8373
-2.40806
-27.6914
0.343445
17.9538
-19.9147
19.1895
-33.0103
-26.3618
17.0597
-0.839674
-26.5153
8.58375
20.025
-26.253
1.59136
-25.1716
-25.543
-26.5938
28.6484
-21.8562
5.08512
-42.78
13.1598
-25.5676
-37.1927
-20.0126
-73.8763
-6.0632
9.8349
-3.39111
-26.2021
6.11669
-1.44244
-21.9107
-33.4563
-30.8065
-9.9497
-2.28368
15.4108
-20.2877
19.7881
-15.4106
0.340529
-20.235
-11.1674
-79.6807
-27.3812
-88.6863
3.73528
12.3902
-23.7044
5.64482
-13.7728
2.12346
-92.5901
16.2301
-61.9467
14.55
-4.30364
-109.834
-3.85046
43.1075
-175.176
-25.9966
-15.6567
-17.9162
15.7528
-22.0463
4.09885
-0.539672
-21.2576
-38.895
-24.1893
-26.7488
3.29982
-32.2844
8.89465
-23.5155
5.99775
6.41921
-8.96814
-21.0113
-0.43695
13.0656
-26.0677
-47.4152
16.4009
-3.95643
-25.7865
5.3299
-48.3137
-13.7295
3.18858
14.3117
-108.5
14.1154
-26.8925
-43.0318
-52.7308
-39.1411
-31.16
-22.1958
-23.1057
14.6169
13.9309
-94.2934
39.1219
-85.1312
20.7714
18.8818
-26.3508
11.0145
12.8488
16.0524
-10.6388
-75.8295
-51.5435
-40.0556
15.5261
11.1433
-21.6042
-42.0991
-14.3534
21.4386
6.10816
-4.99913
8.48714
16.2924
-7.47884
-8.75938
-6.28768
16.037
12.945
-12.9755
20.0783
18.9811
-17.1606
-115.143
13.3351
14.2152
7.24026
-5.12056
-14.6141
-73.9935
-42.0917
-115.503
20.7188
2.93394
6.34998
-6.87965
-9.29167
-94.3459
6.7117
-108.245
-13.1936
13.6217
16.8962
-10.1582
13.3118
-3.04741
3.92943
7.08388
7.18959
8.0592
-1.67367
16.8419
17.9183
15.5537
-26.4735
17.7098
13.7319
16.0894
16.9477
-38.4542
-6.93521
-13.9455
-11.6265
14.3891
28.8239
-72.8428
33.8295
-103.648
-25.1754
8.30048
13.1721
-20.5785
5.51287
-26.7678
-100.292
2.84738
-156.485
-25.474
5.57002
4.34092
35.3375
10.6813
-14.4591
-205.44
5.15819
13.4782
-160.041
-86.6709
-26.864
-7.61598
-24.6601
-21.7766
16.1686
-2.88722
12.9712
-2.94425
-3.86859
-20.1643
3.77461
3.81028
-15.1266
21.3456
-13.6701
-29.2624
13.4913
-95.3646
1.22443
14.0965
7.86713
-50.9678
17.6343
9.51063
14.0521
-9.05414
14.6578
4.7841
23.7107
15.4274
-79.6364
4.75338
-7.41178
-22.8112
6.59534
-13.5389
-9.61942
-75.4585
36.0483
2.47983
-37.4889
19.3974
-74.5732
2.13794
-87.8085
-29.4277
-25.2705
-35.9201
-5.81755
0.102136
-12.688
-68.4114
9.66334
-15.7462
-7.59358
-122.783
-32.8628
16.4961
-143.118
-148.347
-6.95981
0.597749
-16.3328
14.4947
20.6361
-20.7237
14.7739
-7.27179
15.4845
27.3553
-44.0376
15.3932
1.85584
12.5967
17.3061
7.9942
3.82011
-89.763
12.9458
20.7095
-76.486
-8.83016
-28.9559
-16.7052
14.2677
-47.0582
-15.1135
-23.1148
13.9236
-27.1747
4.59436
-0.347231
16.9251
4.55825
-27.5293
-14.3759
0.634588
-33.3453
24.2367
31.0977
14.4245
36.983
19.2412
34.3585
4.93595
-1.97982
22.983
-33.5898
8.53689
4.31408
-23.9749
21.8228
1.17259
-12.7597
30.576
7.95429
-81.9759
13.9711
12.8426
19.0194
-14.3327
17.2152
31.1714
-60.7376
-24.1321
-12.1573
2.70593
-30.3754
12.228
5.19657
20.3045
15.698
-134.722
12.1757
-3.69854
-27.4784
-28.2564
-79.3936
8.93118
-19.4314
16.0068
9.80848
-26.6122
-22.5453
-30.4614
1.60341
-36.1717
-24.041
11.3234
10.0672
-26.3008
3.72713
17.5412
4.23129
-86.7997
14.8377
-16.4089
13.5955
-25.8911
17.6896
11.2926
-24.2338
5.40795
10.0452
2.07133
11.769
-25.964
35.3323
-6.82115
-25.3808
10.3832
5.10108
-26.8437
-12.693
-20.8165
-13.1245
-8.30111
-15.5245
5.41679
3.37167
37.8227
0.844017
-91.9606
-25.4824
-6.72738
-11.7909
-2.69511
6.50402
17.902
-26.9724
2.30169
-27.2725
-12.5062
2.68209
4.76362
15.9793
-0.0173033
0.571204
-9.32398
14.718
-2.69452
0.252141
-25.4308
4.09442
-1.1624
19.2266
-25.3196
-4.07768
-19.8889
8.45036
-27.0044
4.58617
15.664
12.9044
18.2414
-24.7338
-28.084
15.1555
-40.1056
18.0015
13.9829
11.0289
13.9109
0.727504
11.5875
6.38255
-8.41598
-28.8424
17.3391
-109.789
17.1528
3.52936
38.0693
6.49514
10.8529
14.4803
8.83563
4.07022
14.4464
-4.02174
0.335789
-23.422
2.98348
7.62488
0.85146
-13.7621
-107.306
-3.9376
-42.0617
-26.9105
-11.1656
16.3899
-28.4203
16.0167
8.34845
31.2492
28.1409
12.6968
-1.29285
12.461
-25.5547
19.9101
3.22649
8.67778
0.143336
16.2098
9.45294
2.65768
-121.777
-12.3588
1.09652
-9.80968
12.4493
15.4883
-95.3329
-0.893429
-16.695
9.02893
13.4597
-1.22147
12.9886
11.6465
5.79251
5.92031
12.8604
4.33617
-11.9425
17.5999
5.52474
23.0766
-39.1821
18.4331
9.8429
-29.3008
-29.2152
-127.683
-8.83311
-40.6645
-79.3974
16.0591
21.792
18.6577
19.7266
15.7844
17.1659
13.3211
3.11414
13.7614
-37.4067
9.4518
5.98174
-8.65512
26.9038
3.32005
-20.6296
16.3091
21.128
25.9807
-86.3161
-4.97444
-53.4732
-24.3437
13.764
-22.6053
-132.362
17.61
31.5127
-25.2709
-35.7421
-42.9134
12.9115
4.34088
9.57361
3.39464
2.30803
-110.457
-38.702
-8.11934
-24.8052
17.1544
16.1181
19.2598
-13.2492
-58.0759
-10.8266
3.92606
-39.3972
-9.79528
3.9996
-0.116266
-13.4127
-0.98013
-3.13664
-65.0726
10.055