/*--------------------------------*- C++ -*----------------------------------*\
| =========                 |                                                 |
| \\      /  F ield         | OpenFOAM: The Open Source CFD Toolbox           |
|  \\    /   O peration     | Version:  2306                                  |
|   \\  /    A nd           | Website:  www.openfoam.com                      |
|    \\/     M anipulation  |                                                 |
\*---------------------------------------------------------------------------*/
FoamFile
{
    version     2.0;
    format      ascii;
    arch        "LSB;label=32;scalar=64";
    class       surfaceScalarField;
    location    "4.8";
    object      phi;
}
// * * * * * * * * * * * * * * * * * * * * * * * * * * * * * * * * * * * * * //

dimensions      [0 3 -1 0 0 0 0];

oriented        oriented;

internalField   nonuniform List<scalar> 
20045
(
1.15223
-1.33259
0.180358
-2.28977
0.987031
1.30274
0.971672
3.8774
-4.84908
1.31857
-1.76862
0.450048
-2.1795
1.76567
0.413832
-1.12298
4.16633
-3.04335
-1.94506
0.134434
1.81063
0.0809445
1.11797
-1.19891
1.15519
0.891212
-2.0464
-1.32557
-0.406904
1.73247
-0.616376
-0.697332
1.31371
3.94222
-1.83951
-2.10271
0.917092
-0.907087
-0.0100055
-2.28778
1.87613
0.411655
-0.130706
1.86387
-1.73317
-1.99694
0.671373
-0.00876304
-0.0644154
0.0731785
0.218389
0.807658
-1.02605
-3.13521
4.59419
-1.45898
-1.58638
-0.0564695
1.64285
1.10495
-0.584132
-0.520817
0.326024
0.591068
-0.493648
-1.79612
2.15118
2.18143
-4.33261
1.68221
0.184257
-1.86647
-2.05483
4.20601
-0.010277
0.0328841
-0.0226071
-2.47418
4.88813
-2.41395
4.18052
-0.38874
-3.79178
-5.12042
2.88103
2.23939
1.54187
-0.291734
-1.25014
2.31951
-2.13259
-0.186926
-0.999729
3.00904
-2.00931
5.25423
-2.90397
-2.35026
-1.40212
1.48307
3.25849
-1.46241
-1.79607
6.90174
-4.84149
-2.06025
-0.150647
0.951626
-0.800979
-2.57654
0.529295
2.04725
1.27459
1.19057
-2.46516
-0.18477
1.41806
-1.23329
0.440795
-0.605001
0.164206
4.96931
-4.99821
0.0288958
2.77929
-0.875282
-1.90401
1.15875
1.62054
1.69121
2.25101
-0.248221
0.302673
-0.0544527
1.78649
2.11286
-3.89936
3.03171
3.87003
0.465555
3.52594
-3.9915
2.65685
-4.3905
1.73365
3.34662
-2.8174
-0.529219
-1.81633
-1.29485
3.11118
-0.234627
-0.721478
0.956105
-0.758386
0.667579
0.090807
-1.53853
-0.640971
-0.7033
2.52316
-1.81986
3.18498
-0.108536
-3.07644
2.51407
-3.5138
2.3669
0.805441
-3.17234
-0.462535
-0.660751
1.12329
4.17882
-1.81192
0.484147
-2.79378
2.30964
0.270102
0.834847
1.11945
0.523706
-1.64315
7.21399
-5.25739
-1.9566
-0.419152
1.44909
-1.02994
-1.41713
0.141147
1.27598
1.96611
-0.810923
5.17154
-5.33596
0.164417
-1.3143
0.895151
-0.937543
0.179157
-0.557822
-2.20952
2.76735
-0.00250977
-0.193699
0.196209
3.68115
-4.02965
0.348496
1.7603
-2.4636
4.58223
-0.901082
1.41594
-1.54665
0.138256
-0.269369
0.131113
-0.122304
-2.49722
2.61952
1.99679
2.16078
-4.15757
1.76001
-1.59114
-0.168865
2.11367
-1.62952
-5.61422
1.13254
4.48168
-0.030772
1.18301
-0.68052
1.03471
-0.354188
-1.63739
-2.61897
4.25637
-3.1689
0.0699366
3.09896
1.91605
0.578886
-2.49494
-1.63856
1.29445
0.344113
-2.43733
0.15785
2.27948
1.84563
-0.485356
-1.36027
0.93906
-1.40786
0.468805
-0.530107
-1.59751
2.12761
1.38294
-1.51647
0.133529
2.54536
1.70232
-4.24768
-0.0801553
0.0698783
-0.565336
-0.353328
0.918664
2.66186
-1.38728
-0.00354102
-0.0623969
0.0659379
2.27673
0.981752
-0.899006
-1.38877
-0.904582
0.339245
-0.103337
3.28831
0.208402
-0.888921
0.0458274
-0.0493685
0.749864
2.54072
-3.29058
1.59125
-2.38808
0.796831
-0.109964
-1.21587
1.02463
0.191239
-0.716233
0.89872
-0.182487
2.0236
-2.13086
0.107268
-1.19904
0.964418
2.35004
-3.6139
1.26387
-0.570174
0.832105
-0.261931
0.12501
-0.860031
0.73502
2.09996
-0.417749
3.73961
1.51462
-2.51973
1.96191
6.9205
-6.37961
-0.540889
-0.38216
0.600549
-1.11126
0.648728
-1.8608
1.47928
0.381515
-0.985292
0.284927
-1.43454
1.14962
2.84752
0.4991
2.15551
-3.07221
0.916696
3.10199
0.335586
-3.43757
-4.6621
3.49396
1.16814
-1.33874
-1.5008
2.83954
3.62683
-0.779315
0.240092
0.0625809
-0.165096
0.0931908
0.0719057
-0.0683169
0.0376128
0.0307042
2.3108
1.57331
-3.88412
2.46135
-2.1447
-0.31665
-0.530793
0.0447445
0.486049
-0.874462
-0.34141
9.02101
-2.10051
-1.60657
1.61728
-0.0107167
2.14123
-4.2708
2.12958
0.579077
-2.39541
1.53713
1.09101
-2.62814
2.7876
-2.9099
4.17456
-0.680452
-3.49411
2.15919
-2.81353
0.654347
6.81253
-2.48622
-4.32631
-0.64183
0.695384
-0.0535541
-0.27068
4.15511
-3.88443
4.03108
0.149431
-3.27575
0.0778665
3.19788
-2.28742
1.51188
0.775534
3.53111
-1.53432
0.430357
1.32965
-2.47939
2.91186
-0.432466
-3.41062
4.38229
0.0133668
-1.10608
1.09272
-0.459997
-1.39599
1.85599
-0.10972
-0.888007
0.997727
5.58789
-4.36559
-1.2223
5.28667
-2.58349
-2.70318
-1.08211
0.972388
1.8183
-1.99136
0.173066
0.543625
-0.10283
-2.92074
-1.70719
2.38719
-0.68
-2.38891
1.82867
0.560238
-0.0328235
-0.273827
0.30665
4.93751
1.87502
-0.0638239
-0.00449307
-0.312642
0.147546
-2.64459
0.165194
-2.99377
3.70133
-0.707564
-2.84889
2.91478
-0.0658929
-2.83666
-1.60605
4.44271
-1.752
2.19846
-0.446453
1.45281
-1.63784
0.185029
3.78644
-0.159755
-3.62668
-0.0982884
-2.96829
3.06658
-1.49341
3.03054
0.786414
-2.40306
1.61665
-1.40252
3.75256
-2.97361
2.26887
0.704742
0.353432
-0.409192
0.0557594
2.41863
-5.44251
3.02388
-3.93703
1.46285
-2.8436
-0.808911
4.64518
-2.83648
-1.8087
-1.72948
1.54471
0.843249
-0.903471
0.0602218
-7.13721
3.30135
3.83586
-3.34782
4.75594
-1.40812
3.1749
-2.31723
-0.857667
-0.0395852
-0.817802
0.857387
-1.19054
-1.50185
2.6924
0.710174
-1.32655
-2.1854
0.846655
-2.81408
-0.864192
3.67828
0.584681
0.138633
-0.723314
0.411678
-2.11887
0.121521
1.42035
3.28881
-0.186818
-0.797912
0.647265
-0.98839
1.23121
-0.242823
3.22536
2.36253
-2.91648
1.72594
0.776771
-1.29217
0.515398
-2.99663
0.647341
2.34928
1.17788
1.99702
5.68524
-3.26661
3.11694
-5.19657
2.07962
1.30407
-4.0732
2.76913
0.274257
-1.86064
-2.08472
2.83458
2.44731
-3.57028
1.95791
-3.74333
1.78543
-5.5203
3.05721
2.46309
-0.317747
-1.32082
0.831189
0.699773
-1.53096
2.48362
-0.858882
-1.62474
-0.0711599
-2.8865
2.61582
-1.17575
-0.430817
2.47259
3.03616
-2.27651
-0.759646
-0.0473567
-0.660174
0.70753
2.44113
0.450532
-2.89166
-0.865972
-1.53238
2.39835
-1.34376
3.48106
-2.1373
-4.41721
2.77982
2.4821
-1.69568
-0.353161
2.03542
-1.68226
3.63943
-1.49821
0.576465
-0.0506032
-0.525862
0.500982
-0.565318
0.0643362
-0.669315
0.700645
-0.0313291
4.57671
-2.87149
-1.70523
0.999614
-4.34743
-0.745588
0.0762722
-3.14052
0.826132
2.31439
4.97724
-1.96819
0.899329
-3.8931
4.81487
-2.3029
-2.51197
-0.0879979
0.672679
2.07598
-0.31917
-1.75681
-2.46377
0.398
2.06577
-3.68519
3.64344
0.0417469
1.73474
-4.14778
2.41304
-0.0187131
-0.0688173
0.0875305
-1.90174
2.32345
-0.42171
-1.01327
0.915359
0.097914
-0.766993
0.196819
-0.875282
0.159049
-1.47192
-0.916161
1.2294
-3.57654
2.34714
0.28789
1.21372
-1.50161
1.82698
0.492537
3.56128
-1.60337
-1.87212
1.41212
2.43419
2.54304
-2.15914
0.293033
1.86611
-0.0395695
2.11555
1.77459
0.0892785
-1.09974
1.38763
-1.34262
-0.271736
1.61436
-0.0869503
0.440383
-3.51439
2.17063
1.54063
-0.99727
-0.543365
-3.71177
3.57872
0.13305
-2.33895
2.10486
0.234095
-0.503782
-0.642809
1.14659
2.98232
-3.38401
0.401688
-3.25101
-2.26929
4.38981
-2.64326
-1.74655
-0.52715
0.479793
4.45354
-2.7188
-2.2771
3.5065
0.568573
-1.10691
0.538341
2.37974
-0.919782
-1.45996
7.27526
-3.89226
-3.383
-1.13793
1.7065
3.52328
-2.16934
-1.35394
-0.849805
3.29068
-2.44088
0.332431
-3.13327
2.80084
0.815528
0.301729
-1.11726
0.047561
-0.0283216
-0.0192394
4.67794
-4.04487
-0.63307
-2.60848
-2.05362
1.80461
1.23155
-3.37549
-0.336278
0.194725
0.306258
-1.85351
-0.886938
2.74044
0.0105642
0.832685
-2.1345
4.44531
1.82385
2.75286
5.04676
-3.06676
-1.98
-3.89024
3.02605
2.20566
-4.16587
1.96022
-2.48558
-0.32653
2.81211
-1.60348
-0.452116
2.05559
1.73328
0.0850114
1.40852
-0.631744
4.78904
-0.625673
-1.50692
-7.49631
6.41002
1.08629
-1.22477
0.236381
-1.63363
1.28047
0.400479
-4.08567
-0.680963
-3.73625
-4.1055
-0.957589
1.17779
-0.220203
-0.187797
1.50637
-1.7739
1.19305
0.580853
1.71221
0.31139
1.87118
-0.411582
-1.4596
1.81047
0.650876
-3.03506
1.18155
2.33749
-0.42144
-0.954162
-2.04246
4.47207
-3.73489
-0.737183
2.3725
-1.54759
-1.32896
2.87655
3.13026
-3.52926
0.399004
-1.9523
1.4222
-0.598459
0.0676658
-0.778289
-1.65904
1.49804
-2.35659
0.858557
1.68381
1.83946
1.86115
-3.9833
2.12215
1.31442
-2.35793
1.04351
-3.89408
0.725188
0.185383
1.66024
-2.00676
2.31071
-0.303948
-0.83642
1.31832
-0.4819
-2.25662
0.311565
-0.538304
-1.11313
1.65144
0.544357
0.00434483
-0.548702
-1.15097
-1.13644
1.32714
1.85199
-3.17913
1.79777
-1.83734
0.957681
-1.82684
-0.125467
2.15409
-0.839667
-2.65645
-0.317158
0.567142
-0.864199
0.297057
3.86305
-2.07655
-2.14049
3.13167
-0.991183
-0.607657
0.722365
-0.114707
2.4337
0.0499203
2.00767
-2.89461
-2.13893
3.66985
-1.53092
1.68285
-3.81625
2.1334
2.26342
2.12639
0.0545859
-0.124849
0.0702633
0.518967
-3.00454
2.70958
-4.39374
1.68416
0.222328
-0.224838
-0.519155
2.67467
-3.30084
2.61988
-2.56852
3.8726
0.731536
-3.86675
-2.39383
1.57702
0.816816
2.73849
-0.624645
-2.11385
3.80311
-0.820785
-2.06322
-1.93991
-1.44565
2.17528
-0.247525
0.256819
-0.00929387
1.36262
-1.41909
-3.14687
2.62772
4.01349
0.955821
-3.24434
1.10386
2.89513
-1.09052
0.270928
0.603824
-0.874752
0.00511223
-2.24652
2.24141
-3.58415
0.62817
2.95598
3.38978
-3.38978
0.966692
1.24174
-2.20843
1.41726
0.45392
2.12005
-1.17586
-0.944194
-3.82945
3.99172
-0.162269
1.58388
-0.0856865
-1.4982
1.24081
-0.396834
-0.843973
0.583287
-1.08707
-0.00743245
1.42888
-3.70597
-3.14931
3.72474
-0.575424
-1.22755
2.5547
0.175053
-0.00440511
-0.170648
1.5815
-0.27312
-1.30838
-1.58306
1.85731
4.9269
-3.87327
-1.05363
-0.45047
-1.95239
2.40286
-1.13404
1.21136
-0.07732
0.746851
-1.20203
0.455174
-7.69545
3.74145
3.95399
-1.1529
-0.615721
-0.254554
0.525482
0.0366753
-0.153008
0.116333
2.41966
2.25827
0.136336
0.0387171
-0.380842
-0.83394
1.21478
-2.13629
3.34527
-1.20897
0.193198
0.80803
-1.00123
1.65329
-1.51886
4.88071
-3.30313
-1.57757
0.242017
-1.83952
0.795358
2.99108
1.92266
1.04938
-2.97204
2.03384
-1.57695
-0.456884
-4.04446
0.768716
-1.30274
0.629032
0.673708
1.7149
2.60398
-4.31888
-2.64549
2.31896
0.288676
-3.6673
3.37862
-0.592104
0.552519
0.321997
-0.380694
0.0586969
0.255003
-1.59762
0.552266
-0.320159
-0.232107
-2.59514
-0.54538
2.44243
2.04259
-1.19236
-0.850236
-0.67376
0.0661024
0.496098
-2.71118
2.21508
0.936244
1.95031
-2.88655
1.57842
-2.76336
3.27555
-0.512191
-2.98158
2.13177
0.0580104
-0.0251263
-1.49305
-0.895859
-1.24795
0.288163
0.959789
-3.59855
1.46225
2.52562
-2.97609
1.38512
1.51001
-1.59871
1.43271
0.165995
1.26592
-4.15941
2.89349
0.833176
-1.26643
0.433257
2.80681
-0.79914
-2.48572
-0.363172
-1.48241
0.0652831
0.0738724
0.0746486
-0.148521
1.67589
0.0555142
-0.0887739
0.0332597
4.10677
-2.39187
0.931818
1.23677
-2.16859
1.16872
0.83817
-2.00689
-1.30298
0.710875
-1.09541
-0.152538
1.37749
0.742567
1.45881
-7.83842
0.958754
-0.391613
2.34809
1.84906
0.488431
-3.47157
3.93713
0.316397
-1.49106
1.17466
-0.375717
-3.29303
3.66875
-0.00628464
-0.248371
0.254655
-2.02418
0.272171
-2.27777
2.6102
2.96674
-0.80755
-1.38109
-0.392808
-0.0350857
-1.79911
1.83419
1.6217
-4.45836
-0.308486
-1.78147
2.08995
0.626438
-1.4193
0.792862
-2.50976
-0.00770963
2.51747
4.08935
-1.97649
0.00720721
0.472127
-0.479334
-1.02918
-0.104857
0.753736
1.57297
-2.32671
0.742489
-0.884444
0.141955
1.86948
0.956726
-2.8262
-2.37112
4.91648
0.523158
0.0211991
-1.13303
-2.22092
3.35395
2.53082
6.49018
3.49871
-2.56246
-1.6273
1.089
-0.00456163
0.0521226
-1.77882
3.98447
0.428687
-3.004
2.57531
5.48585
0.564205
-6.05006
-1.60999
2.47734
-0.867346
1.54019
-1.59552
-1.39592
2.99144
0.100238
-0.130704
0.0304668
-1.08041
-1.97436
3.05477
1.33805
0.243452
0.296055
-0.328879
2.05812
-3.13854
-2.74433
-0.929376
3.67371
-0.111613
-2.09145
2.20306
1.09872
5.19699
-5.20418
0.0071972
0.898984
-0.385664
-0.51332
-0.165622
-1.43308
1.01844
1.10917
-1.50925
-0.0942236
-3.14458
3.96397
-0.819389
0.612405
0.928229
0.313126
2.47447
-3.77277
-1.22544
-0.0155838
0.0352506
-0.0196668
2.12866
-0.279592
-1.00782
1.0954
-0.0875829
-0.0850707
-0.928203
-4.17934
1.33574
3.45267
0.713652
-0.345044
1.0919
-0.927231
2.09595
3.48957
-2.06069
-1.02004
0.0122211
-0.606225
-2.54065
0.777198
1.17789
-1.16452
-3.68866
0.104511
0.239624
0.983951
-0.150774
-1.32321
0.178307
1.1449
4.40211
0.769439
0.956884
-0.346316
-0.610568
1.44316
-1.24604
-0.197121
-2.34185
0.87944
-4.11785
1.97892
1.38619
-1.51398
0.127794
-0.266351
-0.314352
0.580703
3.90936
-0.0169501
-3.89241
0.998339
0.0884934
-1.08683
-0.660468
-1.20033
1.08002
-0.140962
0.288429
-0.275787
-0.0126416
1.84514
-0.0618873
-1.78325
0.0509556
0.237473
3.92104
-2.21872
-0.142344
-0.685493
0.827838
-4.04987
0.905288
-0.087195
-0.775457
-0.129124
1.11004
0.932548
-0.266815
-1.6053
1.01186
0.866158
-1.87802
1.36664
-0.247197
1.43671
-1.12032
1.06706
-0.942053
0.484477
-1.3209
2.68727
0.95795
-3.64522
2.30773
-0.365139
-1.94259
-1.54696
-1.26657
-0.0838896
-0.739911
0.8238
1.24511
-1.40252
0.157404
4.35005
-0.10739
-4.24266
-0.825531
-0.126101
0.951633
-2.09729
2.84632
-0.74903
2.32966
2.70416
-5.03382
0.441956
-1.10271
-1.31831
1.92524
-0.606934
0.978681
0.448712
-1.42739
-4.32897
2.76272
1.56625
-0.22922
-0.0465667
-3.39691
0.652577
1.43453
-0.849945
-0.584583
1.68416
-2.28773
0.603572
-0.474542
-0.85805
0.863576
4.33341
3.31533
-0.650228
-2.66511
-3.1891
0.425741
1.36014
-2.3143
2.42889
-4.34274
1.91384
-0.489026
1.32021
-0.0255694
-1.39212
1.01128
-0.729244
1.01417
-0.64655
-3.31959
3.96614
2.12638
2.32716
-2.93217
3.14162
-0.20945
-0.0526625
0.126535
-1.90245
-0.719692
-0.572254
0.637076
-0.0648214
-1.44494
1.72804
-0.283095
-0.665872
2.18356
-1.51768
-0.417433
2.10159
-2.19223
-0.131687
2.32392
-3.25988
-0.96137
4.22125
1.71211
-1.47914
-0.23296
-1.27106
0.0631947
1.20786
-0.733697
0.236972
0.496726
-3.72446
0.174943
3.54952
0.102774
0.907516
-1.01029
3.03395
-3.39614
0.362197
-1.80153
3.03524
0.0246068
-3.05984
0.0475791
-0.619834
-1.29831
-2.3649
3.66322
2.27374
-3.67626
-3.7825
3.3107
0.471802
0.896255
-0.153765
2.80977
-2.49665
-0.322235
-0.552196
0.874431
-0.0690191
0.889349
-0.82033
0.0780205
3.02464
-3.10266
3.57711
0.453483
-4.03059
4.04458
-3.8707
-0.173882
2.68858
-1.02487
-1.6637
0.179829
-1.06978
0.889956
-1.33859
-0.0959589
-4.03864
3.51408
0.524558
0.175876
-4.21452
-2.90354
3.18431
-0.280771
-2.05269
-1.99217
0.970272
-0.772174
-0.198098
-3.16411
-0.885759
-0.906666
0.639536
0.26713
-1.84071
0.974738
-3.86241
3.67749
0.184921
-0.472376
-0.280756
0.0870569
1.1001
-0.101764
-2.21553
0.313786
0.763434
-0.822251
0.0588171
-1.12173
0.399227
0.722507
1.80674
-0.222859
-0.859892
2.32275
0.11095
1.44817
1.14799
-0.838783
-0.309208
-0.422341
1.87515
-2.66126
1.76647
0.894795
-0.314204
0.0849837
4.35834
-2.23196
3.50707
-2.24115
-0.64066
-0.674991
1.31565
1.9862
-3.77103
1.78482
2.36748
-2.4791
3.87831
-1.7462
-2.13211
-0.0285354
-2.27404
-0.387221
-4.61184
2.12528
2.48656
0.519935
-1.27926
4.39621
-4.16182
0.997704
1.14411
-0.32858
-0.444795
0.0302436
0.722082
-0.0214374
-1.95167
-1.88736
3.58231
-1.82201
-0.499445
1.14707
-0.647628
0.204307
1.0365
-2.73934
-0.888765
3.62811
1.38991
0.343373
-0.0176108
-0.683264
0.700875
3.28502
-0.323226
-0.172116
0.495342
3.80873
-1.12147
-1.32168
-3.7945
0.64519
-1.05745
0.0713438
0.986108
2.31233
2.50254
-1.22351
-0.275529
1.49904
3.87263
0.171949
2.50997
-3.50081
0.990837
-3.21423
0.00917954
3.20505
-3.29185
4.20007
-0.908215
0.662353
-0.0213036
-0.64105
-1.38331
3.65705
-1.69834
-0.643155
2.34149
0.187232
-3.11941
2.31088
-1.48424
-0.82664
-3.61787
4.71572
-1.09785
-0.844371
2.34118
-1.49681
4.64835
-2.05701
-2.59135
0.149123
-2.37153
2.22241
-0.342817
-0.0378764
-2.18779
4.51745
2.34961
-1.38292
3.68823
-2.00538
-0.860053
0.717708
-3.33087
0.116635
4.13386
-2.27271
-0.225581
-5.38864
1.36181
0.0562489
1.30432
1.76415
-3.06847
2.20244
-0.671658
-1.53078
4.1752
-2.82629
-1.34891
-0.863037
0.039548
0.823489
-0.791451
-2.05811
2.84956
1.5194
-1.03493
-0.509107
0.475261
0.0338465
0.465879
0.839364
-1.30524
0.340614
0.629658
-4.16835
4.83594
-0.667586
0.461975
-0.46826
1.88404
0.866602
-2.75065
1.96669
2.30171
-4.2684
0.805555
1.93294
-0.0210151
4.19558
-0.06547
3.17166
-3.10619
0.63953
-0.446333
0.0896622
0.0794121
-0.169074
4.22814
-3.76091
-0.46723
1.77941
2.0989
-0.107176
0.0686234
0.0385528
-0.954388
3.07187
-2.11748
-0.0245553
0.835911
-0.811355
2.32328
-3.87273
1.54945
-0.814748
-2.37092
3.18567
3.03823
-0.597105
1.0027
1.19973
-3.14368
1.15659
1.98709
1.22487
-3.17726
-0.213181
-0.818637
1.03182
0.840767
-0.167147
-0.67362
-0.055811
-0.287006
-0.23423
3.00373
-2.7695
-0.686101
4.21205
2.922
-2.50885
-0.413153
2.66937
-2.09048
-1.88363
0.76139
1.12224
0.360853
-1.53671
-1.07534
0.0362672
1.03907
0.313782
0.643102
0.608812
2.89769
-3.5065
1.17773
0.667413
0.520909
-3.78079
-1.98208
0.174772
1.80731
-1.53128
-0.869334
2.40061
2.19363
-1.18177
-3.34686
2.1193
1.17216
-0.87541
-0.29675
-1.3981
3.23705
-1.83894
-1.74288
1.98489
-2.31444
2.0432
0.271237
-1.36438
2.50604
-1.14166
-0.0834819
1.00851
-0.925028
0.185329
-0.45168
-1.42005
-3.18172
3.66531
-0.483596
-2.24319
2.89053
1.95731
-2.1932
0.235893
1.49882
0.528125
-2.02695
-5.31982
3.228
2.09183
0.00945445
0.211941
-0.221395
-0.805237
2.99627
-2.91825
3.61059
-1.62439
-0.604911
-1.78892
-2.82861
2.76314
1.75546
0.0732088
1.20942
0.456519
-1.66594
-1.50633
1.38062
0.125715
-0.146153
2.03598
-1.88982
1.16923
-2.07282
0.903594
-0.344485
2.9832
-2.63871
-2.69749
-0.924441
3.62193
-0.258013
1.75684
3.25492
0.973215
-1.74997
2.45349
-0.703514
-0.169339
-1.09412
1.26346
0.0356827
0.876784
-1.10304
0.226252
-5.16462
-1.33563
2.50486
0.644742
0.932299
-0.75247
-1.86831
0.423365
1.11781
-2.61861
0.0954427
1.28749
-0.0264944
0.22984
-0.203346
-2.28834
-1.97038
4.25872
-2.23507
-0.908603
-1.90865
-0.271309
2.17996
0.310055
1.0542
-1.36426
-0.00693845
4.42931
-2.84295
-1.58636
0.794492
2.52084
0.340741
2.22463
-1.09028
-1.13435
-2.2634
3.85646
-1.59306
-2.11481
-0.900062
3.01488
-1.98067
0.662358
-1.27868
-0.604953
4.24252
-1.87344
-2.36908
2.0785
-1.62995
-0.448551
1.25889
0.408863
-1.66776
-0.792373
0.895148
0.706696
-0.971516
0.264819
1.04438
-0.13786
-0.944247
-0.0398427
2.47909
1.76343
-1.73391
2.2632
-1.58059
4.46163
0.961636
1.11687
-3.17795
1.06313
2.98262
-2.46365
-0.566052
-2.6627
0.565407
0.0560083
-2.95955
2.59737
-2.59226
3.3254
-0.195145
-0.85042
-0.557444
-0.645977
-0.396121
1.0421
-1.33066
-0.185809
3.04044
0.527962
-3.5684
-0.115768
-1.01189
1.12765
-0.661147
-0.696656
-1.97113
2.66778
3.25417
-0.220219
-3.80743
4.15958
-0.35215
0.860913
-0.719766
-4.17478
-1.14504
-0.968212
3.58504
-0.0709533
2.09147
4.01669
-1.40997
-2.60672
-2.33755
-0.169598
2.50715
0.903588
1.69804
-2.60163
-2.83907
0.32931
-0.776758
-0.218189
0.994947
-1.90382
2.33251
0.684251
1.8571
-2.54136
-0.255194
0.3771
-0.121906
-3.54295
0.426728
3.11622
1.62231
1.98828
-1.22848
1.91631
0.77227
-0.782185
-0.520555
3.01187
-3.69232
-0.390275
0.295719
0.0945568
1.19724
-0.755288
2.67666
0.0626112
-2.73928
2.89827
-4.47887
0.0225488
-0.041262
-1.013
1.24105
-0.228058
-3.59157
2.29326
-0.159405
1.34646
-1.18705
-1.21675
0.6895
0.527247
-0.440003
-1.58417
-1.10698
2.46712
0.0119798
1.37421
-0.707142
0.754721
-2.82014
1.28776
-0.0743128
0.00549545
-0.90215
0.855715
0.0464348
0.924296
-1.03934
0.115041
-1.24017
-2.78948
0.399748
-2.30839
-0.36418
-1.3653
-0.151223
2.31931
-2.16808
1.40368
-1.67542
0.295874
-2.63923
2.34336
-0.260404
2.85071
-2.59031
-2.64173
-4.85458
1.0867
-0.0843057
-3.6982
1.68854
1.89377
-2.81867
-0.528188
-2.74884
1.20125
-1.83965
0.726518
0.132676
-0.0515327
-0.0811435
4.39293
-2.0806
3.14188
-0.432299
-1.005
-0.676817
1.68181
-4.3475
2.02712
2.32038
-1.32951
0.632178
0.158635
2.8766
0.738501
-0.412477
-1.18237
-2.25861
0.560275
1.40031
-1.33088
-0.0694357
-0.50819
3.54863
0.302545
1.3335
-1.63605
1.47785
-4.69513
2.02747
2.66766
0.506386
1.23125
-1.73764
3.16609
-0.0123754
-3.15372
-2.21721
1.37284
-1.66169
-0.19505
1.45394
3.52202
-3.89774
1.78097
-0.802294
-1.41974
2.64461
-4.8701
3.55838
1.31172
2.4286
-3.99773
1.56913
-2.63561
2.94693
-0.311319
1.35502
-1.77736
0.0494762
0.648499
1.06361
1.26685
-3.76407
0.907825
-4.16112
2.66093
1.5002
0.880468
-3.21802
7.86884
-0.0357273
-2.42804
0.479347
1.11853
4.12687
-1.46445
-2.66242
-0.129885
0.939334
-2.47061
0.738879
-3.55201
3.38241
-2.6739
1.07838
1.79751
-4.59382
0.168975
4.42485
-3.05784
3.0051
0.0527323
-0.680064
-0.318345
0.944784
-3.94314
2.80105
1.1421
2.30641
-3.68973
-3.97574
-0.192605
4.24798
-1.81909
0.936262
0.126824
-1.06309
-0.116473
-0.689925
0.806398
-0.313771
1.5912
2.04216
-0.953276
-3.64055
0.517076
1.00233
0.738055
1.5261
-2.26415
1.67083
-0.97106
-0.0659798
-3.91837
3.98435
-1.34844
1.13602
-2.62943
-2.24859
-1.66897
3.91755
1.00294
-1.48829
-2.77908
0.828618
1.95047
-0.0554594
0.285796
-0.230337
3.55978
-4.20633
0.0447252
-1.05772
2.32111
1.58166
-3.90278
-1.09935
0.599908
-3.2784
0.942218
2.33618
-3.35917
2.54442
1.6147
-3.8781
-0.181842
-0.208433
0.0204735
-0.0759329
-1.07418
6.56003
-2.2785
3.02318
-0.744683
2.28803
0.0847552
-2.37279
-1.84891
-0.0745283
-0.883061
0.174611
3.21517
0.584372
0.137992
3.92743
1.67624
-0.258985
1.96761
1.85125
-1.9974
-3.6137
-0.248711
-1.38648
1.5459
-1.86507
0.739198
0.826147
-1.56534
3.32597
0.45667
-3.78264
-0.498113
0.47681
-1.38693
-2.73093
-2.9685
-0.560759
-1.65692
4.5552
-1.35569
1.94824
-0.592546
-3.47717
1.18883
-1.23789
1.97594
-0.0240553
-1.29915
-1.89478
-0.95058
1.13561
-0.538825
-0.582909
4.16462
-0.579585
3.40311
0.0507523
-3.45386
0.122447
1.91297
1.16495
3.88244
-3.59377
-0.201835
-0.950174
1.41898
-1.83707
2.1301
-1.93223
-2.11258
0.976314
0.702519
-1.67883
-3.44678
0.0569992
-0.587298
3.05231
-2.46502
-0.15727
-3.65016
-2.47314
2.92367
5.17648
-2.38491
-2.79158
-0.292996
0.922028
2.53922
-1.04475
-1.49447
1.13855
-1.27641
0.166475
-0.0768132
-0.523379
-0.135035
0.658414
-0.426452
1.63587
-1.46102
3.76743
-0.0269344
-0.745239
-1.1134
-0.432563
1.54597
-0.109319
3.6691
0.107408
1.23569
-1.3431
-1.5549
2.30863
1.43769
1.63418
-1.94467
-0.0374112
2.25035
-0.887938
-1.36242
-0.102654
-0.0191451
0.121799
0.466296
-2.75995
2.29366
-3.58282
0.614319
0.945502
-0.467354
2.01325
-0.0595211
1.19807
0.59365
-1.94934
-3.08095
1.6353
-3.71773
1.13423
-1.89063
0.307568
-1.3005
-2.12746
3.42796
-4.53707
0.449733
0.381312
-0.831045
4.18952
-3.05698
2.7873
-1.88372
0.386022
2.1284
-2.51442
0.481553
-1.25831
-4.35157
2.49398
1.85759
-1.49034
-0.735863
2.2262
-2.10979
4.24351
-2.13373
2.55037
-2.06549
-0.484883
3.65591
0.340368
-3.99628
-1.9907
-2.70443
-1.24693
-0.235485
0.774605
2.85223
-0.0396089
0.455461
-0.415852
-2.6112
-0.667199
2.51156
2.08263
-2.114
2.60011
-0.486108
-0.658948
0.486832
-0.00725107
1.21953
-1.21228
1.43828
-1.13574
-0.39273
-3.55041
-2.20126
1.11556
0.0565971
1.52074
-1.39922
0.342005
2.70778
-3.04978
-1.94117
-0.274362
2.15038
-0.352606
0.307439
-1.1819
-0.165068
0.339342
-0.174274
0.0121608
-1.34468
1.33252
-0.0504286
2.15529
-1.5071
3.29741
-1.6136
2.84647
-1.71045
-0.494225
-1.05618
1.55041
2.82124
0.469449
-0.0645447
-2.68512
1.89367
2.18922
-2.29854
-1.64419
-2.49229
4.13648
-2.1832
-2.16429
-4.31313
4.62174
-0.308604
0.504527
-1.12786
0.731742
2.11861
1.1788
0.0689781
1.42976
-1.49873
-2.03985
-3.29611
2.87277
-4.16677
1.294
1.65973
-0.269822
0.894762
-1.10794
2.10525
-3.49217
1.53719
-1.35293
0.616073
5.10081
-5.71689
2.24856
1.47328
1.37989
-2.85317
3.94792
-2.22249
-1.72543
-2.19271
-1.86374
3.54408
-1.68034
0.0193281
3.38378
-1.24575
1.18622
1.62425
3.0241
-0.94269
0.826216
0.0730497
-0.0175355
3.5984
-2.02509
1.89512
2.4978
-1.71375
0.940001
0.773754
0.789976
-1.43064
2.73031
-0.0536495
1.68979
-0.753533
-2.39366
-0.373965
2.76763
0.814232
-0.0926694
-0.721563
0.705866
0.193117
0.499903
-3.79176
-1.21773
1.47274
2.48753
-2.33201
-0.155516
0.75602
1.49433
-0.676043
0.329726
1.22596
0.798583
-2.02454
-1.42442
3.93849
0.328436
-2.02822
3.86547
-1.83725
-0.784312
1.25019
-0.250177
-0.00501757
4.05705
-2.05437
-1.32112
0.146716
3.01938
1.25799
-1.62217
-0.803541
0.720059
-1.08858
-0.634408
-0.0393518
0.595818
-0.703621
3.05791
-2.35428
0.145485
-0.10881
-0.971843
0.419647
-1.38902
0.142098
-3.42428
2.29125
1.10011
0.82513
0.538275
1.2176
-1.75588
0.58364
0.451067
2.81345
1.64416
-4.4576
-0.504834
-0.0492885
0.554123
3.53366
-2.60184
3.54793
1.62855
2.92543
-2.58342
-3.64255
0.133223
0.0638211
-0.891268
1.68309
5.0681
-1.89945
-3.16865
1.74746
-0.343778
-0.109996
-1.27228
-0.441478
-1.61216
-1.36724
1.72809
2.21206
-0.975297
2.0226
-1.968
-0.0545954
0.835872
0.0198435
-0.250735
1.07342
-0.149126
2.80204
0.703427
-3.50547
1.50192
-0.101602
-0.981386
0.59741
0.383975
-1.42392
-0.0760441
1.49997
0.800579
2.03047
-2.83105
0.807252
1.38638
2.51815
-0.0866162
-1.11243
1.42533
0.25091
-0.287448
0.938353
-0.650905
-2.99818
2.18927
3.1589
-2.42661
-0.732294
0.0723317
-0.63893
0.566598
3.01926
-3.25349
1.40671
0.253024
1.40772
1.37959
-0.610942
-0.0234661
-1.25846
0.386864
0.871595
-1.85114
-0.548717
3.99422
-2.052
-1.94222
1.92969
0.989906
-2.9196
1.75813
-2.74171
0.983579
0.29619
1.91964
0.234448
-0.997185
3.10015
-2.10296
-0.842035
-0.416424
0.400405
0.0504937
1.28301
3.33943
0.0050625
-3.34449
-1.44413
-0.218842
0.192348
0.0803022
-0.0116788
0.973401
0.267653
-2.34728
1.6814
-0.0166717
0.660805
-0.2328
0.441201
-1.57037
1.95639
0.0256748
1.15221
0.0917511
-0.41678
2.24376
-0.0576888
2.08029
-0.712369
-0.544443
-0.793009
2.01897
-0.488423
3.09575
-2.60733
-2.90883
-0.488076
-2.3306
3.95757
-1.62697
-1.37321
1.4237
1.34496
-0.226991
-0.05771
-1.06132
1.11903
-3.0716
1.01724
0.599176
-0.591968
1.09092
-3.83027
1.43231
-3.65323
-1.9609
4.14233
-2.21452
2.0578
-1.25922
0.0379469
-2.1038
2.57009
-0.00752963
-0.652644
0.282492
-1.76164
-0.499166
-2.17346
2.67262
-0.901577
2.54937
4.72363
-2.97828
-1.74536
-0.863339
0.357109
0.996969
0.0818661
-1.07883
-2.98662
0.70812
0.852703
-0.0119364
-0.0296297
-0.554703
0.584332
1.76252
-4.09312
0.376181
1.67035
0.251736
-1.92208
-3.46901
2.98058
0.640158
0.153579
-0.793737
0.23433
-3.41605
-0.611561
-0.00347006
0.615031
0.832045
-0.191887
0.000277588
2.73019
-1.92463
2.12194
2.00881
-1.20156
-3.30321
1.05462
-2.37193
2.08729
0.284633
2.3364
-3.9806
-1.96121
-1.05538
3.0166
-0.16891
1.68079
-1.22711
1.14143
3.83473
-0.562382
-3.27235
-0.00635326
-3.60734
3.59523
0.0606787
1.48381
1.0554
-0.67311
-0.0101543
0.641016
-0.858705
-1.49789
0.118833
-0.167449
0.0486161
0.00692719
-3.2416
3.23468
-0.72456
1.60765
-0.883094
1.59997
-3.39608
1.7961
-0.138458
-2.00624
-0.121669
0.0300588
2.39532
-1.3957
-0.693338
2.08904
-1.39795
-1.19719
1.78637
-1.08385
1.31345
-0.719877
-0.593571
1.45914
-0.920861
-1.47879
-0.368621
-0.345829
0.714449
1.04571
0.496125
-1.54183
-0.280132
-0.623582
0.903714
0.321849
-2.11797
0.59625
-4.21412
-1.04689
-2.2539
3.30078
-3.37268
0.130736
3.24194
-3.93068
-2.86854
0.232939
-1.33561
1.29042
0.0451952
-4.4934
-1.1492
3.95124
1.58029
-0.714128
0.487346
-1.28035
-0.529779
1.91616
0.637813
0.437676
-1.55108
0.0731885
-0.677759
0.604571
-0.584642
-0.0571887
-0.450311
0.522643
-1.2917
1.79809
-3.42326
2.79262
0.630637
1.46056
-0.0520459
1.70163
0.868772
-0.0545397
2.13231
-2.06333
-1.82203
-0.957052
-2.1031
0.643213
1.45988
0.357569
0.411655
-0.769224
-1.77679
1.78895
-0.364835
2.71412
2.91464
-2.80723
1.61929
-3.01724
1.57835
-1.87157
0.293224
0.522968
-0.0508414
-0.100688
-0.0241612
-3.40505
2.10455
-0.903261
2.83295
0.0502388
-0.833632
0.783393
-5.99042
2.5798
-0.030728
-0.53459
-0.789254
-0.0803856
-0.891351
0.971736
-2.16327
0.767569
-3.74464
3.35191
4.37531
-2.0542
-1.14775
1.07334
0.074413
-0.0131199
0.0483706
-0.641191
0.382342
0.897424
-1.27977
-0.62245
0.573162
0.0975386
1.3708
-1.46834
1.33955
0.0671573
0.10878
-0.14725
0.0384708
-1.19967
1.22535
0.065923
0.156405
1.7058
-2.28416
3.63103
0.241599
-3.82754
1.20857
3.31378
-0.154896
-3.15889
-0.831335
0.372285
0.459049
1.9775
-3.92917
2.02033
-0.101294
-1.91904
-0.151485
-0.0192026
0.170688
-3.23114
3.23535
-0.00420621
-1.44171
1.73759
4.97271
-1.3956
3.24615
-1.10902
-2.13713
-0.46659
-0.906031
1.37262
-0.809535
-1.30361
-0.0349774
-1.2278
-0.0758118
0.331137
-1.23103
0.899895
-0.359617
3.36709
-3.00747
-2.80383
0.780496
2.02333
0.909787
2.99958
0.0622147
0.322759
-0.384974
2.12059
0.877648
-2.99824
0.094286
0.0383901
-1.15455
4.01292
-2.85836
-2.77047
0.37681
2.2433
0.935602
-2.89681
-0.0122371
-0.504348
0.516586
3.56966
-1.10616
-2.4635
1.51697
0.9508
-3.94019
2.05283
3.63586
-3.70184
-1.78628
0.232869
1.55341
-0.103628
-0.255856
0.846546
-0.59069
-0.010408
0.0535705
-0.0431625
-0.0391568
0.538485
-0.499328
-1.15718
1.04242
0.114755
-2.04435
4.1496
-1.17289
1.1378
1.33941
-1.24187
1.22799
-2.11243
0.884443
-2.6497
-2.2204
-0.672996
-0.0607017
0.20311
-0.0159068
-0.187203
2.57739
1.98967
-4.56707
0.209413
2.27811
-0.957575
-0.548755
-2.20267
0.403564
1.82286
0.992938
-2.8158
-0.00898379
-0.0648659
0.0738497
-0.0197115
1.46287
0.185309
0.0855167
-0.270826
4.25847
-2.00277
-2.2557
-4.0795
0.759907
0.490555
-3.43042
1.09642
2.334
-0.700507
-2.60033
-0.206955
-0.568502
-0.159034
0.0583455
-2.06436
3.69668
-1.63232
0.629354
0.109147
-0.00884881
-0.575283
-0.961275
0.93434
-0.985845
0.859744
-3.07472
3.97424
-0.899515
2.20019
-1.66594
-0.534256
3.00904
-3.05947
0.990853
0.220509
-0.979481
0.796994
-0.321175
-1.26997
4.91654
-4.46305
-2.93107
1.93388
-0.761294
0.998265
0.569626
0.262419
-0.137799
-0.0136861
2.99781
-3.11573
0.117915
1.65295
-1.7188
0.890666
0.828134
0.441326
-1.3915
0.482358
-3.21668
-0.988196
0.895526
-0.64022
-1.10035
1.74057
-2.93381
0.690628
0.65981
1.03023
-1.69004
-1.8529
0.362561
-0.534963
-1.9777
4.27941
0.343973
-1.80393
0.785692
-2.03118
1.24549
-1.11901
1.42645
-2.16745
-3.82297
-0.542761
-0.673986
2.02599
-2.54438
3.6743
-1.12993
-0.139219
-1.26291
0.187703
-1.48139
1.29369
-3.39983
-1.79674
-0.670611
0.667141
3.64214
2.0431
0.283394
3.57965
-1.96152
-1.85473
3.20698
-0.222948
-2.98403
3.0425
-1.92469
4.51015