/*--------------------------------*- C++ -*----------------------------------*\
| =========                 |                                                 |
| \\      /  F ield         | OpenFOAM: The Open Source CFD Toolbox           |
|  \\    /   O peration     | Version:  2306                                  |
|   \\  /    A nd           | Website:  www.openfoam.com                      |
|    \\/     M anipulation  |                                                 |
\*---------------------------------------------------------------------------*/
FoamFile
{
    version     2.0;
    format      ascii;
    arch        "LSB;label=32;scalar=64";
    class       volScalarField;
    location    "6.75";
    object      p;
}
// * * * * * * * * * * * * * * * * * * * * * * * * * * * * * * * * * * * * * //

dimensions      [0 2 -2 0 0 0 0];

internalField   nonuniform List<scalar> 
13486
(
2.51235
2.08168
0.0330574
-1.7844
0.731324
-0.157155
0.283878
1.34894
1.66486
1.0454
-8.19066
0.435854
2.63546
-0.104318
0.588869
1.14022
-4.99026
0.201544
0.591382
2.28106
-1.1499
2.60336
2.04399
-3.43617
0.989022
-3.11067
-5.1778
-1.26585
0.00215226
-1.24882
-0.705148
0.484862
-2.27461
-0.858941
1.35261
0.0105312
-0.0421843
2.02033
-0.190224
1.67685
0.0552698
2.73843
0.0306952
0.980559
0.943978
0.413225
-4.31627
0.00369801
-0.0402088
-1.04701
1.53659
-0.212941
0.345764
2.05584
0.127032
0.800939
0.0143251
-0.213958
-2.16558
-0.0745316
-9.95286
-0.0587675
-2.95367
-1.03959
-3.12198
-0.042336
-2.25941
2.54156
1.65279
-0.0732504
-2.29537
0.151735
1.69993
-4.10866
-0.0366972
0.0172067
-0.0316352
0.568947
-4.17596
-0.262499
0.00452458
2.11386
-2.9775
0.0547902
2.52078
1.0601
-0.0779878
1.46186
1.73833
1.15095
0.382946
1.15572
2.39955
2.19435
1.72713
0.00275799
-5.24186
-3.14447
1.64931
-4.96454
0.0275283
-0.0122264
-3.16871
-0.208148
1.24338
-4.95211
1.72837
-0.195574
-4.41232
1.02342
1.58287
0.388136
2.0545
0.0364795
2.96225
1.66495
0.99546
-0.799266
1.71468
-0.0283529
0.19934
-9.49556
1.81195
-0.195418
1.58031
-0.200184
1.16504
0.500409
-0.706727
-2.01205
-0.195021
-4.11837
-4.90962
-3.59485
1.60534
1.46407
2.98296
1.07157
-0.0259445
1.39742
-1.75223
0.3387
0.495437
-0.27487
0.0328166
-3.96575
-0.010777
1.87182
-1.13885
0.000801819
1.06575
0.518552
0.00592001
2.15549
0.592964
0.0244634
0.815384
-0.14538
1.82026
-1.31912
-0.749005
1.8211
0.331707
2.72972
-0.217428
-0.383333
0.132592
3.38605
-0.0146515
-3.60792
-5.0161
0.606333
1.25382
0.872995
0.00186061
-8.32386
-0.270826
-1.98571
1.72879
0.506088
1.56189
0.0374615
0.71127
-6.65709
0.077238
-1.2477
0.000367485
-1.11713
0.135393
1.75592
-0.031887
0.0314279
-0.245089
2.25226
-0.280952
-7.85204
-2.24754
-0.798769
2.23565
-0.300569
-0.76467
0.476612
2.0249
0.544102
-1.1543
-0.290699
0.148035
1.84546
-0.232476
0.0819796
-1.19175
-2.65731
2.25302
1.72899
-0.153
-0.634259
-1.28893
1.17699
2.26808
-2.06065
-4.98161
-1.15965
1.43748
-0.810113
0.264942
2.43364
-0.448383
-2.75528
-0.489279
-0.093355
1.54316
-0.444287
-1.83348
2.79337
-2.32063
2.33293
-0.958809
0.0299158
2.35772
0.747987
-2.34968
1.2315
0.0415882
2.21636
-0.181186
1.96222
0.782655
-2.01178
-3.66556
1.08512
-6.05668
2.99635
1.60322
-0.202178
-0.371707
-9.83159
0.474385
-0.604296
-0.109115
-2.32314
1.91002
-0.178494
0.582489
-9.30314
0.821751
-6.70339
-0.502447
-1.00297
1.57447
0.156555
1.80171
1.69835
-1.33191
0.342107
2.43769
-1.86393
-0.375328
-0.272727
-0.214503
0.0092032
-0.33508
1.36735
1.7475
-5.62388
-9.03985
-4.97093
-1.63134
-0.73508
0.259217
1.59254
-2.17093
-0.208081
1.7272
1.61982
-0.912645
-1.03331
-0.761211
0.31248
1.7765
0.177253
0.321625
0.155636
-0.00286167
0.509347
-0.0418653
0.577196
-0.474533
0.815789
-0.0934505
-0.0343358
-3.57382
-1.65718
0.000440513
0.396618
-9.17823
1.49458
-0.235373
1.74314
1.85701
-0.586502
-0.0393554
-0.16362
1.71811
2.21082
2.95166
0.403652
1.0145
1.33708
0.190523
0.931831
1.47297
1.09842
0.354407
2.38238
0.260988
1.62318
3.05227
0.558111
1.13898
-0.178112
-0.541111
2.19206
0.892555
0.727799
-7.5132
0.00296993
1.09506
2.94496
-2.09512
-0.208207
1.06616
0.243111
0.324622
-5.35166
1.76379
-0.0142563
-4.20371
1.13968
-0.110382
-2.45747
0.606253
0.354064
1.92926
1.70305
-1.29805
0.00233883
-0.989557
-4.18927
2.30531
1.15401
0.0253075
1.11554
0.244006
-6.81198
-0.0515555
1.56844
1.76107
-0.180511
-8.79085
-3.02229
1.55358
1.05921
2.66027
1.89608
-4.28968
-0.402348
0.200312
1.11245
-4.79989
-0.42938
2.21524
-1.41383
0.827258
2.38045
2.5238
-0.0156186
-1.948
-6.53019
-4.93764
-1.74027
-4.85898
0.629378
1.47216
-0.541971
0.33127
0.0607098
2.16257
-1.95804
1.17757
1.97676
1.08393
-0.850292
-1.47956
1.78178
1.74458
2.17897
-6.7223
0.849609
-5.16197
0.772303
1.73007
0.260276
2.9558
1.18587
-0.594506
-1.06851
0.472048
1.74696
-5.16434
0.238537
2.58434
1.47808
0.809336
0.23453
0.650464
-2.10636
2.6526
-0.192694
0.917305
2.50269
-5.11931
-1.33743
-3.5252
-1.51942
-0.171102
1.97992
2.07204
2.60115
-3.17013
-0.0336859
-7.69154
1.15982
1.77283
-1.02944
-1.0982
1.72424
-5.5305
-8.56707
-6.26816
-3.94693
0.119877
2.1109
0.00139385
0.261245
-1.28689
1.67658
0.00386931
3.22626
2.4211
1.69193
1.29135
0.0116997
0.0010803
3.03438
-0.433766
-0.0223495
-0.587002
1.63915
-4.9651
0.295573
1.27917
-0.0197629
-0.560609
2.02613
-1.89631
-4.9681
1.19194
-0.472456
3.37476
1.21281
1.55243
1.8636
-8.66863
0.130309
2.78014
0.72233
2.21717
0.239954
0.574176
-1.16295
-0.266385
0.0281594
-4.90458
1.80426
1.62491
-6.26269
0.00246808
-0.220995
2.54416
1.98437
-0.40034
1.65831
1.19575
-0.514241
0.827361
1.5747
-5.08441
2.62098
-0.00340276
-0.0677654
2.71991
1.07208
-0.00617572
1.08662
-1.45512
-4.91798
0.678727
0.970061
1.84032
2.40397
-6.13083
0.643914
-6.08513
0.00195664
2.32847
0.569511
-6.75801
-3.49342
0.270384
-0.108121
1.29976
-2.93891
-1.04118
1.66386
2.35644
-0.161038
1.89733
-3.73339
-7.30576
-1.41272
0.801256
-7.68814
1.8503
0.105405
-10.5668
1.38523
1.95479
-2.44418
-6.214
1.55711
2.34031
0.66811
2.5357
0.116441
1.22617
0.49624
1.88143
0.0360248
2.27424
-5.26074
0.604498
1.57422
-0.654898
-1.77281
1.71363
-5.12481
0.326876
2.03937
2.59764
-1.39671
-0.0649946
0.602995
0.28805
1.4754
1.33748
0.421646
-6.09216
0.114587
2.48079
0.375764
0.29548
-6.10296
2.61485
-0.888421
0.0389827
1.69098
1.26885
-0.273382
-0.19196
1.37409
0.146105
-0.0382804
0.761377
-1.42474
2.53512
1.62338
1.1493
1.18429
0.176599
-1.60858
2.86389
0.612077
2.86643
-2.39194
1.609
0.00755126
-4.17854
0.92448
1.07753
3.0006
-5.94071
1.00992
0.973078
-2.25724
1.04305
0.197299
-0.420038
1.61144
-6.30009
-1.67063
-2.23167
-0.0150864
-0.731556
1.84837
0.00258214
2.7731
1.65121
-0.985601
-7.05673
-1.17823
0.651918
-8.59296
-0.137764
-4.9266
2.31311
0.00102276
0.025468
-11.0517
2.66535
0.00235023
0.308766
2.71394
1.55557
-6.87873
-0.164713
1.15015
0.240965
1.56046
0.0398481
-2.14705
0.746769
1.50751
0.605008
1.3495
2.75418
0.0396788
-5.96263
1.71295
0.27662
-0.234952
1.08861
1.33737
0.858216
-6.71514
0.10657
-0.173539
0.223952
2.32479
0.625608
0.172459
0.0706308
-0.0510105
-0.316328
1.79151
-0.422737
1.52251
1.56721
2.38338
0.216773
-0.925042
2.84761
0.0199076
-5.34696
1.75779
-2.05175
1.95425
0.0298746
1.68899
-0.543909
-3.77562
-3.13017
0.00243626
-4.9723
1.01681
2.93003
-0.738558
-3.98593
-0.527136
1.83225
0.120939
0.858286
-11.1961
2.91402
-6.73514
0.871355
-1.1197
1.0918
1.75178
0.824589
-2.75865
-0.793324
2.68863
1.76353
0.6066
1.47272
-0.0711504
1.27146
1.27682
1.0933
-3.53249
-0.375972
2.14029
0.308565
-0.223807
1.3357
-4.9364
-0.707884
-0.151173
1.82128
1.86123
-4.11135
0.103036
-6.63569
-0.903234
0.152964
-0.709792
0.358236
1.68314
0.085096
-1.21549
1.93252
-0.11547
-1.4752
-0.0663781
-0.688339
-4.03004
-2.80877
-0.169624
-11.0481
1.54792
2.63362
-0.0184928
-1.42772
2.72129
2.54984
-1.25597
-2.13401
1.69322
-4.80808
0.0316463
0.104911
0.197301
0.842571
-4.96336
0.889693
1.23514
-0.602161
-0.528763
-2.77111
-0.118719
1.39897
0.916482
1.05997
-4.9518
1.56936
2.4948
-5.02559
-10.5091
1.84829
0.461873
1.10637
-0.185219
-1.1926
-5.232
-0.0737376
1.75928
2.87513
1.84494
0.166766
-0.0541145
1.72182
2.43324
-0.159817
1.75685
1.68038
2.58533
0.333653
-0.160435
0.350906
-0.564069
2.56485
0.116595
0.0836954
1.12411
-0.377532
0.418354
-0.0513192
-1.57803
1.67099
1.39114
1.26442
0.92318
-2.34871
-0.345978
-0.654277
0.851891
-1.52849
-0.543678
0.0326417
-12.081
-11.0324
0.996768
-1.18968
-3.63665
-2.7199
-0.915664
1.16884
-7.00671
-8.04375
1.89853
-1.69139
2.60765
-2.69339
-3.70045
1.95694
2.34471
-0.0348579
0.230905
0.234063
1.79531
0.855832
-2.56527
-0.263738
-0.0441939
-0.460289
1.69718
0.0283329
1.09498
-0.16709
1.64351
-5.11049
0.0382877
-0.015029
2.0251
-1.45157
-8.73346
-6.19565
2.58302
0.143823
-6.05539
-7.84497
1.68179
-6.44885
-0.174185
0.394988
0.730337
0.0464443
1.08974
-2.80885
1.50963
1.71256
1.91676
0.877266
-0.0893622
-0.843588
1.36902
-0.346073
1.98798
1.29207
-0.270447
-0.203377
-0.426766
-0.00801102
-0.0369278
1.94382
0.78769
0.311612
1.7197
0.179398
1.29248
2.96853
-0.0502444
-1.95304
1.25139
0.0212418
-0.152402
-0.455832
-1.25943
1.67229
0.0395318
0.02082
0.0355067
0.225568
2.12567
-6.73713
0.00350697
1.72535
0.0303204
2.44175
1.97176
2.22727
0.430316
1.20213
0.528552
0.00816916
1.18178
1.62256
-0.594803
-0.665322
-2.64254
-1.28881
-10.6334
1.66506
-3.68519
-2.93736
-11.4241
-0.536277
-0.0191284
1.74574
0.000759024
0.371632
-3.7347
1.75385
2.92049
0.0488467
-9.29615
1.0625
-0.0675505
1.6183
-1.18953
-0.18389
1.9964
-0.229829
2.76265
1.12472
1.71408
-1.14919
2.18352
0.0287123
1.98432
-0.00601087
-2.45063
-0.253502
-6.30807
1.09654
-0.00852011
-0.375561
2.6013
1.7496
1.88516
2.36708
1.9161
2.02112
-0.638985
1.70922
1.76564
1.76106
-0.582547
-0.45013
-1.21499
-1.13055
0.456832
1.84704
-3.77355
2.58636
-1.22628
0.0396031
2.85721
2.4102
-0.655168
-4.56846
1.66806
0.991983
-0.100292
1.52874
-3.63349
-0.54445
1.71216
2.30753
-0.183111
1.81485
2.16282
0.00204138
-0.718223
2.1876
0.736754
-0.035782
-6.43201
0.0469887
-1.53113
1.64523
1.33853
-0.0999314
-0.23496
-1.48913
0.458199
-0.128634
0.409002
2.48556
-0.184575
3.1647
1.67716
0.572282
1.89261
-7.00384
-4.25791
-6.00138
1.66936
-0.186157
-3.4372
-0.677347
0.938898
1.11414
-0.176595
1.11405
-4.49514
0.793886
0.148636
-0.180999
1.30996
0.535741
2.16129
1.75932
1.83622
1.58763
-0.664501
-1.97816
-1.42443
0.0884773
-1.8402
0.0150439
1.28388
-1.21861
-0.0848562
-0.118291
0.298314
-11.7503
1.15304
0.943794
-0.552643
-1.58457
0.784621
-1.08448
-2.14953
0.27301
-0.0126077
1.81146
1.33913
2.12851
-3.56173
1.59051
0.0379825
2.34818
0.0516354
0.997286
0.208779
-0.116319
2.71888
2.85209
1.36962
0.815626
1.24949
1.48739
2.74579
1.07294
-2.05883
-10.9073
0.351306
-1.11454
-2.26816
1.7439
1.60733
0.0409365
0.300363
1.33873
1.50197
2.98987
-4.12207
1.41754
-5.01435
-0.082317
2.44159
-0.446589
1.3413
-0.788836
0.759212
0.660384
3.11611
-0.158402
-1.24395
0.956869
0.29086
-7.57186
-3.6629
0.219321
1.92536
-0.704794
0.825562
2.54873
2.35876
-0.306798
-2.62485
-0.188377
0.432952
1.93368
1.56847
2.31256
1.00418
-8.03336
2.43055
1.46849
-2.35104
1.22154
1.78758
2.08424
-9.05189
-0.636842
0.00105627
1.51194
2.67536
0.875265
0.289312
-1.54907
3.00415
-5.74551
-1.70412
2.79244
1.55188
0.12037
1.29315
-2.08452
0.857613
-1.11832
-6.00637
-0.171468
-6.93432
0.155878
-0.811984
-4.95938
-4.96879
-2.68871
0.000954293
-4.88226
-6.1972
1.47558
1.63221
0.777959
-4.47059
0.45754
0.400205
-0.678647
3.14987
1.02837
-1.25757
1.55166
-1.03405
-7.42038
1.31009
1.29685
1.60473
3.19013
0.00399298
-0.43529
-3.63035
0.0872735
1.06811
1.58968
-0.535147
2.45777
1.30322
1.81794
-1.18651
-0.258283
0.032449
1.69293
1.72519
1.75427
1.73466
2.94807
2.86718
-1.06312
1.55933
2.16153
-1.21577
2.30387
-0.154043
2.83293
2.2813
0.155447
1.9558
0.951436
1.21093
-0.0486662
1.78341
-1.88434
1.42704
0.530029
1.04584
-0.165234
1.61898
-0.121703
0.450572
2.73532
2.72896
1.05502
-3.58101
0.415115
-0.0868218
-0.397364
1.47128
2.44089
-3.55698
1.76554
1.56063
0.80348
1.68318
-9.51708
-0.78384
-0.112275
3.00526
0.446264
-0.226786
2.00592
-0.173222
0.0290132
0.954482
0.349937
1.37769
0.546951
-1.15457
0.984147
1.27892
1.02535
1.18249
2.90095
2.38688
2.05786
2.04265
2.67513
0.739928
-0.167768
0.136
-1.42526
2.70769
-1.21865
1.64866
1.45614
-7.21152
0.807947
1.85824
-4.35667
0.820109
1.20627
3.22571
-5.38908
0.732212
0.0997384
1.87872
0.0237957
-2.35047
2.66011
2.25287
1.57768
1.66093
-1.1943
0.683795
-4.91224
2.86119
0.00458275
3.0946
-0.364429
0.270663
-4.49571
0.793346
-4.03729
0.346239
-0.225407
0.712545
-0.0596917
0.684846
-2.97195
0.00129536
-0.789202
-3.53638
-1.21256
-2.65322
-0.0511987
-0.305792
-1.05329
-9.51686
1.66591
1.70094
2.22613
1.71497
0.665158
0.648638
3.38415
1.60668
-5.10342
0.00185345
-0.0610707
1.38825
1.44093
2.46326
-1.5169
-1.5417
1.29533
0.00190093
0.438166
2.15896
-3.62686
-7.60255
-4.9968
2.89431
-3.09462
1.13753
2.1375
-0.441573
1.26953
-0.104191
-6.02797
-5.72489
-0.811059
1.23525
1.96081
2.09915
-2.72033
-3.60398
1.01517
-4.25004
-1.32546
-0.674187
0.376812
-1.1182
-0.119317
-3.5299
-5.48581
-3.06889
2.55935
-1.2842
2.81587
-8.00161
-0.393224
0.617233
0.12548
2.35747
1.5899
2.05924
-0.0173368
-1.11985
-6.38749
2.26367
-3.50411
1.32398
-0.16445
2.11653
2.36149
-0.163356
1.66785
2.69294
1.80409
1.80873
-2.70588
-0.247972
0.682996
-1.93161
-0.218154
0.933486
1.11146
0.0302858
-7.0328
0.40764
-0.256979
1.39615
1.16349
-1.22637
2.82345
0.0726108
0.00137587
0.26057
1.70345
-1.94585
0.0061827
1.78525
-0.715276
-0.00265609
-0.29848
1.72531
1.70851
1.63972
-0.1332
1.6515
1.97376
1.85963
-1.00859
0.0413362
0.521364
1.40336
-1.51055
-5.19735
-5.41857
-2.00772
-2.05926
0.0387724
-0.212605
0.0352957
-3.68175
-1.14483
-12.5665
-0.355568
-1.24324
0.744842
-6.65714
1.82382
3.4047
0.716183
-0.754316
0.883618
0.328604
0.414874
0.0229638
-1.25025
-10.7303
0.138361
2.19148
0.00422247
2.64222
0.0285321
1.63628
1.30901
0.720805
-4.79697
0.872481
2.95143
-1.07069
1.73364
1.67336
2.45176
0.142126
2.24321
1.75381
-4.34026
1.87521
-5.37452
-5.03997
2.29416
1.55328
-2.48894
0.249299
2.19011
0.00780609
-4.49543
0.0339929
0.0367093
1.41483
1.01436
1.76105
1.51216
1.39623
-3.05634
-1.24418
-0.954269
1.72787
3.08891
-1.40848
-5.08038
-4.76576
1.62562
0.098392
0.109812
0.615531
0.202506
1.24292
-0.466555
0.406757
2.64513
0.863243
0.174514
-0.857292
-4.22141
-2.20018
-5.0518
-2.94664
-7.94081
2.05645
1.01102
-1.44524
2.7417
0.00172984
-6.73203
-0.840667
-5.16533
1.77447
-3.53224
0.678061
1.62759
-0.121425
-1.02711
-0.242935
-5.12309
-2.05658
1.8912
-12.0092
-0.129755
-4.95362
1.67481
1.8044
-3.28042
2.12187
1.94073
2.53546
2.62591
1.82734
0.301504
3.00933
-4.99913
1.57761
0.202201
-11.0859
2.10013
-4.6716
2.5969
0.912109
-1.74855
-4.91794
-3.78948
1.85164
-5.46416
-1.53526
-0.010718
-0.956969
0.174526
1.14867
0.405912
1.15601
2.89151
-3.70681
-2.97537
-0.603572
1.6929
1.38499
-2.20505
3.36859
-0.160139
-0.214335
1.22966
-1.52326
1.66826
1.6843
1.90179
1.9054
0.195566
0.837623
1.57498
0.374301
-0.518374
-0.00265592
1.77104
1.88122
2.28685
-0.726241
0.0243412
0.757314
1.12756
0.331011
-7.95668
1.48229
-0.985291
1.53749
1.77983
-4.97167
2.62991
-3.97998
2.9013
1.8733
-12.6011
0.00461697
-0.0397986
0.85737
1.82715
-12.0954
2.25487
1.66595
0.757953
0.0340967
0.34031
-0.200738
0.755338
-4.99104
0.948113
-1.76248
1.69047
-5.31881
-0.203292
-0.917477
2.10573
2.37695
1.0169
-5.28031
0.93974
-0.314798
0.0417237
1.04989
-0.471933
-0.622688
2.81141
-0.682147
-0.0457274
-1.81243
-5.45768
-0.309992
1.77271
-4.98493
-0.727992
1.822
1.01239
1.82048
-5.74175
0.752225
2.85998
-3.01993
1.70729
0.52593
-0.412849
0.695814
0.39042
-0.847384
2.91172
1.88705
0.0320566
2.84555
2.16008
2.10104
-4.35125
-5.27002
0.983594
-1.89697
-0.27395
-3.42705
-1.60576
-3.20903
1.27299
0.643443
0.931703
1.05527
-0.439089
1.18496
1.74742
-6.59624
1.70241
1.15515
1.72125
-0.314364
-0.0184533
-3.36428
-5.11922
-5.12874
-0.8498
1.73226
-11.7351
2.54937
-7.00789
1.67546
0.941326
-0.130159
0.167551
1.70234
0.908961
0.50887
1.46
0.364427
0.175971
2.40639
2.07553
-2.38776
-4.89124
-0.142655
1.56594
0.144988
0.645238
-2.67714
0.111263
-0.382064
-0.253335
1.41931
1.33834
0.258993
0.903357
0.0944356
-0.114912
-12.3377
2.12911
-3.93648
1.61534
0.00307448
1.5236
1.76578
1.06999
1.51224
-0.0762814
-3.01821
-0.192359
-4.91586
-5.13493
-3.50395
0.119701
-0.38165
1.43728
0.0131831
1.69548
-0.278164
0.178136
-2.43815
-0.149615
1.72983
-5.6636
1.60141
0.437921
-9.95133
-0.322748
-4.25164
1.15933
1.81477
-0.117104
0.335808
-4.296
1.92872
0.0331715
0.51409
-7.46545
2.10382
0.812951
0.000490399
1.80193
1.69632
2.01194
0.516142
2.14435
-3.17349
-0.647664
-0.335557
1.56259
1.18073
0.463827
0.0257008
-5.76544
-9.51036
0.854546
0.00706196
-11.1806
2.67752
-2.94549
1.96818
1.16597
-1.61106
-0.176908
-1.02478
-0.249424
0.309565
0.27958
1.64588
-0.181999
1.72293
-2.52521
0.569477
-0.611404
0.398252
-6.41779
2.05411
2.86362
1.84764
0.846172
0.202612
1.24319
-5.13533
-0.0190589
-0.152435
-0.381189
-2.85354
-12.9051
-7.16758
-1.38998
1.44189
1.59527
-3.17171
0.436988
1.92748
-1.09673
-2.28287
1.85435
-0.177008
-8.50649
0.0318855
-0.290093
0.00422277
2.7234
-0.163061
1.55484
-1.5146
-0.997039
-1.05963
1.59295
0.423605
1.32276
-1.10795
-1.48959
-0.652591
0.24679
1.97931
1.43359
0.424539
-0.211512
-0.901666
2.96682
-0.71292
1.87461
2.05107
0.123268
-0.217712
0.762852
-4.86725
-0.721925
1.54479
1.10282
1.58654
-6.43048
1.87619
0.323064
2.42548
0.268441
1.56586
2.13111
1.48218
0.366658
-6.85832
0.665457
-4.97119
1.37776
0.891024
2.00554
0.250428
2.52712
0.316093
2.69483
0.0937494
2.0776
-0.112487
1.21499
-6.47275
1.66502
0.784719
0.845131
2.5802
1.71833
0.44163
-1.20154
0.936758
1.64898
-0.143371
-4.94402
1.18723
-0.85197
2.17775
-3.45558
2.57594
0.542626
3.41578
2.63036
1.1503
1.00018
-7.23853
0.198889
2.77899
-0.00821182
0.0108894
-0.333024
2.79777
0.972227
1.38656
2.41574
-1.06902
1.81822
-0.704016
1.95968
0.0238545
1.8423
1.68265
2.28931
-0.170916
-3.70832
0.501041
-4.53428
0.75511
0.113311
-0.194758
2.22458
2.42763
0.0211011
0.441566
-0.636059
2.15592
1.34132
1.4936
1.1455
-0.261485
-4.89444
-1.4278
1.76782
-2.52271
-0.0832229
0.349022
1.12213
0.7876
-1.18357
2.94346
-0.398845
2.54886
0.363918
2.67329
-1.24399
0.405287
-0.106933
0.0323779
1.38117
1.70026
0.204906
-0.0332954
0.0968543
-0.150342
2.4007
-0.366819
0.101242
-0.448883
0.0196885
0.445303
2.01212
0.708429
-0.827285
0.00238387
1.71334
3.09866
-4.72154
-0.879968
1.58153
0.0402731
0.968147
-0.173695
1.11377
0.00129932
-4.72859
-0.141578
-1.00617
-0.389076
-0.0113537
-3.5309
-4.9912
0.149783
1.39548
1.77505
1.53423
3.00957
-9.78845
2.78454
-4.35096
2.64045
-12.4803
-1.24613
2.90793
0.818254
-2.23742
1.6444
-0.178171
1.78464
-0.56222
-4.9595
0.305434
-1.3887
-1.75911
0.00196136
-0.394137
0.791146
2.04647
-12.6494
0.861522
-2.47927
0.448734
-0.416504
-0.138181
0.328825
-0.524408
-2.01731
2.2833
-0.074901
2.48384
0.644663
-5.55248
0.71548
-1.21539
-0.0983554
1.51718
2.08454
3.04579
1.36444
1.52291
0.705759
-3.69103
2.94723
3.11375
1.87754
-0.926418
-6.19752
-5.03569
1.50751
1.02304
0.601947
1.51518
-0.798505
-0.107196
-6.87822
2.5701
0.241499
0.302351
-2.68957
1.55787
0.589416
3.32941
3.13733
1.45293
0.372783
0.412071
-3.65865
0.832114
3.21108
0.072132
-0.0822818
1.16322
0.00692808
0.371441
-0.178474
-0.423281
0.365677
0.288243
0.766485
-0.00371966
0.660874
2.32392
0.385331
1.76539
-3.15345
-0.539982
2.80995
-4.6433
0.360286
0.302
0.855893
0.492292
-3.61613
0.197368
-0.930118
0.321711
3.35739
-4.71228
-3.22611
-4.98169
-0.799757
0.00408309
0.296549
-2.89897
-3.16508
0.000676887
-2.97591
-1.12023
-1.86344
0.483499
-0.261799
0.255217
3.28573
0.29856
0.501611
-0.381368
0.450325
-3.49683
-0.881012
2.34601
1.66422
0.511842
0.0227905
1.55505
1.78405
0.0333663
-12.0338
-0.167188
2.3424
-1.22749
1.62763
0.155297
2.55848
0.236084
-3.66942
0.21491
1.84601
-1.2051
1.56831
-1.0745
3.1688
-2.65901
-0.334631
-7.35143
0.925774
-3.81023
-1.37986
-2.90207
0.196544
0.642747
-7.32384
-0.568589
-0.285561
0.368484
-2.2764
-1.15356
1.32108
-4.94752
1.40498
-3.22873
1.86238
2.92713
1.51098
-3.52278
1.6403
0.14636
0.369513
-0.320249
-0.606401
-4.96221
-0.141961
-1.07801
0.620218
0.120884
-0.792679
-0.311558
-6.41322
0.843551
1.74799
-1.29248
-4.02055
-0.456498
-0.0120309
-0.00804595
0.945645
-2.58166
-4.34736
1.78657
-0.347176
0.860465
-1.94636
-7.14052
-6.6983
-10.1717
3.29334
0.529013
-1.5548
0.685102
2.77721
2.81655
-4.24782
-0.727099
1.7087
-0.102959
-0.122682
2.84366
0.914551
1.41408
3.34945
-0.31224
0.367535
0.374253
2.52736
1.77474
1.68316
2.1788
1.28745
0.0292788
0.03231
0.902508
0.423292
-5.02474
2.88552
-0.482139
-0.663517
-0.00172158
-2.0603
0.793661
-2.74237
-0.808185
0.436146
1.70571
1.85478
1.87737
-5.09527
2.50858
2.80999
-3.39896
1.02691
-0.249993
-0.0942217
0.359019
1.102
-0.366862
-1.10641
-0.740067
3.10463
-5.32668
1.90258
1.68296
2.18695
1.19195
1.28645
-0.0146002
0.0257353
0.893927
-0.211139
-5.28264
-2.35178
0.0030802
-2.23671
2.05114
-6.75748
-0.113842
0.491433
-3.50123
-3.41038
-5.03153
1.46733
-0.705145
-0.113012
0.89971
-6.03765
0.593226
-3.17712
-0.251487
1.81768
-6.13606
2.89354
-0.00523035
3.07053
0.00286118
-0.138365
0.225147
1.54531
1.38402
-3.14199
-0.354448
-0.157656
0.198703
1.12415
3.3542
2.19435
0.516217
-1.16038
0.831015
0.149696
1.88015
-0.055991
1.11231
-1.61075
-2.67794
-3.46781
0.493801
0.0282327
-3.53147
1.20445
1.03831
2.76718
2.99372
-5.019
-4.97086
0.202208
-1.40218
2.88065
-0.0144466
-0.432345
0.853456
1.31183
-1.51454
0.0115924
0.22951
-0.172708
1.4757
-0.968434
0.37811
0.0529082
-1.09489
-2.77946
-0.299297
-2.842
-2.55962
1.81634
-4.84659
-3.21324
-0.807269
0.222551
3.15126
1.16614
1.6346
-0.956387
0.829157
0.00899476
0.643326
0.635266
-2.89422
-5.1985
2.87126
1.78965
0.0915812
-4.05496
3.26164
-3.64719
-5.28381
-1.39454
0.780045
-4.12882
-1.46942
2.50985
0.00264314
1.49773
0.797962
-1.88327
0.246761
-0.0951289
0.818335
-3.06738
0.131092
0.668966
1.61683
-4.53694
-5.0366
-0.0138651
-1.16328
-1.62048
-1.52242
3.08459
1.21339
-11.6983
0.730796
0.544873
2.69978
0.893739
-5.05433
0.934659
2.15237
1.78036
-1.43715
1.5665
-0.0423208
2.8471
0.0256966
1.77962
-6.97458
-1.31181
-0.00872813
-2.0834
0.914053
0.700964
-4.92819
-4.77983
1.95215
-0.0690428
-0.0562259
2.34727
1.41351
2.28601
1.629
-1.54856
0.0179572
0.166588
1.61748
0.00130885
2.04785
1.23552
2.82928
-2.4489
2.22649
0.742858
2.88713
-1.7451
-1.00099
2.93218
-2.65312
1.20445
-5.39957
2.50596
2.83885
1.83555
-2.29777
1.7166
2.15105
-2.08674
0.890398
-3.23471
2.299
-2.9398
-0.592121
-4.92814
-4.88604
2.11253
0.724477
-4.76866
0.848742
2.83057
-0.584172
-0.0818237
-4.89184
-1.3383
1.34643
-0.427855
1.65697
1.53455
-4.45171
3.16399
-0.22011
2.43705
2.35121
-0.490506
-0.0157132
1.43331
-2.27257
-0.599085
1.41462
1.20384
-0.454826
1.53974
-1.36337
2.55494
1.87438
0.6429
-0.149546
1.82034
-0.597601
1.16196
2.19309
0.366595
0.0012609
2.1268
1.7544
-1.16252
-3.64533
1.21117
1.84052
2.84369
-4.35537
3.00441
2.99361
3.05513
-0.161683
2.07269
-7.47621
1.718
2.22433
2.21649
1.82275
2.44232
3.32426
1.54455
-4.68563
0.024481
-5.20717
3.29664
0.880696
-0.0889223
-3.77051
1.67931
2.52647
1.54998
0.576605
-0.331974
2.4862
-3.11266
1.75012
-4.05341
0.887465
-0.117807
0.409083
1.06192
-7.13708
-7.43413
-0.358049
-1.09922
-0.0468014
2.0324
-0.185789
0.209347
1.52756
-5.80175
0.960461
-0.0115117
-5.2709
-6.48397
-4.9413
2.33818
2.54811
-3.28171
0.88007
2.16909
2.0701
0.0226466
-9.7842
1.79995
-4.9075
2.32312
-4.74966
2.26284
1.19123
0.368417
2.1276
1.09129
2.18513
0.61065
0.908804
-1.19467
-3.55567
-6.66323
-0.19734
2.14449
-9.8427
-2.19283
-8.28732
2.47419
2.15493
0.760702
1.19177
2.44244
-2.49234
1.55794
-0.0537568
-1.22165
1.5532
-3.71885
-5.18206
-1.41552
-5.11827
-0.799954
-12.7216
-0.0719223
-5.19316
-3.7333
1.33077
2.89144
3.14543
2.74114
-11.1689
1.77063
-7.33578
1.51713
2.46291
0.393446
2.10572
-6.96631
0.602535
-1.25999
-0.0162083
2.29309
-0.920331
1.86503
-5.04692
-0.304579
-5.11361
1.95132
1.85005
1.72187
-5.84662
1.54684
-0.465364
-4.84789
-4.9153
0.559862
2.89208
-2.95782
-0.918323
-4.41659
1.5987
1.66453
-0.209664
1.15883
-5.54104
2.47871
2.32237
-1.80473
-0.233957
2.39083
-3.7197
-10.8621
0.119624
2.20412
2.46112
-6.8286
1.12059
-0.0299107
2.84461
-4.71742
-3.45788
-0.0441986
2.6546
0.0989575
-1.19302
-0.152468
2.26667
1.41629
2.25757
-0.0983249
-2.70369
1.82831
3.26176
-3.64024
1.45027
0.0516665
-3.94911
0.084378
0.622084
-4.50861
1.09021
-1.42631
1.20603
-0.777844
-1.92777
2.06625
2.47324
1.5375
-2.13088
-3.06673
1.90402
-5.21981
0.546098
-1.14939
0.811414
-5.58244
1.8958
1.90854
0.0416137
1.78468
2.78909
-0.705848
1.30181
1.91773
-4.94836
1.15603
-0.612902
0.800881
0.508519
1.4161
0.00476895
0.58521
-0.591993
-2.59201
2.3195
0.575602
0.330549
-4.22244
-0.547923
1.76479
-5.83365
3.04154
-5.48396
-5.11856
-0.333615
2.16062
1.85941
2.2136
-4.79524
2.68214
-8.9707
1.25589
0.144449
-4.45161
1.62227
0.755572
-0.673035
1.09115
-5.19577
1.4445
-4.99761
-4.27861
0.00804719
-4.18555
-4.46338
1.44064
2.75864
-0.105667
-7.55857
2.12845
-2.9353
2.49737
0.668794
0.157353
1.125
1.74028
0.8513
-0.34689
0.0362964
0.0623481
0.574608
0.769231
-5.20663
-4.57417
0.0199446
0.906207
0.0546326
3.31472
1.76477
1.70978
2.52285
0.428899
1.90875
-5.68108
-3.79459
-6.13869
1.72866
3.2398
1.52576
-1.09753
2.32347
1.52359
1.55035
-0.133275
0.0548267
0.877419
3.05532
-0.0600744
-1.87321
2.34587
2.37247
1.72261
1.63056
2.0247
1.14725
-0.64762
-9.46271
1.80542
-4.04547
-3.49039
1.64268
-7.51855
-0.179435
0.441881
1.77449
1.84512
1.87718
0.0344296
2.20881
2.2638
0.386884
1.97468
1.71507
1.5647
1.42077
1.05854
0.831854
-0.219194
2.14557
1.95983
0.192329
1.47294
0.00848243
-0.097351
2.73802
2.04043
0.0107085
-8.17034
0.218318
2.10464
1.13126
0.581197
-0.124918
0.199358
-1.78779
0.328583
-5.66842
-0.223378
1.1604
-0.497308
-5.38636
-5.82841
2.57421
-4.37067
-4.66942
-6.76412
2.77935
-0.62286
0.434329
0.499439
-4.88486
1.46039
1.63461
0.981014
2.42344
1.30447
0.128004
-5.07714
-7.98258
0.0224296
2.01102
0.231355
-6.93011
-4.43465
-1.26973
-4.98963
-6.07703
-3.03138
-0.53713
0.754789
1.70051
2.1499
-0.948742
-0.0699992
2.43368
1.85845
-6.77649
0.00977276
-5.15062
0.972684
0.165847
0.90493
1.50383
-0.0151653
-0.781943
-1.20709
0.605264
-9.69352
-4.97749
0.0525092
-9.12082
-5.15092
-4.89428
-7.90519
0.0745876
-4.80331
0.831931
-6.49224
1.70968
1.55866
0.439695
2.18787
-12.2287
2.76836
-1.64473
0.19914
-1.30423
1.63418
0.990605
-3.59646
-4.32661
1.76154
2.08298
2.87296
-8.21453
-5.08935
-12.0846
-0.47985
0.0069042
-5.42834
0.507524
-4.99291
0.963419
-7.28334
1.20956
0.0599612
-0.272035
2.53033
1.43904
-0.827538
-0.0640837
-1.94917
-4.63965
2.24749
3.14487
-4.68451
2.01698
1.53606
0.00128208
-0.470767
2.13083
2.07339
-3.08272
-0.481856
-6.81426
-13.0444
-1.18045
-5.08873
-0.97856
1.25107
0.00377429
1.90137
-6.71232
-4.88929
1.63588
-1.04292
-4.90046
0.230837
1.41952
-4.85818
-0.618158
-4.66041
-5.53046
-4.94747
2.9161
-4.21412
-0.177653
-8.02781
1.8196
-5.05769
-0.086925
-3.08023
-9.84457
-1.21587
1.86421
0.00349336
-5.22621
1.41925
0.0160852
-2.38652
-4.82503
-6.05262
1.12275
1.31996
1.71838
-3.46324
2.48504
-1.65641
0.00252758
-0.606696
-2.44684
-10.0492
-5.57948
-5.30166
0.419613
0.831656
-0.116805
-0.205099
-1.92051
1.52086
-11.9333
1.8058
-7.03468
1.16511
-0.78816
-0.360395
0.150961
3.26306
-0.514632
-4.87923
-2.93765
-2.09789
1.72634
-0.18765
0.17088
-0.00097626
-3.92061
-8.0481
-3.74049
-5.04299
1.78606
-5.90057
0.341107
-4.26266
0.00512205
1.42567
-0.489913
0.668379
-0.657474
2.16957
-5.06305
-3.7817
2.32948
0.656837
-5.05025
-0.231681
-5.77656
-1.87296
-0.375435
2.12661
-4.76361
0.867922
-4.94425
-5.21312
-7.5257
-6.36956
-5.14448
0.906555
-0.603939
1.68328
0.800466
-9.59857
-0.241465
-11.3699
2.10891
2.46357
-4.88195
0.309714
1.78109
1.70594
1.24916
-4.82278
-4.84655
-4.22957
1.73335
0.612817
-2.3345
-5.84351
0.884509
2.05115
-0.13696
0.189044
0.212609
2.30171
-1.73969
-1.86516
-0.107672
1.51944
0.35508
0.126408
2.50139
2.10375
-0.137843
-8.89298
2.09605
0.966486
0.0237737
1.48832
-1.2869
-5.0175
-4.59141
-7.46556
2.08588
1.7415
-0.371272
-1.18744
0.0818014
-0.132622
1.79003
-10.3146
1.193
2.18582
2.34782
-1.52715
1.67814
1.41898
1.81569
1.93244
-0.0295721
1.94444
0.00250514
1.72955
1.09676
1.83242
-7.16441
2.11174
1.99241
1.5785
1.23752
-3.47458
1.12228
-0.577474
-1.61743
2.24024
2.3274
-9.5088
2.01798
-6.24835
-3.83325
1.77768
1.80862
-3.00264
-0.048318
-5.10176
-9.73899
-1.01699
-3.5072
-3.30516
-0.270781
1.48748
3.05719
2.07913
-1.13825
-1.81845
1.73773
1.00107
-0.686401
-5.46927
-3.04343
-1.79555
-3.88452
-3.54747
1.65942
0.0571273
0.952516
0.0220816
0.0221522
0.075769
0.0225488
0.429443
0.7911
1.31172
-1.54559
0.698731
-2.45649
-12.6301
1.12745
1.04273
-0.287118
-0.00167595
1.25532
-0.167572
0.811339
-1.37617
1.68847
1.35526
2.65192
1.71682
-5.16821
-0.302679
-1.20932
-2.62322
-0.113753
-0.105738
-0.443062
-9.10694
3.11275
0.0345317
0.0428768
2.45808
-4.6054
-0.792237
-0.450758
-7.4075
-4.75329
0.385825
-1.50922
1.57993
-0.623296
-4.72845
0.18192
-2.40279
-1.42166
-0.563831
0.00104633
1.40621
-2.89782
-3.73604
-1.635
0.656589
-2.05575
1.81121
2.52549
-2.57257
1.84641
0.901618
1.31485
2.80303
-5.18347
1.14528
0.869718
0.891266
2.37903
-0.210554
-0.475755
-0.460706
1.77163
2.52305
-4.82688
-0.0719034
-2.78523
-2.00065
0.99571
-3.89552
-2.56209
-3.4125
0.819789
-4.77766
0.394529
0.550514
1.5498
0.310943
-4.56762
0.0184141
-0.170131
-0.335425
2.697
3.03011
2.22691
3.21163
1.59675
1.02781
1.84907
1.58506
1.66423
-2.98622
1.68914
-0.303687
-3.83621
2.47736
-0.611413
-1.84756
2.91772
0.163376
-11.6235
1.01868
0.894281
2.07198
-2.46305
1.62633
2.72613
-4.76552
-3.87006
-2.14818
1.15288
-6.72285
2.12511
-0.0985247
2.0894
1.71421
-3.95321
1.94056
-0.981837
-5.07465
-4.87502
-8.16453
1.98863
-2.2141
1.77577
-0.1963
-5.25043
-0.00257236
0.00137633
-1.19368
-4.04934
-4.65985
2.02669
0.466629
-4.94119
-0.502635
1.22511
0.459335
-10.714
0.960501
-0.182351
0.965261
-4.90592
1.13875
0.581445
0.933244
-0.347558
1.54728
1.00982
0.652151
-5.15359
3.18817
-1.36037
-4.769
1.54928
1.35236
-5.00689
-1.78856
-6.65467
0.979499
0.839293
-1.914
-0.0650282
-0.280423
3.18392
0.0729096
-4.87935
-0.0104829
-1.21872
1.0875
-0.707172
1.50435
1.21779
-6.26467
1.05401
-4.98672