/*--------------------------------*- C++ -*----------------------------------*\
| =========                 |                                                 |
| \\      /  F ield         | OpenFOAM: The Open Source CFD Toolbox           |
|  \\    /   O peration     | Version:  2306                                  |
|   \\  /    A nd           | Website:  www.openfoam.com                      |
|    \\/     M anipulation  |                                                 |
\*---------------------------------------------------------------------------*/
FoamFile
{
    version     2.0;
    format      ascii;
    arch        "LSB;label=32;scalar=64";
    class       surfaceScalarField;
    location    "6.75";
    object      phi;
}
// * * * * * * * * * * * * * * * * * * * * * * * * * * * * * * * * * * * * * //

dimensions      [0 3 -1 0 0 0 0];

oriented        oriented;

internalField   nonuniform List<scalar> 
20045
(
0.245324
-0.267073
0.0217484
-0.530937
0.187235
0.343702
0.199621
0.990127
-1.18975
-0.0860789
0.138645
-0.0525659
-0.42427
0.407432
0.0168378
-0.30679
1.13251
-0.825721
-0.503387
0.210138
0.293249
0.0314206
0.217011
-0.248432
0.240909
0.205097
-0.446007
-0.418733
-0.047385
0.466118
-0.189281
-0.191224
0.380505
1.12966
-0.540296
-0.589362
0.174327
-0.176622
0.0022959
-0.639416
0.555803
0.0836126
-0.156395
0.525488
-0.369093
-0.543286
0.124552
0.0151639
-0.046292
0.0311281
0.312805
-0.278872
-0.0339326
-0.830041
1.22257
-0.392529
-0.374719
0.0263124
0.348406
-0.116667
0.0575377
0.0591291
0.0583726
0.115954
-0.0631997
-0.467737
0.440703
0.572348
-1.01305
0.409233
0.111009
-0.520242
-0.595068
1.03577
0.0185486
-0.0184785
-7.00528e-05
-0.682254
1.2809
-0.59865
0.857187
0.138148
-0.995335
-1.26959
0.694452
0.575139
-0.22359
0.122836
0.100753
0.710366
-0.504742
-0.205625
-0.376272
0.843273
-0.467001
1.21169
-0.70621
-0.505483
-0.278681
0.310102
1.04116
-0.506149
-0.535013
0.70212
0.049118
-0.751238
-0.0295317
0.18293
-0.153399
-0.967581
0.451025
0.516556
0.299354
0.260602
-0.559957
0.0221653
0.203813
-0.225978
0.0629599
-0.0903287
0.0273688
1.07054
-1.07168
0.00114092
0.745245
-0.280794
-0.464451
0.349852
0.395392
0.510269
0.619389
-0.129521
0.0770163
0.0525046
0.646682
0.259401
-0.906084
0.838181
-0.136061
0.0881167
0.982065
-1.07018
0.650834
-1.09981
0.448972
0.885938
-0.635433
-0.250506
-0.591622
-0.423204
1.01483
-0.0458821
-0.148367
0.194249
0.368507
-0.152631
-0.215876
-0.34537
-0.0788995
-0.118656
0.871346
-0.75269
0.761171
0.0861713
-0.847342
0.574108
-0.95038
0.932943
-0.546979
-0.385964
-0.190706
-0.167215
0.357922
0.462503
0.47044
0.269936
-0.900411
0.630474
-0.0157438
-0.100923
0.796622
-0.195579
-0.601043
0.80251
0.0330245
-0.835534
0.0692262
-0.148311
0.0790853
-0.333053
0.0817598
0.251293
0.424917
-0.184008
0.826731
-0.84039
0.0136594
0.134554
-0.0653281
0.0190812
0.349426
-0.126607
-0.522927
0.649535
0.0782354
-0.134815
0.0565797
0.892866
-0.238657
-0.654209
0.673918
-0.792574
0.059506
0.83336
0.222431
-0.378826
0.081084
-0.173984
0.0928998
0.168609
-0.61263
0.444021
0.51875
0.596659
-1.11541
0.449051
-0.346072
-0.102979
0.72599
-0.456054
-1.33419
0.240601
1.09359
0.00874497
0.236579
-0.272705
0.306728
-0.0340228
0.295426
-0.666093
0.370667
-0.803498
0.0354924
0.768005
0.517983
0.0745084
-0.592492
-0.421326
0.3903
0.0310256
-0.715264
-0.105763
0.821027
0.364118
-0.0682626
-0.295855
0.19926
-0.286409
0.0871485
-0.0793398
-0.406302
0.485642
0.289231
-0.310258
0.0210274
0.761748
0.17832
-0.940068
-0.00876626
0.0273148
-0.0874757
0.20488
-0.117404
0.611168
-0.311814
0.0269378
-0.065749
0.0388112
0.702618
0.338545
-0.225607
-0.413809
0.129819
-0.217294
-0.170614
0.931785
-0.003516
-0.269189
0.0694184
-0.0424807
0.230028
0.602942
-0.83297
0.520317
-0.894039
0.373722
-0.0484369
-0.208984
0.181935
0.0270498
-0.0987251
0.12615
-0.0274253
0.611642
-0.453915
-0.157726
-0.243719
0.197837
0.636027
-1.14368
0.50765
-0.082945
0.15552
-0.0725745
0.0224877
-0.122288
0.0998007
0.580249
-0.171016
0.867801
0.343893
-0.586206
0.459599
0.677596
-0.925913
0.248317
0.247118
0.0656866
-0.370744
0.180038
-0.384624
0.310481
0.0741433
-0.447263
0.0498838
-0.290717
0.240833
0.617583
0.268355
0.550601
-0.714868
0.164266
0.814068
0.093453
-0.907521
-0.986187
0.736984
0.249202
0.0458644
-0.670557
0.624693
0.929189
-0.311606
0.162501
-0.0854847
0.12521
-0.0535256
-0.0716844
-0.0454214
0.0343741
0.0110473
0.569916
0.401976
-0.971892
0.596886
-0.578772
-0.0181145
-0.174127
0.106113
0.0680141
-0.150077
-0.0589072
1.04855
-0.370957
-0.325058
0.342853
-0.0177944
0.639982
-1.15881
0.518827
0.176551
-0.768173
0.562004
0.226405
-0.788409
0.689424
-0.520815
0.964634
-0.131169
-0.833465
0.546164
-0.938996
0.392832
1.01059
-0.64585
-0.364743
-0.126179
0.231974
-0.105795
-0.0244684
1.09576
-1.0713
1.07543
-0.21824
-0.825982
0.0271898
0.798793
-0.477314
0.410979
0.0663351
1.00198
-0.483233
0.170861
0.278191
-0.632429
0.7809
-0.148471
-0.850711
1.05033
0.0102275
-0.154314
0.144087
-0.0118938
0.0230484
-0.0111546
-0.0173448
-0.184383
0.201727
1.06943
-0.263313
-0.80612
1.38019
-0.689396
-0.690795
-0.219255
0.20191
0.337663
-0.656134
0.318471
0.0740858
-0.0111259
-0.806047
-0.46755
0.690717
-0.223168
-0.675038
0.487131
0.187907
-0.0122881
-0.0216439
0.0339321
0.470762
0.53983
-0.023868
-0.0215534
-0.000300565
0.125511
-0.711849
0.0794195
-0.732892
0.932123
-0.199231
-0.662588
0.756128
-0.0935401
-0.584288
-0.432208
1.0165
-0.299369
0.347795
-0.048426
0.458247
-0.468435
0.0101883
0.972959
0.0426017
-1.01556
0.01585
-0.759826
0.743976
-0.361704
0.923708
0.191448
-0.542987
0.351539
-0.488961
1.12499
-0.825214
0.544009
0.281205
0.226422
-0.239106
0.012684
0.507563
-1.27108
0.763515
-1.00883
0.326574
-0.60577
-0.433367
1.18288
-0.707821
-0.475057
-0.271235
0.2934
0.122949
-0.129994
0.00704534
-0.750924
-0.12586
0.876785
-0.89275
1.25237
-0.359617
0.915531
-0.682283
-0.233248
0.0861732
-0.250403
0.16423
-0.294438
-0.460592
0.75503
0.213029
-0.402309
-0.599412
0.645276
-0.702106
-0.226375
0.92848
0.0881941
0.0242183
-0.112412
0.14581
-0.61336
-0.11344
-0.11015
0.874654
-0.0605861
-0.137816
0.108284
-0.131645
0.161098
-0.0294525
0.149033
0.9204
-0.810919
0.516481
0.145096
0.0454095
-0.190505
-0.702156
0.135344
0.566812
0.2804
0.635131
1.33858
-0.831019
0.77318
-1.33465
0.561466
0.272279
-1.02272
0.750442
0.029048
-0.403767
-0.486285
0.716312
0.661564
-0.968354
0.410743
-0.815104
0.404361
-1.37544
0.786807
0.588632
-0.0137644
-0.407562
0.1778
0.138991
-0.316791
0.740812
-0.245517
-0.495295
-0.0505851
-0.759424
0.734955
-0.249826
-0.0752325
0.678085
1.05985
-0.860126
-0.19972
-0.010117
-0.124249
0.134366
0.675801
0.125627
-0.801428
0.276209
-0.353901
0.0776915
-0.214411
0.742552
-0.528141
-0.43834
0.733766
0.565088
-0.37364
-0.0582097
0.171166
-0.112957
0.978854
-0.338872
0.0869377
-0.00806532
-0.0788724
0.0150656
-0.198962
0.183897
-0.10198
0.105918
-0.00393758
1.16377
-0.731288
-0.432484
0.245554
-1.1383
-0.111436
0.00945568
-0.873146
0.282619
0.590527
1.28201
-0.438734
0.247941
-0.980833
1.34688
-0.587523
-0.759361
-0.0116017
0.0997957
0.828325
-0.451403
-0.376922
-0.611058
0.140237
0.470821
-0.933479
0.938042
-0.00456308
0.352778
-1.00116
0.648387
0.0317777
-0.0385084
0.00673079
-0.464951
0.63184
-0.166889
-0.110769
0.342227
-0.231458
-0.140967
0.0580216
-0.114716
0.0159913
-0.546423
-0.347616
0.412765
-0.831015
0.41825
0.0519107
0.236525
-0.288436
0.406893
0.303473
0.741993
-0.33125
-0.00145986
-0.0104339
0.710512
0.571495
-0.489939
0.0120423
0.477897
0.359764
0.468561
0.381318
0.14417
-0.177238
0.229149
-0.282779
-0.0236208
0.3064
-0.00562265
0.232045
-0.786551
0.57214
-0.122208
-0.0112981
0.133506
-0.929875
0.894566
0.0353086
-0.333935
0.511347
-0.177412
-0.219706
-0.103879
0.323586
0.764798
-0.828905
0.0641066
-0.837089
-0.538349
1.28648
-0.817865
-0.468619
-0.0910677
0.0809507
1.09444
-0.741664
-0.441203
0.853968
-0.282499
-0.0893509
0.37185
0.855762
-0.213418
-0.642344
1.11565
-0.318371
-0.797281
-0.41286
0.130361
0.832757
-0.49305
-0.339707
-0.158862
0.782676
-0.623814
0.541605
-1.06917
0.527567
0.252313
0.129216
-0.381529
-0.0428441
0.0107781
0.0320661
1.28491
-1.06439
-0.220519
-0.515093
-0.471093
0.707895
0.351951
-0.849224
-0.0806508
0.132654
-0.117588
0.157953
-0.5973
0.439347
0.0038058
0.119143
-0.539763
1.10968
0.457858
0.705915
1.28559
-0.77539
-0.510196
-0.780654
0.55428
0.718562
-1.20503
0.486471
-0.627689
-0.0383087
0.665998
-0.238561
-0.170104
0.408665
0.539546
-0.201883
-0.0426811
0.187777
0.469803
-0.0320052
-0.472736
-0.675733
0.903773
-0.22804
-0.151489
0.019844
-0.0716254
0.0134158
0.115431
-1.04891
0.358079
-0.796419
0.0872571
-0.188423
0.258397
-0.069974
0.0149216
-0.101001
-0.501343
0.379585
0.121758
0.348982
0.26266
0.444795
0.0674675
-0.512263
0.492586
0.1043
-0.405956
0.563909
0.570859
-0.0528758
-0.204685
-0.497471
1.06782
-0.838559
-0.229257
0.851628
-0.747122
0.285477
0.461645
0.799622
-0.865029
0.0654068
-0.433292
0.353952
-0.110152
-0.0639752
-0.118365
-0.596899
0.287282
-0.538612
0.25133
0.417496
0.415261
0.696746
-1.13928
0.442533
0.229734
-0.533063
0.303329
-0.972511
0.169014
0.0134209
0.350697
-0.568067
0.866736
-0.298669
-0.253864
0.302151
-0.0482869
-0.408138
-0.0952486
-0.122034
-0.225573
0.347607
0.0783967
0.000901371
-0.079298
-0.324208
-0.153106
0.377332
0.444439
-0.821771
0.76501
-0.405246
0.281265
-0.449543
0.016251
0.462263
-0.23253
-0.664628
-0.160586
0.293341
-0.361409
0.0680677
0.975948
-0.329266
-0.46469
0.750833
-0.286142
-0.111375
0.128991
-0.0176156
0.742913
-0.00210142
-0.248764
-0.348536
-0.510178
0.92884
-0.418662
0.626529
-1.13451
0.507983
0.590942
0.695542
0.00459183
-0.0339076
0.0293158
0.0876081
-0.715298
0.660655
-0.999595
0.33894
0.0901973
-0.0119619
-0.0810009
0.631602
-0.354262
0.712341
-0.701764
0.974043
0.188872
-1.01891
-0.881971
0.482942
0.399029
0.636223
-0.0993098
-0.536913
0.934673
-0.169875
-0.482783
-0.529105
-0.469046
0.554297
-0.0334033
0.210683
-0.177279
0.316445
-0.290132
-0.718225
0.637224
0.843912
0.226625
-0.786993
0.322303
1.04321
-0.335311
-0.201319
0.342618
-0.141299
0.022019
-0.631403
0.609384
-0.902425
0.169732
0.732693
0.72644
-0.72644
-0.321281
0.712436
-0.391155
0.561168
-0.116373
0.676094
-0.369569
-0.306525
-0.9586
0.993591
-0.0349913
0.334584
-0.0425941
-0.291989
0.256811
-0.107728
-0.149083
0.104683
-0.324389
0.129098
0.455583
-0.896786
-0.860311
1.01378
-0.153473
-0.282551
0.659883
0.108057
0.00144533
-0.109502
-0.0997976
0.0302108
0.0695868
-0.374502
0.40355
1.22214
-0.992048
-0.230093
-0.0823147
-0.528022
0.610337
-0.223627
0.244204
-0.0205775
0.117619
-0.271755
0.154137
-0.978765
0.365042
0.613723
0.0817744
0.0568704
-0.321547
0.120228
0.0241051
-0.110377
0.0862717
0.603813
0.681095
0.0984067
0.00965043
-0.0430705
-0.29152
0.33459
-0.50363
0.803093
-0.299464
-0.00299642
0.0806882
-0.0776918
0.426241
-0.216103
0.702527
-0.216326
-0.486201
0.00701717
-0.413319
0.135846
0.837113
0.433158
0.294627
-0.727785
0.459565
-0.410245
-0.0493203
-1.01262
0.186636
-0.421476
0.172167
0.249309
0.485317
0.624796
-1.11011
-0.626589
0.58828
0.0447396
-0.914144
0.869405
-0.121183
0.207356
0.232595
-0.257118
0.0245228
0.0235789
-0.306358
0.000318169
0.0411705
-0.0414887
-0.673168
-0.199978
0.618792
0.0649679
0.00199255
-0.0669605
-0.116377
0.00500215
0.171692
-0.709806
0.538114
0.242574
0.544687
-0.787261
0.407488
-0.713344
0.872119
-0.158775
-0.717097
0.558235
0.0031861
-0.0216646
-0.39117
-0.283868
-0.249238
0.064624
0.184614
-0.874816
0.371186
0.66969
-0.752005
0.424427
0.618778
-0.299651
0.300971
-0.00131968
0.406068
-1.05979
0.653726
0.142906
-0.25998
0.117074
0.375247
-0.624011
-0.63749
-0.0250972
-0.304598
-0.0284553
0.0843146
-0.0583243
-0.0259902
0.385052
-0.00029941
-0.0265433
0.0268428
1.0464
-0.561082
-0.498181
0.882912
-0.384731
0.260972
0.178141
-0.439113
-0.362093
0.24091
-0.208902
-0.040336
0.436498
0.239596
-0.197528
-0.728385
0.361563
-0.0682223
0.616131
0.403578
0.167281
-0.941284
1.0294
0.123487
-0.47036
0.346873
-0.08576
-0.828015
0.913775
-0.242566
0.25189
-0.00932414
-0.242404
-0.0569647
-0.536639
1.07824
0.988666
-0.442502
-0.432967
-0.0683763
0.00885997
-0.407185
0.398325
0.409351
-0.993639
-0.129628
-0.468213
0.597842
-0.0731977
0.117028
-0.0438306
-0.651717
0.054358
0.597359
0.949665
-0.690264
-0.0173416
0.0786649
-0.0613233
-0.207574
-0.0160532
0.179659
0.357998
-0.537658
0.0963904
-0.121745
0.0253543
0.608017
0.350158
-0.958175
-0.378488
1.14024
0.0762828
0.00211388
-0.271412
-0.578963
0.850375
0.335033
0.71352
0.949501
-0.706926
-0.342327
0.220293
-0.0444533
0.00160914
-0.447778
1.16634
0.136417
-0.767043
0.630626
0.89978
-0.14384
-0.75594
-0.486233
0.712917
-0.226684
0.396366
-0.433051
-0.440726
0.873777
0.0704187
-0.101586
0.0311669
-0.284882
-0.485137
0.770019
-0.0843106
-0.015487
0.0277896
-0.0400777
0.505668
-0.79055
-0.706999
-0.206987
0.913986
-0.0652192
-0.476944
0.542163
0.170557
1.20649
-1.22739
0.0208916
0.203979
-0.147307
-0.0566719
0.00427353
-0.303925
0.257877
0.227765
-0.31397
0.0754091
-0.81651
1.02548
-0.208973
-0.209108
0.0868993
0.29618
0.393244
-0.820125
-0.251553
-0.0256235
-0.0308017
0.0564252
0.533681
-0.130103
-0.193028
0.212781
-0.0197531
0.229438
-0.340206
-1.17943
0.573661
0.941439
0.191072
-0.127175
0.244793
-0.197858
0.45883
0.878129
-0.422546
-0.200214
0.00718567
-0.106121
-0.612104
0.204485
0.206364
-0.196136
-0.918534
0.0161088
1.76041e-05
0.204614
-0.0617083
-0.936086
0.64931
0.286776
0.695095
0.131636
0.180013
-0.0582958
-0.121717
0.275517
-0.256404
-0.0191127
-0.784107
0.277958
-1.03347
0.523294
0.11149
0.131406
-0.242896
-0.0446936
0.226439
-0.181745
1.01718
-0.00163509
-1.01555
0.141711
0.00803497
-0.149746
-0.134249
-0.250375
0.219733
-0.020473
0.134078
-0.124503
-0.00957519
0.383505
-0.0559363
-0.327569
0.0312008
0.102877
0.835279
-0.656959
-0.0286714
-0.136714
0.165385
-1.02101
0.2045
-0.00651127
-0.147037
0.276856
-0.0460317
0.111
-0.00365503
0.00219517
0.237664
0.157926
-0.39559
0.561774
0.234848
0.44343
-0.319943
0.188032
-0.165544
0.0619228
-0.315787
0.618484
0.00415006
-0.622634
0.531236
-0.0327925
-0.498444
-0.576464
-0.362532
-0.258846
-0.0839536
0.342799
0.403517
-0.431784
0.0282665
1.11342
-0.0408761
-1.07255
-0.353425
0.00616746
0.347257
-0.49289
0.656334
-0.163443
0.579176
0.661865
-1.24104
0.194123
-0.361338
-0.266731
0.425337
-0.158606
0.2093
0.0941295
-0.30343
-1.12605
0.624298
0.501755
-0.104556
-0.0199467
-0.844126
0.137127
0.293747
-0.180834
-0.112913
0.488159
-0.615004
0.126845
-0.0807352
-0.186338
0.186391
1.0201
0.819711
-0.134921
-0.68479
-0.848543
0.135199
0.338006
-0.542691
0.745614
-1.16549
0.419879
-0.0964152
0.274216
-0.00417443
-0.384858
0.341788
-0.155925
0.205809
-0.129009
-0.793295
0.922305
0.465242
0.629199
-0.744803
0.773324
-0.0285206
0.0603124
0.0240022
-0.614091
-0.25741
-0.10801
0.120431
-0.012421
0.496179
-0.26408
-0.232099
0.0212664
0.0208713
-0.0421376
-0.0664443
0.554603
-0.775904
-0.105215
0.881118
-0.72181
-0.250233
0.972043
0.473421
-0.346293
-0.127128
-0.167777
0.0183047
0.149473
-0.313288
0.067913
0.245375
-1.01591
0.0458589
0.970055
0.026241
0.177776
-0.204017
0.807335
-0.908142
0.100806
-0.520798
0.932149
0.15953
-1.09168
0.0101865
-0.118197
-0.120591
-0.586474
0.707064
0.60548
-1.09444
-0.948228
0.823346
0.124882
0.111916
-0.0155257
0.710984
-0.414804
-0.0459771
-0.246164
0.292141
-0.00834049
0.122192
-0.113852
-0.200047
0.913729
-0.713681
0.753952
-0.410799
-0.343153
1.03638
-0.980889
-0.0554897
0.789969
-0.295165
-0.494805
0.042956
-0.215092
0.172136
-0.279364
-0.0113535
-0.921252
0.809844
0.111408
0.0534629
-0.974714
-0.266032
0.49861
-0.232577
-0.594413
-0.469975
0.178114
-0.155801
-0.0223134
-0.798918
-0.222093
-0.169271
0.112016
0.0572542
0.053973
0.222236
-0.881641
0.851299
0.0303419
-0.17609
-0.110875
-0.0239404
0.153344
-0.0116329
-0.601961
0.13701
0.122465
-0.148973
0.0265079
-0.827499
0.421427
0.406072
0.35394
-0.0193561
-0.245781
0.683467
0.0594465
0.351046
-0.00441917
0.21343
-0.209011
-0.0854509
0.543697
-0.603436
0.389551
0.213885
-0.152906
0.0483498
1.06867
-0.603429
0.909249
-0.50318
-0.244493
-0.152798
0.397291
0.446607
-0.900357
0.45375
0.546786
-0.612005
0.975999
-0.432433
-0.543566
-0.00339099
-0.509287
-0.0941491
-0.774014
0.716605
0.057409
0.0837723
-0.326075
1.09925
-1.06782
0.268905
0.37867
-0.126357
-0.0888496
0.0437949
0.108794
-0.00287638
-0.492784
-0.509443
1.2719
-0.59798
-0.257226
0.33273
-0.075504
0.0622182
0.194593
-0.662276
-0.391692
1.05397
0.209255
0.330291
-0.00301474
-0.130185
0.1332
0.820566
-0.269379
-0.00366615
0.273045
0.63501
-0.0165255
-0.353836
-1.03146
0.171149
-0.200908
0.00922387
0.191684
0.575415
0.771469
0.541887
-0.37059
-0.171297
0.982237
0.0541413
0.601484
-0.855256
0.253773
-0.830716
-0.0123328
0.843049
-0.750539
0.977837
-0.227298
0.12444
-0.00439529
-0.120045
-0.469587
1.07507
-0.320144
0.00124186
0.318902
0.0204023
-0.765205
0.141042
-0.0465981
-0.094444
-0.958713
1.24653
-0.287819
-0.233236
0.529537
-0.296301
1.16163
-0.511022
-0.650606
-0.010009
-0.592782
0.602791
-0.227066
-0.0300519
-0.525285
1.10446
0.390903
-0.712184
1.1111
-0.484576
-0.172176
0.143504
-0.868947
0.0382314
1.20288
-0.506138
-0.0232915
-1.3109
0.22381
-0.0199972
0.332947
0.522578
-0.855525
0.544043
-0.119156
-0.424887
0.985385
-0.969872
-0.0155127
-0.122841
0.00908439
0.113756
-0.196974
-0.473027
0.670001
0.338572
-0.276649
-0.338206
0.103148
0.235058
0.118791
0.289441
-0.408232
0.0742666
0.103847
-0.88031
1.03119
-0.150879
-0.212782
-0.0297843
0.446889
0.198917
-0.645806
0.581565
0.51032
-1.09188
0.149723
0.4865
-0.0177685
0.982402
0.00268835
0.783487
-0.786175
0.00499344
-0.00798986
0.0826271
-0.00448434
-0.0781427
1.03286
-0.940734
-0.0921257
0.446923
0.529076
-0.0817142
0.0377094
0.0440047
-0.288811
0.804534
-0.515723
0.012948
0.142507
-0.155455
0.523978
-0.864828
0.340849
-0.436475
-0.580609
1.01708
0.843557
-0.167756
0.299153
0.24489
-0.418302
-0.0782553
0.496557
0.279866
-0.807888
0.0226382
-0.316992
0.294354
0.174922
-0.0746781
-0.100244
0.0117574
-0.238823
-0.0688433
0.610298
-0.541454
-0.149776
1.13184
0.770321
-0.616508
-0.153813
0.617073
-0.542565
-0.517093
0.15168
0.365413
0.114421
-0.48399
0.0741517
0.00698062
-0.0811323
0.0542065
0.125806
0.137404
0.735114
-0.872518
0.20605
0.177455
0.12041
-0.84222
-0.419786
0.163417
0.256369
-0.317838
-0.229893
0.547731
0.464393
-0.226729
-0.839379
0.556828
0.255815
-0.206319
-0.0494963
-0.462896
0.846644
-0.383748
-0.426589
0.433607
-0.426502
0.540709
-0.114208
-0.559272
0.894837
-0.335566
-0.0199214
0.19134
-0.171418
-0.24814
0.203447
-0.291125
-0.567715
0.88014
-0.312425
-0.541413
0.676757
0.498948
-0.502037
0.00308927
0.27686
-0.0563634
-0.220496
-1.25788
0.840294
0.41759
0.0014864
0.224609
-0.226095
0.0584079
0.690876
-0.890924
0.845666
-0.399059
-0.359728
-0.522243
-0.696946
0.699634
0.499691
-0.01256
0.389416
0.120786
-0.510202
-0.312784
0.288034
0.0247508
0.0679105
-0.144694
0.0767837
-0.171979
-0.369614
0.541593
-0.129376
0.48292
-0.353543
-0.752516
-0.257469
1.00998
0.00830471
0.268555
0.845413
0.187447
-0.807939
0.527521
0.280417
-0.0553724
-0.204062
0.259435
0.00330968
0.162595
-0.211956
0.049361
-0.643732
-0.649989
0.47801
0.121425
0.184798
-0.141842
0.303325
0.192854
-0.00650963
-0.664048
0.0261443
0.263087
0.139875
0.0381734
-0.178048
-0.610437
-0.477375
1.08781
-0.089373
-0.328929
-0.504193
-0.100678
0.604871
0.123122
0.17593
-0.299052
-0.0112955
1.13115
-0.738917
-0.392233
0.167715
0.651996
0.0910419
0.26601
-0.439592
0.173582
-0.476779
0.993482
-0.516703
-0.567263
-0.253331
0.820594
-0.437945
0.171214
-0.411188
-0.105905
0.874578
-0.424864
-0.449713
0.337089
-0.276819
-0.0602695
0.385101
0.0446869
-0.429788
-0.152194
0.178435
0.291903
-0.38983
0.0979274
0.181153
-0.0235257
-0.195729
-0.00667962
0.467491
0.407087
-0.366157
0.817182
-0.410768
1.10522
0.181321
0.155768
-0.858623
0.29136
0.713767
-0.626159
-0.0950039
-0.615511
0.122621
0.202764
-0.468797
0.723224
-0.701205
0.816707
-0.0170847
-0.183493
-0.102916
-0.281127
-0.0660093
0.347136
-0.277061
-0.0331968
0.705209
0.15059
-0.855799
0.0292064
-0.241663
0.212456
-0.000261125
0.353407
-0.81085
0.457442
0.873833
-0.0664979
-0.966744
1.02736
-0.0606208
0.204439
-0.122679
-1.07835
-0.179533
-0.327104
0.838615
-0.028771
0.415233
1.12014
-0.409416
-0.710722
-0.635579
-0.0414155
0.676994
0.205657
0.508831
-0.714488
-0.682059
0.0303417
-0.159138
-0.147157
0.306294
-0.463274
0.599691
0.125865
0.514853
-0.640718
-0.0724116
0.131416
-0.0590047
-0.962541
0.110442
0.8521
0.332899
0.512766
-0.222248
0.560483
0.229486
-0.299803
-0.121673
0.778082
-0.909251
-0.025839
-0.40109
0.426929
0.341782
-0.147659
0.665305
0.0469086
-0.712214
0.709541
-1.12031
0.00949192
0.0222857
-0.410936
0.567696
-0.15676
-0.696049
0.575459
-0.0159378
0.262216
-0.246278
-0.380415
0.183582
0.196833
0.0684899
-0.310894
-0.243262
0.581267
0.208939
-0.0974493
-0.13671
0.146897
-0.0388418
-0.315059
0.0186301
-0.0571386
-0.170466
0.164231
0.00623504
0.183895
-0.208637
0.0247425
-0.651754
0.413097
0.134071
-0.638264
-0.0148307
-0.256404
0.026293
0.535289
-0.561582
0.303707
-0.327328
0.172186
-0.799166
0.62698
-0.281255
0.723056
-0.441801
0.180602
-0.856335
-0.14685
-0.0254101
-0.922818
0.581111
0.690787
-0.738711
-0.100668
-0.466497
-0.280625
-0.388266
0.162693
0.0649367
-0.0198563
-0.0450804
1.20862
-0.633207
0.862894
-0.202239
-0.222802
-0.140984
0.363786
-1.15702
0.493869
0.663154
-0.424327
0.233103
-0.11746
1.04961
0.14375
-0.0853771
-0.41219
-0.217332
-0.102812
0.377782
-0.348329
-0.0294529
-0.11549
0.820699
-0.0527736
0.290197
-0.237423
0.660724
-1.28691
0.582564
0.704344
0.218842
0.193925
-0.412767
0.582379
-0.264462
-0.317918
-0.49646
0.263224
-0.79499
0.0164813
0.36862
0.885977
-0.971736
0.379902
-0.170601
-0.394464
0.674329
-0.876405
0.625175
0.25123
0.566955
-0.90848
0.341525
-0.687197
0.720917
-0.0337201
0.421957
-0.507408
0.0124638
0.234853
0.238568
0.119973
-0.732603
0.309339
-0.980675
0.522993
0.457682
0.233106
-0.868685
0.706245
-0.0452084
-0.56585
0.132534
0.143035
1.01434
-0.334397
-0.679943
-0.259791
0.245558
-0.563396
0.135413
-0.959286
0.917871
-0.777423
0.344372
0.46885
-0.702615
0.381123
0.321492
-0.822788
0.528238
0.29455
-0.238123
0.00386274
-0.0770605
-0.996937
0.695131
0.301806
0.604234
-1.07382
-0.867111
-0.0131995
1.15004
-0.404431
0.246253
0.0940212
-0.340275
-0.0196145
-0.12148
0.141094
-0.267893
0.472879
0.528056
-0.432432
-0.270183
0.166972
0.1716
0.222519
0.332722
-0.555241
0.347839
-0.208849
-0.0410623
-1.06512
1.10618
-0.308432
0.407203
-0.768907
-0.566506
-0.413529
0.980034
0.230041
-0.298303
-0.64919
0.201736
0.447454
-0.0214396
-0.0115213
0.0329609
0.727918
-0.856928
0.0664503
-0.477387
0.48514
0.443399
-0.928539
-0.347064
0.0898373
-0.793376
0.221845
0.571531
-0.984
0.547526
0.516929
-0.993709
0.524669
-0.550508
-0.0201593
-0.0012803
-0.030274
0.930054
-0.587053
0.725547
-0.138493
0.870577
0.00170518
-0.872282
-0.67383
-0.0117886
-0.176634
0.0640921
0.662348
0.102096
0.0268946
0.270095
0.424864
0.136304
0.48151
-0.0699666
0.137877
-0.829316
-0.0523252
-0.624981
0.280638
-0.732041
0.156181
0.176567
-0.332748
0.787373
0.0464772
-0.833851
-0.0887392
0.0843439
-0.32814
-0.705332
-0.757607
-0.107421
-0.434371
1.14391
-0.314709
0.427891
-0.113182
-0.883253
0.272815
-0.258652
0.481172
-0.306512
-0.629574
-0.415541
-0.306935
0.317124
-0.590716
-0.236782
0.961056
-0.122441
0.597293
-0.286638
-0.310655
0.0798011
0.0913653
0.227219
0.985006
-0.940266
0.00900838
-0.203861
0.29101
-0.470599
0.482642
-0.42066
-0.50566
0.199752
0.157163
-0.356915
-0.763782
0.0373417
-0.108743
0.730812
-0.62207
-0.0695817
-0.897162
-0.678473
0.8041
1.37838
-0.595661
-0.782718
-0.135436
0.307603
0.781506
-0.418813
-0.362692
0.235624
-0.25915
0.0428182
0.0398089
-0.19548
0.0516242
0.143856
-0.111105
0.500521
-0.480767
1.085
-0.0300664
-0.125734
-0.25333
-0.0679977
0.321327
-0.0155478
0.743466
0.111193
0.456205
-0.567398
-0.357613
0.537273
0.41108
0.393454
-0.327509
-0.0922778
0.481384
-0.177466
-0.303917
-0.0674427
0.0527188
0.0147239
0.138937
-0.780307
0.64137
-0.880205
0.122598
0.197332
-0.451322
0.73196
-0.00714827
0.242772
0.108586
-0.423294
-0.942008
0.472962
-1.01989
0.330497
-0.411902
0.0373993
-0.396752
-0.546664
0.943417
-0.854245
0.148999
0.178701
-0.3277
0.993689
-0.753089
0.768938
-0.563281
0.150732
0.495032
-0.645764
0.204176
-0.363313
-0.605988
-0.142238
0.748226
0.097949
0.0714006
-0.16935
-0.47304
1.04239
-0.569348
0.767018
-0.487213
-0.279806
0.683995
0.0210924
-0.705088
-0.530657
-0.756251
-0.297525
-0.00707226
0.346866
0.582323
-0.0128823
0.074063
-0.0611807
-0.640945
-0.152431
0.65662
0.56595
-0.50219
0.598387
-0.0961972
-0.302355
0.298689
-0.0273929
0.31228
-0.284887
0.214283
-0.267056
-0.115419
-0.881518
-0.81748
0.243894
0.011921
-0.194489
0.0810488
0.0670547
0.696939
-0.763994
-0.47446
-0.127501
0.439422
0.325588
0.0619655
-0.212043
0.00214928
0.183293
-0.185443
0.0852391
-0.335784
0.250545
0.256459
0.254887
0.245939
0.77937
-0.361874
0.843412
-0.436209
-0.097215
-0.227881
0.325096
0.710733
0.0719431
0.0316437
-0.627509
0.430534
0.328414
-0.343962
-0.508683
-0.572438
1.08112
-0.621017
-0.536006
-1.06433
1.10807
-0.0437454
0.277807
-0.351574
0.285565
0.522245
0.257125
-0.241471
0.058801
0.18267
-0.28279
-0.557601
-0.0557093
-0.624607
0.680316
0.412001
-0.202746
0.294702
-0.272063
0.550228
-0.878368
0.444751
-0.333742
-0.69079
1.34506
-0.654269
0.595631
0.469597
0.278346
-0.747943
1.0771
-0.629052
-0.448047
-0.478229
-0.653332
1.0918
-0.438464
0.309174
0.288119
-0.253257
0.246109
0.39914
0.762487
-0.182009
0.162394
0.022321
-0.0226204
0.902038
-0.500061
0.436526
0.772097
-0.364654
0.188174
0.17648
0.202186
-0.446679
0.712898
-0.0475933
0.431515
-0.185261
-0.648567
-0.116206
0.764773
0.162068
-0.0301903
-0.131878
0.114532
0.089447
0.130271
-0.88081
-0.252435
0.276014
0.655595
-0.5706
-0.0849956
0.147064
0.33432
-0.125261
0.0669654
0.222404
0.212611
-0.435015
-0.463229
1.03734
0.0157384
-0.53892
1.10694
-0.568024
-0.275178
0.393969
-0.0656756
-0.00673604
1.0491
-0.519499
-0.329724
0.299596
0.282783
0.26743
-0.28226
-0.137752
0.11783
-0.273332
-0.114501
-0.00187658
0.408058
-0.132596
0.759994
-0.627397
0.110153
-0.086048
-0.32084
0.0746754
-0.285833
-0.0116927
-0.847131
0.575719
0.214463
0.210874
-0.252681
-0.0583267
0.311008
0.269541
0.0371869
0.780886
0.42308
-1.20397
-0.0766269
-0.0183916
0.0950185
0.210623
-0.708804
0.899133
0.479247
0.733457
-0.666402
-1.10111
0.00813832
-0.0246246
-0.0910878
0.431926
0.217429
0.706279
-0.923708
0.334085
-0.0303776
-0.0304784
-0.28907
-0.0755841
-0.477972
-0.417392
0.531813
0.543524
0.339388
0.530134
-0.547396
0.0172619
0.157307
0.00692481
-0.0640339
0.216022
-0.0321272
0.67373
0.16953
-0.84326
0.365459
0.0123228
-0.193717
0.116844
0.0768735
-0.300951
-0.00173903
0.30269
0.300536
0.546106
-0.846642
0.202826
0.261567
0.643366
-0.0167486
-0.22697
0.62894
-0.204076
0.0233663
-0.0378487
0.0144824
-0.941546
0.508179
0.77839
-0.623204
-0.155186
0.011318
-0.110426
0.0991079
0.759176
-0.82802
0.486989
-0.0749882
0.340636
0.428302
-0.101821
-0.0126802
-0.419462
0.140331
0.279131
-0.554997
-0.0968046
0.998831
-0.510505
-0.488326
0.527445
-0.0901422
-0.437303
0.373849
-0.635732
0.261883
-0.0665371
0.465395
-0.0031318
-0.327825
0.748108
-0.420282
-0.276011
-0.143451
-0.368517
0.122944
0.167253
0.682769
0.00460419
-0.687373
-0.297872
-0.0542144
0.194089
0.0484043
-0.0106949
0.375296
0.1924
-0.153663
0.17493
-0.0119701
0.0206798
-0.131558
0.128042
-0.350593
0.501326
0.0118251
0.194538
0.212832
-0.282773
0.689666
-0.0494453
0.579579
-0.119943
-0.0895092
-0.21042
0.432823
-0.182276
0.854944
-0.672668
-0.744089
-0.100037
-0.584159
0.919949
-0.33579
-0.197599
0.320543
0.272477
-0.0554655
-0.0182931
-0.204207
0.2225
-0.766366
0.246867
0.0840652
-0.101407
0.471052
-1.13333
0.341971
-0.920934
-0.402981
0.975329
-0.430784
0.446736
-0.234125
0.0118732
-0.585989
0.724926
0.000286945
-0.124536
0.140397
-0.48669
-0.0827392
-0.550656
0.633395
-0.0777017
0.429729
1.22536
-0.801944
-0.42342
-0.188513
0.0568806
0.177155
0.0188749
-0.19603
-0.719399
0.132346
0.148712
0.0262099
-0.00601075
-0.0968872
0.102898
0.395775
-0.979934
0.0764772
0.397522
0.0236648
-0.421186
-0.945988
0.763713
0.115454
0.0313186
-0.146772
0.304395
-0.872111
-0.111336
-0.00281199
0.114148
0.147811
-0.0323574
-0.00212949
0.642754
-0.493032
0.536945
0.433999
-0.231173
-0.800768
0.234262
-0.605684
0.48078
0.124904
0.54194
-1.05062
-0.443929
-0.266711
0.710639
0.0679464
0.343033
-0.257855
0.215261
1.05205
-0.14879
-0.903262
-0.00999248
-0.819323
0.626982
0.0570133
0.372344
0.409162
-0.125825
-0.00435989
0.111713
-0.245207
-0.293405
0.0523654
-0.0446924
-0.00767299
0.0197916
-0.660926
0.641135
-0.0460037
0.243498
-0.197495
0.359705
-0.891106
0.5314
-0.102688
-0.476084
-0.0297981
0.0258221
0.605024
-0.296176
-0.165435
0.461612
-0.31235
-0.360818
0.381745
-0.224582
0.343693
-0.070078
-0.273615
-0.426522
0.173841
-0.661698
-0.116822
-0.0166408
0.133463
0.107806
0.263684
-0.37149
0.269339
-0.784813
0.515474
0.0119391
-0.479677
0.147569
-1.10628
-0.375478
-0.712247
1.08773
-0.84747
0.0373896
0.81008
-1.15301
-0.702104
0.0149075
-0.230927
0.237282
-0.00635523
-1.14219
-0.307954
0.981685
0.323152
-0.165226
0.0727826
-0.283202
-0.142231
0.403798
0.120193
0.0708114
-0.324141
0.0124262
-0.0972494
0.0848232
-0.202097
0.0759181
-0.0640932
0.0754112
-0.22979
0.448632
-0.873584
0.542075
0.331508
-0.266704
0.224023
0.524303
0.162568
-0.000499817
-0.239839
-0.00163207
-0.422216
-0.226974
-0.467184
0.163916
0.303268
0.0355152
0.298659
-0.334174
-0.345876
0.431115
-0.0649946
0.631806
0.958439
-0.847246
0.486589
-0.798939
0.375558
-0.516315
0.140757
0.0779085
0.000756431
-0.0291725
-0.00473515
-0.936152
0.5394
0.115114
0.412331
0.0127986
-0.159062
0.146263
-1.43866
0.58795
-0.0125214
-0.186441
-0.15775
-0.0175281
-0.178916
0.196445
-0.479608
0.183432
-0.964705
0.849287
1.00717
-0.522028
-0.149382
0.13424
0.0151426
-0.0718475
0.0410459
-0.117347
-0.925276
0.291242
0.634034
-0.109294
0.090902
-0.0537717
0.237293
-0.183522
0.299212
0.187778
0.16837
-0.145396
-0.0229742
-0.217758
0.229583
0.0875865
0.00261082
0.507007
-0.77269
0.938129
0.0441081
-0.538941
-0.127152
0.851627