/*--------------------------------*- C++ -*----------------------------------*\
| =========                 |                                                 |
| \\      /  F ield         | OpenFOAM: The Open Source CFD Toolbox           |
|  \\    /   O peration     | Version:  2306                                  |
|   \\  /    A nd           | Website:  www.openfoam.com                      |
|    \\/     M anipulation  |                                                 |
\*---------------------------------------------------------------------------*/
FoamFile
{
    version     2.0;
    format      ascii;
    arch        "LSB;label=32;scalar=64";
    class       volScalarField;
    location    "3";
    object      p;
}
// * * * * * * * * * * * * * * * * * * * * * * * * * * * * * * * * * * * * * //

dimensions      [0 2 -2 0 0 0 0];

internalField   nonuniform List<scalar> 
13486
(
9.7213
7.84171
0.231114
-2.48491
3.17498
-1.23192
1.346
5.5714
6.61204
3.39734
-48.7475
1.49347
10.2909
-1.19391
2.47032
3.81341
-21.0002
0.220108
2.09164
8.77562
-1.69288
10.1696
7.67003
-10.9622
3.28294
-9.91435
-23.5876
-4.49485
0.00534862
-3.9874
-1.17357
1.75649
-8.78498
-2.78336
5.58019
0.000870259
-0.104399
8.03707
-0.69492
6.56959
1.14454
10.7034
0.103237
3.21613
3.03485
1.39109
-15.1532
0.00976249
-0.102787
-4.36598
5.56405
-0.737471
1.09099
8.13318
-0.00107775
3.47055
0.119067
-0.761235
-8.31586
-0.104684
-54.1279
-0.0733037
-11.7834
-1.55787
-5.95043
-0.084655
-3.25906
9.7491
6.56704
-0.264188
-3.31146
0.0685512
6.58033
-22.5004
-0.0506053
0.131989
-0.0511412
2.41913
-16.6646
-1.06702
-0.00443127
7.90663
-11.8737
0.251158
9.76609
3.29107
-0.755867
5.22299
6.38972
3.81007
1.23093
4.83187
9.34133
8.35207
6.9033
0.00393635
-24.3152
-4.88044
6.45454
-20.6074
0.0278322
-0.85434
-4.91737
-0.739624
3.90766
-20.4309
6.4682
-0.725306
-16.595
4.43922
6.43112
1.38477
8.12901
0.138623
11.4031
6.73152
3.3038
-2.62071
6.64423
-0.0658817
0.212688
-51.2231
7.20944
-0.708762
6.37441
-0.695939
4.61556
1.33182
-2.32068
-4.46071
-0.679691
-12.8732
-28.1339
-16.3333
5.82977
5.25481
11.3458
4.61556
-0.076583
5.69557
-6.89287
1.11072
1.72994
-1.0962
0.133249
-19.5405
-0.523566
6.73778
-4.67922
-0.000291637
3.52958
2.30326
0.00163066
8.06929
1.6729
0.214203
3.71698
-0.102395
7.28582
-1.14811
-3.35618
7.27777
0.911913
10.6446
-0.761638
-2.34511
-0.261445
13.1098
-0.536727
-16.5066
-27.735
1.72968
4.35274
3.39369
0.0028674
-18.2672
-1.86239
-7.96028
6.47868
1.7844
6.14744
0.150565
2.72949
-26.7521
0.157872
-4.47939
0.00127479
-3.62693
1.40935
7.04955
-0.0789848
0.201956
-0.864227
8.3038
-0.994235
-46.8872
-4.75889
-3.65713
8.84331
-2.00798
-1.26751
1.22349
8.04805
2.7207
-0.889471
-1.02609
0.0881756
7.09191
-0.826292
0.203807
-3.95727
-7.16869
8.65177
6.46824
-1.21122
-2.03521
-4.15003
3.98144
8.86267
-8.86893
-20.8389
-4.81006
5.84542
-3.63817
0.677586
9.57949
-2.41322
-3.79863
-1.64061
-0.830549
6.06725
-1.01416
-7.19741
10.9195
-3.34592
9.17988
-3.07844
0.214033
9.26904
2.81915
-8.96605
4.246
0.184187
8.77594
-0.701274
7.435
2.8787
-6.30714
-17.0211
3.6611
-13.9865
11.5264
6.48026
-0.747747
-1.332
-24.2067
1.68895
-1.94202
-0.0267196
-8.67851
7.11575
-0.679607
2.40229
-22.1237
3.6874
-27.3284
-1.68048
-1.51328
6.18038
0.0868253
6.48567
6.28532
-4.32721
1.07939
9.59411
-5.84854
-1.33693
-0.976127
-0.807191
-0.446983
-1.13413
5.37604
6.51435
-21.8649
-46.3267
-21.2594
-6.4575
-2.44259
0.643939
6.21697
-3.03692
-0.477553
6.9437
5.89264
-2.93672
-3.32485
-3.54241
0.954582
6.6589
1.25336
0.860635
0.099724
-0.494165
1.88029
-0.125219
2.80022
-0.937421
3.08982
-0.824598
-0.080428
-14.8509
-2.31687
-0.775597
1.38984
-53.4308
5.3752
-0.508519
6.40994
7.12453
-1.93006
-0.0923502
-0.448715
6.38994
8.4169
11.2511
1.33065
4.13399
5.2472
0.465562
3.80638
5.27721
4.58133
1.07948
8.99545
1.30645
6.51386
11.8829
2.48305
3.86222
-0.682236
-1.79442
8.33034
3.64624
2.80433
-29.755
0.00331699
4.31979
11.4577
-8.85596
-0.539101
4.09449
0.657925
1.00282
-25.324
6.60708
-0.0219912
-23.8529
4.48838
-0.851772
-6.78608
2.20453
1.08878
7.23431
6.30848
-4.15199
0.0101521
-3.18165
-12.0392
8.86911
4.53997
0.0902671
4.40197
0.593791
-17.4233
-0.906037
5.69012
6.41423
-0.587358
-50.6372
-14.4944
6.03783
4.52632
10.2521
6.86662
-13.2221
-1.40292
0.183842
3.74498
-21.6035
-0.783826
8.50367
-4.74041
2.60384
9.3201
9.55531
-0.0290278
-2.70829
-16.456
-21.5657
-6.83068
-21.7419
1.80168
5.71324
-1.04151
1.51274
-0.321206
8.21007
-7.72573
4.63068
7.37847
3.61812
-4.10033
-5.1462
6.67793
6.37338
8.02239
-25.0089
3.79134
-26.8384
2.93644
6.47185
0.622549
11.4955
4.06445
-2.93378
-3.45022
1.2003
6.51027
-23.2544
0.209839
10.055
5.746
2.54477
0.54273
3.0772
-6.99171
10.2093
-0.516544
3.59573
9.58262
-21.0715
-4.40297
-15.8834
-5.25559
-1.81602
7.72644
7.64727
10.1165
-15.0652
-0.0907073
-31.013
3.9562
6.54107
-4.30039
-5.54491
6.25494
-12.7063
-18.4789
-24.6107
-18.3556
-0.301363
8.17215
0.00748501
0.324908
-1.85036
6.15116
0.0114041
12.4789
9.48262
6.59995
5.39183
-0.0104021
0.00129506
11.8066
-1.39781
-0.0653066
-2.85572
6.57674
-21.2227
0.879251
4.45065
-0.0625311
-3.018
7.59536
-8.14815
-21.4015
4.07556
-0.864262
13.0596
4.17783
5.60817
7.06793
-20.0207
0.441799
10.5467
3.33906
8.46664
1.47912
1.64017
-1.73437
-1.07588
0.10973
-20.4194
6.68758
6.58999
-14.3563
0.00466262
-1.46526
9.64926
7.74925
-1.39861
6.70725
4.72233
-2.8501
3.77478
5.71805
-27.6956
10.0843
-0.00384957
-0.238179
10.5905
4.61617
0.00164934
4.17306
-2.11836
-9.97699
2.54591
4.25606
7.3097
9.36728
-28.7155
3.01017
-29.1523
0.0048217
9.16592
1.68066
-26.0047
-5.54081
0.600947
-0.0464231
5.31655
-5.44061
-5.27745
6.72746
8.89402
-0.839626
7.0885
-18.6158
-20.676
-6.67002
2.42241
-32.6781
7.13523
0.35295
-54.9977
5.57282
7.71082
-8.76075
-28.2636
5.62919
9.1329
1.96184
9.8063
0.411508
4.25679
1.31924
7.22257
0.144948
8.89001
-24.4331
1.66336
6.35418
-2.15654
-5.48893
6.36158
-21.4845
1.02457
7.50173
10.1712
-2.33851
-0.0645325
1.6915
0.901473
5.74847
4.68124
2.36074
-33.0573
-0.131819
9.70492
0.852551
0.463845
-14.9048
10.2403
-2.58891
0.148248
6.14696
5.26325
-1.09117
-1.36957
5.69264
0.278726
-0.685926
2.32622
-6.66073
9.88833
6.5333
4.33993
4.5274
0.29062
-6.43873
11.0571
1.83459
11.1048
-3.29105
6.23249
0.00720066
-22.5188
4.09562
3.65027
11.5993
-10.7531
4.32813
3.97854
-9.4896
3.47153
0.221613
-2.56309
6.34667
-28.3133
-5.20557
-7.32626
-0.879587
-2.3655
7.01339
-0.0014419
10.8337
6.50211
-0.797183
-19.2764
-3.85265
1.94643
-45.2512
-1.33432
-20.4716
9.11361
-0.000400217
0.151557
-41.7625
10.2876
-0.00401369
0.800563
10.6058
5.64636
-22.7945
-0.852304
4.53758
0.336758
6.3556
0.17521
-3.35379
2.26799
5.86492
1.74005
5.22746
10.7672
0.154587
-10.248
6.34278
0.58903
-1.52974
4.40358
4.71213
2.75346
-23.7342
0.369091
-0.571011
0.573431
9.14721
1.82541
0.378317
0.283066
0.761038
-1.10292
6.57943
-0.229066
6.23919
6.12888
8.99175
0.280752
-4.48793
11.0057
0.0351725
-11.7738
6.79175
-6.9953
7.35495
0.155907
6.15709
-1.0439
-19.4435
-9.02108
0.0122022
-21.2264
3.3999
11.3098
-2.31684
-17.6414
-2.74296
6.75314
-0.0427796
2.7165
-47.1073
11.1741
-23.0989
3.36001
-4.59777
3.72028
6.46318
2.50628
-13.243
-1.256
10.4609
6.36275
2.84817
5.76976
0.404871
5.07167
5.2226
3.67001
-14.9599
-1.33193
8.13239
1.33588
-0.82286
5.56966
-9.93339
-2.22394
-0.528234
7.00945
6.9302
-6.25271
0.227107
-21.0887
-1.3872
0.318147
-2.2882
1.10505
6.12013
-0.498305
-5.90444
7.64725
-0.331757
-3.22951
-0.578772
-3.38286
-6.19292
-7.86561
-0.588948
-30.5325
6.33277
10.2547
-0.0447271
-3.24607
10.6357
9.94812
-2.13281
-4.81577
6.77631
-17.4225
0.176929
-0.102046
0.0856103
3.69055
-21.3837
2.7104
4.29991
-3.02827
-1.50257
-9.77374
-1.09685
5.61256
2.92025
4.08757
-8.18241
5.62922
9.76616
-32.2909
-27.7426
7.36004
2.50117
4.06013
-0.678549
-3.82113
-8.91261
-0.905718
6.59796
11.1141
7.11995
0.247981
-0.918855
6.41772
9.46594
-1.27724
7.00634
6.40357
9.8411
1.48148
-0.528204
0.739619
-1.84286
9.83555
0.257032
-0.25944
4.24435
-1.33459
1.40503
-0.825308
-6.75806
6.13599
4.72908
4.39563
2.99119
-14.0559
-1.94616
-2.12707
3.70546
-7.10929
-2.88353
0.118876
-33.8772
-57.3552
3.31009
-3.82828
-16.7139
-11.7032
-2.61667
4.95142
-41.8411
-16.267
7.29327
-2.36881
10.2126
-3.71696
-17.406
7.78305
9.20298
-0.0323094
0.239028
1.72845
6.66526
3.77847
-10.5615
-1.06166
-0.122981
-1.38413
6.17064
0.1473
3.69094
-0.491123
6.58382
-24.2277
0.168853
-0.0174233
7.91199
-5.70862
-50.8392
-14.3057
10.0828
0.0397563
-10.3267
-50.6199
6.4086
-12.8891
-0.454894
1.33505
3.05733
-0.308929
4.42541
-5.67595
5.33826
6.22127
7.55268
2.80053
-0.33768
-2.60686
4.84703
-2.24556
7.90873
4.47798
-1.09525
-0.757901
-1.4826
-0.657221
-0.110069
7.36066
2.4097
0.687738
6.39991
0.153985
5.14991
11.4755
-0.82949
-8.3513
4.34266
-0.527684
-0.515787
-1.55981
-1.83312
6.40829
0.17241
0.0503081
0.139731
0.350096
8.40323
-21.3565
0.0107511
6.43723
-0.48377
9.24055
7.46758
8.70034
1.49428
4.10027
1.88859
0.174567
4.92354
6.32353
-1.12514
-2.17549
-10.0979
-3.81269
-39.9059
6.42639
-15.9868
-10.4999
-31.0148
-1.08389
-0.0390323
6.48364
-0.0207997
1.16695
-15.3358
6.41307
11.3692
-0.415879
-49.3742
3.58562
-0.252998
6.28525
-1.01658
-0.704507
7.85023
-0.805525
10.7948
4.34402
6.37176
-3.71104
8.44241
0.166426
7.51486
-0.00333571
-8.96549
-1.72955
-12.1733
4.18486
-0.523193
-0.813239
10.1269
6.39304
7.0205
9.21506
7.15251
7.89422
-2.08087
6.81274
6.41808
6.61262
-1.90907
-2.40247
-4.77886
-5.2908
1.56284
7.35195
-19.7081
9.63518
-6.01079
0.160009
11.0218
9.2911
-2.13837
-9.6013
6.50246
3.28073
0.352274
6.12633
-18.2798
-2.87632
6.35939
9.01408
-0.684153
7.24098
8.34825
0.00259223
-3.25675
8.38716
2.7638
-0.0949046
-33.2193
0.213749
-6.54623
6.03689
4.57961
-0.205412
-0.594325
-4.64217
1.58165
-0.458253
1.37028
9.48472
-0.635596
12.291
6.46657
1.96347
7.2869
-23.2754
-23.5249
-11.6047
6.40082
-0.693649
-14.6983
-1.16453
3.0478
3.80586
-0.659067
4.7713
-13.1967
3.2777
0.0789624
-0.548087
5.12305
1.92442
8.45212
6.57164
6.82004
6.20827
-2.16294
-7.30727
-5.65371
0.325776
-2.90782
-0.640317
5.00795
-1.84374
-0.273917
-0.211902
0.738715
-48.6946
4.42843
3.08072
-1.63021
-4.90966
3.03767
-4.61786
-7.2699
0.780617
-0.543564
7.22864
4.71412
8.41308
-15.8314
5.76857
0.157396
9.10458
-0.57035
3.30939
0.27069
-1.14193
10.5642
10.8492
5.31554
3.69693
4.3364
5.98416
10.6969
4.45358
-7.84436
-43.8924
1.12757
-5.20961
-11.3782
6.40572
6.23616
-0.308472
1.90835
5.57391
5.83812
11.6235
-18.9397
5.06893
-21.7741
-1.07941
9.29808
-1.44963
5.42333
-1.56363
2.0382
2.42305
12.098
-1.81559
-4.80161
3.12681
0.864038
-31.4755
-18.4011
0.282375
7.20668
-5.55936
3.67305
9.92808
9.12003
-1.08198
-12.3869
-2.38056
1.05715
7.70186
6.12343
9.08452
3.86632
-52.5296
9.5154
5.96007
-9.7381
5.01503
6.62718
8.24118
-46.864
-1.1419
0.0134425
5.45377
10.4653
3.36163
0.683349
-6.54322
11.67
-37.6747
-6.71412
10.9136
5.62184
0.016181
5.13773
-2.95013
3.50339
-3.14532
-38.9586
-0.615852
-14.7104
0.0353393
-2.50674
-19.2275
-21.2007
-13.166
0.326457
-21.51
-14.9589
5.12854
5.97157
3.60131
-13.7454
1.60971
0.922746
-2.2192
12.2235
4.28743
-5.11094
5.60931
-3.13037
-16.3598
5.42981
5.42586
6.22824
12.3254
0.00830847
-1.42062
-11.3301
0.173223
4.42683
6.46287
-2.83779
9.66116
4.55048
6.84072
-1.78742
-1.05283
0.19891
6.76088
6.46167
7.05263
6.42356
11.3226
11.188
-3.2448
5.64877
8.26932
-4.94713
9.06866
-0.532441
11.0582
8.99387
0.026195
7.37778
3.10828
4.96599
0.0958668
6.5735
-7.02209
5.61511
2.31466
4.48493
-1.23792
6.32303
-0.416529
1.54275
10.6833
10.6813
4.28593
-16.6505
1.45995
0.638607
-1.35626
5.27622
9.55156
-16.4888
6.62481
6.18915
3.07239
6.71169
-30.8867
-1.59663
-0.224059
11.4613
1.8005
-3.92756
7.49604
-1.24775
0.155012
3.04936
1.12995
4.88531
2.79412
-3.74952
3.77812
5.25079
4.252
4.87402
11.1976
9.18795
8.15647
7.38674
10.4688
3.07402
-0.579818
0.0338772
-6.77067
10.5309
-1.87249
6.41236
5.80515
-22.8559
3.32377
7.14323
-9.50819
3.1393
4.15579
12.4919
-25.4977
2.74309
-0.0829607
7.51519
0.190314
-3.39047
10.3501
8.87122
6.24624
6.38574
-3.56414
3.22501
-20.19
11.1629
0.0355713
12.002
-0.340598
0.595597
-22.2163
3.65289
-22.5709
1.04255
-0.843288
2.1663
-0.678928
2.04392
-4.40966
-0.00189403
-2.05295
-15.2941
-4.33238
-10.868
-0.787902
-1.03315
-1.55568
-48.9661
6.69869
6.82505
8.27098
6.27207
2.51453
2.42897
13.0105
6.25115
-24.3632
0.010387
-0.927854
4.93876
5.66274
9.68659
-6.24762
-6.25644
5.42188
0.0090204
1.52681
8.16125
-17.4244
-27.5496
-20.2082
11.2935
-4.74177
4.34946
8.28678
-0.702983
5.1424
-0.380465
-31.9763
-27.6778
-0.534102
4.27226
7.75286
8.11685
-11.3145
-15.763
4.38513
-19.6397
-4.14046
-2.21717
1.20151
-3.07546
-0.838244
-5.57929
-26.4376
-10.2006
10.0077
-1.87468
10.8544
-34.0986
-1.3976
2.36974
-0.0219815
9.23353
6.45407
7.68785
-0.598349
-3.20069
-34.8258
8.92841
-15.1971
4.6454
-0.533181
7.92518
9.18737
-0.55193
6.39782
10.4543
7.13424
6.95173
-12.9661
-0.62219
2.60356
-6.54707
-0.844411
3.95808
4.76474
0.192156
-40.983
1.35265
-0.11767
5.73203
4.89211
-4.13525
11.021
0.187567
-0.00296545
0.72992
6.22026
-4.5236
0.00722063
7.05591
-3.64658
0.150321
-1.77096
6.93583
6.24894
5.97014
-0.854997
6.05848
7.47698
7.29516
-3.11634
0.177616
1.38936
5.55631
-6.33512
-24.883
-8.72874
-8.50151
-2.91088
0.0426823
-0.780899
0.147812
-19.3394
-4.81036
-53.9063
-0.187968
-3.32788
2.31816
-29.4275
6.85325
13.1842
2.15292
-2.01401
2.84573
0.653035
1.46162
0.069392
-3.89137
-27.4522
0.467671
8.5688
0.0241862
10.276
0.0640474
5.94642
5.33401
2.75921
-22.3885
3.91357
11.2655
-1.56474
6.28224
6.1478
9.63711
0.496874
8.82902
7.05372
-21.7188
7.50301
-26.6885
-27.2172
9.042
5.62304
-10.2367
0.209876
8.38702
0.926785
-8.83959
0.13
0.143696
5.04726
3.31449
6.47911
6.13522
5.44279
-14.2678
-4.53372
-2.91068
6.34276
12.0305
-4.37282
-33.9877
-22.5462
6.59289
0.345928
0.367463
2.92695
0.246892
5.00389
-1.01859
1.40869
9.91871
2.60919
0.134315
-1.32533
-7.57188
-7.05947
-21.5454
-9.89491
-28.666
7.72943
3.31564
-5.12666
10.3983
0.012955
-35.172
-2.24715
-29.0688
7.02228
-14.9835
2.03988
6.45205
-1.002
-3.19036
-0.968841
-25.5144
-2.80741
7.06119
-52.5458
-0.42961
-19.924
6.15575
6.90973
-5.11865
8.19045
7.57049
9.91943
10.1071
7.21797
0.921073
11.4574
-20.1635
6.34736
1.18853
-38.7879
7.92939
-7.40376
9.87377
2.95095
-7.57003
-16.3869
-9.4814
6.9091
-8.71433
-3.65036
-0.502764
-4.64795
0.136106
3.9329
1.05982
4.68355
11.2813
-18.2359
-9.62338
-3.09477
6.83024
4.91532
-6.29753
12.9977
-0.547386
-0.0928124
4.25061
-7.02813
6.07651
6.66002
7.42237
7.60987
0.207043
3.41794
6.1468
1.29021
-1.14277
-0.00449756
7.04402
7.24653
8.99803
-1.21053
0.206733
3.48952
3.83241
0.98498
-25.3809
5.35784
-1.98294
5.55486
6.64002
-21.0492
10.2918
-8.76108
11.0738
7.38032
-47.5176
-0.00672949
-0.0742312
2.6315
6.80729
-37.8168
8.82349
6.10986
3.44264
0.127368
1.20023
-1.58125
3.46973
-20.5528
4.09307
-2.47852
6.23608
-24.8045
-0.324957
-2.79299
7.98117
9.35032
3.25815
-22.8702
3.08253
-1.14331
0.0916384
3.45085
-1.01587
-1.06556
10.8708
-3.51159
-0.522799
-6.70577
-31.8071
-0.442181
6.39885
-20.8046
-2.35899
6.77796
4.1147
6.91829
-13.7091
2.82945
10.96
-13.6729
6.25403
1.91537
-0.860758
2.11255
1.34198
-3.88188
11.1993
7.40047
-0.378623
10.849
8.43572
7.93355
-18.6218
-24.0969
4.2911
-8.09822
-0.446578
-15.0482
-7.02942
-13.7924
5.06781
2.35554
3.9165
4.29015
-0.866665
4.98831
6.41263
-44.7629
6.86433
3.96438
6.30601
-1.15037
-0.0607412
-5.3141
-21.606
-10.8757
-2.7315
6.32727
-42.6418
9.98584
-22.2532
6.09796
4.07992
-0.231806
1.04549
6.58312
2.96489
1.38633
5.78949
0.686804
0.150507
9.46872
7.75289
-6.71942
-21.2478
-0.0827888
5.68178
-0.0883669
3.02948
-11.2434
-0.136074
-1.26765
-3.68675
5.57342
5.56742
0.521023
2.92938
-0.29899
-0.39038
-37.3292
8.05255
-6.84269
6.32482
0.00632809
5.52277
6.83144
3.60194
5.96072
0.136192
-4.45525
-0.374333
-25.9333
-8.51925
-8.05822
-0.0288804
-0.852132
5.17587
-0.566353
6.19534
-0.549666
0.172152
-10.1669
-0.502801
6.68105
-27.5524
6.24156
1.48241
-24.8058
-0.236588
-7.62458
4.41888
6.506
-0.376802
1.07012
-24.4054
7.6819
0.150239
1.87047
-28.4808
8.10883
3.0865
0.00539545
6.86732
6.69553
7.83924
1.37386
8.01813
-14.658
-0.394399
-1.15553
6.35955
4.0439
1.58339
0.733118
-17.8401
-32.266
3.47482
0.160819
-36.6053
10.0609
-14.1892
7.72885
4.57136
-3.7256
-0.612248
-2.62292
-1.01964
0.586348
0.810911
6.03548
-0.320763
6.43331
-10.3943
2.82089
-1.03618
1.45247
-20.2589
8.15131
10.9996
7.0229
3.80197
1.5068
4.30098
-23.469
-0.100146
-1.00667
-1.30773
-7.74148
-51.1872
-22.1795
-4.90262
5.71823
6.44417
-14.6343
1.53662
7.30492
-4.50332
-9.46593
6.92789
-0.6107
-46.6913
0.122903
-1.7941
0.019895
10.299
-1.05373
6.25293
-6.6658
-4.55114
-4.40544
6.27273
1.54799
5.36277
-5.36402
-5.73794
-2.0816
1.09231
7.48718
5.62122
0.98427
-0.815259
-2.90161
11.4377
-1.18652
7.31882
8.14382
-0.298192
-0.759614
2.86523
-22.5007
-3.01968
5.59305
3.7639
6.17457
-11.827
7.03689
0.64147
9.21908
1.10673
5.691
8.15047
5.34589
1.17698
-23.6942
1.96625
-24.9974
5.70705
2.88377
7.80279
0.403254
9.88343
0.978932
10.5385
-0.122749
8.21476
-1.14717
4.76709
-38.8366
6.1039
3.02695
2.6759
9.69281
6.35427
1.51876
-4.37899
3.62545
5.99204
-0.488066
-21.4911
4.54117
-5.1688
8.3953
-5.52532
10.0391
1.49883
13.1423
10.0682
4.85819
4.34688
-43.4976
0.186233
10.7313
-0.503202
-0.549197
-1.18971
10.5348
3.21539
5.50469
9.05353
-4.74753
6.97409
-2.29004
7.73151
0.161228
7.33936
6.51225
9.03122
-0.56719
-14.8083
1.77227
-8.4996
2.92017
1.29891
-3.0417
8.34101
9.43634
0.0801312
2.28579
-2.10952
8.52753
5.25165
5.89216
3.90414
-1.0217
-24.3012
-2.0745
6.58799
-10.5307
-0.368513
0.706675
4.51531
2.96495
-4.55352
11.3189
-0.758649
9.98235
2.08056
10.0626
-3.8329
1.39259
-0.16187
0.177338
5.37323
6.27611
0.534008
-0.312662
-0.100336
-0.45065
9.44659
-2.27536
-0.152477
-0.909409
-0.281239
2.44281
7.97303
3.04314
-0.612128
0.0340799
6.36577
12.044
-9.09759
-2.10138
6.27317
-0.0252112
3.10638
-0.591841
4.76611
-0.286324
-13.7782
-1.32186
-1.93192
-1.40726
-0.635758
-15.351
-9.47378
-0.148383
4.94779
6.85691
5.54351
11.7221
-55.9064
10.5042
-23.2161
9.94727
-38.0779
-5.35082
11.3364
2.59979
-3.70552
6.61922
-0.636178
7.1449
-1.30266
-20.3594
0.944087
-4.73562
-5.84614
-0.000241769
-1.39427
2.47715
8.12774
-37.4353
2.7213
-10.2228
1.52926
-0.830914
-0.459229
0.866054
-0.9111
-8.54899
8.46216
-0.286876
9.30555
2.34542
-26.5969
2.15028
-5.77456
-0.13809
5.46825
8.07989
11.6453
4.83618
5.48008
3.00746
-17.8494
11.2592
12.1102
7.03486
-4.33141
-11.5718
-26.4797
5.93715
4.26522
2.29414
5.36023
-1.33529
-0.346591
-47.09
9.65309
0.457502
0.604368
-3.90651
6.28376
1.6791
12.857
12.0313
5.62652
0.730483
1.64773
-17.4928
2.62108
12.3576
0.395269
-0.122687
4.7855
0.0198907
1.21383
-1.29842
-2.15726
1.28843
0.878033
2.75156
-0.00329661
1.96124
9.0403
2.27161
6.81532
-4.55888
-2.54948
10.9772
-19.2694
1.10538
1.80649
2.74499
1.20324
-5.94784
1.5268
-0.629616
0.952412
12.9283
-22.3298
-14.5183
-12.121
-4.2746
0.176298
1.81219
-4.37992
-13.4723
0.00709407
-11.7386
-5.36716
-6.37358
1.18028
-1.22791
0.415184
12.6457
0.537841
1.74542
-1.38585
1.20134
-15.6637
-2.81979
8.86491
6.37347
1.79228
-0.293131
6.08519
6.83675
-0.00632847
-46.4507
-1.04711
8.82885
-4.71215
5.91294
0.018222
9.92678
0.600828
-5.34589
0.316928
7.00296
-4.03192
5.70437
-4.81692
12.2775
-3.92659
-1.90346
-44.4694
3.00226
-6.2495
-5.76055
-4.38636
0.542518
3.10494
-14.1386
-1.03372
-0.993952
1.1575
-6.28952
-5.48327
5.02634
-25.5644
5.58219
-4.95449
7.07619
11.2098
6.1164
-16.794
6.55675
0.498376
1.16847
-1.07532
-2.78652
-21.0443
-2.90804
-3.22925
3.04625
-0.200778
-3.99186
-0.549748
-36.4226
3.22148
6.36454
-5.98326
-6.97478
-2.51741
-0.0231692
-0.364688
3.77666
-11.3856
-7.76662
6.55794
-0.659773
3.87582
-7.4614
-44.9414
-30.4858
-58.3446
12.614
1.97086
-5.70658
1.9541
10.5588
11.0023
-6.3367
-2.3668
6.32963
-0.33596
-1.99982
10.8564
3.54612
5.84552
12.838
-2.05442
2.06816
0.801387
9.69429
6.6315
6.73516
8.16577
4.48961
0.112424
0.194119
2.92497
1.44202
-22.1638
11.1145
-2.73078
-3.52759
0.0146427
-5.86931
3.13627
-3.94149
-2.59631
1.50346
6.76594
6.94644
7.46718
-22.5434
9.54145
10.8209
-15.3544
3.92359
-1.05287
-0.672385
1.11534
3.77262
-0.738767
-4.54763
-3.55379
12.023
-26.8471
7.48106
6.46944
8.65821
4.92725
5.03105
-0.349076
0.0889172
3.98948
-0.748691
-33.8046
-9.76171
0.168943
-3.19129
7.94878
-12.2197
-0.302826
1.28392
-15.0929
-5.15527
-20.4828
5.61118
-2.30538
-0.886708
2.74227
-16.3647
2.23141
-15.1045
-1.05411
6.92738
-31.9907
11.0548
-0.0122773
11.698
0.0119403
-1.02003
0.815993
5.59321
5.50606
-12.1468
-1.26682
-1.40936
0.638788
4.52401
12.8156
8.69484
2.12221
-4.48406
3.38142
0.065774
7.47636
-0.502827
3.81485
-2.31346
-3.89934
-14.9902
2.62556
0.107908
-15.0164
4.1496
3.96821
10.7309
11.4468
-21.3442
-20.7607
0.549402
-6.30122
11.2307
0.295052
-2.58255
2.69393
4.58359
-2.2124
0.161628
0.546468
-0.611728
6.014
-1.59327
2.05366
-0.329051
-4.95448
-11.0769
-1.9306
-11.5125
-10.4391
7.17492
-7.39052
-4.56434
-2.52956
0.299783
12.1788
4.95642
5.99156
-2.76644
3.25238
-0.544269
2.62877
1.86232
-4.35353
-21.6845
11.2065
6.81823
-0.304763
-19.4414
12.6069
-5.73629
-26.3692
-2.02964
3.29791
-7.02626
-2.13243
9.62494
-0.677521
5.95466
2.49943
-2.64009
0.489206
-1.21656
3.08924
-12.4187
-0.111705
1.95831
6.31037
-8.43083
-26.6808
0.34179
-3.57715
-7.37484
-6.68778
11.8171
4.21233
-40.4238
3.1071
1.5272
10.4658
3.63055
-22.0128
4.01699
8.20119
7.15348
-4.88595
5.68929
-0.358064
11.1176
0.0946714
6.60196
-32.9085
-4.41719
-0.00546908
-2.9502
3.9692
2.14381
-21.7948
-8.83287
7.6182
-0.286458
-0.769733
9.03882
5.0234
8.8057
5.92132
-6.00156
0.0740059
0.0522814
6.39561
0.000378356
8.07878
5.1518
10.9767
-3.54811
8.56843
3.47275
11.0438
-2.43028
-4.59594
11.3095
-3.92273
5.10094
-28.6143
9.83263
10.8885
6.97058
-10.7694
6.29272
8.36781
-5.84827
2.86393
-4.49139
8.97093
-4.41712
-0.998452
-20.79
-20.704
8.21391
3.31088
-25.089
3.29496
10.8828
-3.25108
-1.086
-20.6708
-5.76108
5.57252
-1.50398
6.06353
6.0242
-23.736
12.1602
-0.781716
9.26133
9.25475
-0.977652
-0.0316162
5.7495
-9.46104
-1.95405
5.75689
4.89838
-2.53912
6.05237
-1.98197
9.60863
6.99681
2.47275
0.357803
7.30253
-1.089
3.9938
8.65179
1.2999
0.00518648
8.34526
6.93472
-4.74974
-17.4772
5.0565
7.26028
11.092
-22.586
11.6923
11.4022
11.8521
-0.729539
8.06073
-33.0269
6.40185
8.8037
8.46523
7.18736
9.56974
12.8579
5.5903
-23.7638
0.915221
-20.4898
12.7119
3.42228
-0.405566
-6.37344
6.13257
9.60371
6.08452
2.18665
-1.18226
9.53318
-13.623
6.95471
-6.98559
2.82901
-0.395185
2.35097
4.13719
-26.0818
-24.5605
-0.721315
-3.40887
-0.531441
7.89413
-1.48354
0.536432
5.98877
-32.0883
4.20233
-0.0247453
-26.5237
-31.175
-23.5171
9.11626
9.77362
-5.03016
2.81554
8.34158
7.63786
0.0774136
-22.8121
7.08194
-22.4549
8.94046
-22.0582
8.71344
4.11312
0.793024
8.10788
4.17853
8.49944
2.31879
2.9398
-3.98464
-17.0709
-45.7488
-0.904918
8.32552
-27.6425
-3.0566
-23.9839
9.26794
8.44996
2.32509
4.78379
9.36361
-10.2244
6.11793
-0.647965
-4.4833
6.09625
-5.36154
-25.5174
-6.28345
-21.1742
-2.57925
-44.7199
-0.666846
-30.3475
-17.967
5.28249
11.1482
12.1697
10.5995
-31.0753
7.0325
-35.7639
5.93982
9.369
0.907968
8.1793
-20.3782
2.26003
-4.36817
-0.689226
8.93514
-4.71322
7.34761
-23.0007
-1.91304
-20.5831
7.45611
7.28963
6.32114
-31.7783
6.06312
-1.00007
-22.5413
-20.8002
2.09707
11.2553
-11.5527
-2.695
-7.86101
6.20385
6.11463
-0.731001
3.94101
-30.6195
9.50196
8.65271
-2.53589
-1.6068
9.2938
-5.26038
-59.4687
-0.151034
8.47267
9.55855
-29.4621
4.73518
-0.920196
10.9497
-28.9773
-7.37132
-0.758092
10.3118
-0.20247
-3.83666
-0.479237
8.9085
5.042
8.78965
-1.01151
-10.8756
7.19249
12.588
-18.8549
5.97277
-0.410462
-21.8391
-0.307018
2.31987
-8.40343
4.65655
-2.00349
4.15263
-1.32821
-6.33734
8.02668
9.71075
6.02157
-8.939
-7.0464
7.60019
-27.0626
2.47641
-4.54517
3.14931
-38.1863
7.04024
7.58359
-0.517041
7.16728
10.89
-1.98271
5.38945
7.34741
-20.2191
3.98122
-3.03083
3.15424
2.49491
5.04984
0.00685848
2.1737
-1.92982
-11.299
9.13342
2.71719
0.941471
-6.09037
-1.79864
6.65704
-34.5522
11.8131
-27.7582
-20.6853
-0.552309
8.25507
7.32982
8.74485
-15.6523
10.4848
-35.9302
5.2778
0.123623
-25.1437
5.93896
2.90292
-2.20124
4.41088
-22.6274
5.14792
-21.0474
-6.2978
0.00628612
-18.2862
-21.0971
5.84413
10.7158
-1.44647
-34.5506
8.34244
-12.4537
9.75446
3.2082
0.0305951
3.79428
6.45941
3.29617
-0.754802
0.421162
-0.361946
1.5824
2.38334
-31.844
-7.97545
0.181376
4.02529
-0.582818
12.7434
6.99856
6.38057
9.88618
1.04667
7.22688
-16.7374
-8.78116
-10.1924
6.34996
12.4526
5.96503
-4.98704
9.10782
6.22933
6.26917
-1.10822
-0.47172
3.37893
11.8889
0.329545
-6.24864
8.80022
9.33495
6.93795
6.33475
7.8546
4.32726
-1.15606
-21.3195
7.08912
-22.9374
-15.9768
6.32642
-14.0999
0.321006
2.30628
7.09628
7.39242
7.40893
-0.64435
8.6986
8.93242
1.28963
7.83076
6.79128
5.38951
5.01202
4.56756
3.2511
-0.776968
8.23962
7.79936
0.20364
5.96932
-0.727981
-0.217487
10.6063
8.07474
0.0238455
-30.8543
0.401538
8.32607
4.67118
1.59065
-0.402818
0.562808
-3.17908
1.0791
-12.8992
-1.47718
4.9442
-1.55462
-21.8121
-32.1454
10.0801
-8.00073
-22.7095
-16.485
10.7182
-1.45234
1.48088
1.2992
-22.6755
5.20039
5.98712
4.15195
9.52789
5.10088
-0.101723
-20.8215
-27.3661
0.0922534
7.52326
0.346055
-31.6936
-27.1948
-3.17474
-23.4118
-13.3473
-13.2603
-1.75273
2.34094
6.27055
8.50187
-2.50516
-0.633625
9.53618
7.16377
-28.5687
-0.762168
-19.798
3.951
0.223907
3.4862
5.40794
-0.206955
-1.72502
-2.35167
1.69432
-33.7819
-21.3044
0.106324
-21.5586
-22.0833
-25.2092
-23.4169
0.301393
-14.6188
3.21645
-30.3263
6.32718
5.64981
1.6596
8.35505
-41.169
10.8134
-5.21101
0.192092
-5.8972
6.3424
3.80421
-16.3939
-10.5689
6.56095
7.85487
11.1957
-33.854
-22.7158
-34.1449
-1.54694
0.0209554
-28.3877
2.46742
-21.0153
3.71806
-34.4561
5.11726
0.664601
-0.936101
9.72975
5.68864
-4.15896
-0.206695
-8.31469
-22.8109
8.44354
12.2304
-27.0701
8.01392
5.99358
0.00433084
-0.939583
8.12979
7.81511
-13.969
-1.25387
-12.127
-41.6751
-5.48156
-25.3707
-4.80592
4.32719
-0.394805
7.11449
-36.0399
-26.5282
5.99811
-4.98244
-20.8923
0.26359
5.02951
-20.8966
-3.16572
-25.5823
-27.6332
-20.9328
11.378
-10.7937
-1.36537
-37.9746
7.01576
-20.2902
-0.570165
-13.2435
-58.8826
-4.23996
7.29467
0.00262135
-25.5672
5.51809
0.0298582
-5.72835
-26.4816
-34.4481
4.64136
5.33227
6.42201
-9.07235
9.75889
-3.96584
0.00287685
-1.2768
-11.2147
-24.3092
-30.4938
-17.1229
1.41801
2.55893
-0.893257
-1.53809
-7.46126
6.04819
-61.3409
6.46673
-38.2357
3.97511
-2.52557
-0.702315
0.0536715
12.4755
-0.571142
-21.1649
-7.95124
-7.42139
6.33091
-1.06049
0.1234
0.0787948
-25.5207
-32.0651
-18.42
-23.2058
7.18685
-39.8331
0.781703
-24.1697
-0.525615
5.51998
-0.724306
2.90244
-3.01048
8.5665
-20.8617
-9.63778
9.16379
2.54198
-20.3273
-1.64549
-29.9278
-7.11074
-2.09872
8.307
-7.44939
2.80274
-22.2105
-24.8364
-50.5511
-44.3289
-24.2511
3.97054
-1.74974
6.40305
2.48726
-45.0871
-2.49261
-30.8022
7.97554
9.68796
-22.3362
0.502881
6.86089
6.20316
5.19414
-13.5676
-19.4465
-17.459
6.3812
1.78343
-8.20747
-36.3262
3.7192
7.71327
-1.25559
0.202854
0.19805
9.03609
-7.46766
-7.95544
-0.292261
5.47509
0.638668
-0.0228234
9.81469
8.02633
-0.896965
-24.6835
8.21831
3.18647
-0.60121
6.1129
-3.74236
-17.5751
-20.4008
-21.2036
7.87991
6.98027
-1.21408
-4.61071
-0.172339
-0.319109
7.08017
-27.857
5.04782
8.62041
9.24246
-2.74745
6.44942
5.75249
7.28768
7.69954
-0.843403
7.72209
-0.00873746
6.42211
3.69154
6.95384
-24.9805
8.10724
7.72686
5.72138
4.29931
-8.35878
4.56039
-0.332179
-5.89019
8.84757
8.67472
-21.2442
7.40676
-17.8243
-21.0453
6.98275
6.96038
-12.6436
-0.773809
-22.4005
-24.9379
-4.97249
-5.23071
-14.1139
-1.86365
5.85924
11.6711
8.2421
-2.85045
-2.58336
6.89612
3.23842
-1.12282
-18.7041
-6.76834
-7.94779
-20.6522
-17.5307
6.07563
-0.24664
2.89579
0.0775201
0.0829863
-0.167175
0.103757
1.46232
3.31214
4.5358
-4.91971
3.3092
-12.2209
-57.3229
4.40982
3.49504
-0.97354
0.187085
4.35296
-0.572429
2.53719
-4.78025
6.42419
5.30275
10.3353
6.40065
-13.9548
-1.93466
-4.57639
-5.8774
-0.370312
-0.263447
-1.52618
-20.78
11.8924
0.190669
-0.0713014
9.62158
-8.54663
-4.06045
-1.09119
-25.7186
-16.6137
2.04416
-6.61848
6.36233
-1.96596
-12.1243
0.178963
-3.79248
-5.82739
-0.979442
-0.537728
5.0041
-4.35818
-5.86534
-7.12642
2.45777
-7.65809
6.91836
9.90591
-5.62866
7.06485
3.64409
4.6388
10.8613
-10.818
3.94257
3.32565
2.78589
9.37282
-1.67128
-1.54662
-0.87761
6.82012
9.90286
-7.26186
-0.619204
-9.66507
-7.05503
3.31164
-9.54383
-10.7225
-7.00153
2.58756
-22.2622
1.36422
2.02829
5.61602
1.01652
-23.9607
-0.42593
-0.600171
-1.19962
10.5538
11.793
8.77858
12.316
5.77123
2.39475
7.41394
6.43459
5.96777
-9.23244
6.59959
-1.88965
-19.8314
9.59332
-2.01402
-7.2032
11.23
-0.0259111
-43.1067
3.40075
2.82704
7.88487
-8.88348
5.9536
10.3594
-9.16897
-21.2262
-8.91472
4.47474
-32.5028
8.39827
-0.983619
7.89799
6.35512
-6.39747
7.55914
-4.09993
-23.579
-24.4586
-16.208
7.89848
-7.76434
6.40309
-0.693064
-27.0391
-0.487526
-0.36405
-5.69262
-8.61208
-16.0487
7.9859
1.19971
-20.4541
-2.79383
4.22409
1.61294
-26.7294
3.18421
-0.966751
3.18351
-20.2861
3.88242
1.61687
4.12382
-1.19731
6.01097
3.86283
1.91769
-21.0873
12.3
-5.65567
-23.0896
6.03088
5.27161
-21.9824
-6.83031
-21.8896
4.1304
3.39883
-6.80813
-0.818909
-1.797
12.1733
-0.220455
-8.94164
-0.617628
-4.14394
4.48805
-2.29554
5.88052
4.19134
-30.7926
4.03231
-22.7311
5.25453
2.52028
6.49954
4.55372
0.0105682
0.0130726
3.19105
6.99392
1.21618
0.0228287
-20.3214
-3.16317
-3.12086
5.6198
-21.1959
3.21839
-10.9316
7.90574
-28.788
-1.58318
8.53895
7.67011
3.02541
-14.0693
-17.9948
7.12671
0.059929
8.03175
3.51691
0.250524
6.48963
1.82922
1.82654
1.19657
-3.9756
-7.25539
4.38368
-0.55188
8.74226
1.95309
12.3756
-0.351928
1.76158
7.76858
0.762698
1.65771
6.86403
5.50601
3.91491
-8.69331
-0.640366
6.08264
4.10836
2.25088
-34.3404
-1.50104
-24.8967
-23.9295
-4.6402
5.77678
-1.18674
5.20303
-0.463336
10.662
8.02259
2.46195
5.28544
2.28901
-20.5176
5.94778
4.68788
0.363398
2.65839
7.97346
7.10747
-0.858565
-26.311
-9.80312
5.72843
2.94192
0.280157
6.86164
-45.1212
5.99197
-11.8871
6.26452
3.07437
-0.845845
2.82992
7.43587
-1.18138
6.58497
8.49198
1.03936
-3.06088
3.66369