/*--------------------------------*- C++ -*----------------------------------*\
| =========                 |                                                 |
| \\      /  F ield         | OpenFOAM: The Open Source CFD Toolbox           |
|  \\    /   O peration     | Version:  2306                                  |
|   \\  /    A nd           | Website:  www.openfoam.com                      |
|    \\/     M anipulation  |                                                 |
\*---------------------------------------------------------------------------*/
FoamFile
{
    version     2.0;
    format      ascii;
    arch        "LSB;label=32;scalar=64";
    class       surfaceScalarField;
    location    "3";
    object      phi;
}
// * * * * * * * * * * * * * * * * * * * * * * * * * * * * * * * * * * * * * //

dimensions      [0 3 -1 0 0 0 0];

oriented        oriented;

internalField   nonuniform List<scalar> 
20045
(
0.489741
-0.52297
0.033229
-1.05873
0.369242
0.689484
0.385931
1.93563
-2.32156
0.0339164
-0.00399446
-0.0299219
-0.827187
0.807325
0.0198615
-0.60484
2.23294
-1.6281
-1.00708
0.442046
0.565033
0.0658748
0.423248
-0.489123
0.469158
0.40629
-0.875448
-0.837014
-0.0920462
0.92906
-0.159148
-0.501641
0.66079
2.25059
-1.06763
-1.18296
0.343661
-0.352775
0.00911433
-1.27789
1.10445
0.17344
-0.326867
1.0519
-0.725034
-1.08704
0.250026
-0.0380062
-0.0605688
0.098575
0.728988
-0.580389
-0.148598
-1.7232
2.52262
-0.799422
-0.748448
0.0626956
0.685752
0.0660436
-0.122494
0.0564507
0.111527
0.232134
-0.123722
-0.935005
0.706303
1.13547
-1.84177
0.817386
0.218269
-1.03566
-1.18287
1.88917
-0.36631
0.443252
-0.0769414
-1.27052
2.42437
-1.15385
1.7201
0.254943
-1.97504
-2.37059
1.29288
1.07771
-0.296578
-0.0309643
0.327542
1.41988
-0.995097
-0.424782
-0.777422
1.65398
-0.876563
2.42873
-1.37843
-1.05029
-0.54623
0.612105
2.16567
-1.07266
-1.09301
1.43369
0.130327
-1.56401
-0.0627448
0.380881
-0.318136
-1.86739
0.82183
1.04556
0.578302
0.515651
-1.09395
0.0571004
0.397053
-0.454153
0.152556
-0.21167
0.0591145
2.21051
-2.21495
0.00444102
1.48437
-0.55808
-0.926287
0.698605
0.785762
1.00986
1.24073
-0.31713
0.536151
-0.219021
1.26378
0.541669
-1.80545
1.73609
-0.302403
0.163494
1.8972
-2.06069
1.29952
-2.19974
0.900224
1.73601
-1.2563
-0.479709
-1.19943
-0.831398
2.03082
-0.0944591
-0.293206
0.387665
0.761671
-0.237509
-0.524161
-0.684125
-0.143062
-0.0969361
1.61237
-1.51543
1.52444
0.13326
-1.6577
1.06432
-1.84174
1.99809
-1.23099
-0.767097
-0.031455
-0.46077
0.492225
0.924063
1.07403
0.457885
-1.70435
1.24647
0.155462
-0.0894187
1.13788
-0.207302
-0.930582
1.63539
0.114667
-1.75006
0.0472355
-0.029864
-0.0173715
-0.670354
0.163645
0.506709
0.832859
-0.363702
1.76572
-1.79696
0.0312438
0.0513575
-0.00412201
-0.0496998
0.81137
-0.247102
-1.03358
1.28068
0.191929
-0.426042
0.234113
1.81169
-0.42496
-1.38673
1.34853
-1.44547
0.0625593
1.74913
0.424965
-0.751832
-0.170657
-0.540998
0.711655
0.359366
-1.19194
0.832573
1.03692
1.18273
-2.21965
0.901486
-0.693711
-0.207775
1.37177
-0.913884
-2.56049
0.476674
2.08381
0.0308332
0.458908
-0.547397
0.618533
-0.0711361
0.501521
-1.26542
0.763897
-1.60355
0.0708031
1.53275
1.03948
0.14927
-1.18875
-0.838719
0.779501
0.0592181
-1.41875
-0.22586
1.64461
0.710543
-0.124095
-0.586448
0.395121
-0.553836
0.158715
-0.159219
-0.811951
0.97117
0.572846
-0.613154
0.0403081
1.49458
0.37371
-1.86829
-0.469445
0.103134
-0.152539
0.155429
-0.00289027
1.19547
-0.617169
-0.0381476
-0.0937705
0.131918
1.47357
0.692101
-0.456872
-0.821016
-0.0259966
-0.126542
-0.314238
1.83868
0.0084116
-0.555808
0.0771795
-0.115327
0.445718
1.20101
-1.64673
1.04091
-1.71202
0.671108
-0.487787
-0.446885
0.388676
0.058209
-0.237942
0.300202
-0.06226
1.2287
-0.894656
-0.33404
-0.487463
0.393004
1.27243
-2.20505
0.932619
-0.158298
0.309712
-0.151415
0.0510949
-0.291957
0.240862
1.16179
-0.344399
1.75568
0.673051
-1.15561
0.908508
1.36729
-1.8987
0.53141
0.510564
0.218424
-0.537905
0.506451
-0.758162
0.611982
0.14618
-0.826478
0.098837
-0.575591
0.476754
1.22136
0.514654
1.09811
-1.40729
0.309177
1.60628
0.19289
-1.79917
-2.12183
1.6053
0.516523
-0.0579179
-1.00142
1.05934
1.82803
-0.606675
0.212611
0.32354
0.371083
-0.260753
-0.110329
-0.178783
0.127314
0.0514683
1.13861
0.803427
-1.94204
1.18607
-1.15163
-0.0344344
-0.338255
0.205025
0.13323
-0.316564
-0.130321
2.1422
-0.774914
-0.636458
0.67704
-0.0405819
1.26701
-2.24165
0.974644
0.328113
-1.52754
1.13374
0.4386
-1.57234
1.32737
-0.968004
2.01324
-0.264291
-1.74895
1.12499
-2.0023
0.877314
2.17381
-1.39929
-0.774516
-0.259017
0.468945
-0.209928
-0.033445
2.11775
-2.0843
2.13243
-0.412332
-1.65712
0.0566016
1.60052
-0.935876
0.821367
0.114509
1.99983
-0.962909
0.342987
0.558499
-1.25357
1.55251
-0.298945
-1.60064
1.98657
0.0251713
-0.352383
0.327211
0.0796754
-0.107448
0.0277728
-0.0366362
-0.362425
0.399061
2.27191
-0.839002
-1.43291
2.73527
-1.34304
-1.39223
-0.435583
0.398947
0.667386
-1.31984
0.652456
0.183
-0.0304441
-1.57054
-0.943657
1.37793
-0.434271
-1.34323
0.975442
0.367793
-0.032625
-0.0387917
0.0714166
0.990878
1.18293
-0.104539
-0.0742433
0.158452
0.212631
-1.41562
0.162054
-1.46225
1.86399
-0.401739
-1.29644
1.49294
-0.196496
-1.17432
-0.851667
2.02598
-0.795119
0.499754
0.295365
0.913493
-0.946939
0.033446
1.8617
0.133048
-1.99475
0.0214326
-1.49813
1.4767
-0.707459
1.84119
0.377306
-1.0677
0.690393
-0.901204
2.17363
-1.6445
1.0682
0.576303
0.479667
-0.565729
0.0860614
0.956819
-2.50393
1.54712
-1.94298
0.672461
-1.21371
-0.830663
2.20654
-1.33022
-0.876324
-0.522816
0.579916
0.291735
-0.30928
0.0175447
-1.52406
-0.285826
1.80988
-1.74603
2.4213
-0.675267
1.78747
-1.31429
-0.473179
0.174946
-0.504256
0.32931
-0.546735
-0.90683
1.45357
0.513217
-0.672365
-0.944587
0.88667
-1.43378
-0.474046
1.90783
0.207017
0.0539574
-0.260974
0.277859
-1.22152
0.0327577
-0.329336
1.73364
-0.127363
-0.30558
0.242835
-0.303405
0.364849
-0.0614439
0.414882
1.85703
-1.55516
1.00842
0.445805
0.0195146
-0.46532
-1.38832
0.259286
1.12903
0.565668
1.2218
2.61373
-1.65691
1.49042
-2.5256
1.03517
0.407187
-1.73951
1.33233
0.0534251
-0.801873
-0.97006
1.41578
1.30546
-1.9103
0.720742
-1.50884
0.788097
-2.58113
1.4773
1.10383
-0.0246258
-0.814093
0.353044
0.262734
-0.615778
1.44153
-0.452948
-0.988582
-0.131777
-1.4733
1.43986
-0.493793
-0.142666
1.30148
2.1535
-1.7296
-0.423907
-0.0204562
-0.258852
0.279308
1.34195
0.238751
-1.58071
0.516047
-0.337211
-0.178837
-0.3698
1.38546
-1.01566
-0.915487
1.41701
1.11332
-0.736012
-0.129007
0.352434
-0.223427
1.89007
-0.623058
0.203024
-0.0189724
-0.184052
0.2092
-0.240347
0.0311468
-0.240439
0.249724
-0.00928516
2.17705
-1.36974
-0.80731
0.478817
-2.22485
-0.264579
0.02414
-1.73474
0.572825
1.16191
2.47276
-0.818779
0.503018
-1.96527
2.58569
-1.15289
-1.4328
-0.0300316
0.237048
1.56538
-0.790886
-0.774498
-1.22083
0.286092
0.934733
-1.93662
1.9493
-0.0126793
0.623258
-1.83468
1.21142
0.0928337
-0.127659
0.0348251
-0.924789
1.25972
-0.334932
-0.331615
0.521654
-0.190039
-0.281138
0.12284
-0.281672
0.0437299
-1.07982
-0.632199
0.810842
-1.57658
0.76574
0.659344
0.1144
-0.773744
0.797356
0.622522
1.36656
-0.645813
0.0193101
0.0603653
1.40699
1.06577
-0.978551
0.0203921
0.958159
0.601005
0.964379
0.75037
0.301531
0.0577747
0.601569
-0.555688
-0.037688
0.593376
-0.0933871
0.573054
-1.46499
1.09519
-0.325312
0.245056
0.0802558
-1.81343
1.74269
0.0707413
-0.674191
1.08311
-0.408922
-0.444037
-0.202978
0.647015
1.52162
-1.65199
0.130375
-1.57565
-1.00548
2.56373
-1.62138
-0.942353
-0.201867
0.181411
2.01809
-1.39483
-0.810256
1.6211
-0.370046
-0.324356
0.694402
1.62339
-0.370225
-1.25316
2.33016
-0.627849
-1.70231
-0.77209
0.402044
1.63018
-0.96187
-0.668305
-0.317982
1.55598
-1.238
1.36112
-2.1551
0.793986
0.661132
-0.0796034
-0.581528
0.38902
-0.18324
-0.20578
2.49707
-2.04261
-0.45446
-1.15323
-0.968593
1.4191
0.734399
-1.65747
-0.155964
0.144512
0.0646883
0.142951
-1.2394
1.09645
0.00824124
0.283494
-1.07817
2.21678
0.851297
1.32575
2.40082
-1.45246
-0.948363
-1.85955
1.3855
1.42596
-2.40106
0.975099
-1.24584
-0.0773214
1.32317
-0.450271
-0.34898
0.799251
1.08321
-0.415821
0.0260782
0.419727
0.93087
-0.0473633
-0.947733
-1.3774
1.85613
-0.478733
-0.352116
0.0487106
-0.129486
0.000478565
0.250654
-2.18728
0.636298
-1.55179
0.21203
-0.411438
0.553904
-0.142466
0.0124609
0.0214554
-1.00888
0.758675
0.250205
0.688887
0.53981
0.439938
0.682365
-1.1223
0.986944
0.199123
-1.12622
1.26917
1.14626
-0.106781
-0.402485
-0.985832
2.0132
-1.56229
-0.450917
1.76572
-1.50748
0.441215
1.06627
1.58074
-1.71778
0.137042
-0.868468
0.709248
-0.212375
-0.125881
-0.223419
-1.19533
0.55502
-1.06581
0.510789
0.821508
0.808668
1.40005
-2.26644
0.866381
0.438713
-1.05236
0.613651
-1.94112
0.337564
0.0191815
0.691362
-1.12481
1.73355
-0.608742
-0.510721
0.606812
-0.0960915
-0.792089
-0.21499
-0.243496
-0.442503
0.685999
0.17529
0.0023221
-0.177612
-0.650916
-0.284959
0.757822
0.883156
-1.64098
1.44535
-0.84435
0.548217
-0.903065
0.0345972
0.906894
-0.468181
-1.3105
-0.334008
0.397594
-0.641663
0.24407
1.93509
-0.671312
-0.890243
1.47001
-0.579771
-0.22425
0.254921
-0.0306716
1.47698
-0.0354488
-0.293623
-0.945776
-0.985901
1.81972
-0.833816
1.25245
-2.25937
1.00692
1.18328
1.38045
0.411323
-0.494727
0.083404
0.177293
-1.42314
1.33519
-2.00787
0.672684
0.299288
-0.10736
-0.146115
1.24423
-0.70482
1.34112
-1.28613
1.69332
0.410904
-2.13411
-1.76452
0.954492
0.810029
1.2636
-0.19459
-1.06901
1.86433
-0.34271
-0.89329
-1.06246
-0.938728
1.03108
-0.19213
0.266727
-0.0745975
0.628616
-0.565921
-1.40652
1.2604
1.7498
0.46071
-1.54694
0.656699
2.12388
-0.704782
-0.0803823
0.474956
-0.394574
0.0374307
-1.25
1.21257
-1.80246
0.340106
1.46235
1.59415
-1.59415
-0.470051
1.38549
-0.915444
1.22357
-0.783635
1.405
-0.796274
-0.608729
-1.85677
1.93734
-0.0805773
0.659632
-0.0905555
-0.569077
0.509325
-0.219901
-0.289424
0.210914
-0.654951
0.0204817
0.884808
-1.69506
-1.67947
1.97617
-0.296704
-0.560016
1.31784
0.284731
-0.0241894
-0.260542
-0.214019
0.230739
-0.0167202
-0.751625
0.805051
2.30391
-1.87265
-0.431261
-0.156651
-1.0565
1.21316
-0.443971
0.488025
-0.0440547
0.234624
-0.54581
0.311187
-2.00048
0.769819
1.23066
-0.0233714
0.0193769
-0.37068
0.290297
0.102035
-0.256201
0.154166
1.1377
1.35938
0.198174
0.0865575
-0.0895656
-0.581168
0.670734
-0.995544
1.58081
-0.585268
-0.0218381
0.182048
-0.16021
0.850448
-0.408401
1.47346
-0.494106
-0.979353
0.0123798
-0.82433
0.218917
1.64278
0.838113
0.594367
-1.43248
0.90878
-0.811876
-0.0969039
-2.03106
0.373947
-0.839135
0.343918
0.495217
0.913505
1.18907
-2.10257
-1.24488
1.16756
0.119006
-1.80949
1.69048
-0.241838
0.416784
0.475695
-0.578698
0.103003
0.0395349
-0.595223
-0.0712305
0.00742483
0.0638057
-1.32822
-0.40652
1.22244
0.188928
0.0420744
-0.231002
-0.226837
0.00258762
0.345786
-1.41728
1.07149
0.468812
1.07277
-1.54158
0.754081
-1.40996
1.72778
-0.317824
-1.42315
1.10516
0.316519
0.126732
-0.780112
-0.563123
-0.496483
0.135856
0.360627
-1.71148
0.715934
1.33894
-1.49559
0.885024
1.23886
-0.579006
0.589684
-0.0106775
0.792676
-1.98373
1.19106
0.283313
-0.520125
0.236812
0.941885
-1.23551
-1.26026
-0.0361842
-0.608838
-0.0615161
0.0945885
-0.00113713
-0.0934514
0.728258
-0.0577796
-0.0784155
0.136195
1.97876
-1.06526
-0.645576
1.45978
-0.814203
0.521266
0.343133
-0.864399
-0.727463
0.485625
-0.406747
-0.0897358
0.857424
0.547579
-0.421853
-1.47684
0.704093
-0.3065
1.22894
0.809034
0.337229
-1.80855
1.97204
0.22932
-0.935535
0.706215
-0.177827
-1.65091
1.82873
-0.336926
0.324768
0.0121579
-0.220561
-0.574557
-0.86016
2.22128
2.06734
-0.942354
-0.862026
-0.146853
0.0263381
-0.814186
0.787848
0.808625
-1.98294
-0.25348
-0.9384
1.19188
-0.0537693
-0.0398589
0.0936281
-1.30429
0.11137
1.19292
1.89552
-1.35385
-0.0442866
0.159265
-0.114978
-0.414943
-0.0290273
0.345293
0.707338
-1.05263
0.230288
-0.288355
0.0580669
1.27941
0.731203
-2.01061
-0.768119
2.2627
0.173663
0.0016273
-0.53424
-1.12894
1.66318
0.707734
1.43447
1.85633
-1.38751
-0.676717
0.433221
0.105226
0.283795
-0.896214
2.32218
0.272809
-1.52905
1.25624
1.80672
-0.289564
-1.51716
-0.955847
1.42036
-0.464513
0.785059
-0.816564
-0.902194
1.71876
0.114865
-0.199762
0.0848968
-0.570459
-0.970285
1.54074
-0.00999903
-0.20402
0.0474042
-0.0800292
1.0119
-1.58236
-1.41528
-0.41372
1.829
-0.126513
-0.953119
1.07963
0.557528
2.51411
-2.57364
0.0595278
0.412988
-0.298478
-0.11451
0.0174504
-0.596457
0.514815
0.456355
-0.615143
0.164872
-1.61082
2.04098
-0.430153
-0.205007
-0.120305
0.596492
0.730878
-1.72233
-0.49262
-0.0915247
0.17069
-0.0791656
1.06828
-0.259242
-0.395779
0.436629
-0.0408504
0.120832
-0.452447
-2.32312
1.1094
1.85304
0.379897
-0.258803
0.493427
-0.381701
0.902967
1.66426
-0.77945
-0.408757
0.0129781
-0.194719
-1.2118
0.422081
0.438504
-0.413333
-1.83442
0.0319607
0.0872214
0.408845
-0.125531
-1.91318
1.28543
0.627748
1.49394
0.271783
0.354805
-0.108137
-0.246668
0.532265
-0.502028
-0.0302371
-1.67174
0.599076
-2.02366
1.03776
-0.129391
0.354839
-0.225448
-0.100127
0.281834
-0.181707
2.11449
0.0105812
-2.12507
0.325195
0.0180844
-0.343279
-0.265528
-0.492634
0.424663
-0.0295416
0.523048
-0.518844
-0.00420412
0.750139
-0.11675
-0.633389
0.001588
0.52146
1.66316
-1.28945
-0.0592513
-0.269817
0.329069
-2.05329
0.442466
-0.0900337
-0.226485
0.200488
-0.149515
0.338443
-0.00765295
0.026963
0.475491
0.302408
-0.777899
0.886005
0.251878
0.880631
-0.651311
0.410409
-0.359314
0.123439
-0.63416
1.23033
-0.0333818
-1.19694
1.06316
-0.0632421
-0.999917
-1.2397
-0.762604
-0.216354
-0.34566
0.562013
0.8106
-0.879561
0.0689613
2.18252
-0.0554137
-2.12711
-0.527865
-0.2183
0.746165
-0.972798
1.29086
-0.318062
1.09591
1.30042
-2.39633
-0.0740603
-0.386709
-0.518591
0.838021
-0.31943
0.407892
0.193609
-0.601501
-2.16644
1.16107
1.00537
-0.457446
-0.0613971
-1.68761
0.272333
0.568461
-0.358423
-0.210037
0.970637
-1.22522
0.254584
-0.150011
-0.372959
0.375124
2.13899
1.63768
-0.266859
-1.37082
-1.68509
0.275132
0.66774
-1.07023
1.4267
-2.24648
0.81978
-0.18145
0.534494
-0.0581218
-0.772662
0.683096
-0.307324
0.406161
-0.267287
-1.57846
1.84575
0.840069
1.17802
-1.47621
1.55729
-0.0810843
0.0397703
0.0548182
-1.21778
-0.516549
-0.221939
0.246948
-0.0250094
0.642339
-0.56584
-0.0764992
0.067169
-0.0419149
-0.0252541
-0.133321
1.10396
-1.56468
-0.193441
1.75812
-1.49961
-0.484505
1.98412
0.945242
-0.69189
-0.253352
-0.381787
0.0422032
0.339584
-0.65725
-0.0133888
0.670639
-1.98473
0.0959688
1.88876
0.0559695
0.351774
-0.407743
1.58156
-1.78917
0.207614
-1.03359
1.83686
0.0104212
-1.84728
0.0178265
-0.239766
-0.282901
-1.01546
1.29836
1.21113
-2.11233
-1.89365
1.64486
0.248787
0.272419
-0.0421312
1.361
-0.764503
-0.0902064
-0.494165
0.584371
-0.0175826
0.288794
-0.271211
-0.427139
1.83645
-1.40931
1.5844
-0.78254
-0.801858
2.03367
-1.94155
-0.0921213
1.57163
-0.603645
-0.967988
0.0913517
-0.429304
0.337953
-0.554705
-0.0208855
-1.90169
1.6742
0.227498
0.109171
-2.01087
-0.593902
1.07885
-0.484948
-1.17185
-0.870762
0.349179
-0.313165
-0.0360133
-1.60994
-0.443352
-0.335095
0.216455
0.11864
0.325556
0.190491
-1.83629
1.7676
0.0686853
-0.392331
-0.391898
-0.0341435
0.348483
-0.0232885
-1.20176
0.276976
0.233098
-0.295619
0.062521
-1.49821
0.696583
0.801624
0.689727
-0.0300951
-0.497345
1.3132
0.163778
0.701641
0.0829243
0.455854
-0.538779
-0.179561
1.09305
-1.18198
0.765772
0.416212
-0.502219
0.0447723
1.97204
-1.13197
1.70054
-0.907859
-0.483879
-0.318141
0.80202
0.820415
-1.68375
0.86334
1.082
-1.20851
1.94385
-0.859099
-1.08475
-0.00864619
-0.999328
-0.182657
-1.85836
1.76556
0.0928021
0.258603
-0.628507
2.11893
-2.11177
0.501831
0.674949
-0.013817
-0.188265
-0.0143452
0.257323
-0.00759915
-0.981377
-1.00921
2.42733
-1.0788
0.0126637
0.526248
-0.538912
0.133353
0.375972
-1.31425
-0.75425
2.0685
0.398673
0.684535
-0.00218775
-0.261669
0.263857
1.63962
-0.427684
-0.114188
0.541872
1.2276
0.00272914
-0.708829
-2.01088
0.331418
-0.413686
0.0199727
0.393713
1.1252
1.46049
0.786692
-0.324237
-0.462455
1.95019
0.0834809
1.18655
-1.66865
0.482104
-1.63845
-0.0348313
1.67328
-1.54635
2.00023
-0.453881
0.250205
-0.00557504
-0.24463
-0.866623
2.07775
-0.587688
0.335886
0.251802
0.0666809
-1.54289
0.279443
-0.0653436
-0.214099
-1.90424
2.47084
-0.566606
-0.471362
1.04649
-0.575126
2.32509
-1.02255
-1.30255
-0.0193684
-1.18457
1.20393
-0.521894
-0.0568034
-1.03038
2.1263
0.896445
-1.3665
2.21671
-0.964255
-0.343424
0.284173
-1.72491
0.0864645
2.39663
-0.996577
-0.054008
-2.50648
0.447424
-0.050371
0.622033
1.01151
-1.63354
1.09417
-0.239942
-0.854225
1.64334
-1.91917
0.27583
-0.291369
0.0202517
0.271117
-0.381887
-0.941865
1.32375
0.683719
-0.560281
-0.765962
0.277245
0.488718
0.244016
0.579512
-0.823528
0.15372
0.195459
-1.74538
2.05353
-0.30815
-0.239464
-0.097462
0.877585
0.38904
-1.26662
1.11577
0.937491
-2.05326
0.294916
0.968682
-0.0370413
2.05028
-0.00330199
1.56594
-1.56264
-0.0185122
-0.00332592
0.260491
0.021229
-0.281719
1.77693
-1.69908
-0.0778465
0.887584
1.05627
-0.133916
0.07507
0.0588462
-0.573523
1.60133
-1.02781
0.035657
0.275272
-0.310929
0.937208
-1.59634
0.659132
-0.959315
-1.13545
2.09477
1.66211
-0.320156
0.603901
0.490266
-0.84173
-0.209307
1.05104
0.555302
-1.61181
-0.429664
-0.144494
0.574158
0.352157
-0.155256
-0.196901
-0.0549049
-0.46699
-0.159131
1.4676
-1.30847
-0.280411
2.17761
1.53183
-1.22464
-0.30719
1.23362
-1.08435
-1.0314
0.304613
0.726786
0.195058
-0.991333
-0.107145
0.156819
-0.0496741
0.102129
0.252676
0.289098
1.46032
-1.74942
0.395702
0.354436
0.247645
-1.74726
-0.837997
0.346043
0.491954
-0.617273
-0.463149
1.08042
0.913477
-0.437985
-1.67153
1.11151
0.559221
-0.442366
-0.116855
-0.902642
1.61134
-0.708694
-0.850586
0.862966
-0.82994
1.08248
-0.252543
-1.10698
1.71983
-0.612852
-0.0432768
0.398215
-0.354938
-0.277113
0.176986
-0.571631
-1.16127
1.7697
-0.608427
-1.06921
1.32849
1.00006
-1.00328
0.00322246
0.42253
-0.353186
-0.0693446
-2.47584
1.69223
0.783613
-0.0622002
0.466778
-0.404577
0.0483172
1.35716
-1.7843
1.57802
-0.757601
-0.729262
-1.03526
-1.39932
1.39602
0.994783
-0.0193413
0.775835
0.2545
-1.03034
-0.617604
0.565497
0.0521071
0.358442
-0.382415
0.0239732
-0.112271
-0.700628
0.812899
-0.344364
0.975864
-0.6315
-1.49711
-0.496443
1.99355
0.254538
0.167992
1.51736
0.259569
-1.5479
1.12176
0.42614
0.539293
-0.786249
0.246956
0.00883306
0.316642
-0.419458
0.102815
-1.29275
-0.9752
0.862929
0.248017
0.368966
-0.277615
0.574577
0.067762
0.0656044
-1.06703
0.0531604
0.519685
0.16899
0.0517028
-0.220693
-1.21092
-0.916638
2.12756
-0.135642
-0.706089
-1.00525
-0.197573
1.20283
0.2538
0.337525
-0.591325
-0.0190511
2.22797
-1.43343
-0.794534
0.333242
1.30444
0.165001
0.665858
-0.810614
0.144756
-0.849013
1.88675
-1.03773
-1.11336
-0.498873
1.61223
-0.862414
0.343823
-0.821896
-0.209502
2.0027
-0.8883
-1.1144
0.344739
-0.523112
0.178373
0.770134
0.0910869
-0.861221
-0.300169
0.356138
0.716824
-0.826156
0.109332
0.653693
-0.0494917
-0.386091
-0.0169383
1.1323
0.870403
-0.762074
1.5839
-0.767722
2.0606
0.0108993
0.333839
-1.69058
0.577223
1.41092
-1.23363
-0.181375
-1.21963
0.24683
0.416045
-1.00995
1.43605
-1.39862
1.6206
-0.0398579
-0.366475
-0.187361
-0.56482
-0.137256
0.702076
-0.548946
-0.0642079
1.46147
0.283526
-1.745
0.060677
-0.488551
0.427874
0.0205077
0.581575
-1.58432
1.00274
1.72278
-0.141222
-1.85223
1.97043
-0.118205
0.412969
-0.249324
-2.15146
-0.324386
-0.655026
1.73106
-0.0568605
0.761617
2.22357
-0.809412
-1.41416
-1.25373
-0.0793456
1.33308
0.372337
1.01373
-1.38606
-1.36126
0.0569628
-0.319606
-0.294876
0.614483
-0.925907
1.19872
0.25473
1.02862
-1.28335
-0.667438
0.7504
-0.0829613
-1.89151
0.220374
1.67113
0.606575
0.971441
-0.430325
1.0957
0.475933
-0.592869
-0.246267
1.52386
-1.78815
-0.519749
-0.685979
1.20573
0.289857
-0.363918
1.32972
0.0967035
-1.42642
1.32683
-2.09455
0.0415611
0.0512726
-0.993689
1.20889
-0.215205
-1.26399
0.981092
-0.0262579
0.50994
-0.483682
-0.72937
0.231521
0.497849
0.50494
-0.725501
-0.475173
1.14291
0.209959
-0.33935
-0.274428
0.292254
0.268285
-0.605496
0.0507049
-0.178364
-0.357199
0.342145
0.0150532
0.364763
-0.416656
0.0518935
-1.35384
0.928882
0.264175
-1.26943
-0.0181643
-0.504651
0.0537094
1.06638
-1.12008
0.598925
-0.636613
0.361456
-1.56532
1.20386
-0.560502
1.37731
-0.816811
0.387774
-1.76517
-0.106232
-0.0494581
-1.84419
1.05008
1.37726
-1.47564
-0.195887
-1.07649
-0.430994
-0.765018
0.322515
0.527084
-0.0505356
-0.476549
2.3292
-1.204
1.75206
-0.416877
-0.446863
-0.273708
0.720571
-2.23433
0.938815
1.29551
-0.706545
0.204904
0.0516199
1.78524
0.286411
-0.174884
-0.883498
-0.102381
-0.485307
0.613262
-0.564151
-0.0491118
-0.232824
1.6943
0.249529
0.282781
-0.53231
1.3831
-2.55093
1.14943
1.4015
0.448969
0.367846
-0.816815
1.1917
-0.552767
-0.638933
-0.980578
0.509216
-1.15189
0.0306952
0.739438
1.76732
-1.94515
0.749744
-0.341852
-0.788144
1.34345
-1.85807
1.33526
0.522807
1.02367
-1.67492
0.651245
-1.37678
1.44362
-0.0668356
0.840018
-1.01958
0.0236823
0.469657
0.475584
0.201131
-1.39307
0.543563
-1.85908
0.967178
0.891907
0.457678
-1.71141
1.43428
-0.0964617
-1.12436
0.240972
0.321517
2.01886
-0.671678
-1.34719
-0.630089
0.495506
-1.11278
0.268755
-1.89516
1.81581
-1.51846
0.701897
0.938085
-1.44555
0.722114
0.723433
-1.64189
1.08312
0.558764
-0.473626
-0.109973
0.0562037
-1.92503
1.34546
0.579567
1.18688
-2.0535
-1.72071
-0.0246689
2.21446
-0.787753
0.561494
0.185507
-0.747002
-0.0424179
-0.267391
0.309809
-0.489884
0.937368
1.0488
-0.853121
-0.592426
0.336531
0.347189
0.445701
0.655917
-1.10162
0.680779
-0.418045
-0.067134
-2.13163
2.19877
-0.617382
0.822781
-1.53024
-1.2399
-0.849594
2.08949
0.458572
-0.582667
-1.27972
0.39129
0.888427
-0.012408
0.0176546
-0.00524661
1.62045
-1.88773
0.0300071
-1.0237
0.892345
0.800829
-1.69317
-0.396713
0.409377
-1.55236
0.431858
1.1205
-2.00432
1.04501
1.05028
-1.8993
0.945963
-1.46571
-0.00799877
-0.00440924
-0.0685368
1.87526
-1.17178
1.44652
-0.274732
1.84065
0.000451006
-1.8411
-1.35067
-0.023688
-0.38775
0.104436
1.48972
0.197735
0.0571866
0.620338
0.371512
0.852061
0.958304
0.0250774
0.333364
-1.72826
-0.108033
-1.44348
0.599967
-1.39085
0.301092
0.357788
-0.65888
1.58853
0.0868576
-1.67538
-0.187142
0.181567
-0.636359
-1.3873
-1.4977
-0.220083
-0.805037
2.13187
-0.63498
0.849679
-0.214699
-1.75632
0.545398
-0.509
0.9547
-0.668634
-1.24455
-0.759445
-0.611422
0.644867
-0.963632
-0.534575
1.99433
-0.263277
1.20289
-0.569442
-0.633445
0.18527
0.167165
0.452499
1.95307
-1.83407
0.0215109
-0.404548
0.563263
-0.943714
0.964107
-0.828564
-0.955713
0.392053
0.310659
-0.702713
-1.6432
0.0490498
-0.220637
1.44704
-1.2264
-0.13088
-1.72135
-1.34411
1.58286
2.61602
-1.144
-1.47202
-0.273769
0.617687
1.55314
-0.84247
-0.710668
0.467136
-0.516627
0.15159
0.1089
-0.397139
0.103319
0.293819
-0.235308
1.01114
-0.90327
2.09015
-0.0707493
-0.242416
-0.503222
-0.133914
0.637137
-0.0362536
1.6567
0.0282217
0.844895
-0.873117
-0.708927
1.05422
0.817878
0.783453
-0.632368
-0.20563
0.943793
-0.343946
-0.599847
-0.23725
0.198695
0.0385553
0.265246
-1.53709
1.27185
-1.75192
0.254219
0.387011
-0.804206
1.40417
-0.0154789
0.482615
0.206753
-0.841734
-1.91966
0.980928
-1.98301
0.63997
-0.823736
0.0721101
-0.794618
-1.07744
1.87206
-1.76267
0.151597
0.531116
-0.682713
1.90562
-1.42895
1.4961
-1.12376
0.301556
0.985326
-1.28688
0.411152
-0.730759
-1.32225
-0.297493
1.61974
-0.0229017
0.342496
-0.319595
-0.85971
1.92591
-1.0662
1.52514
-0.952336
-0.572805
1.49111
0.0432733
-1.53439
-1.05785
-1.49308
-0.600471
-0.00836759
0.67886
1.14917
-0.0327342
0.148679
-0.115945
-1.25487
-0.297488
1.37346
1.14916
-0.988703
1.17758
-0.18888
-0.571264
0.457076
-0.0154126
0.73136
-0.715947
0.467135
-0.217605
-0.211019
-1.71401
-1.56628
0.525287
0.0339338
-0.322462
0.355219
0.127255
1.39698
-1.52424
-0.943316
-0.258449
0.934669
0.510686
0.128891
-0.445455
0.0842146
0.268237
-0.352452
0.183529
-0.668217
0.484688
0.570206
0.512908
0.309009
1.52779
-0.706281
1.6805
-0.85772
-0.181294
-0.459015
0.640309
1.41065
0.145338
0.0649909
-1.23529
0.853399
0.985407
-1.02166
-0.991881
-1.06921
2.06109
-1.2151
-1.01923
-2.09699
2.18099
-0.0840007
0.220852
-0.705704
0.568448
1.03046
0.497333
-0.193346
-0.192438
0.385784
-0.585433
-1.21153
-0.123526
-1.38542
1.50894
0.822823
-0.42415
0.0621671
-0.491831
1.08339
-1.71975
0.887961
-0.669693
-0.518566
2.33612
-1.81755
1.11233
0.947147
0.535405
-1.48255
2.10301
-1.23304
-0.869969
-0.867964
-1.30196
2.18453
-0.882571
0.596824
0.606063
-0.504755
0.489276
0.802692
1.5224
-0.374362
0.331944
0.0485614
-0.106341
1.80507
-1.00164
0.855224
1.47398
-0.727179
0.371478
0.355701
0.413707
-0.897586
1.42743
-0.0977132
0.936913
-0.375419
-1.28652
-0.226696
1.51322
0.325719
-0.0711939
-0.254525
0.232102
0.180886
0.260889
-1.80724
-0.495577
0.535112
1.3129
-1.14172
-0.171184
0.282655
0.661138
-0.245768
0.13763
0.431107
0.427945
-0.859052
-0.922915
1.98723
0.381754
-1.08379
2.21337
-1.12958
-0.547659
0.791675
-0.663751
-0.00368775
2.05751
-1.01817
-0.639296
0.606617
0.585083
0.525671
-0.543835
-0.302507
0.25923
-0.524929
-0.22971
0.00287227
0.931888
-0.263892
1.52385
-1.25995
0.257674
-0.155639
-0.638872
0.144707
-0.566211
-0.0342596
-1.71817
1.18393
0.414707
0.423314
-0.159909
-0.356696
0.516605
0.535231
0.0833019
1.58143
0.826621
-2.40805
-0.145455
-0.0455229
0.190978
0.728654
-1.37423
1.72164
0.894384
1.46216
-1.3349
-2.19817
0.176228
-0.08566
-0.255398
0.868568
1.60825
0.270499
-1.87875
0.648868
-0.0499428
-0.0686777
-0.580327
-0.146852
-0.933123
-0.873437
1.0685
1.17446
0.28532
1.05966
-1.09045
0.0307839
0.330047
0.0120982
-0.114072
0.430714
-0.0659513
1.39056
0.372512
-1.76307
0.563472
0.0497907
-0.386078
0.230419
0.155659
-0.596314
0.00194468
0.594369
0.615972
1.04532
-1.6613
0.407649
0.505827
1.28733
-0.0355054
-0.451958
1.33484
-0.963332
-0.0709244
0.095513
-0.0245886
-1.84383
1.01317
1.55525
-1.24772
-0.307527
0.027517
-0.240467
0.21295
1.5751
-1.73423
1.00388
-0.18106
0.637032
0.859068
-0.197109
-0.0326008
-0.856753
0.240088
0.616666
-1.10396
-0.206115
1.99479
-1.01918
-0.975604
1.06168
-0.169768
-0.891909
0.725399
-1.25504
0.529643
-0.0532354
0.924222
-0.0173281
-0.56318
1.33026
-0.767079
-0.569622
-0.287131
-0.613227
-0.172803
0.455584
1.61964
0.00567791
-1.62531
-0.572669
-0.114922
0.283911
0.0767731
-0.00170315
0.939781
0.269113
-0.271673
0.338842
-0.0580274
0.150974
-0.256893
0.265305
-0.701211
1.00277
0.0277319
0.410772
0.350942
-0.578081
1.37544
-0.094258
1.15392
-0.28243
-0.178189
-0.421834
0.852941
-0.366277
1.66445
-1.29818
-1.48719
-0.200421
-1.06785
1.6965
-0.628644
-0.524501
0.351698
0.533618
-0.11037
-0.038102
-0.408368
0.44647
-1.51441
0.496232
0.160149
-0.204435
0.90754
-2.22179
0.651601
-1.78055
-0.591431
1.7269
-0.811705
0.880453
-0.452509
0.0229428
-1.17009
1.43534
-0.00169506
-0.257157
0.281944
-0.973834
-0.163061
-1.09475
1.25781
0.149833
0.800494
2.37652
-1.5668
-0.809712
-0.372964
0.122467
0.382464
0.0383091
-0.420773
-1.43649
0.264706
0.295008
0.0571494
-0.015885
-0.200841
0.216726
0.745099
-1.81295
0.152433
0.795532
0.0460442
-0.841577
-1.83734
1.47106
0.24891
0.0628492
-0.311759
0.584148
-1.74542
-0.220952
-0.0108271
0.231779
0.321224
-0.0723141
-0.00856143
1.27116
-0.976245
1.07261
0.855605
-0.447956
-1.75658
0.516686
-1.21046
0.957044
0.253414
1.02075
-2.01263
-0.870053
-0.524282
1.39433
0.152634
0.668733
-0.509827
0.419271
2.05334
-0.296166
-1.75717
-0.0189261
-1.70933
1.36299
0.128123
0.729656
0.823482
-0.248651
-0.0130179
0.240682
-0.497147
-0.568662
0.206967
-0.171064
-0.0359022
0.0259004
-1.66096
1.63506
-0.0742313
0.479404
-0.405173
0.672884
-1.68941
1.01653
-0.205116
-0.946517
-0.0631698
0.128551
1.19029
-0.58059
-0.328723
0.909313
-0.603811
-0.724409
0.750986
-0.440327
0.603427
-0.4414
-0.162027
-0.633498
0.473589
-1.44577
-0.238962
-0.0316717
0.270633
0.195611
0.5414
-0.737011
0.171147
-1.13387
0.962721
0.0185516
-0.953556
0.304509
-2.20874
-0.786615
-1.30699
2.0936
-1.69555
0.0793058
1.61624
-2.30157
-1.40318
0.0263946
-0.46235
0.479512
-0.017162
-2.13525
-0.62732
2.01788
0.632729
-0.330321
0.136498
-0.558332
-0.288447
0.794275
0.239259
0.134468
-0.63769
0.0287294
-0.233782
0.205053
-0.406241
0.147224
-0.154805
0.182322
-0.44294
0.891909
-1.74671
1.10125
0.64546
-0.538926
0.565004
1.0651
0.317183
0.00853581
-0.4573
0.263954
-0.839336
-0.440381
-0.920395
0.328757
0.591638
0.202858
0.387319
-0.590177
-0.671248
0.854777
-0.125066
1.2541
1.45105
-1.42283
0.977219
-1.58103
0.750462
-1.03263
0.282167
0.15089
0.00837447
-0.453801
-0.0409258
-1.85349
1.05887
0.209622
0.852056
0.0245414
-0.33302
0.308479
-2.73337
1.13273
-0.208335
-0.0320123
-0.317329
-0.0367326
-0.355277
0.39201
-0.944303
0.363714
-1.86073
1.64971
1.84544
-0.953093
-0.341726
0.305641
0.0360853
-0.0220327
0.192723
-0.236837
-1.88559
0.64369
1.2419
-0.219374
0.173851
-0.143032
0.513272
-0.370239
0.611698
0.392185
0.475929
-0.415456
-0.0604732
-0.436585
0.464317
0.248393
0.0508957
1.00429
-1.47721
1.83387
0.116321
-1.05527
-0.210144
1.68225
-0.0499106
-1.63234
-0.261591
0.148839
0.112752
0.980184
-1.96156
0.175918
0.647358
-0.823276
0.0412684
-0.0675799
0.0263116
-1.3141
1.28561
0.0284842
-0.759948
1.1214
1.22566
0.358742
1.66897
-0.584992
-1.08398
0.00625977
-0.0774361
0.0711763
-0.617509
-0.523763
-0.0309424
-0.507202
-0.016561
0.018823
-0.548399
0.529576
-0.144416
1.66255
-1.51813
-1.54526
0.602452
0.94281
0.469751
1.64474
0.0809867
0.0200221
-0.101009
0.980211
0.415759
-1.39597
0.205306
0.321778
-0.715383
1.77492
-1.05954
-1.51709
0.230567
1.17973
0.476265
-1.34632
-0.00199517
-0.176773
0.178768
1.84826
-0.472992
-1.37527
0.676409
0.360113
-2.07031
1.06111
1.94685
-2.01398
-0.889741
0.224221
0.66552
-0.256724
-0.144059
0.624132
-0.480073
0.00039111
0.106783
-0.107174
-0.0155047
0.185676
-0.170171
0.0609682
-0.109953
0.0489845
-0.966039
2.04943
-0.487237
0.513575
0.179433
-0.322465
0.619096
-0.919762
0.300666
-1.07111
-0.786964
-0.735633
0.0783826
0.515329
-0.0240243
-0.491304
1.88802
-0.15235
-1.73567
0.203416
1.10949
-0.388529
-0.229075
-0.953123
0.138936
0.861614
0.761424
-1.62304
-0.00356677
-0.0236332
0.0272
-0.0418014
0.574067
0.025922
0.635779
-0.661701
1.92917
-0.8292