/*--------------------------------*- C++ -*----------------------------------*\
| =========                 |                                                 |
| \\      /  F ield         | OpenFOAM: The Open Source CFD Toolbox           |
|  \\    /   O peration     | Version:  2306                                  |
|   \\  /    A nd           | Website:  www.openfoam.com                      |
|    \\/     M anipulation  |                                                 |
\*---------------------------------------------------------------------------*/
FoamFile
{
    version     2.0;
    format      ascii;
    arch        "LSB;label=32;scalar=64";
    class       volVectorField;
    location    "3";
    object      U;
}
// * * * * * * * * * * * * * * * * * * * * * * * * * * * * * * * * * * * * * //

dimensions      [0 1 -1 0 0 0 0];

internalField   nonuniform List<vector> 
13486
(
(2.741 -0.338468 2.36217e-18)
(3.25539 0.631461 1.12542e-18)
(5.02908 0.0883538 0)
(0.0343363 -0.30037 -8.39015e-19)
(4.48811 -1.05933 7.64918e-19)
(4.90723 0.312626 1.19289e-19)
(4.92259 -0.919689 1.66421e-20)
(3.78675 -1.39478 -1.2734e-18)
(3.72348 -0.716453 0)
(4.02253 1.59935 0)
(-2.38947 3.61006 -8.32281e-18)
(5.04096 -0.170186 0)
(2.44768 -0.743348 -2.36019e-18)
(4.9552 1.53088 1.64317e-19)
(4.71109 -0.76519 3.99845e-19)
(3.92225 1.5841 -6.49794e-19)
(0.811471 -0.705193 3.30526e-18)
(2.30598 -0.867307 1.08777e-19)
(4.5616 -0.0497906 1.04055e-20)
(3.13102 -0.0360562 -2.40241e-18)
(0.357082 -0.983522 -2.8141e-19)
(2.48987 -0.775693 3.0696e-18)
(3.31857 0.612349 -8.95846e-19)
(6.22186 -1.98404 0)
(4.09497 1.25148 2.11254e-19)
(6.07486 -1.88309 -8.81032e-19)
(-2.47805 2.62568 4.38298e-18)
(5.31235 -0.274622 2.00662e-18)
(4.04038 0.0943337 0)
(4.86083 -0.801814 -1.21143e-18)
(0.892218 -1.46145 -1.59245e-19)
(4.90992 -0.56716 -4.86761e-19)
(6.22464 -0.455267 1.85598e-18)
(4.32819 -0.215783 0)
(3.811 -1.34004 0)
(3.70591 0.00332039 -3.58066e-22)
(3.68379 0.332376 -4.45733e-20)
(2.9752 -1.38701 1.20999e-18)
(3.34686 -0.123752 -5.36153e-20)
(3.78114 -0.426241 1.1975e-18)
(4.62237 -1.62657 0)
(1.91758 -0.930952 -2.73577e-18)
(4.10924 0.00647354 0)
(4.13251 1.07687 -1.00328e-18)
(4.19296 1.04193 4.16931e-19)
(5.04319 -0.176359 3.1205e-19)
(-0.379505 2.61072 4.80995e-18)
(4.02734 0.0895772 -1.00694e-21)
(3.69216 0.313711 3.43602e-20)
(5.38725 -0.0217247 9.36419e-19)
(3.98713 0.0675096 1.3322e-18)
(3.5073 -0.0262935 0)
(5.11948 -0.358026 -4.27226e-19)
(3.13426 -1.14014 -1.76445e-18)
(2.3759 -1.03401 0)
(4.41827 -1.07312 -5.17321e-19)
(4.237 0.484088 -2.12661e-20)
(3.50936 -0.0507731 -2.20854e-19)
(6.16302 -0.455342 2.14643e-18)
(3.65751 0.55876 0)
(-2.75219 1.89102 -1.04031e-17)
(3.66882 0.547278 0)
(6.98467 0.759316 -1.74073e-18)
(0.468918 -1.03568 -2.94289e-21)
(3.21667 -3.42456 0)
(3.68702 0.371613 -1.9574e-20)
(-0.331859 -0.220768 -1.01278e-18)
(2.782 0.154537 8.03317e-19)
(3.72421 -0.778492 -7.00604e-19)
(3.63971 0.018121 3.94233e-20)
(-0.336033 -0.120294 1.16436e-18)
(2.35289 -0.990997 1.7566e-21)
(3.84838 -0.214899 8.85548e-19)
(-3.67262 -0.110007 -3.20462e-18)
(3.74361 0.438258 -2.86291e-21)
(4.2484 0.466932 5.35682e-21)
(3.77024 0.421634 5.39047e-21)
(4.71061 -0.8076 -1.63848e-19)
(-0.47235 4.48884 -2.85721e-18)
(3.45553 -0.84228 0)
(3.97335 0.0253089 -3.35477e-22)
(3.17851 0.851965 -7.02735e-20)
(6.93766 0.853739 1.75461e-19)
(5.20793 0.141853 -1.77091e-20)
(2.71831 -0.346026 -4.64608e-18)
(2.55755 3.59408 0)
(3.06535 -0.798228 -1.76656e-19)
(4.00761 0.108736 -1.98069e-18)
(3.73116 0.482683 -8.89112e-19)
(3.71325 2.14442 -7.04674e-19)
(5.03436 -0.531758 -2.58582e-19)
(4.04501 -1.21616 -6.63357e-19)
(2.80804 -0.530865 6.14638e-19)
(3.24043 0.194878 6.27311e-20)
(3.52082 -1.08295 2.83768e-19)
(3.99726 0.0771369 3.18592e-22)
(-3.41125 2.96055 0)
(-1.125 -0.536643 8.16475e-19)
(3.82027 -0.429254 -2.28861e-18)
(0.797962 -0.933175 -3.80536e-20)
(3.9943 0.0149499 0)
(4.90818 1.51705 4.85163e-20)
(-1.20813 -0.636196 8.16531e-20)
(3.48374 -0.0383293 2.5852e-19)
(2.65762 3.47203 0)
(0.72507 -0.615818 -2.13691e-20)
(3.89546 0.119116 3.56053e-21)
(3.33236 -0.189942 -1.25276e-19)
(-0.572575 4.34225 3.5451e-18)
(3.68806 -1.68502 0)
(2.84541 -1.3573 0)
(4.93409 -0.702846 -4.25658e-19)
(3.15385 -1.09089 1.21892e-20)
(4.25847 0.291485 2.44192e-21)
(2.03515 0.0145117 0)
(2.70809 -1.33899 -1.068e-18)
(4.08826 1.30533 0)
(4.50102 -0.184515 0)
(3.84783 -0.208917 0)
(3.72155 0.253253 -1.60809e-20)
(2.37444 -0.836741 -3.97315e-20)
(-3.26877 2.48119 0)
(3.4632 -0.954821 0)
(3.32337 -0.153372 1.70756e-19)
(3.61958 -1.28189 0)
(3.50669 -0.0206824 0)
(4.27875 -0.53649 2.61308e-20)
(4.37894 0.164904 3.10166e-19)
(4.04149 -0.0996652 -1.78441e-19)
(3.39317 -2.71155 -4.85597e-19)
(3.49956 -0.0103437 -2.57522e-20)
(-0.783288 2.58785 -1.13994e-18)
(2.57219 0.66274 6.19278e-18)
(-1.25573 0.692828 3.28546e-18)
(3.9951 0.0307549 -2.17261e-19)
(3.77761 0.910721 -9.96937e-19)
(1.08372 1.56478 -6.52356e-19)
(3.71146 -1.66114 0)
(3.75753 0.229077 5.24132e-21)
(3.85046 -1.11049 -4.49839e-19)
(5.88847 -0.0945853 -1.92617e-18)
(5.09125 -0.379908 3.61146e-19)
(4.94433 -0.429562 0)
(3.47163 -0.811653 0)
(4.3129 -0.000216276 9.40451e-21)
(8.91614 0.520635 -4.70983e-18)
(4.7032 -0.24835 6.70461e-20)
(0.581662 3.92041 0)
(5.44579 -0.0362863 0)
(4.04869 0.0893762 0)
(4.04853 0.0362128 1.86263e-20)
(4.69874 -0.937838 0)
(3.99691 0.0241175 3.53187e-22)
(3.13731 0.822522 -6.01927e-19)
(4.39808 0.670163 0)
(5.16919 0.145602 0)
(3.39312 -1.57923 0)
(0.488132 -0.362137 1.33912e-20)
(3.32093 -1.32235 2.52342e-18)
(4.02407 1.77217 -3.21935e-19)
(5.29397 0.0299603 5.67525e-19)
(3.34957 -1.27438 -3.85228e-18)
(4.8596 -0.600078 1.36271e-19)
(1.77122 -0.835311 1.2075e-18)
(3.51753 -0.0404676 0)
(5.17429 1.49458 -3.86477e-19)
(4.78797 1.41148 -1.20002e-19)
(0.748663 -0.116852 -2.8537e-18)
(4.74679 -0.187625 -1.75478e-19)
(-1.20493 0.782888 8.92507e-19)
(1.36507 0.219001 -4.54821e-20)
(4.38532 0.613751 2.8418e-19)
(3.99758 0.210968 -1.56967e-18)
(4.57016 -0.449049 3.83817e-20)
(3.97309 0.0548982 1.22812e-21)
(-2.01008 -3.51045 0)
(4.96399 2.15725 4.19079e-19)
(6.16732 -0.102196 2.62844e-18)
(3.91223 0.103506 -2.21663e-18)
(4.9389 -0.396873 0)
(3.89317 -0.533513 2.41702e-18)
(4.25597 0.27316 5.43003e-21)
(4.72887 -0.43702 -1.89918e-20)
(-5.26629 2.5821 0)
(5.32094 0.0873837 2.17699e-20)
(5.05051 -0.255894 -9.11369e-19)
(4.08992 0.0831649 -7.78128e-22)
(4.8042 -0.508699 -3.69813e-19)
(4.61372 -1.56939 0)
(2.51763 -1.21401 -1.34482e-18)
(3.72962 0.28799 0)
(4.65956 0.101029 0)
(3.50665 -0.148204 0)
(2.59042 1.78748 -1.2316e-18)
(3.56054 -0.211613 0)
(-3.4968 4.14099 -2.19156e-18)
(3.21926 -2.96787 1.12601e-18)
(5.37273 0.0108529 3.33389e-19)
(2.43856 -1.20104 -5.19314e-19)
(5.14049 1.40803 -1.85252e-19)
(0.83258 -1.58061 1.66469e-19)
(4.40758 0.198122 -8.86777e-21)
(2.86796 -1.38093 -1.406e-18)
(3.63777 -1.57926 2.36604e-19)
(4.01962 1.63243 3.92032e-19)
(3.59768 -0.208381 -1.9891e-19)
(2.01237 -0.993168 1.95133e-20)
(3.73001 -0.0614677 1.81053e-18)
(3.50057 -0.154699 0)
(5.28396 0.120974 0)
(5.16707 -0.297294 1.30804e-18)
(5.12656 -2.44595 1.29429e-18)
(3.17714 -0.00954604 2.19059e-18)
(3.86143 0.124627 3.11215e-21)
(4.88811 0.406723 -1.37355e-19)
(3.87593 -1.13401 1.21503e-19)
(4.96434 -0.705117 0)
(3.71389 2.08298 1.81408e-18)
(2.98744 -0.578999 0)
(6.37593 1.32509 0)
(1.23017 -0.738218 -6.37011e-18)
(5.51145 0.0166406 0)
(3.81177 -1.10461 1.04294e-18)
(5.29815 0.0497783 0)
(5.21129 -0.394372 -5.82463e-20)
(2.51274 -1.16406 8.49678e-19)
(5.17444 0.659273 -2.9551e-20)
(0.22262 -2.68142 2.20056e-19)
(3.827 -0.763329 1.47496e-20)
(3.25145 -0.814204 -7.19062e-21)
(3.91586 -0.525998 -7.77032e-19)
(2.78244 -0.628807 2.55358e-19)
(5.95682 -0.216666 2.41251e-18)
(1.91777 -0.919285 9.35418e-19)
(-0.532227 -1.29939 0)
(2.32968 -1.12936 1.00805e-19)
(4.60925 -0.404609 6.14654e-19)
(4.67855 0.0916655 -1.44899e-20)
(2.16237 -1.03891 2.68483e-18)
(4.70688 -0.282822 0)
(6.26784 -0.577641 0)
(4.02884 0.142798 2.37548e-18)
(4.34214 0.197288 0)
(2.11147 -1.05205 9.17288e-19)
(3.13032 -0.169771 -1.19475e-19)
(3.57826 0.18854 0)
(4.82129 -0.0550223 -1.59151e-19)
(5.42075 -1.39231 2.44582e-18)
(-0.884673 -0.357898 5.75442e-18)
(4.05282 1.03023 0)
(-3.47932 -0.0480387 -7.743e-19)
(1.95954 0.0769474 3.38122e-19)
(2.41837 -1.18988 1.33724e-18)
(3.32156 -0.211618 0)
(3.66403 -0.714275 1.3907e-19)
(-2.17554 -3.63049 8.0982e-19)
(4.91376 -0.570135 3.87859e-19)
(3.80431 -1.16277 -1.541e-19)
(0.308057 -0.32365 -1.40801e-20)
(6.21242 -0.523313 1.48021e-18)
(3.53457 0.516238 0)
(3.13882 -0.118853 3.42186e-21)
(4.72284 -0.792065 -9.46566e-19)
(-2.15474 -2.91744 -1.02453e-18)
(4.24026 -1.43816 -8.27638e-19)
(-5.15306 2.58552 0)
(3.85814 -0.74331 -3.22528e-19)
(0.590392 -1.49976 -2.69031e-19)
(4.1289 -0.0190299 -1.03102e-18)
(2.78908 -0.714623 0)
(3.01444 2.02647 8.6133e-19)
(3.93305 0.141108 -5.96324e-19)
(4.98927 -0.744113 0)
(5.1176 -0.241631 2.40043e-19)
(2.49102 -1.18701 1.13466e-18)
(5.25639 -1.33814 -1.36864e-18)
(3.65677 -0.657633 0)
(2.61524 -1.567 0)
(3.34616 -0.284242 -1.35539e-19)
(4.81754 -0.216548 -1.10167e-19)
(2.65281 -1.67448 2.74766e-19)
(4.14105 -0.373638 -8.78878e-19)
(3.85132 0.18559 1.30276e-18)
(8.44818 -1.97076 -3.05843e-18)
(-4.26419 2.52868 1.11202e-17)
(-1.13843 2.51362 6.41006e-18)
(5.87387 -0.024771 1.9959e-18)
(3.99467 -0.136943 2.33502e-19)
(5.45984 -0.407422 7.98839e-20)
(4.08107 -0.0171594 0)
(-0.378897 -1.16578 0)
(3.09482 0.526109 8.93571e-20)
(2.77122 -1.33714 1.04357e-18)
(3.99758 0.0597045 -2.14175e-19)
(4.57298 -0.385594 5.69722e-19)
(4.70571 -0.46518 0)
(4.79089 -0.0550503 -7.68467e-19)
(5.15948 -0.194143 -1.72034e-19)
(3.83711 0.14865 -1.2028e-18)
(4.87016 -1.13888 2.86006e-19)
(3.82267 -0.511742 -1.70038e-19)
(2.08382 -0.987276 1.15832e-20)
(4.95716 -0.125452 9.56973e-20)
(4.8759 -0.581137 4.60711e-19)
(3.68825 0.237084 1.043e-20)
(3.09654 -1.44147 0)
(0.468932 -0.182181 0)
(4.49311 -0.0918317 3.38137e-19)
(3.14892 -0.782141 1.55437e-19)
(3.72164 0.312427 0)
(4.12623 2.89505 -5.57579e-18)
(0.078722 -0.203764 0)
(4.76115 2.12065 -6.69628e-20)
(4.9886 -0.703321 -4.29384e-19)
(6.21889 0.203764 0)
(3.76511 0.86285 -6.19561e-19)
(3.06442 0.633274 -1.29194e-19)
(3.72314 0.435355 -7.6646e-20)
(3.70817 -0.0535807 -1.98618e-18)
(3.96542 -0.756151 0)
(3.70389 0.362285 3.50517e-20)
(3.15298 0.31417 -3.92272e-21)
(3.94244 0.111049 2.78297e-19)
(3.21632 0.323143 -1.16751e-18)
(1.41931 1.46829 1.21032e-18)
(5.02888 -0.546438 4.75953e-19)
(4.34783 -0.769848 -2.45972e-18)
(4.17365 -0.362967 0)
(5.27462 -0.112894 1.04154e-20)
(4.4143 -0.78618 -4.4034e-19)
(3.99763 0.0600459 2.87648e-18)
(4.11165 -1.21369 0)
(4.9916 -0.55638 -1.03952e-19)
(2.83105 0.853419 0)
(4.90066 -0.932522 -6.8986e-19)
(3.65257 -1.01897 -7.7834e-19)
(1.45414 -0.663291 1.09959e-18)
(4.65478 -0.968252 -6.5634e-19)
(4.04869 0.412572 0)
(3.07015 -0.0994501 -1.8905e-19)
(3.92013 -0.761988 3.46924e-19)
(3.25983 0.314774 1.10079e-18)
(4.44094 -0.804093 1.74551e-18)
(4.71125 -0.446279 7.76755e-19)
(-5.65918 1.96347 -5.16487e-18)
(4.01709 0.0844333 1.91334e-22)
(4.39141 -0.417231 0)
(1.9203 -0.589917 2.701e-18)
(6.3684 1.22131 0)
(3.00072 0.466612 9.81062e-21)
(4.44493 -0.225896 1.41505e-18)
(5.21515 -0.181914 -1.37732e-19)
(5.12795 -0.243917 1.72545e-19)
(-3.97522 3.16194 -5.28695e-18)
(3.84911 0.14646 1.5017e-18)
(3.91255 0.0512158 0)
(-2.50743 0.770224 -3.28613e-18)
(4.31338 -0.550967 -5.12528e-19)
(3.06665 -0.74845 -9.11977e-20)
(5.0294 -2.20975 1.14851e-18)
(5.20829 -0.0403303 0)
(5.20099 -0.531233 2.9188e-19)
(3.54069 0.362506 2.32574e-18)
(3.90955 0.150578 1.81508e-18)
(4.88951 -0.835495 0)
(3.99996 0.0131876 -8.02875e-22)
(4.67273 -0.444293 -5.77325e-19)
(-1.12462 0.500292 8.88658e-19)
(3.08098 -0.0373561 3.04605e-19)
(4.32544 -0.486722 4.85694e-19)
(4.25452 -0.00923519 -5.76982e-21)
(4.36318 -0.39745 0)
(5.18871 -0.425762 -1.82197e-19)
(-3.94694 -0.107636 1.04181e-18)
(4.90008 0.786851 1.99913e-19)
(3.98912 0.0678251 1.12211e-18)
(3.0154 0.0469923 0)
(3.00128 0.196743 -2.03118e-19)
(6.98307 -0.734513 0)
(7.08655 2.33519 -1.4563e-18)
(4.14974 -0.0229501 0)
(4.06429 -1.38175 -2.50831e-20)
(2.56719 -0.134357 -6.50171e-19)
(3.05942 1.81439 2.06294e-18)
(-1.10844 0.545243 -2.41176e-18)
(3.70811 -0.659298 0)
(4.64502 0.137382 -8.43263e-20)
(4.06224 0.438903 -6.05883e-19)
(2.23282 -0.669926 -2.16021e-18)
(1.0229 -1.07876 1.9897e-20)
(3.25595 -0.0554988 -3.30797e-18)
(5.13471 -0.655446 6.33757e-19)
(4.18206 0.42035 3.9829e-19)
(2.81684 -0.830664 0)
(2.69999 0.689442 1.24649e-18)
(3.79044 0.23352 -8.79811e-21)
(-0.119251 -0.224193 4.97644e-19)
(-3.96953 0.276062 -3.33037e-18)
(2.45615 -0.336524 -4.19112e-18)
(5.92227 -0.0190826 0)
(2.81738 -0.62118 0)
(4.11221 2.41656 0)
(4.13211 -0.143899 0)
(1.26011 -0.454078 -1.26523e-19)
(4.8752 -0.878459 0)
(3.09261 -0.612022 0)
(3.28818 0.244899 4.50879e-19)
(6.11321 -0.0430233 -2.74739e-18)
(4.30946 -0.369943 -1.17581e-18)
(3.34419 0.70151 3.77226e-18)
(4.01783 0.0577697 -3.09467e-19)
(4.84673 3.4508 0)
(5.30448 -0.552964 0)
(3.80668 0.167202 1.2844e-18)
(3.95436 0.0461145 2.21917e-19)
(2.55937 1.97394 0)
(-5.08923 2.28427 4.69812e-18)
(4.20917 -1.45796 9.36314e-19)
(-0.218068 -0.733143 0)
(4.69936 -0.282391 7.64032e-19)
(3.91993 0.11677 -1.48737e-18)
(1.3561 -0.367673 -1.08085e-19)
(1.90462 -0.564633 0)
(4.02616 0.435655 1.15883e-18)
(5.21215 0.355047 0)
(4.75682 -0.497394 0)
(4.4358 0.419433 -4.11053e-20)
(3.81962 0.192404 6.83778e-19)
(-2.54525 2.39587 -5.73543e-18)
(4.69537 1.39923 3.47023e-20)
(2.59068 -0.576723 -1.16585e-18)
(4.11317 -0.117174 1.51482e-19)
(4.19306 0.429131 3.07387e-19)
(5.49458 -0.438631 4.18865e-19)
(4.38555 -1.43646 0)
(5.61373 -1.17733 1.31044e-18)
(2.59906 -0.0469516 0)
(3.05389 0.395136 9.13823e-20)
(4.52623 -0.462807 0)
(2.8252 0.190529 1.68321e-18)
(-0.734068 0.146277 -5.68164e-18)
(5.07857 -0.625248 0)
(-0.403464 1.10235 1.49246e-19)
(5.3256 -0.609048 -1.46991e-18)
(2.7065 -1.28414 -4.98794e-19)
(3.45876 -0.456493 3.16092e-18)
(2.78716 1.80046 -1.33594e-18)
(2.56684 -0.565358 -3.30082e-18)
(7.52505 2.32763 0)
(3.73513 0.259362 2.04963e-20)
(-5.41827 1.90629 -1.32637e-17)
(4.03305 0.47389 0)
(3.6835 0.503389 8.29858e-20)
(5.3625 -0.0940667 -1.97066e-19)
(5.60111 2.30948 0)
(4.00856 0.0341873 0)
(-3.06258 0.992582 0)
(-1.81042 -3.56199 3.08589e-18)
(8.48399 -2.53718 3.80502e-18)
(7.7996 0.327193 3.27491e-19)
(4.68309 2.05874 0)
(3.36665 -0.28567 2.15588e-18)
(3.96539 0.0500458 -1.46485e-21)
(4.67526 1.28259 -1.9206e-20)
(0.337483 -0.732457 5.52738e-19)
(3.81626 0.355468 0)
(4.03429 0.0935349 0)
(1.36562 -0.0979296 -1.81596e-18)
(2.76338 -0.803735 -8.11858e-19)
(3.80633 -0.319648 0)
(2.93417 -1.41983 -1.03781e-18)
(4.11634 0.00858202 -1.60903e-22)
(4.0045 0.0695 -3.80485e-22)
(1.60932 -0.724438 0)
(3.79386 -0.0606581 2.27378e-19)
(3.75785 0.219352 1.40399e-20)
(5.211 0.313464 6.1727e-19)
(3.62094 -1.05528 0)
(-1.29758 2.60422 -9.92381e-18)
(5.16392 -0.202874 1.87374e-19)
(3.99814 0.194969 2.49635e-19)
(3.83964 0.0607406 6.43205e-21)
(5.30527 1.44735 0)
(3.28372 0.706104 -1.0059e-18)
(6.29234 0.830026 -1.05405e-18)
(1.81212 -0.266342 8.89354e-19)
(4.02385 0.123659 0)
(0.933667 -1.13561 -2.01756e-20)
(0.819511 -0.0268088 0)
(4.02237 0.09748 -9.49644e-19)
(3.99529 0.15387 4.40608e-19)
(3.72863 0.116781 -2.51397e-19)
(-2.38175 -3.28237 0)
(4.9545 0.0509394 -5.35267e-20)
(2.12144 1.02251 3.42711e-18)
(4.3262 -1.42729 0)
(3.20823 0.211767 1.43456e-18)
(4.81459 -1.15797 -3.23276e-19)
(4.4685 0.00920493 0)
(0.488006 -1.61784 1.49009e-19)
(3.45968 -0.774899 -2.62429e-19)
(4.25251 0.00148798 0)
(-0.191926 1.70533 6.04061e-18)
(3.65055 0.47649 0)
(3.40083 -1.54524 1.03581e-18)
(-3.51884 -0.566212 1.87076e-18)
(4.08673 0.0837108 9.6794e-22)
(4.93528 0.356205 -3.25807e-19)
(2.67628 0.683195 6.62998e-19)
(3.44973 -0.514168 -1.1734e-18)
(3.72192 -0.599592 -1.46848e-19)
(3.43125 -1.53387 1.00366e-20)
(4.28319 -0.483589 4.71451e-19)
(5.29915 1.444 7.97728e-19)
(3.79461 -1.71291 0)
(3.98106 0.0575846 -9.9487e-19)
(1.08197 -0.495796 -3.15261e-18)
(2.65347 -0.0514814 0)
(3.84513 0.296962 -2.92249e-22)
(3.55319 0.0309952 0)
(2.35379 -0.609786 2.85611e-18)
(3.98651 -1.51164 0)
(3.86872 0.000512617 -2.41814e-21)
(4.46184 -0.220147 -8.0023e-19)
(0.515848 -1.93799 2.79396e-19)
(-2.46789 0.6819 2.11743e-18)
(5.01135 -0.0883656 -6.63819e-21)
(2.99674 -1.43964 9.34891e-19)
(3.43454 -0.946463 1.12154e-18)
(2.80509 -0.544431 0)
(-4.87472 2.6 -3.28749e-18)
(4.44286 -1.32392 -1.99096e-19)
(-5.37639 3.24391 -4.15767e-18)
(3.99945 0.0823916 7.77623e-23)
(2.78322 -1.05635 0)
(4.44041 0.00778459 -4.09996e-21)
(-5.00273 2.37771 0)
(-1.39755 -0.854764 8.10289e-20)
(1.64677 -0.463726 1.3975e-19)
(-0.187507 -0.0106695 0)
(3.97766 -1.05024 3.33675e-19)
(3.13343 -3.2068 0)
(5.65901 2.04359 0)
(3.12913 -1.47649 -1.36825e-18)
(2.89782 0.760082 1.00672e-18)
(3.24453 -0.935879 0)
(3.59314 0.41372 -6.35622e-19)
(7.88757 0.713601 5.03924e-18)
(-4.34751 0.246902 5.62331e-18)
(5.60466 2.92319 0)
(4.30274 -0.0427479 0)
(-5.34619 2.25629 -6.20061e-18)
(3.69654 -0.187324 0)
(5.24672 0.112696 0)
(-2.70709 1.5292 -4.5892e-19)
(3.98636 -0.747644 -1.5873e-18)
(3.39281 -0.759315 9.74665e-19)
(6.2221 -0.6792 2.09697e-19)
(-5.21932 2.92266 7.36065e-18)
(3.97935 0.136627 5.03767e-19)
(2.87015 -0.613822 0)
(4.37546 0.993899 -1.42156e-19)
(2.72281 -0.294572 0)
(4.87801 0.0606762 0)
(4.00089 0.246749 0)
(4.4198 0.377929 -3.39267e-20)
(3.65689 -0.0560301 9.2566e-19)
(4.31923 0.142723 -1.66347e-20)
(2.95704 -0.623077 0)
(-3.0366 2.53952 -4.0922e-18)
(4.13079 2.33172 1.84155e-19)
(3.61212 -1.30889 1.09206e-19)
(4.07195 -0.176596 -3.76173e-19)
(5.18655 -1.31906 2.14293e-18)
(4.13279 0.0788379 -8.48617e-19)
(-0.761618 -0.02727 0)
(5.12716 -0.210337 0)
(2.90968 1.8081 0)
(2.38216 -1.03979 -2.08615e-18)
(1.67619 -2.48007 -3.46769e-19)
(-0.0417034 -0.240654 0)
(4.43243 1.01089 0)
(5.19219 -0.398309 2.58229e-19)
(3.94498 -0.0437431 -2.39134e-19)
(3.82403 1.30352 9.93331e-19)
(3.6077 -1.56646 0)
(-4.78807 4.16664 -2.13885e-18)
(4.70166 0.154481 -4.19791e-20)
(2.69899 -0.725597 -1.95341e-18)
(4.45254 0.16131 -1.49685e-19)
(4.65862 1.29592 1.82952e-19)
(5.92397 -4.20338 1.66873e-18)
(2.34624 -1.04371 3.62213e-18)
(3.73282 -1.69764 5.90161e-19)
(4.28773 0.262076 5.47163e-21)
(3.99061 0.0302495 -2.51543e-19)
(2.70285 -1.26328 -3.27159e-19)
(3.47233 -0.738276 1.15485e-19)
(3.21453 4.40717 9.52886e-20)
(2.93239 -1.41041 5.26322e-19)
(5.30222 -0.060067 0)
(3.76435 -0.943515 4.00556e-20)
(4.33952 -0.0399859 -7.34775e-19)
(5.98581 1.48161 5.93546e-19)
(2.64406 -0.648263 -1.77658e-18)
(3.58509 -1.25669 -1.18213e-18)
(4.02143 -0.0166806 2.26858e-18)
(4.98783 -0.110455 -1.28349e-18)
(3.14702 -0.412319 -7.53189e-20)
(5.8759 0.0289142 -1.03738e-18)
(2.20212 -0.200739 -3.86786e-18)
(4.38135 0.00979305 -5.55767e-19)
(2.16544 -0.307626 0)
(0.338207 -2.46756 -9.22841e-19)
(4.05497 0.0578573 2.15506e-18)
(3.49562 -0.0070194 -1.26017e-21)
(-3.18913 -0.237029 0)
(3.35025 -1.56172 0)
(4.07387 0.935995 8.45706e-19)
(1.92262 -0.169368 2.39392e-18)
(3.17138 -4.93388 -2.1937e-18)
(4.11097 -1.38851 -5.87648e-19)
(4.37548 -0.801395 1.33759e-18)
(6.48646 1.19044 0)
(4.10549 1.00981 4.45064e-19)
(2.14975 -0.885557 -1.02049e-20)
(5.07523 2.22962 5.52855e-19)
(3.85274 -0.478448 -1.38289e-18)
(-5.07607 2.71392 -1.1786e-17)
(5.088 -1.25456 -2.0637e-18)
(5.69381 -1.28566 7.41386e-19)
(4.59838 2.54435 0)
(4.20703 -0.731133 -2.54647e-19)
(3.72386 0.100137 2.3233e-19)
(3.97273 0.0403526 -7.20225e-22)
(1.78248 -0.853478 3.29128e-18)
(3.79775 -0.477559 2.06096e-18)
(3.67935 1.50912 1.39742e-19)
(-4.33341 0.380193 -3.1712e-18)
(4.67184 -0.309858 -6.57623e-19)
(4.42134 -0.00293881 4.94453e-19)
(-4.07158 2.51845 -1.37274e-18)
(4.88667 2.08873 -4.87572e-19)
(0.529544 -0.179019 -6.5454e-18)
(2.22397 -1.08019 -1.11613e-18)
(3.98237 0.0304895 0)
(4.27069 0.440669 -2.49019e-20)
(-3.46875 -1.05404 -3.78455e-18)
(2.54858 -0.185953 3.52479e-18)
(4.14254 0.0794124 0)
(4.12551 -0.56409 1.39375e-19)
(2.24841 -0.886066 8.13526e-19)
(3.98591 0.101009 -2.16641e-18)
(-4.73593 1.69688 -3.98887e-18)
(3.25539 -0.923166 -6.46809e-20)
(4.33857 -0.394699 7.95714e-19)
(4.60783 0.129062 1.02084e-19)
(3.45061 -1.56815 -1.44462e-18)
(4.32482 0.190852 2.30878e-20)
(1.64624 -2.90754 -1.23455e-18)
(4.26547 -0.0235277 6.89315e-19)
(4.08575 -0.0821339 -6.55481e-19)
(4.29877 0.221909 -2.71206e-20)
(4.48525 -0.0703267 -1.43364e-18)
(2.16226 -0.916746 -1.57402e-18)
(4.29737 0.244966 0)
(-1.48102 -3.0668 1.43125e-18)
(4.20905 0.0957845 1.63291e-19)
(1.22873 -0.216139 -1.51283e-19)
(4.9517 0.0599924 -2.42956e-19)
(4.26926 -0.828845 -8.20791e-19)
(4.00784 0.046944 -1.64396e-18)
(4.21276 0.698403 2.39035e-19)
(-4.6937 2.03929 -4.86898e-18)
(5.24304 0.107198 0)
(3.07484 0.13717 1.01193e-19)
(5.2665 -0.173633 1.4078e-19)
(2.80442 -1.02455 0)
(4.25964 0.180896 3.862e-19)
(5.29389 -0.100967 1.2217e-19)
(5.17166 0.123303 1.05011e-23)
(4.78931 -1.63156 -8.49736e-20)
(3.63763 -0.20152 0)
(3.56355 0.791914 1.79718e-18)
(4.0769 1.13111 -4.17012e-20)
(2.89172 -1.39756 1.15642e-18)
(3.97883 -0.318785 0)
(2.90029 0.686464 -2.91353e-18)
(2.43394 -0.752695 -5.39819e-20)
(5.10258 3.12019 -1.23835e-18)
(2.22497 -0.240476 3.7343e-18)
(4.26624 0.0144278 1.49197e-20)
(-2.89199 0.892227 1.93692e-18)
(3.7913 -0.168827 -1.44246e-18)
(5.68774 -0.961578 -1.88202e-18)
(3.5067 0.359674 -1.34927e-18)
(4.16173 0.0304543 0)
(3.98295 0.0551387 -9.54001e-19)
(-0.0276566 -0.265585 5.91123e-19)
(-1.98884 1.06061 0)
(5.60463 -2.27982 0)
(3.96627 0.0296324 0)
(1.10955 -0.38684 0)
(4.1119 0.691743 0)
(2.07702 -0.172572 0)
(4.00288 -1.15273 -1.89886e-20)
(7.88061 -0.214847 -2.69215e-18)
(5.24892 0.723502 0)
(3.5332 0.752404 2.73549e-18)
(2.86606 -0.793381 -2.39039e-20)
(4.17691 0.455664 2.62849e-20)
(-3.33003 -0.29303 -2.16911e-18)
(2.11206 0.265796 -1.11839e-20)
(-4.85413 2.16196 3.69052e-18)
(4.06939 -0.0122961 -5.24309e-19)
(5.41247 -0.0929265 1.31664e-19)
(4.05505 0.663105 -5.83917e-19)
(3.74014 0.414497 -1.77736e-18)
(3.98481 2.2001 -5.79551e-19)
(7.24251 2.34495 0)
(0.681876 -0.995383 6.9824e-20)
(2.40165 -0.64885 -3.1388e-18)
(4.02358 0.0289576 -2.91019e-18)
(4.46941 -1.35565 -1.10734e-18)
(4.22396 -0.0291349 2.25213e-19)
(5.16244 -1.36689 7.88298e-20)
(4.15292 -0.613149 -1.79183e-19)
(4.00597 -1.03354 -1.14932e-18)
(4.0636 0.389706 6.33665e-19)
(3.89997 2.72857 0)
(3.69901 -0.519279 -1.36471e-19)
(3.32377 0.204073 -4.11996e-19)
(4.91949 -0.828974 0)
(3.39134 -0.22685 0)
(3.59281 -1.64179 -1.32244e-20)
(-2.5335 0.525884 1.88783e-18)
(3.93431 -1.1824 -6.28264e-19)
(3.51099 0.0600142 0)
(3.73813 -0.0642344 -1.89509e-18)
(3.58241 0.505359 -3.47427e-19)
(-0.942961 -2.55074 6.80559e-19)
(5.31121 0.0548871 4.28807e-20)
(-4.53439 1.92541 0)
(0.574495 -0.974322 9.5321e-20)
(5.31326 -0.0164812 0)
(4.14932 -0.767542 2.67982e-19)
(5.06028 -0.518182 -2.39538e-19)
(4.01788 0.0448047 -1.69636e-21)
(4.84065 1.43242 2.17445e-19)
(5.565 2.66179 -1.47168e-19)
(3.34067 -0.881181 2.33825e-18)
(1.38561 -1.1663 0)
(2.93074 -2.5441 -8.71972e-19)
(2.91658 -1.13065 0)
(5.3746 0.698568 -2.71791e-19)
(-0.99488 -2.3809 1.08128e-18)
(5.44769 -2.28919 1.56474e-18)
(3.11936 0.0371207 -1.02576e-19)
(-1.86619 -3.68989 -6.50242e-18)
(2.56838 -1.2586 -1.34e-18)
(2.48952 -0.667326 -1.80013e-18)
(3.78669 0.243456 2.95681e-21)
(3.11245 -2.42791 7.18654e-19)
(2.2182 -0.942096 1.2974e-18)
(2.60201 -0.73532 1.9981e-18)
(1.70921 -2.32832 4.25803e-19)
(3.54892 -2.79563 -5.42703e-19)
(3.5543 -1.09154 1.17379e-18)
(-1.86064 -0.236302 3.64802e-18)
(4.41029 0.0477926 1.41568e-20)
(2.83652 -0.808657 3.13005e-20)
(4.71762 0.878912 -5.1774e-20)
(4.36023 -1.10416 0)
(1.34066 -0.226891 -8.13724e-18)
(4.19203 -0.0292814 -8.99229e-19)
(3.98861 0.278167 0)
(5.29767 0.627692 0)
(2.66118 -1.84882 -3.75424e-19)
(6.30763 -1.20572 -2.13849e-18)
(4.89257 0.449236 4.38196e-19)
(3.97787 -0.733457 2.0763e-18)
(3.94919 2.07886 5.48496e-19)
(3.13892 5.25167e-05 1.45855e-18)
(-1.5352 -2.43433 -1.40206e-19)
(3.56835 1.3938 0)
(2.65797 -0.800588 1.92894e-18)
(-0.30369 4.99736 1.4102e-18)
(-2.43551 -2.78532 4.8403e-18)
(3.33507 -1.25235 3.86163e-19)
(3.25174 -1.48903 -2.77741e-19)
(3.96465 -0.00116746 7.38584e-19)
(3.29571 -0.10165 5.7726e-20)
(4.78627 -0.790265 1.28085e-18)
(-1.7745 -2.43114 -1.04834e-18)
(4.83711 0.443145 -3.10965e-19)
(3.84917 0.13603 7.48502e-19)
(2.16181 -0.304776 -1.54188e-18)
(3.72679 -0.146494 1.18117e-18)
(2.98807 -0.406907 0)
(4.90846 0.831977 -3.14416e-19)
(3.92972 0.109463 1.67109e-19)
(2.78726 -0.483407 -6.09077e-19)
(3.70133 3.88632 2.93173e-19)
(3.49565 -1.0583 8.6956e-19)
(4.13248 0.046125 3.22412e-19)
(2.70562 0.35539 -2.29235e-18)
(4.89763 -0.846258 0)
(3.17256 0.116317 -1.68192e-19)
(4.492 0.195542 2.0504e-19)
(4.05285 -0.200091 0)
(2.74945 0.114481 1.30966e-18)
(5.3052 0.0588493 0)
(3.61324 3.84106 2.30694e-20)
(4.84009 -0.0515155 0)
(3.68245 -0.575547 0)
(5.07487 -0.0950462 1.60447e-19)
(4.82535 0.353481 -1.6281e-19)
(5.97212 0.309507 -1.74603e-18)
(3.81903 0.337466 -8.07512e-19)
(3.13294 2.62241 -4.96061e-19)
(4.00112 0.218441 -3.03185e-19)
(4.18417 0.699235 0)
(3.95898 2.86638 -3.12688e-19)
(5.01411 0.322233 4.3818e-19)
(4.07993 -0.738483 -5.50146e-19)
(4.35924 -1.09978 0)
(6.06261 1.44098 9.00947e-19)
(4.44805 3.5093 7.80232e-20)
(4.38902 0.031184 4.97673e-20)
(2.96988 -5.51354 0)
(-2.2469 0.828056 8.5514e-18)
(4.10177 0.362449 0)
(4.84687 -0.676819 -6.38845e-19)
(-0.504405 -0.35194 0)
(5.73991 1.503 0)
(3.65786 -1.83515 0)
(3.90592 -1.49908 0)
(-3.42669 4.49858 -1.20283e-18)
(-1.20044 -4.06022 -6.14852e-19)
(3.64057 -0.037354 -1.39451e-18)
(0.303293 -1.99281 -3.82194e-19)
(2.3821 -0.995061 0)
(0.56322 -2.84324 -3.73073e-19)
(-1.22594 -0.331916 -5.58289e-18)
(3.03136 -1.41452 0)
(2.8176 -0.950535 -2.0493e-18)
(3.76897 0.460873 -2.15015e-21)
(4.70403 0.85927 8.40138e-20)
(4.65588 -1.62216 2.83253e-19)
(3.68587 0.400841 0)
(4.24425 -1.38869 0)
(6.68746 0.610075 7.94852e-19)
(3.46085 -0.658945 3.04185e-20)
(3.6845 0.254351 -2.03886e-20)
(2.66579 -1.81067 4.87795e-21)
(3.99559 0.015013 7.04497e-20)
(4.25931 0.439156 1.06409e-21)
(4.05449 0.390014 9.16068e-19)
(3.10519 0.278007 8.30026e-20)
(3.65051 -0.974033 0)
(-3.33133 3.55787 0)
(4.33928 0.164149 0)
(3.74556 0.0259963 0)
(3.39139 -0.547312 8.64098e-19)
(5.61747 -0.0913567 0)
(-3.03063 3.37997 1.72185e-17)
(5.22456 -4.3745 -2.93717e-19)
(2.53519 -0.759271 -3.02319e-18)
(2.77317 -0.735527 -2.01062e-21)
(-1.17019 -3.31388 -8.3903e-19)
(-0.708587 3.85564 -8.45629e-18)
(4.00793 0.064721 2.56168e-19)
(-2.37145 -2.29257 -1.47675e-18)
(3.12677 0.393164 1.1694e-19)
(5.08716 -0.0685809 0)
(4.58082 -0.776635 0)
(3.20202 -0.704966 0)
(4.25103 -0.847248 4.33848e-19)
(3.47605 -3.08762 0)
(3.68763 1.34988 0)
(4.00652 0.00675936 0)
(3.43868 -0.778935 9.02015e-19)
(4.18173 0.43167 -8.02822e-19)
(3.5868 0.0397688 0)
(4.13206 -1.18194 -6.22251e-19)
(3.94932 0.413945 -9.23609e-19)
(5.09846 1.96559 -1.15289e-18)
(3.06769 -1.42281 1.22531e-18)
(3.79538 1.48715 -2.07855e-21)
(3.45107 -0.879139 -2.08913e-20)
(3.32749 -0.255712 1.34146e-19)
(3.74403 -0.748618 -2.75057e-19)
(4.80639 0.362406 2.41432e-19)
(3.71075 0.238974 -3.80452e-20)
(3.58521 0.206198 -1.31067e-18)
(4.21311 -0.0235583 0)
(1.65554 -0.316127 1.14087e-19)
(3.89305 0.138106 1.33986e-18)
(2.29716 -0.923309 -4.48533e-20)
(4.14157 -0.574908 -5.2199e-19)
(1.9894 -0.219786 -2.61721e-18)
(4.83145 0.310774 -4.5187e-20)
(6.35762 0.815507 1.50882e-18)
(4.0115 0.194654 0)
(3.57556 -0.791509 6.52235e-20)
(3.45616 0.0482334 -4.61202e-20)
(3.77128 -0.763945 5.32258e-19)
(0.310792 -0.796509 -6.28838e-19)
(3.9975 0.0371694 7.06521e-19)
(4.3207 0.249438 -6.97881e-21)
(4.1725 0.027211 -9.62904e-21)
(4.29667 0.157016 0)
(2.59517 -0.613324 0)
(2.82575 -1.35075 1.48704e-18)
(-4.56449 1.64487 4.35569e-18)
(4.00499 0.0243929 1.17569e-21)
(3.89868 0.131097 2.69542e-18)
(3.0819 -0.614267 -1.81791e-19)
(2.84924 0.634497 0)
(3.52422 0.244883 0)
(3.07359 -0.60754 -1.14243e-20)
(4.95267 -0.0256262 2.58002e-19)
(3.91652 1.42288 1.29181e-18)
(4.91528 -0.381936 0)
(4.48956 0.0234634 0)
(4.04 -1.17034 1.59034e-18)
(3.93059 -0.28475 1.10573e-18)
(0.136943 0.0542766 -7.43854e-20)
(3.81516 -0.0913076 0)
(5.32115 0.996173 5.67041e-19)
(4.50697 -1.4652 -2.69746e-19)
(-4.27827 -0.347361 -4.71181e-18)
(3.95942 -0.0379806 -1.50392e-18)
(7.70207 -0.122926 0)
(6.50214 -1.07817 1.70376e-18)
(4.41896 -5.49724 -5.53251e-18)
(0.051741 0.0951376 0)
(3.77038 0.0410689 -2.13966e-20)
(3.81188 0.26037 -8.76048e-19)
(3.98933 0.00285387 -5.15206e-24)
(5.17734 -0.578952 1.3639e-19)
(2.66792 2.53454 1.70229e-18)
(4.11808 0.0436237 0)
(1.95231 -0.636607 -1.70156e-20)
(3.56076 -0.693872 1.50407e-19)
(6.91592 -1.36113 -1.16593e-17)
(4.09188 0.645951 6.94897e-19)
(1.4662 -1.11999 6.07813e-20)
(4.06902 0.0387826 -3.28188e-18)
(3.65973 1.66457 -8.52887e-20)
(3.19244 -0.179343 1.31321e-19)
(3.38227 -0.697702 0)
(3.55743 0.0076389 -2.43508e-19)
(2.15181 -0.969486 1.03336e-18)
(4.39397 -0.211255 -1.55097e-18)
(3.9385 0.107134 -1.20962e-18)
(4.79941 -0.641878 5.86669e-19)
(3.26194 -0.268067 3.17695e-18)
(4.38617 0.0452985 -1.51447e-20)
(3.48899 0.254879 7.70017e-19)
(3.83973 0.303267 -3.56041e-22)
(6.25334 -0.728177 -2.40745e-18)
(4.93874 2.21841 -7.45943e-19)
(3.2415 -5.1176 1.66725e-18)
(3.89871 -0.0343391 0)
(3.34255 -0.783405 0)
(2.11365 -0.546484 0)
(2.53962 -0.68717 2.31743e-18)
(4.1576 0.0862245 -1.94231e-18)
(3.54715 0.543042 0)
(2.86815 -0.535601 -1.81426e-18)
(3.5537 0.464621 0)
(3.40566 -0.482149 -1.4138e-18)
(4.03435 -0.782724 -5.73622e-19)
(3.60844 -0.91072 -1.28184e-18)
(4.22979 0.0490635 0)
(3.85724 0.109053 0)
(4.093 -0.220195 3.29535e-19)
(5.17555 0.581483 2.9568e-20)
(5.36294 -0.177157 9.34942e-19)
(4.83627 3.70766 -9.1559e-21)
(4.96832 -0.484471 0)
(3.36053 -1.2115 -6.56524e-19)
(-1.57618 1.54577 0)
(1.73023 2.0526 -1.17431e-18)
(5.60587 2.65058 0)
(4.30946 0.2393 1.48727e-20)
(2.22107 -0.16802 1.01256e-18)
(2.92577 -0.172478 1.01038e-18)
(3.72826 -0.100221 -3.36856e-19)
(4.66858 -4.08078 -4.72464e-18)
(3.85133 -0.337383 2.80238e-18)
(4.14596 0.675143 -2.32035e-20)
(4.82697 -1.28639 -8.88349e-20)
(3.83906 -0.822206 -6.33597e-19)