/*--------------------------------*- C++ -*----------------------------------*\
| =========                 |                                                 |
| \\      /  F ield         | OpenFOAM: The Open Source CFD Toolbox           |
|  \\    /   O peration     | Version:  2306                                  |
|   \\  /    A nd           | Website:  www.openfoam.com                      |
|    \\/     M anipulation  |                                                 |
\*---------------------------------------------------------------------------*/
FoamFile
{
    version     2.0;
    format      ascii;
    arch        "LSB;label=32;scalar=64";
    class       volScalarField;
    location    "2";
    object      p;
}
// * * * * * * * * * * * * * * * * * * * * * * * * * * * * * * * * * * * * * //

dimensions      [0 2 -2 0 0 0 0];

internalField   nonuniform List<scalar> 
13486
(
35.4694
27.9551
-0.181937
-44.6979
9.53041
-3.79119
1.64449
18.6366
23.0676
12.3358
-122.518
5.00451
37.486
-5.25701
6.55665
12.9382
-60.3633
1.55341
6.89214
31.6918
-32.2755
37.1128
27.3386
-90.32
10.6437
-72.5252
-60.2097
-19.9504
-0.052227
-22.2794
-26.2853
5.40971
-35.554
-13.7662
18.6588
-0.0765294
-2.23177
28.6142
-3.90832
22.8762
-0.0691583
39.1312
0.0896663
11.2043
10.8749
4.77461
-55.8589
-0.00250484
-2.26556
-16.4243
20.0265
-4.27943
3.92288
29.0599
-0.742224
10.2158
-3.23188
-4.26904
-33.5225
-5.07932
-166.304
-4.4002
-17.4244
-31.4621
-90.2369
-2.48103
-53.9187
35.5155
22.8971
-2.21362
-53.4581
0.171208
23.4726
-103.825
-3.07173
-3.52066
-2.71714
6.24104
-59.6612
-6.02786
0.0129834
28.0005
-11.3691
0.201501
35.5892
5.47351
-1.49331
18.8075
23.2224
13.9908
4.42186
15.7815
33.8154
30.0566
24.1227
0.00674407
-61.119
-69.9015
22.8298
-63.8974
0.0414998
-4.1413
-71.1018
-4.15084
12.6221
-65.0411
22.9295
-4.01287
-58.8751
14.6553
22.7551
3.72714
28.9995
-0.619038
42.0857
23.1359
10.9463
-12.4582
23.6834
-1.65977
1.32636
-153.958
25.4222
-4.02093
22.0316
-4.09353
15.5834
5.06958
-10.9364
-60.6709
-4.03913
-52.5711
-114.997
-78.0685
20.8397
18.6568
37.7459
15.0844
-1.53691
19.2034
-25.4828
3.81734
5.91633
-5.90203
-0.190485
-54.0175
-1.4332
31.5489
-17.2569
0.037062
12.6602
5.60148
-0.00351053
28.9
5.92893
-0.445008
11.3488
-8.10447
25.5814
-6.61124
-12.3249
25.5565
2.94727
38.8083
-4.31996
-9.56875
-1.29678
48.2869
-1.25318
-78.6001
-116.059
6.04001
15.547
11.2136
-0.0845469
-166.558
-9.66106
-27.7082
23.0196
5.98082
21.5387
-0.525705
8.78353
-80.5167
0.599026
-19.8042
-8.40818e-05
-18.0832
1.08989
24.919
-1.93679
-0.843305
-4.70259
30.8762
-5.15
-113.131
-66.8878
-12.5162
32.0545
-7.73111
-26.1963
4.76028
28.6047
8.5755
-9.37946
-5.32319
-0.880722
25.348
-4.63913
0.639935
-18.5696
-74.4045
31.2545
22.9306
-3.92975
-13.7435
-22.7738
14.3944
31.9168
-28.3894
-64.8162
-17.1264
19.7048
-12.8588
2.61783
34.6849
-7.92021
-70.5327
-9.80735
-1.69664
21.2186
-16.7484
-26.8199
40.0139
-58.5508
33.2983
-15.2513
-0.595759
33.678
9.36229
-38.389
15.3411
-0.410644
31.6439
-3.6635
26.6478
9.79027
-43.4044
-70.9557
12.819
-110.084
42.3921
21.8845
-4.0574
-7.34219
-188.383
5.42412
-13.526
-5.01937
-39.7261
25.6406
-3.66745
6.53018
-176.8
10.9579
-82.6121
-9.84752
-30.6496
21.937
1.54981
23.3774
22.4284
-23.2237
3.7918
34.7871
-39.7367
-7.42323
-12.3795
-4.27169
-0.410007
-13.7553
18.4842
23.3374
-138.706
-141.513
-53.8335
-23.6118
-11.6598
2.51883
22.0881
-54.1066
-4.45577
24.5515
20.7911
-14.5132
-16.7437
-12.5988
3.45033
23.8666
0.57901
2.54043
-0.385443
-0.76624
5.67376
-1.92983
7.40478
-10.2463
10.0746
-1.9165
-1.93012
-59.6558
-41.7843
-5.14923
3.92868
-188.497
18.9072
-4.6148
23.2073
25.467
-11.0812
-2.45478
-3.88837
22.7407
30.2403
39.7791
4.59999
13.2084
18.1149
1.91234
12.1191
19.0128
15.0008
4.08723
32.5609
1.17666
22.6757
43.7906
6.18903
13.938
-3.62879
-10.4072
29.8348
11.6398
8.99716
-106.358
-0.0282051
14.4312
42.0598
-28.9353
-4.08434
14.2137
2.46012
3.61548
-58.1118
23.6621
-0.597921
-110.058
15.4676
-1.59716
-63.4281
7.05805
4.3801
25.9763
22.4774
-23.4185
0.00661653
-16.0918
-43.3175
32.0512
15.6726
-0.00185869
14.7034
2.05044
-119.195
-2.65339
20.0313
22.6349
-3.65528
-188.445
-54.9791
21.6563
14.3626
37.4536
24.4492
-52.3411
-7.70691
1.24773
13.5892
-53.7013
-16.7851
30.6424
-23.3164
9.23248
33.7714
34.8723
-1.2983
-48.0184
-116.014
-60.7719
-24.4955
-56.2474
3.11424
20.1523
-9.69557
2.25783
0.24342
29.7657
-26.6698
15.527
26.4876
12.7936
-19.6728
-24.3996
23.8886
22.5019
28.5711
-86.4437
11.4615
-122.638
9.64645
23.017
2.02845
42.1431
14.6965
-9.42277
-17.5924
4.46835
23.3011
-56.5842
-0.197161
36.7716
20.2353
8.95872
1.94554
8.54035
-39.022
37.2694
-3.86438
11.584
34.8775
-71.8897
-23.1274
-74.1893
-24.9639
-0.912425
27.5814
27.454
36.8788
-55.2326
-1.81531
-108.075
14.3289
23.5359
-16.7402
-21.0893
22.0898
-98.2771
-165.954
-149.29
-59.6002
-3.60636
29.4081
-0.0664965
0.558416
-35.7458
22.1019
0.0188691
45.7258
34.3096
23.2004
17.8141
-0.0299778
-0.0417702
43.5333
-7.44794
-1.46782
-9.95024
22.8097
-56.3062
3.14856
15.9406
-0.948251
-11.2226
26.9103
-23.0963
-63.2528
14.7767
-15.4042
47.7795
14.9242
20.1034
25.2082
-168.226
1.1531
38.1301
9.44576
30.434
1.3846
6.1427
-36.4649
-5.70237
0.117001
-65.2681
23.8895
22.7935
-116.358
0.0160088
-4.67477
35.2631
27.6947
-7.75302
23.2536
15.9804
-11.0777
11.4331
20.197
-117.56
36.7871
-1.221
-2.23352
38.7314
14.737
-0.128775
14.4358
-41.9625
-92.5529
8.14556
13.555
25.6849
34.0046
-59.1825
8.26894
-60.3361
-0.00496609
33.0943
5.7889
-87.1875
-76.6426
3.52856
-8.0935
17.6024
-86.7117
-20.715
23.2907
32.235
-4.76871
25.525
-52.3888
-123.088
-29.9968
8.63234
-105.919
25.3673
0.77374
-182.909
18.8764
27.2971
-45.5081
-61.6908
20.179
32.955
6.68768
35.7458
0.802313
15.0487
4.61936
25.5527
-0.142845
31.9929
-55.2963
4.23708
21.9983
-10.694
-36.5899
22.7094
-70.2143
3.6787
27.9528
37.1206
-44.2328
-6.07546
5.83284
3.22372
20.2456
15.8265
5.50877
-67.9707
-0.119251
35.2213
3.48017
0.719899
-180.066
37.2585
-23.4487
-0.551401
21.7862
16.9482
-5.85435
-12.8273
19.3909
1.32174
-0.281062
8.1721
-22.0487
36.0305
22.6098
14.9808
15.6779
0.518276
-23.2901
40.664
6.66196
40.7505
-59.3671
22.4618
-0.198897
-105.912
13.3045
12.722
42.6551
-162.404
13.7102
12.7025
-29.3435
12.371
0.707526
-10.9087
22.2889
-61.6486
-33.2733
-43.4763
-4.73348
-13.1761
25.0821
-0.0373241
39.6734
22.6453
-9.03476
-119.399
-17.6358
6.99034
-130.179
-7.1212
-64.3893
33.0609
0.00123436
-2.04421
-191.228
37.6803
0.010654
3.40189
38.7978
20.0287
-101.794
-4.41825
15.2399
1.65136
22.0077
-0.324135
-62.4006
7.9946
20.5166
6.42377
18.1629
39.3442
-0.490939
-123.996
22.6329
0.622483
-4.80096
14.4828
16.733
9.65105
-89.9244
0.839979
-3.70673
2.24423
32.9984
6.58157
1.60033
0.3133
-2.01539
-5.73904
23.9831
-23.4193
21.2083
21.4216
32.9165
1.98134
-20.7423
40.4024
-0.00872539
-96.5738
24.0197
-38.2241
26.3856
-0.0914322
21.8401
-13.1735
-88.7979
-78.5237
-0.0249965
-62.996
11.9718
41.5904
-15.5256
-71.4057
-8.97872
24.4398
0.781318
9.69808
-195.904
41.0402
-90.9648
11.1494
-17.2515
13.0172
23.2177
7.58472
-50.1275
-24.9677
38.3239
22.3596
7.77467
20.3039
-2.72107
17.0799
17.353
13.4047
-67.492
-7.04986
29.2909
2.12799
-4.36097
18.7105
-94.0273
-15.8105
-3.42641
24.8402
24.8085
-94.9143
0.895991
-97.8739
-27.7118
1.55325
-13.1741
4.30972
21.7564
-1.68646
-24.912
27.1778
-9.43881
-48.7428
-3.96234
-10.8936
-89.6473
-78.6267
-3.62282
-209.042
21.9882
37.5048
-1.41466
-45.6724
38.8654
36.2554
-41.9893
-61.9404
23.6942
-62.1027
-0.398187
0.37353
0.126223
10.6778
-61.9709
9.45097
15.179
-9.79747
-19.8628
-54.9294
-3.35581
19.0274
8.99663
13.7928
-107.705
19.9119
35.3199
-72.1338
-200.956
25.9974
6.4194
14.1983
-3.81649
-20.9363
-110.856
-2.98832
23.647
40.9026
25.3462
0.726483
-2.81496
22.8272
34.3008
-11.6114
24.5026
22.9546
36.2625
2.38366
-3.56462
3.11204
-9.51976
35.6727
0.998172
-1.3058
14.8189
-7.12349
4.97565
-2.35096
-20.6139
22.0502
19.6173
15.781
10.647
-29.5093
-6.22502
-11.984
10.6787
-23.2122
-16.2466
-0.262078
-282.245
-198.796
11.8525
-20.5413
-73.014
-16.5656
-24.4941
16.0783
-91.4586
-160.727
25.8679
-45.6385
37.2784
-68.0384
-74.5668
27.647
33.282
-3.099
0.769628
2.8175
23.9795
11.5147
-27.5912
-5.41387
-2.06148
-17.735
21.8084
-1.85523
13.2326
-3.65656
22.8775
-53.4954
-0.268207
-0.574759
28.3877
-21.8935
-138.356
-174.209
36.8399
1.16673
-130.439
-130.134
22.8806
-126.977
-3.95592
4.51843
8.71441
-0.071562
14.5247
-83.706
19.1844
21.982
26.8674
9.93449
-2.51865
-17.5133
17.3109
-9.98143
28.0918
15.7432
-6.07712
-4.12019
-8.26113
-1.86898
-1.8074
26.4261
8.55823
4.39645
22.7354
0.797103
17.4391
42.2226
-2.41964
-23.6937
15.4224
-0.68517
-3.46383
-8.77043
-35.7979
22.8934
-0.495174
0.0325182
-0.138536
3.1133
30.3192
-100.713
-0.024045
22.898
0.0743298
33.5212
26.6273
31.3122
4.80317
14.7892
6.28223
-0.165681
16.0138
22.241
-19.3034
-11.0307
-3.17092
-27.78
-185.344
22.8852
-64.8596
-62.2378
-280.091
-19.2894
-0.893777
23.1857
-0.278976
4.29101
-69.6994
22.607
41.699
0.101599
-212.721
12.722
-7.90529
22.6874
-7.81853
-3.70015
27.8197
-4.50817
39.465
14.8141
22.6408
-19.3723
30.3729
-0.384611
26.8194
-1.34161
-43.8439
-9.91969
-170.72
14.07
-0.88308
-9.19318
37.0858
22.6467
25.2333
33.3689
25.7945
28.2518
-12.0848
23.7266
22.6017
23.7033
-9.49786
-8.05446
-19.6461
-23.0213
5.36502
25.9581
-91.8672
39.1354
-25.1371
-0.487772
40.5179
33.709
-10.9415
-149.092
22.9263
11.7607
-3.82588
20.9763
-85.2404
-9.81506
22.5908
32.5575
-3.77647
25.4386
30.032
-0.00309694
-11.4756
30.283
9.08661
-1.84436
-75.5327
0.0656175
-20.2242
21.4866
15.9981
-3.92551
-11.9856
-29.07
5.28555
-3.14792
4.6996
34.5308
-3.89254
45.2193
23.0364
6.6505
26.03
-104.664
-95.2185
-118.162
22.9592
-3.84159
-71.2392
-23.8063
10.726
13.2305
-3.56389
15.5492
-45.7766
10.0004
1.4411
-3.71969
17.748
6.35445
30.3287
23.538
24.5555
21.7185
-10.2962
-32.7341
-21.2599
0.593322
-55.2483
-10.6842
17.4654
-39.5587
-2.34107
-4.52117
2.50232
-212.434
15.461
10.2742
-4.18424
-32.0332
9.74655
-16.1052
-40.1926
2.81964
-0.905013
25.3826
16.8635
30.2842
-75.0068
20.4631
-0.217431
32.7272
-3.85227
11.7877
2.67311
-3.65929
38.5074
39.4957
17.995
10.9243
15.6084
20.5591
39.0537
14.255
-32.4965
-189.514
3.98965
-24.3267
-25.4228
22.6264
22.3179
-0.229876
3.57769
18.5523
20.52
42.6764
-70.6628
17.9816
-63.0334
-25.6715
33.8685
-7.48063
18.0384
-31.5224
2.83508
8.09304
44.3482
-2.50592
-19.854
11.003
3.07999
-103.842
-82.9161
2.21819
25.9681
-2.43826
10.9794
36.116
32.8155
-5.59165
-46.3085
-2.52379
3.1568
27.2747
21.7871
32.781
12.8709
-132.383
34.6338
20.3787
-24.497
16.4953
23.9297
29.3863
-207.1
-16.2381
0.0760332
19.408
38.3154
11.0914
2.54716
-20.9235
42.7946
-82.0929
-24.298
39.8886
20.0349
0.338721
17.2392
-50.3517
11.1196
-28.5667
-84.5781
-3.55464
-136.15
0.608978
-17.448
-67.57
-60.372
-8.51063
-3.4356
-57.8897
-110.833
17.0716
21.3305
10.8886
-54.3696
5.14875
2.67777
-11.4098
44.861
13.6012
-18.8813
19.9328
-21.8086
-142.587
18.1892
18.105
22.281
45.3935
0.0353341
-7.33724
-95.9025
0.685382
14.1892
22.4259
-9.40975
35.06
15.5692
24.4716
-35.4914
-5.29204
-0.523003
23.5575
22.913
24.6993
23.0572
41.4886
41.0388
-21.6263
20.0903
29.8809
-18.5488
32.8761
-3.47434
40.4614
32.6597
0.507729
26.4301
11.0012
16.3094
-1.01721
23.6956
-30.3891
19.3361
5.75097
14.2109
-3.79809
22.4833
-3.11204
5.24984
39.0436
38.9369
13.8
-77.7432
4.63752
-1.54226
-6.99804
18.2854
34.5717
-79.486
23.7665
21.601
10.0729
23.3582
-165.298
-30.724
-4.26562
42.2924
4.30447
-2.85375
27.0197
-4.04008
-1.87065
10.7825
3.94241
17.362
7.54058
-19.0292
12.8068
17.4945
13.83
16.0161
41.2067
33.3119
29.1316
27.8138
38.5351
8.83959
-3.66533
-0.606301
-28.2904
38.4288
-38.3758
22.6433
19.9176
-112.699
10.1515
25.5344
-137.98
10.3409
14.2633
45.9099
-52.7729
9.06038
0.622177
26.4668
-0.526148
-57.5654
37.8312
31.9075
21.7861
22.8773
-25.9281
8.39151
-68.9011
40.9045
-1.11018
44.0485
-8.66707
3.18429
-88.6806
11.0992
-102.003
4.10039
-4.39038
7.44856
-0.964511
7.26576
-68.6411
-0.00491161
-27.2251
-73.1267
-18.7311
-22.1675
-1.21832
-5.68213
-29.7823
-152.797
23.2597
23.7456
30.2304
22.157
8.12377
7.93667
47.7358
22.0489
-57.7025
-0.0752354
-2.86332
17.5114
19.493
35.0784
-21.3409
-21.5495
18.0748
-0.0181734
4.94441
29.4445
-82.6778
-112.037
-73.3594
41.449
-67.4407
15.0765
29.7809
-6.8341
16.9125
-2.76422
-67.0734
-57.1162
-14.5139
15.3478
27.4261
29.189
-24.2454
-73.9014
13.9942
-63.0952
-25.7495
-10.6501
4.56021
-28.6598
-2.05074
-78.513
-55.9105
-69.1235
36.3334
-35.8069
39.8774
-115.417
-10.6547
7.26508
1.12768
33.4859
22.4442
28.0055
-0.95228
-28.3607
-75.8749
32.3723
-70.1744
16.6806
-3.48859
28.4387
33.2372
-3.62908
22.7488
38.169
25.1514
24.6611
-50.6325
-13.1808
8.33045
-35.4818
-4.34875
12.0872
15.6097
-0.380341
-91.9632
4.7314
-26.9156
19.2515
15.9555
-18.6614
40.309
0.454203
-0.0697633
2.69932
22.0269
-57.9193
-0.00746291
24.7915
-13.0994
-0.329261
-5.53189
24.2538
22.1077
21.1567
-2.2197
21.6275
26.7355
25.8996
-19.9483
-0.507965
4.65639
18.9559
-20.9162
-108.163
-118.621
-26.6649
-50.6919
0.0796386
-4.27413
-0.845472
-88.103
-16.924
-238.873
-27.9302
-33.6808
7.96948
-76.1929
24.6297
48.2393
7.29418
-25.9978
9.97611
1.89175
4.62362
0.0213039
-24.2974
-251.694
1.18491
30.8586
0.0214834
37.5206
0.0166912
21.1094
17.8321
8.95528
-80.2238
12.516
41.553
-29.4336
22.0866
21.9429
34.9432
1.11824
31.7789
24.6771
-88.5948
26.4135
-56.3525
-55.1034
32.6838
20.1222
-25.6032
-0.373631
30.3348
-0.908675
-131.217
-0.672455
-0.234181
17.9905
12.1847
23.4848
20.8769
18.7088
-50.5122
-19.2432
-19.5929
22.8532
44.1683
-27.7607
-76.7118
-92.54
22.9306
0.685318
0.703599
8.05013
0.657143
16.734
-11.5516
4.02654
35.3662
9.38465
1.19126
-28.2496
-84.7426
-43.0198
-66.7409
-66.7581
-121.915
27.8551
11.9715
-23.1456
37.2439
-0.0923511
-81.1092
-26.9437
-60.8902
24.6439
-68.8098
7.06466
22.4849
-2.9388
-19.9412
-9.99869
-53.6192
-58.5512
25.3088
-220.741
-3.17765
-70.4727
21.9683
24.6572
-70.45
29.5213
26.9907
36.0456
37.1136
25.4893
3.25701
41.7861
-74.4778
21.7036
0.562886
-284.303
28.4641
-103.235
36.0815
10.7302
-22.2931
-53.6123
-41.4351
24.891
-120.564
-48.2523
-1.47084
-21.4426
1.32494
13.7872
4.0568
15.6183
41.4082
-84.982
-68.6691
-17.5746
23.8183
17.5298
-54.0214
48.0467
-3.55728
-29.0632
14.5757
-22.8669
21.5414
23.299
26.5125
26.8395
2.02993
10.7521
21.5212
4.05874
-21.9685
-0.453303
24.9149
25.912
32.4104
-24.1197
-0.0918034
10.3616
13.529
4.13244
-213.402
18.8862
-34.5459
19.9411
23.7862
-60.5684
37.5659
-122.966
40.402
26.3879
-237.044
0.0580498
-2.62518
8.03946
24.5096
-227.44
31.6835
21.8529
9.97492
-0.0510154
3.80402
-6.65109
9.9835
-68.9129
12.6403
-51.0038
22.1777
-98.1271
-7.63604
-19.4653
28.8119
33.7999
10.2028
-84.0649
10.9507
-5.97457
-0.0144114
12.5409
-10.7733
-18.8711
39.8963
-12.9888
-3.66468
-29.4056
-60.27
-14.8143
22.3909
-66.163
-12.7991
24.4336
13.1779
24.84
-100.598
9.46613
40.3502
-45.8977
22.5009
6.17331
-13.2148
7.30076
4.33047
-13.7173
41.0582
26.3569
-0.114629
39.3903
30.3245
28.6997
-61.146
-96.9768
14.1608
-24.0712
-11.24
-38.5194
-23.3607
-38.1736
17.0438
7.96719
12.0538
13.8731
-10.8668
16.3025
22.7326
-103.355
24.0937
14.0031
22.2898
-5.95893
-0.95103
-72.9712
-68.7575
-94.0556
-14.6089
22.3845
-295.719
36.5791
-107.686
21.6774
12.8784
-4.96393
-0.198384
23.41
10.3399
5.30639
19.9005
0.873196
0.479489
34.2786
27.5955
-58.9594
-105.604
-8.79806
20.2684
-0.171624
8.36571
-26.3875
-0.124652
-6.25553
-1.67152
19.2165
18.6958
3.03906
10.0907
-0.851086
-2.98871
-302
28.7806
-80.1489
22.5483
0.0445162
19.5262
24.2339
12.8909
20.7386
-5.77104
-71.7782
-4.65701
-99.8479
-106.552
-105.729
0.887563
-13.8531
18.0886
-1.63127
21.9199
-12.4905
0.306526
-29.3901
-3.43464
23.8891
-58.6946
21.9651
5.19127
-250.585
-6.65281
-85.7483
15.3689
22.7147
-3.00904
3.77733
-103.519
27.1814
-4.13398
5.93345
-107.537
29.2238
10.1628
-0.43747
24.5695
23.4636
28.0471
5.09266
28.7373
-51.5112
-17.7384
-12.4833
21.9052
14.5699
5.41032
-2.67361
-164.358
-164.818
10.9245
-1.10087
-203.73
38.1237
-58.8741
27.5389
15.3442
-49.1703
-3.72677
-6.14242
-5.01472
2.13698
2.92702
21.5556
-5.37741
22.8216
-29.05
8.2542
-18.8178
3.88073
-176.898
29.0399
40.4345
25.2489
11.3926
1.55609
14.8421
-59.2282
-5.20537
-2.20207
-6.819
-77.8986
-246.17
-193.738
-22.2746
19.6149
22.3235
-21.707
4.84765
26.1192
-17.8755
-23.8216
24.9603
-3.80626
-130.914
-0.0111948
-5.51155
0.0299957
38.0339
-2.40661
21.4679
-22.0574
-14.8968
-17.9991
21.9835
4.35727
17.7494
-20.2797
-23.0773
-3.12389
0.630097
26.7564
19.4096
4.04528
-10.6446
-14.3214
42.0894
-21.0433
26.0762
29.0361
-3.06004
-4.39544
9.44684
-90.0881
-37.3103
20.002
13.0152
21.7367
-126.438
25.3196
2.37625
33.4398
1.48855
20.3569
29.4257
19.0348
4.21251
-98.8801
7.05513
-51.9643
19.0629
10.1813
27.8859
1.92111
35.7672
3.48349
38.5298
0.42678
29.2912
-3.6855
16.0816
-126.087
21.7508
9.74503
9.4133
34.8423
22.7965
5.13642
-18.8514
11.9314
21.283
-3.3413
-61.2174
15.4438
-3.69651
30.2373
-72.456
36.6424
5.29477
47.861
36.8954
15.7223
14.1802
-146.422
1.25934
39.4536
-1.20514
-1.47916
-6.22196
38.9511
11.1566
18.7378
30.9559
-15.6665
24.8578
-12.2404
27.437
-2.25645
25.8487
23.0721
32.7292
-3.76436
-51.831
5.74014
-87.3255
9.35798
0.965141
-2.06636
30.1935
34.1249
0.0452662
4.86478
-10.1477
30.632
17.9445
20.3804
13.7878
-10.0847
-88.6342
-39.9366
23.5861
-31.1488
-8.51136
-2.92256
15.0296
9.95236
-18.9607
41.4907
-12.4434
36.5039
4.27966
37.3006
-24.767
4.121
-5.21677
-0.486137
18.5659
22.2884
0.121564
-6.77592
0.636888
-10.6378
34.2366
-7.98241
-0.139497
-12.0011
-4.04087
5.82563
28.3369
9.05541
-11.478
-1.26065
22.6221
44.1996
-91.1639
-1.76917
21.8546
-3.93949
10.9198
-3.66298
15.3323
-5.52797
-41.6308
-5.84304
-36.0145
-8.81043
-0.961308
-57.0329
-145.04
-1.00065
17.999
24.263
19.7325
43.0608
-165.514
38.3264
-90.7391
37.0966
-239.856
-17.012
41.5849
9.21107
-66.4154
22.6372
-3.73887
24.9636
-15.0177
-68.3931
3.25421
-21.911
-32.0248
-0.0213339
-8.03957
8.69836
28.9398
-301.777
9.60638
-25.5821
5.20102
-12.7215
-3.28148
2.96986
-16.3422
-25.6234
29.5976
-2.56218
33.4896
7.88804
-54.4032
7.34897
-21.4174
-5.30291
19.5555
28.9973
42.5663
17.1821
19.9616
8.78945
-85.2806
41.2485
44.4746
25.3456
-14.1279
-124.864
-49.381
20.5786
13.4463
7.06816
18.6049
-28.6332
-2.86243
-112.483
34.7507
3.86156
2.57097
-65.1247
21.4823
2.72026
47.1819
44.4656
19.8668
-0.504113
3.87229
-61.9784
8.65495
45.2865
-4.9816
-5.05524
15.5871
0.0357651
4.14657
-4.09189
-7.78784
3.95944
3.28066
9.48078
-1.13617
6.89855
32.626
5.17974
24.1521
-74.4687
-9.28239
40.1566
-103.513
3.52848
2.90568
9.59359
2.24121
-74.5024
1.34173
-12.349
4.20723
47.0249
-76.0287
-34.4662
-141.507
-17.1323
-4.03582
3.2877
-63.6838
-45.0242
-0.484585
-14.8197
-19.4659
-33.0916
2.80331
-2.30676
2.00034
46.7857
1.71314
5.81882
-9.04699
4.41573
-75.4934
-15.3881
32.5828
22.8824
5.79223
-3.33065
21.773
24.3575
-4.39858
-220.991
-2.91462
32.2528
-19.575
20.9156
0.575349
36.2333
2.1445
-85.8872
3.31743
25.0578
-17.5351
20.4062
-16.0032
45.2283
-61.6299
-6.13911
-100.453
10.0216
-80.9127
-19.7831
-66.6893
2.00431
8.95868
-148.836
-15.6816
-5.25301
4.28212
-57.589
-19.1925
17.547
-58.1187
19.0764
-73.3049
25.4016
41.1476
20.8101
-79.565
22.7593
1.09733
3.67932
-5.71528
-10.2497
-59.6867
-1.33596
-22.9801
8.74893
-0.514607
-18.867
-8.8257
-132.874
10.6758
22.5009
-24.5927
-82.4498
-8.43475
-1.24359
-4.46593
12.1457
-52.0503
-88.8289
23.4852
-14.0385
12.0362
-30.4796
-149.83
-77.4084
-178.537
45.274
6.04339
-25.3132
5.47262
38.9018
40.2706
-97.1949
-12.4534
22.4938
-2.77461
-0.917966
39.4998
11.54
19.7141
47.761
-7.88993
4.35824
3.30976
35.2298
23.8187
23.4065
29.4911
16.1707
-0.492958
-0.761421
10.4621
4.78337
-64.1192
40.74
-13.7226
-14.0497
-1.00721
-50.289
9.80129
-67.6409
-14.2996
5.09425
23.6291
24.9986
26.3733
-56.0938
34.8371
39.7031
-44.5573
13.5391
-6.01002
-2.84874
3.37256
13.1427
-13.5315
-18.055
-29.5782
44.1367
-60.5526
26.6051
22.9701
31.1431
16.2177
17.0516
-5.41587
-0.314934
12.3846
-4.20517
-74.4096
-26.7232
-0.284713
-53.4665
28.5271
-140.697
-3.34362
4.18074
-71.0645
-78.8114
-71.0955
19.6004
-11.9892
-1.50126
9.4666
-172.468
7.00555
-28.3311
-5.63504
24.7673
-68.446
40.8217
-0.934062
42.4542
-0.0362865
-2.60433
2.66321
19.9733
18.7578
-28.3018
-6.56001
-5.60162
2.08059
14.9187
48.1227
31.1673
5.47875
-19.004
10.5038
0.0734137
26.3919
-5.52163
13.2889
-44.2758
-65.0744
-74.8596
6.52137
-0.425625
-75.0047
14.7651
13.7706
39.241
41.9583
-65.6985
-59.6962
0.793791
-21.0205
41.206
-1.484
-11.2444
9.46363
16.5156
-45.8689
-5.51576
1.96869
-3.66365
20.4354
-34.4498
3.67547
-0.223657
-15.9851
-27.6143
-6.85137
-28.963
-24.2075
25.2929
-110.812
-77.2515
-16.6239
1.66611
44.6507
16.3501
21.3224
-24.0359
10.338
-1.66866
7.47111
6.49733
-63.9643
-81.308
41.1083
24.3604
-0.83959
-51.5394
46.4936
-79.819
-110.068
-39.3528
10.0183
-86.3416
-42.7422
35.2255
-2.08212
20.5019
8.82326
-47.6374
2.44421
-1.67071
10.3092
-32.4179
-0.181513
7.02688
22.1456
-89.8094
-112.3
-3.87012
-23.0877
-24.093
-21.4022
43.8459
14.9409
-208.509
9.33672
5.6558
38.23
11.4082
-88.449
12.0946
29.5951
25.1428
-23.9528
20.4363
-6.85975
40.7965
-0.37636
23.7332
-85.0638
-21.9076
-1.27723
-53.7956
12.4544
7.53452
-90.163
-96.1677
27.3559
-7.48485
-2.39018
32.7304
17.9068
31.8132
20.905
-23.5299
0.0536993
0.28278
22.3597
0.0323499
28.7037
17.1508
40.2168
-57.6609
30.8855
10.1215
40.352
-44.1562
-14.9598
41.5595
-62.1464
16.8459
-60.4526
35.8098
39.922
24.9074
-39.0154
22.22
30.1686
-53.0523
9.39471
-78.4876
32.2626
-67.844
-18.8714
-58.9778
-62.1206
29.5599
9.40933
-66.2193
10.8968
39.8943
-13.3011
-4.39825
-66.8099
-18.2572
18.876
-9.64324
21.6237
20.9657
-65.0102
44.8202
-4.30025
33.8398
33.5499
-5.09096
-0.657957
19.669
-24.2434
-12.5335
19.4358
16.1433
-9.23633
21.1228
-37.5106
34.0211
25.2345
7.67771
-2.98638
25.6699
-23.7348
14.0352
31.0157
4.09267
-0.67232
29.7769
24.2849
-17.735
-81.5968
16.6926
25.6473
40.5426
-102.936
42.9863
40.7013
43.5247
-9.57923
28.9744
-98.2306
22.7825
31.6867
30.726
25.3402
34.6933
47.2213
20.0782
-114.021
-0.962444
-68.1253
46.7857
11.3103
-8.72216
-78.4156
21.958
35.0973
21.6983
6.69718
-6.14793
34.647
-29.1928
24.5073
-83.8963
9.95938
-3.04583
5.39646
13.9174
-101.087
-115.268
-15.7926
-21.4183
-3.26975
28.2985
-5.4026
2.09012
20.8081
-115.202
13.5836
-1.31314
-102.036
-72.3126
-107.302
32.8757
35.824
-73.6778
7.58266
30.0689
26.7942
0.0101649
-225.681
24.9722
-57.4583
32.3847
-91.8227
31.3985
14.4993
2.73657
29.3013
14.6591
30.6788
7.22447
10.5424
-17.7207
-79.4544
-124.31
-4.02486
30.0532
-253.07
-60.6992
-221.457
34.0711
30.2774
7.92426
16.0931
34.1956
-24.6677
21.4789
-1.62523
-19.7429
21.2684
-85.4978
-60.9263
-20.0398
-71.8433
-13.7972
-240.891
-1.82453
-61.4284
-82.7189
17.8472
40.9429
44.889
38.7852
-276.441
24.727
-95.7412
20.6351
34.205
2.79462
29.4443
-198.849
7.20141
-19.833
-2.17768
32.1791
-17.2727
26.0513
-55.5105
-6.66533
-75.3304
26.6732
25.8004
22.4056
-62.8042
21.1244
-17.9562
-66.3443
-70.1804
6.5043
41.3461
-25.5085
-23.2352
-90.6486
22.3816
21.7882
-4.36325
14.0313
-61.8062
34.7413
31.6038
-52.4256
-5.4022
33.6129
-89.4355
-198.148
-0.456652
30.573
34.6593
-82.314
15.2778
-3.9365
40.2318
-67.434
-106.71
-2.21495
37.6108
-0.569052
-16.4936
-10.5613
32.0935
17.9664
31.7114
-2.93803
-25.0621
25.3956
45.9976
-86.127
20.2723
-1.13626
-60.3783
-0.922626
7.52517
-87.5751
14.9125
-38.6978
14.7846
-28.3353
-38.713
28.8306
35.2526
20.927
-23.6958
-94.3994
26.8463
-57.828
6.06881
-18.837
10.1367
-87.927
25.145
26.8117
-1.42086
25.0946
39.8167
-23.0798
17.8865
26.2763
-74.1927
14.0137
-9.70603
9.90754
5.84039
18.1243
0.00658376
6.99362
-9.68521
-48.7012
33.0552
6.84391
3.06156
-101.791
-12.3691
23.7789
-66.79
43.3775
-56.9229
-74.0695
-9.30975
29.8291
26.2903
31.5326
-58.0581
38.3079
-220.195
17.5604
1.37314
-72.8426
21.22
9.37546
-10.5319
14.3217
-79.4843
18.6651
-65.9767
-99.629
-0.0571822
-84.323
-80.9276
19.7266
39.1884
-1.47792
-100.974
29.7961
-32.3665
35.3979
9.00431
0.144748
12.6125
23.1207
10.9967
-16.5426
-3.14626
-0.841605
5.55431
8.21585
-97.7699
-95.1998
-2.46028
12.8477
-3.32256
47.2068
24.6311
22.7517
36.0245
3.40364
25.8609
-168.414
-31.3265
-133.708
22.5238
46.3768
20.7618
-16.2463
32.9135
21.3419
21.6704
-2.55021
-1.3504
11.1017
43.6959
-0.437907
-35.4659
26.7377
33.8482
24.2375
22.4094
28.1531
15.3784
-20.1778
-189.912
25.0339
-103.867
-75.738
22.6233
-157.782
-2.83371
5.13839
24.7972
25.954
26.422
-3.00626
31.281
32.2243
3.87395
27.7653
23.7209
19.1008
17.8628
14.8567
10.4512
-4.47837
29.7542
27.6663
1.80179
20.4614
-3.17287
-3.65671
38.8267
28.7304
-0.0139132
-123.025
4.32623
29.8654
15.254
4.2859
-3.12155
1.93141
-55.6933
3.54753
-100.849
-4.48303
16.2476
-16.2946
-126.319
-65.469
36.8117
-86.0669
-79.8576
-121.512
39.3991
-24.7807
4.99775
4.20083
-60.0712
18.6958
21.3314
12.8141
34.5523
17.2852
0.0279437
-80.3042
-126.151
-0.148862
27.1541
2.71031
-83.9425
-65.9882
-36.9335
-80.53
-114.598
-25.6387
-8.93385
8.18553
22.2799
30.6058
-29.4929
-2.29876
34.565
25.4568
-81.7385
-4.49742
-71.0057
12.5847
1.21319
11.5116
19.1455
-6.41861
-29.0468
-40.382
5.98835
-247.07
-83.1391
0.248263
-223.038
-70.6218
-59.8924
-134.922
0.291223
-40.08
10.5544
-71.2357
22.6626
20.1516
4.503
30.1895
-227.892
39.5292
-32.3293
0.706704
-19.7484
22.4601
12.7841
-78.7656
-34.4624
23.4681
28.1942
41.0125
-122.677
-66.3547
-233.893
-7.74819
0.101358
-57.1829
5.797
-58.3978
12.2885
-93.9166
16.9485
-2.15079
-5.51914
35.5681
19.5272
-18.8794
-2.08149
-23.355
-90.7346
30.8192
44.9254
-111.58
28.4913
21.3187
-0.0235244
-12.7656
29.3127
28.2416
-22.7029
-20.2794
-143.302
-252.277
-18.7401
-55.1059
-17.6865
15.2681
-1.94565
25.6147
-81.1391
-61.1824
21.4532
-17.5514
-57.2283
0.666005
18.0053
-60.4793
-10.6672
-63.1513
-55.085
-58.7611
41.747
-39.1126
-4.59761
-111.989
24.913
-77.3457
-7.12207
-32.8254
-177.425
-17.9656
25.9491
-0.188237
-56.3749
19.2133
0.0219805
-68.6016
-84.0008
-68.9519
15.0015
17.7486
22.8327
-35.6613
35.5294
-47.8866
0.0390745
-4.05989
-39.3427
-191.956
-60.565
-152.796
4.89262
9.15077
-2.0941
-5.84235
-29.2388
20.9349
-232.376
22.6601
-151.135
14.0299
-14.2586
-14.9335
1.0333
48.3694
-8.25731
-66.9398
-5.8069
-37.2677
22.4515
-2.93146
1.60378
-5.59983
-60.0603
-118.365
-87.1891
-55.6415
25.1641
-89.0407
3.16286
-62.325
-1.59846
19.3727
-3.71426
7.91662
-10.7726
30.6829
-70.1831
-122.716
33.2646
7.87142
-72.9053
-5.58714
-119.497
-29.3265
-7.102
29.8057
-104.154
9.6469
-59.6611
-103.973
-128.564
-105.658
-86.8471
12.4437
-20.7031
22.7361
8.31703
-228.657
39.6308
-218.149
28.8301
34.9752
-62.1281
0.465512
24.4067
21.9615
17.3152
-150.491
-114.793
-94.6216
22.623
6.30443
-44.5727
-111.312
11.3658
27.7898
-4.78745
0.682687
0.642704
32.6115
-23.2435
-25.5651
-3.29456
19.4645
0.616273
0.120043
35.6837
28.9797
-2.6814
-236.924
29.3702
11.2844
-2.03706
20.8231
-29.1542
-139.286
-93.8168
-207.729
28.3805
24.3301
-6.61079
-19.3169
-0.0963554
-8.42444
24.9573
-261.175
17.1704
30.911
33.5414
-48.5498
22.9447
19.3858
25.5103
27.2819
-3.48737
27.3205
-0.0869361
22.9958
12.9504
24.9244
-104.701
29.2356
27.6972
20.2925
15.1889
-104.434
15.0452
-19.9839
-26.1764
31.8781
31.4047
-223.908
26.6891
-177.795
-93.5871
24.5978
24.7366
-37.218
-2.444
-65.2414
-241.276
-22.1744
-80.0451
-52.1177
-6.67821
20.2527
43.2258
29.4918
-36.7819
-48.4515
24.1881
11.5013
-21.6619
-149.02
-93.9645
-26.681
-97.4402
-81.7261
21.6604
-0.188807
10.0351
-0.236567
-0.230453
-1.5784
-0.0477864
4.98406
10.1671
15.3306
-29.6255
10.1022
-74.4436
-243.913
14.8043
12.3104
-5.50278
-7.36558
15.4472
-3.66996
8.97631
-21.9747
22.8369
18.1068
37.7594
22.8237
-152.965
-6.67177
-19.6453
-79.6826
-2.98095
-3.45316
-11.3249
-224.007
43.5058
-0.178688
-4.54672
34.9639
-91.7772
-15.6267
-16.4605
-111.247
-55.7046
3.8885
-20.2054
21.897
-16.1219
-144.815
2.0542
-68.7406
-20.2479
-22.4062
-0.439513
18.0048
-65.3053
-85.4169
-21.6944
8.0077
-33.9094
24.7636
36.1212
-80.5233
25.1944
11.6073
16.403
39.7769
-97.2867
13.8434
10.9379
9.5381
33.8502
-7.85694
-7.73856
-20.0659
24.2936
36.1922
-110.929
-2.57241
-58.7207
-34.8989
11.686
-123.207
-24.7426
-106.851
9.07914
-56.5341
4.43199
6.48034
20.1086
3.34473
-106.521
-0.915797
-3.70439
-12.4622
38.6185
43.4161
31.5459
44.9078
20.4963
22.1101
26.0904
22.0566
21.4653
-68.8487
23.2205
-6.40518
-94.027
34.8534
-10.0849
-27.4694
41.2776
0.172891
-209.449
11.9625
10.0121
28.4308
-16.5381
21.2614
37.9873
-92.5066
-96.0338
-24.4282
15.1154
-78.8727
30.015
-2.9823
28.6158
22.6255
-86.4016
26.9842
-15.3004
-100.195
-113.191
-166.793
27.9653
-39.5582
22.4961
-4.02974
-54.9373
-0.954032
-3.90334
-25.6998
-128.47
-59.0043
28.313
4.60395
-61.3591
-10.2782
14.8539
5.23869
-254.867
11.0006
-3.1111
11.1315
-69.4962
13.5582
6.07106
13.2146
-6.15547
21.5635
13.0852
6.6922
-72.9809
45.2871
-19.3341
-65.0018
21.6542
18.0398
-56.9135
-27.7516
-93.6476
12.8275
10.5867
-32.5857
-2.45191
-5.55338
45.4626
0.086832
-99.2
-0.751683
-17.9465
14.7064
-12.6492
20.4469
14.7728
-66.4987
13.7962
-61.315
17.3876
8.30328
22.7064
16.1757
-0.0401199
0.0413472
9.59296
24.945
3.75008
-0.307913
-73.0505
-13.2798
-11.5318
19.7934
-69.5159
10.1322
-46.3692
28.0896
-56.1016
-5.48992
30.7645
27.415
10.2633
-102.072
-56.5175
25.4838
-3.12147
28.9644
12.5046
2.87857
23.0862
6.0263
6.63464
4.15967
-20.6785
-62.2799
15.6213
-13.1257
31.6048
6.26364
45.5102
-0.897236
6.28137
27.8489
3.05289
5.58267
24.5767
18.5301
13.0558
-47.4355
-3.74649
21.3098
13.9324
5.93158
-291.799
-9.43597
-133.069
-51.3218
-25.1431
20.6687
-5.31023
18.6106
-2.08778
38.7663
29.504
8.62108
17.8224
8.06043
-75.2285
21.7537
15.7425
1.17558
8.67365
28.6867
25.1251
-4.06099
-230.606
-26.6439
19.67
8.66284
3.43799
24.5647
-257.229
20.4933
-21.6009
22.1319
10.9391
-3.73322
9.97708
26.4884
-6.12735
23.0382
30.3615
3.55193
-23.2128
12.8678
2.87614
36.2552
-100.459
32.4843
26.6934
-63.204
-82.3914
-0.980193
-21.2216
-104.159
-80.0153
21.8498
33.0919
26.0257
33.425
15.9555
30.2091
9.72705
1.56111
10.646
-1.75341
2.25431
18.3926
-24.4603
35.2863
5.71287
-56.7908
16.6708
34.468
36.58
-213.815
11.7061
-123.984
-82.8262
11.5676
0.494331
-84.6894
11.7024
36.7039
-66.7825
-89.1846
-117.952
10.1004
1.59453
3.80209
21.3531
22.403