/*--------------------------------*- C++ -*----------------------------------*\
| =========                 |                                                 |
| \\      /  F ield         | OpenFOAM: The Open Source CFD Toolbox           |
|  \\    /   O peration     | Version:  2306                                  |
|   \\  /    A nd           | Website:  www.openfoam.com                      |
|    \\/     M anipulation  |                                                 |
\*---------------------------------------------------------------------------*/
FoamFile
{
    version     2.0;
    format      ascii;
    arch        "LSB;label=32;scalar=64";
    class       surfaceScalarField;
    location    "2";
    object      phi;
}
// * * * * * * * * * * * * * * * * * * * * * * * * * * * * * * * * * * * * * //

dimensions      [0 3 -1 0 0 0 0];

oriented        oriented;

internalField   nonuniform List<scalar> 
20045
(
0.998151
-1.06951
0.0713562
-2.10363
0.752742
1.35089
0.750444
4.14502
-4.89547
-0.611644
0.920845
-0.309201
-1.64371
1.58654
0.057166
-1.27277
4.48938
-3.21661
-1.96486
0.815201
1.14965
0.111587
0.838914
-0.950501
0.950777
0.807682
-1.75846
-1.66559
-0.190143
1.85574
-1.35675
-0.808081
2.16484
4.44384
-2.10616
-2.33768
0.6746
-0.701916
0.0273166
-2.51491
2.17988
0.335031
-0.60339
2.04971
-1.44632
-2.15687
0.491273
0.238662
-0.770421
0.531759
0.89086
-0.977646
0.0867855
-3.43375
4.99863
-1.56488
-1.47658
0.118239
1.35834
-0.943266
0.626984
0.316282
0.211288
0.463311
-0.242644
-1.86099
2.18742
3.11542
-5.30284
1.63102
0.447825
-2.07885
-3.02968
5.2171
0.526625
-0.538173
0.0115483
-2.72363
5.28488
-2.56125
3.24789
0.624625
-3.87252
-5.44075
2.81092
2.62983
-1.0399
0.922655
0.117242
2.76477
-1.9769
-0.787869
-1.07706
3.43765
-2.36059
5.32066
-2.89639
-2.42427
-1.0756
1.18718
4.19273
-2.07419
-2.11854
2.43559
0.209066
-2.64465
-0.122271
0.746072
-0.623801
-3.89976
1.93612
1.96364
1.19219
1.01958
-2.21177
0.0993108
0.812927
-0.912237
0.327911
-0.442251
0.114339
4.61566
-4.6014
-0.0142646
2.97975
-1.11131
-1.86844
1.38491
1.59484
1.97238
2.47146
0.147831
-0.378821
0.230989
2.58251
0.908617
-3.49113
2.95724
-0.521654
0.509382
3.8479
-4.35728
2.59538
-4.37807
1.78269
3.53421
-2.45211
-1.08211
-2.36224
-1.62026
3.98249
-0.176199
-0.586125
0.762324
1.3195
-0.764286
-0.555214
-1.3427
-0.30101
-1.07411
4.13858
-3.06447
2.9526
0.477643
-3.43025
2.90744
-3.98449
2.72943
-1.83141
-0.898018
-1.31109
-0.889384
2.20047
1.31973
1.40969
-0.0919203
-2.40297
2.49489
-0.403365
-0.539901
3.69959
-1.65257
-2.04703
2.73243
0.129389
-2.86182
0.398595
-0.915228
0.516633
-1.33803
0.324389
1.01365
1.6751
-0.724319
3.30295
-3.37745
0.0745002
0.845485
-0.446891
0.293947
1.02555
-0.491407
-2.03952
2.53093
0.362367
-0.58273
0.220363
2.9954
-0.879593
-2.11581
2.71102
-3.78513
0.273813
2.72159
0.873636
-1.47703
-0.175835
-0.200826
0.376661
0.516079
-2.37849
1.86241
2.00939
2.25735
-4.26674
1.79386
-1.39045
-0.403405
1.41334
-1.50526
-5.18593
0.837015
4.34891
0.0493785
0.948773
-1.16961
1.31932
-0.14971
1.09317
-2.48872
1.39555
-3.2056
0.120723
3.08487
2.05136
0.309089
-2.36045
-1.66288
1.54427
0.118614
-2.78826
-0.39433
3.18259
1.40237
-0.265005
-1.13737
0.817431
-1.14947
0.332039
-0.322988
-1.60054
1.92353
1.13144
-1.21013
0.078689
3.01208
0.59667
-3.60875
0.421308
0.105316
-0.388355
1.13835
-0.75
2.40462
-1.21243
0.389004
-0.821836
0.432832
2.8752
1.31752
-0.888172
-1.62674
0.860046
-1.2484
-0.790705
3.74331
-0.121981
-1.04763
0.825052
-0.436048
0.865556
2.42782
-3.29337
1.99506
-3.59408
1.59902
-0.0280036
-0.910504
0.784289
0.126215
-0.541926
0.673408
-0.131481
2.37927
-1.77905
-0.600216
-0.960947
0.784748
2.43593
-4.79604
2.36011
-0.31993
0.619005
-0.299075
0.103156
-0.651336
0.54818
2.30917
-0.678144
3.73776
1.5829
-2.28942
1.79801
2.47634
-3.3476
0.871259
0.879571
0.0112896
-2.09265
0.781568
-1.48885
1.20567
0.283182
-1.9047
0.199909
-1.13023
0.930316
2.36645
1.16776
2.17275
-2.78465
0.6119
3.16899
0.41126
-3.58025
-4.69035
3.47191
1.21844
1.10683
-3.38639
2.27956
3.66765
-1.30119
-0.0369659
-0.341855
1.0079
-0.732286
-0.275613
-0.442119
0.344168
0.0979506
2.2764
1.60202
-3.87842
2.37744
-2.30626
-0.0711752
-0.811167
0.348474
0.462693
-0.641309
-0.269195
3.80395
-1.32761
-1.26013
1.33203
-0.0719013
2.34338
-4.76812
2.42473
0.632788
-2.99502
2.17661
0.877721
-3.05433
2.70613
-2.19005
4.30754
-0.518237
-3.7893
2.84724
-2.71213
-0.135111
3.94566
-2.44461
-1.50105
-0.27778
0.869348
-0.591568
-0.322562
4.54751
-4.22495
4.19277
-0.944879
-3.3064
0.108368
3.19803
-1.85505
1.59602
0.259024
3.85546
-1.84607
0.682799
1.11106
-2.49612
3.0908
-0.594686
-3.42051
4.17095
0.0477649
-0.780926
0.733161
-0.147863
0.328399
-0.180537
-0.0725964
-0.706525
0.779121
2.09324
1.40982
-3.50306
5.64803
-2.82632
-2.82171
-0.850834
0.778238
1.4843
-2.75414
1.26984
0.402457
-0.0745458
-3.24281
-1.81744
2.68814
-0.870702
-2.65064
1.91007
0.740573
-0.0676113
-0.0705456
0.138157
1.90644
2.03922
-0.199758
-0.24236
0.590693
0.417205
-2.81846
0.322345
-2.9251
3.70532
-0.780228
-2.59927
2.97147
-0.372196
-2.2166
-1.70336
3.91997
-1.12408
1.81753
-0.693456
1.78277
-1.85748
0.074704
4.32465
-0.318917
-4.00573
0.0289115
-2.97581
2.9469
-1.40851
3.58512
0.75158
-2.14457
1.39299
-2.23021
4.66614
-3.22142
2.13491
1.08651
1.12542
-1.14043
0.0150105
2.09688
-4.99257
2.89569
-4.24748
1.52386
-2.30382
-1.80143
4.90448
-2.84754
-2.05694
-1.04382
1.14313
0.644567
-0.687209
0.042642
-2.66853
-0.446957
3.11549
-3.88822
5.34748
-1.45927
3.65641
-2.81308
-0.84332
0.362069
-1.02002
0.657955
-1.2892
-1.77607
3.06527
0.895065
-2.25182
-2.30875
3.41558
-3.05883
-0.937682
3.99651
0.452183
0.109888
-0.562071
0.574174
-2.39162
-0.827515
-0.212383
3.43643
-0.267438
-0.624791
0.502521
-0.686907
0.820727
-0.13382
-2.23431
4.32755
-3.29798
2.00878
0.121664
0.351828
-0.473493
-2.7639
0.535781
2.22812
1.03074
2.62567
5.25945
-3.16257
3.26862
-5.55429
2.28567
0.760953
-4.85393
4.09298
0.10749
-1.58407
-1.93651
2.80207
2.56249
-3.83526
1.99662
-3.3979
1.40128
-5.89955
3.45003
2.44952
-0.061675
-1.60121
0.717481
0.535806
-1.25329
2.70539
-0.891078
-1.81431
-0.583174
-3.16713
2.84457
-0.971612
-0.288515
2.5892
4.31446
-3.45971
-0.854752
-0.0333429
-0.509813
0.543156
2.58908
0.557951
-3.14703
0.90656
-1.65672
0.75016
-1.0781
3.08749
-2.00939
-1.70738
2.80055
2.23572
-1.48414
-0.356053
0.912109
-0.556056
4.08646
-1.74308
0.423194
-0.0453693
-0.377825
-0.277226
-0.890349
1.16757
-0.518831
0.543623
-0.0247923
4.77139
-2.87259
-1.8988
1.02285
-4.91107
-0.57691
0.0580793
-3.42975
1.1036
2.32615
5.7802
-2.34255
0.986178
-3.91127
5.59287
-2.32721
-3.26566
-0.0689912
0.521175
3.41371
-1.94278
-1.47093
-2.41378
0.544519
1.86926
-3.89425
3.90709
-0.0128316
1.50963
-4.58744
3.07781
0.444706
-0.202686
-0.24202
-1.86072
2.50699
-0.646269
-0.42447
1.60798
-1.18351
-0.56314
0.24321
-0.652437
0.110511
-2.12031
-1.47376
1.51234
-3.31466
1.80233
-0.266688
1.50765
-1.24097
1.60028
1.16449
3.14376
-1.14714
-0.0217369
-0.126126
2.84504
2.93516
-1.95067
0.0409178
1.90976
1.5937
1.82
1.49497
0.554739
-1.24182
0.975135
-1.08941
-0.087416
1.17683
0.0495658
1.07586
-3.27603
2.19793
-0.253577
-0.513654
0.767232
-3.56929
3.44816
0.121126
-1.24282
1.77964
-0.536814
-0.855226
-0.399397
1.25462
3.02332
-3.30434
0.281023
-3.60558
-2.29397
5.04925
-3.17549
-1.87376
-0.403832
0.370489
4.94657
-3.43694
-1.90486
3.4172
-1.59132
0.0606583
1.53067
3.46257
-0.951075
-2.51149
4.3911
-1.35552
-3.03558
-1.67197
0.0806418
3.26179
-1.92009
-1.34171
-0.653798
3.13248
-2.47868
0.706714
-3.52774
2.82103
1.05939
0.964043
-2.02344
-0.449692
-0.0668624
0.516555
5.19142
-4.55389
-0.637534
-2.65707
-2.03328
2.8305
1.48396
-3.26359
-0.305696
0.651947
-0.929173
1.35107
-2.80264
1.45157
0.0152896
0.629278
-2.15701
4.43341
2.00196
2.76943
5.29842
-3.07572
-2.2227
-4.30823
3.37055
2.78104
-4.72046
1.93943
-2.46916
-0.185885
2.65505
-0.92019
-0.677894
1.59808
2.35642
-0.872122
-0.471983
0.593648
1.94649
-0.138802
-1.8381
-2.42251
3.28465
-0.86214
-0.8106
0.123693
-0.388706
0.0326529
0.470377
-4.36463
1.39473
-3.10211
0.288711
-0.972659
1.26772
-0.295065
0.110587
-0.722231
-1.99708
1.4833
0.513777
1.36719
1.01208
3.45813
-1.11281
-2.34533
1.96244
0.414997
-1.3543
2.70537
2.27114
-0.219781
-0.820029
-1.94387
4.25917
-3.52133
-0.737836
2.9415
-3.18319
1.59573
1.58746
3.13928
-3.43301
0.293731
-1.73531
1.41232
-0.491675
-0.319492
-0.472543
-2.31572
1.12092
-2.1193
0.998377
1.6529
1.60889
2.67982
-4.44702
1.7672
0.894275
-2.09364
1.19937
-3.89232
0.686728
0.0514597
1.35091
-2.20399
3.33071
-1.12672
-1.01459
1.20842
-0.193836
-1.59047
-0.374387
-0.480221
-0.869994
1.35021
0.348015
0.00861511
-0.35663
-1.25937
-0.595679
1.5024
1.78672
-3.28912
3.17747
-1.58376
0.983136
-1.78907
0.0537618
1.81087
-0.91659
-2.60328
-0.618134
1.42414
-1.61597
0.191829
3.79965
-1.21714
-1.82854
2.96992
-1.14138
-0.442722
0.500427
-0.0577049
2.69157
0.0138123
-1.56442
-1.23822
-1.99793
3.64915
-1.65122
2.41005
-4.44518
2.03512
2.35333
2.69592
-0.405182
0.219689
0.185493
0.382837
-2.852
2.52472
-3.77843
1.25371
0.204065
0.158302
-0.293043
2.4658
-1.36549
2.76022
-3.62727
4.38823
0.811367
-4.24512
-3.39832
1.83995
1.55836
2.51814
-0.38904
-2.1291
3.70984
-0.686526
-1.99072
-2.06809
-1.79507
2.42583
0.8848
0.0446916
-0.929491
1.24516
-1.12692
-2.80344
2.5104
3.62393
0.991729
-3.12138
1.29284
4.21311
-1.38261
-1.11275
1.63859
-0.52584
0.12224
-2.50146
2.37922
-3.61
0.674288
2.93571
3.35273
-3.35273
-1.589
3.08547
-1.49648
2.20462
1.25351
2.6321
-1.56122
-1.07088
-3.67604
3.84078
-0.164741
1.27814
-0.161351
-1.11679
1.02051
-0.44117
-0.57934
0.421381
-1.27661
0.847834
1.68455
-3.58942
-3.33975
3.89969
-0.559933
-1.132
2.6344
0.470868
0.126788
-0.597655
-0.385602
-0.211368
0.596969
-1.47163
1.57912
5.25821
-4.23945
-1.01875
-0.314777
-2.07967
2.39445
-0.867126
0.97522
-0.108094
0.469248
-1.08308
0.613835
-3.54092
1.24921
2.29171
0.546777
0.374068
-1.59952
0.486762
-0.0933539
-0.659879
0.753233
2.76446
2.42697
0.694651
-0.223784
-0.196737
-1.14531
1.34205
-1.97406
3.13533
-1.16127
-0.121243
0.501973
-0.38073
1.65814
-0.842934
2.48559
-0.760229
-1.72536
0.0271765
-1.62771
1.00988
3.31476
1.69769
1.18521
-2.8829
1.83172
-1.64459
-0.187127
-4.05323
0.746831
-1.67556
0.705133
0.970423
1.98883
2.73131
-4.72014
-2.50701
2.32113
0.259657
-3.61866
3.35901
-0.483405
0.845474
1.17197
-1.24495
0.0729744
0.0864212
-1.17583
-0.663776
-0.0332092
0.696985
-2.64687
-0.782874
2.45673
0.160793
-0.0762241
-0.0845691
-0.447627
0.00490515
0.679366
-2.82785
2.14849
1.08861
2.06487
-3.15348
1.82876
-2.80567
3.46066
-0.654987
-2.86716
2.21336
-0.328075
-0.210098
-1.54893
-1.10171
-0.985021
0.27742
0.7076
-3.40348
1.42942
2.65724
-2.97202
1.7299
2.4832
-1.15039
1.16108
-0.0106912
1.78095
-4.80608
3.02513
0.557812
-1.03701
0.479194
1.23825
-2.80267
-2.50557
-0.0937024
-1.22513
-0.112903
0.275085
-0.739951
0.464865
1.65262
-0.159215
-0.0977136
0.256928
4.50758
-2.51875
-2.01713
3.28817
-1.27104
1.03973
0.678031
-1.71777
-1.44506
0.961658
-0.804238
-0.180783
1.51945
1.11265
-0.726849
-2.62075
1.57878
-0.154631
2.46609
1.61071
0.660431
-3.69383
4.20322
0.432801
-1.81525
1.38245
-0.360961
-3.30423
3.66519
-1.24639
1.309
-0.0626109
-1.40377
0.279689
-2.57424
3.28096
2.76741
0.0798297
-1.70832
-0.288757
0.0501839
-1.6237
1.57352
1.60172
-3.81832
-0.508702
-1.83849
2.34719
-0.425009
0.858699
-0.43369
-2.59896
0.207495
2.39146
3.66036
-2.75174
-0.0879829
0.325484
-0.237501
-0.830356
-0.0367699
0.70803
1.39788
-2.10591
0.532228
-0.651637
0.119408
2.4912
1.36313
-3.85433
-1.3859
4.39798
0.351485
-0.00347032
-1.21504
-2.30691
3.52195
1.16768
2.63628
3.80025
-2.71165
-1.33305
0.852831
-0.680454
0.230762
-1.79546
4.5765
0.536122
-3.07402
2.5379
3.3697
-0.564549
-2.80515
-1.89407
2.77067
-0.876594
1.58907
-1.74561
-1.48128
3.22689
0.782815
-0.788154
0.00533854
-1.14686
-1.93484
3.0817
-0.643547
0.257946
0.0977293
-0.165341
2.03077
-3.17763
-2.80612
-0.855293
3.66142
-0.243342
-1.90291
2.14625
0.57571
5.24779
-5.43379
0.185995
0.826775
-0.610129
-0.216646
0.0226906
-1.17308
1.02433
0.899192
-1.22199
0.3018
-3.18556
4.05291
-0.867348
-0.998607
0.74503
1.0392
1.66693
-3.61792
-0.983472
-0.497897
-0.282966
0.780863
2.12148
-0.510768
-0.777543
0.854646
-0.0771034
1.18777
-1.61224
-4.64828
2.34446
3.67259
0.816795
-0.507019
0.976267
-0.764086
1.80382
3.53367
-1.84912
-0.797668
0.0201248
-0.392589
-2.41085
0.79407
0.887449
-0.839685
-3.68274
0.0727471
-0.073083
0.813782
-0.255971
-3.31231
2.46619
0.846116
2.81082
0.492137
0.70153
-0.215956
-0.485574
1.06365
-0.984095
-0.0795497
-3.27358
1.19939
-4.07734
2.07942
0.879101
0.255069
-1.13417
-0.204932
1.18605
-0.981121
4.24088
0.0106661
-4.25154
0.722141
0.0492806
-0.771422
-0.514521
-0.974331
0.871179
-0.053748
0.591832
-0.458588
-0.133245
1.47535
-0.224241
-1.25111
0.299181
0.292651
3.19246
-2.59579
-0.126848
-0.530242
0.65709
-4.11553
0.929968
0.031538
-0.647769
1.50781
-0.105537
0.26633
-0.149257
0.12752
0.93392
0.615602
-1.54952
2.01426
1.68533
1.7148
-1.282
0.830428
-0.727272
0.239867
-1.25445
2.29009
0.16073
-2.45082
2.111
-0.126287
-1.98471
-0.834963
-1.87716
-1.3216
-0.251848
1.57345
1.57065
-1.72151
0.150859
4.32718
-0.0972409
-4.22994
-1.69653
0.252938
1.44359
-1.94729
2.58744
-0.640149
2.35769
2.50673
-4.86442
1.31246
-2.20184
-1.04695
1.67368
-0.626726
0.801834
0.369393
-1.17123
-5.10558
3.19899
1.90659
-0.293121
-0.165467
-3.37045
0.564325
1.15904
-0.739827
-0.419215
1.93289
-2.42561
0.492719
-0.308021
-0.761487
0.670474
4.57732
3.2764
-0.543036
-2.73337
-3.37667
0.570996
1.33722
-2.15725
3.16584
-4.80807
1.64223
-0.360387
1.07787
0.0161262
-1.51629
1.31955
-0.595298
0.795207
-0.693756
-3.33874
4.0325
1.94735
2.99923
-2.89581
3.07942
-0.183612
0.66744
-0.392355
-2.36713
-1.02368
-0.435855
0.479314
-0.043459
2.17374
-0.77051
-1.40323
0.197461
-0.190559
-0.00690167
-0.254983
2.18787
-3.15542
-0.350485
3.50591
-3.09274
-0.940616
4.03336
1.88025
-1.38244
-0.497815
-0.867013
0.0978742
0.769139
-1.50582
0.664127
0.841688
-3.94824
0.225049
3.7232
0.127849
0.682067
-0.809916
3.12332
-3.56061
0.437293
-2.05763
3.84847
0.209991
-4.05846
0.0220505
-0.457905
-0.00762596
-2.75501
2.76263
2.3456
-4.57581
-3.78257
3.29086
0.491703
0.640604
-0.108376
2.81241
-1.77321
-0.17499
-1.07665
1.25164
-0.0407389
0.649838
-0.609099
-0.693317
3.50267
-2.80935
2.72765
-1.48589
-1.24176
4.02314
-3.86219
-0.160953
3.0108
-1.13961
-1.8712
0.194275
-0.851318
0.657043
-1.08309
-0.0471329
-3.91799
3.44233
0.475653
0.220374
-4.13836
-1.05927
1.74499
-0.685717
-2.21742
-2.33647
0.700284
-0.621072
-0.0792112
-3.2257
-0.889833
-0.667363
0.431048
0.236315
-0.154122
1.06068
-3.71429
3.54158
0.172708
-0.782381
-0.406823
-0.175906
0.772598
-0.0504575
-2.39282
0.532092
0.471582
-0.592175
0.120593
-3.02107
0.937681
2.08339
1.35226
-0.0741195
-0.972717
2.46968
0.221894
1.39568
-0.280579
0.740075
-0.459496
-0.372932
2.15571
-2.39105
1.54069
0.850356
-0.632257
0.339136
4.73277
-2.78542
4.17502
-2.39407
-0.941897
-0.622097
1.56399
2.0518
-3.75188
1.70008
2.18167
-2.42501
3.74948
-1.68537
-2.06411
-0.0190567
-2.01191
-0.379136
-1.11889
3.38515
-2.26626
0.31699
-1.41958
4.6882
-4.18645
0.960749
1.95976
-0.900363
-0.374177
0.327155
0.560348
-0.0167253
-1.94187
-1.91554
5.58399
-2.87297
-1.53852
1.76198
-0.22346
0.259128
0.761383
-2.58086
-1.63554
4.2164
1.04061
1.31581
0.0049951
-0.510916
0.505921
3.26967
-1.23744
0.0415944
1.19585
2.48559
-0.195508
-1.4237
-3.97148
0.631725
-0.813571
0.0433732
0.770198
2.26155
3.33132
2.20609
-1.92711
-0.278988
3.8777
0.145441
2.35551
-3.32754
0.972032
-3.24984
-0.0847971
3.33464
-3.17376
4.07838
-0.904619
0.475168
-0.00139181
-0.473776
-2.10523
4.45083
-1.30191
-0.40003
1.70194
0.162322
-3.05813
0.745723
-0.233786
-0.511937
-3.78476
4.98004
-1.19527
-0.931884
2.08557
-1.15369
4.64651
-2.04727
-2.59924
-0.0450199
-2.343
2.38802
-1.05062
-0.194328
-1.99962
4.35731
1.42815
-3.01715
4.3351
-1.92505
-0.684713
0.557865
-3.43969
0.189852
4.68814
-2.00832
-0.00467586
-5.18125
0.903083
-0.0901568
1.45581
2.00947
-3.46528
2.19383
-0.479241
-1.71458
1.90004
-4.32112
2.42107
-0.651477
0.0397903
0.611687
-0.764669
-1.85753
2.6222
1.34213
-1.10226
-1.01299
0.208126
0.804869
0.490173
1.1258
-1.61597
0.303874
0.39641
-3.63221
4.29558
-0.663376
-1.1115
-0.134886
1.75366
0.765007
-2.51866
2.47725
2.4601
-4.93735
0.587823
1.93031
-0.0809472
4.38849
-0.0118015
3.12682
-3.11502
-0.12417
0.00292679
0.530288
-0.100332
-0.429956
4.97036
-4.86986
-0.100495
1.74055
2.00892
-0.840205
0.556464
0.283742
-1.15313
3.19384
-2.04071
0.0641901
0.555585
-0.619775
2.4722
-3.62272
1.15051
-0.206177
-2.93369
3.13987
3.30376
-0.71468
1.19519
0.998634
-1.55393
-0.148775
1.70271
1.09826
-3.17794
0.28665
-1.85791
1.57126
0.701774
-0.315075
-0.386699
0.108296
-1.15891
-0.296133
3.26979
-2.97365
-0.762561
4.61046
3.07089
-2.46461
-0.60628
2.47951
-2.17042
-2.06709
0.622765
1.44433
0.2686
-1.82982
0.743585
-0.229502
-0.514084
0.20067
0.50086
0.592833
2.91069
-3.50352
0.787897
0.687453
0.489334
-3.58207
-1.66249
0.666339
0.996155
-1.22218
-0.917488
2.13967
1.8201
-0.886184
-3.33593
2.20392
1.26708
-0.958845
-0.308231
-1.732
3.41196
-1.67996
-1.69444
1.72162
-1.66718
2.10599
-0.438814
-2.14923
3.59301
-1.44378
-0.0819889
0.784432
-0.702443
-1.25026
1.04533
-0.925692
-2.13598
3.43393
-1.29795
-2.13177
2.66755
1.97928
-1.99833
0.0190435
1.15214
0.144836
-1.29698
-4.9568
3.21107
1.74573
0.0459064
1.07963
-1.12554
0.34022
2.74066
-3.43397
3.54601
-1.49421
-1.38301
-2.01531
-2.80153
2.78972
1.95338
-0.0433079
1.5127
0.507167
-2.01987
-1.20229
1.11183
0.0904604
-0.273981
-0.340403
0.614384
-1.43812
-1.1101
2.54823
-0.260543
1.78505
-1.52451
-2.86717
-1.07594
3.94312
-0.303996
1.45614
4.41402
0.556333
-3.35896
2.02182
1.33714
-0.802143
-0.792455
1.5946
0.0219304
0.61763
-0.830157
0.212527
-2.37324
-3.10188
1.66376
0.480163
0.734079
-0.539804
1.04541
1.12833
-0.79068
-2.59571
0.109787
1.02166
1.24019
-0.921514
-0.31868
-2.66502
-1.96851
4.63354
-0.4574
-1.09653
-1.96256
-0.411764
2.37433
0.482021
0.675588
-1.15761
-0.0573904
4.41436
-2.82411
-1.59025
0.681107
2.5953
0.436592
0.618523
-1.7797
1.16117
-2.73106
4.79269
-2.06163
-2.18522
-1.0382
3.22342
-1.71902
0.672071
-1.63678
-0.430308
4.35112
-1.89641
-2.45471
1.70429
-1.05735
-0.646938
1.52821
0.178345
-1.70656
-0.583521
0.71137
1.77669
-2.02781
0.251123
0.705511
-0.0907002
-0.760134
-0.0462862
2.58129
1.76983
-1.36499
3.30111
-1.89315
4.70407
1.17014
0.53415
-3.37456
1.18934
2.8208
-2.43796
-0.363489
-2.41652
0.469226
0.593875
-1.65315
2.84943
-2.7272
3.24156
-0.102277
-0.755443
-0.394026
-1.06889
-0.326735
1.39563
-1.08865
-0.121482
2.94698
0.541831
-3.48881
0.113163
-0.965022
0.851859
-0.0090428
1.67668
-3.35973
1.68305
3.41383
-0.290513
-3.91921
4.28637
-0.367168
0.823341
-0.498952
-4.18253
-0.77427
-1.24388
3.5665
-0.124165
1.80167
4.41458
-1.59026
-2.82433
-2.5395
-0.106421
2.64592
1.07153
1.80894
-2.88047
-2.734
0.135043
-0.643347
-0.561832
1.20518
-1.83623
2.37235
0.485222
2.04122
-2.52644
-0.438395
1.31588
-0.877484
-3.82339
0.497967
3.32542
1.60438
1.94163
-0.860674
2.13645
0.874351
-1.16752
-0.508039
3.31253
-3.83077
-0.516007
-0.550963
1.06697
2.35624
-1.04378
2.63522
0.187435
-2.82266
2.87436
-4.7675
0.0278322
0.416874
-0.897889
0.801262
0.0966269
-2.71848
2.71085
-0.0666932
1.00988
-0.943187
-1.90789
1.22483
0.683061
-0.174903
-1.22886
-0.968518
2.30573
0.988892
-0.109791
-0.537786
0.559837
-0.585572
-1.07115
0.346674
-0.54936
-0.702712
0.671613
0.0310994
0.716338
-0.830717
0.114379
-2.05301
1.17341
0.54845
-2.51101
-0.0427053
-1.00112
0.0930958
2.13934
-2.23244
1.16233
-1.24974
0.123454
-2.73608
2.61262
-1.00651
2.87358
-1.86707
0.682567
-3.10507
-1.05344
-0.0919267
-3.69064
2.81823
2.76576
-2.94438
-0.391551
-1.73447
-1.44872
-1.5075
0.637505
-0.210008
0.0278737
0.182134
5.00797
-2.74643
3.2944
-0.76968
-0.875529
-0.551699
1.42723
-4.79792
2.26935
2.52857
-2.3512
1.54312
-0.0821765
3.93065
0.566535
-0.355247
-1.3916
-1.36948
0.0675621
2.41217
-2.19692
-0.215252
-0.48311
3.43009
-0.55147
1.49823
-0.946761
2.83398
-5.06779
2.25346
2.81433
0.8522
0.766794
-1.61899
2.13834
-0.875225
-1.26311
-1.95508
1.0232
-3.96132
0.0567813
1.47143
3.53743
-3.89839
1.47041
-0.668578
-1.585
2.68326
-3.47846
2.48876
0.989694
2.68901
-3.81469
1.12569
-2.72772
2.87321
-0.145485
1.63783
-2.01076
0.0433591
0.92583
0.954422
0.595376
-2.97387
1.34225
-3.8952
2.23142
1.66377
0.882361
-3.42186
2.5578
-0.170811
-2.24297
0.464995
0.669498
4.00926
-1.33628
-2.67298
-0.683699
0.981593
-2.20377
0.535772
-3.7491
3.64268
-2.89852
1.15292
1.86909
-2.56906
1.47711
1.09195
-3.27313
1.97756
1.29557
-0.807707
0.195914
-0.620923
-3.81857
2.68853
1.13005
2.36104
-4.46627
-3.60044
-0.0317648
4.74568
-1.57984
0.816345
0.241605
-1.05795
-0.0882244
-0.540986
0.62921
-1.19154
1.78737
2.07275
-1.59314
-0.975918
0.667145
0.674982
0.877197
1.33345
-2.21064
1.36235
-0.826543
-0.103011
-4.23915
4.34216
-1.23104
1.59027
-2.99878
-2.80938
-1.83546
4.64484
0.893383
-1.15839
-2.54866
0.794323
1.75434
-0.295855
0.0115202
0.284335
3.52276
-4.21652
-0.189545
-0.708344
1.73058
2.28981
-4.02039
-1.85066
0.312142
-3.10588
0.876597
2.22928
-3.24767
3.0415
2.23081
-4.96188
1.20046
-1.71646
-0.160128
-0.135727
-0.0928625
3.46256
-2.30518
2.87934
-0.57416
3.51979
0.0120681
-3.53186
-2.59832
-0.0672596
-0.905399
0.186579
3.16615
0.386246
0.114181
0.892449
3.06372
-0.859092
1.91776
-0.678463
0.404482
-3.47893
-0.235354
-3.3532
1.04369
-2.98647
0.615429
0.689925
-1.30535
3.17454
0.180047
-3.35458
-0.354427
0.353035
-1.28527
-2.79207
-2.96833
-0.46468
-1.93321
4.80757
-1.24442
1.6759
-0.431474
-3.84213
1.17711
-1.0187
1.89589
-0.953331
-2.35897
-2.26054
-1.19483
1.26953
-1.55493
-1.46614
4.0933
-0.526804
2.23301
-1.01122
-1.22179
0.442092
0.470017
0.89505
3.85983
-3.60017
0.0286092
-0.830998
1.16304
-1.89178
1.93269
-1.63962
-1.91695
0.772467
0.612344
-1.38481
-3.41233
0.0596001
-0.456333
2.90888
-2.45255
-0.143879
-3.77533
-2.62567
3.18362
5.60418
-2.59519
-3.00899
-0.49372
1.19885
3.03239
-1.62588
-1.40651
0.921271
-1.01197
0.129296
0.400993
-0.712625
0.101262
0.611363
-0.468406
1.98111
-2.11844
4.47948
-0.134024
-0.487048
-1.01727
-0.260714
1.27799
-0.146063
3.66883
-0.257362
2.11046
-1.85309
-1.3951
2.10313
1.63535
1.55849
-1.26925
-0.39324
1.90058
-0.702054
-1.19853
-0.354662
0.450425
-0.0957633
0.583363
-3.05337
2.47001
-3.50068
0.532348
0.798655
-1.93461
2.9783
-0.024837
0.946108
0.422381
-1.6668
-3.70304
1.90797
-4.021
1.19468
-1.62833
0.156701
-1.55648
-2.14055
3.69703
-3.06771
0.952104
0.546933
-1.49904
3.88748
-3.05046
3.06105
-1.98952
0.593342
1.97922
-2.57257
0.824195
-1.46754
-1.74063
-0.898739
2.63937
0.886199
-0.19916
-0.687039
-1.90396
4.539
-2.63504
2.98918
-1.91215
-1.07703
2.83281
0.0899917
-2.9228
-2.13204
-2.93576
-1.20502
-0.0201146
1.45491
2.21274
-0.066988
0.297949
-0.230961
-2.49286
-0.613019
2.7091
2.28953
-1.99484
2.35863
-0.363782
-1.31377
1.35536
0.292672
1.42159
-1.71426
0.834197
-1.38567
-0.405703
-3.41287
-3.2996
1.1986
0.0684782
-0.824104
-0.00341099
0.255206
2.78284
-3.03805
-1.89244
-0.500378
1.7025
1.47497
0.253294
-0.894603
1.26099
-0.291633
-0.969354
0.334114
-1.31544
0.981327
0.807809
0.971827
1.351
3.06312
-1.41022
3.29047
-1.70019
-0.379655
-0.890049
1.2697
2.82509
0.307382
0.123153
-2.4585
1.69383
2.25629
-2.40235
-1.89269
-2.83893
4.73162
-2.37324
-2.42468
-4.34827
4.44926
-0.100994
1.43558
-1.45117
1.12444
2.06466
0.998462
-1.23649
0.644461
0.592025
-1.1166
-2.26086
-0.728226
-1.68185
2.41007
1.96494
-0.92433
1.91011
-1.62346
2.17471
-3.45998
1.77309
-1.32527
-2.25698
3.62905
-1.37208
2.8288
1.84011
1.09291
-2.93302
4.28945
-2.37834
-1.91111
-2.32883
-2.52726
4.27786
-1.75061
1.13537
1.09764
-0.990581
0.965744
1.5956
3.0509
-0.734932
0.646708
0.126296
-0.285511
3.60921
-2.0072
1.69571
3.31226
-1.4331
0.720991
0.712109
0.810619
-1.75252
2.81834
-0.183113
1.49168
-0.675331
-2.51362
-0.498654
3.01227
0.642126
-0.135932
-0.506195
0.464162
0.362613
0.505486
-3.67925
-0.97474
1.06116
2.6113
-2.28067
-0.330631
0.580159
1.32043
-0.489832
0.273876
0.861521
0.838823
-1.70034
-1.60931
4.51674
-0.0959366
-2.13523
4.32521
-2.18998
-1.06772
1.5579
-0.743217
0.304822
4.04641
-2.00919
-1.2544
1.0342
1.10414
1.04155
-1.08425
-0.618645
0.536656
-1.04797
-0.454706
0.00707885
-0.166285
-0.540743
3.02931
-2.48857
0.595673
-0.689027
-1.4348
0.358143
-1.14022
-0.0647929
-3.6691
2.45406
0.836454
0.837223
-1.55253
0.243988
1.30854
1.02638
0.292934
3.09116
1.6658
-4.75696
-0.292259
-0.0888412
0.3811
0.606952
-2.62408
3.81201
1.79216
2.91108
-2.65587
-4.32272
-0.117751
-0.225366
-0.133424
1.72196
1.47458
1.57006
-3.04463
1.27502
-0.112695
-0.143718
-1.15123
-0.281865
-1.84216
-1.68416
1.95276
1.7282
1.55997
2.08532
-2.156
0.070681
0.650604
0.021009
-0.227878
0.860426
-0.144088
2.81057
0.77874
-3.58931
2.54698
-0.134807
-0.766906
0.447105
0.319801
-1.16868
-0.00311127
1.17179
0.754189
2.20482
-2.959
0.800397
1.01971
2.57261
-0.064506
-0.896441
2.25165
0.812065
0.253998
-0.36089
0.106892
-3.76395
1.96252
3.10859
-2.48689
-0.621698
0.058918
-0.476481
0.417563
3.16072
-3.45685
2.19294
-0.228005
1.64085
1.42021
-0.390435
-0.0642711
-2.27006
0.566534
1.70353
-2.00366
-0.399797
3.9877
-2.04057
-1.94712
1.77645
-0.249959
-1.52649
1.4352
-2.49163
1.05643
-0.36845
1.82661
-0.0157494
-1.88402
3.39191
-1.50789
-1.6549
-0.61516
-1.65646
0.89952
0.59871
3.57888
-0.0209147
-3.55797
-0.93371
0.507613
0.732581
0.769734
-0.21327
1.40885
-0.607583
-0.753216
0.950677
0.0347719
0.00846414
-0.574705
0.452724
-1.3986
1.99194
0.0550613
0.832388
1.30568
-1.08898
2.68926
-0.199861
2.28518
-0.744609
-0.359247
-0.825637
1.68716
-0.507074
3.38283
-2.87575
-2.96125
-0.409202
-2.77297
3.89163
-1.11866
-0.759579
1.6591
1.04553
-0.206613
-0.067284
-0.803189
0.870473
-2.98603
0.976837
0.320781
-0.408763
1.94897
-4.52982
1.46831
-3.77522
-1.96217
5.0776
-1.7815
1.74818
-0.909358
0.0410753
-2.2419
2.82526
-0.0128106
-0.497003
0.550601
-1.93304
-0.343327
-2.18159
2.52491
-0.743538
1.80589
5.22139
-3.49639
-1.725
-0.735032
0.265743
0.771401
0.0712775
-0.842679
-2.85552
0.55034
0.584326
0.117448
-0.037382
-0.381909
0.419291
1.41591
-4.18888
0.308424
1.5698
0.0992339
-1.66903
-3.78495
3.27787
0.49712
0.118459
-0.615579
1.29316
-3.42914
-0.422567
-0.0260546
0.448621
0.646704
-0.149584
-0.0485583
2.53091
-1.94309
2.12057
1.70216
-0.901767
-3.94919
1.13981
-2.40688
1.91672
0.490154
2.59445
-4.48715
-1.71855
-1.04543
2.76398
0.259105
1.33692
-0.983437
0.822086
4.09578
-0.639564
-3.45622
-0.00877944
-3.47015
2.57015
0.26266
1.44385
1.58854
-0.478067
-0.0328489
0.467375
-0.976981
-1.14232
0.384923
-0.266593
-0.11833
0.0394888
-3.65623
3.61674
-0.155836
0.963957
-0.808121
1.55696
-3.58864
2.03168
-0.402905
-1.90336
-0.148289
0.287209
2.36447
-1.15855
-0.649335
1.80788
-1.23421
-1.41267
1.48878
-0.876438
1.64817
-0.179446
-1.46872
-1.90295
0.350427
-2.46886
-0.468879
-0.0614588
0.530338
0.432392
1.01271
-1.44511
1.51979
-3.08499
1.56521
0.0431168
-1.90411
0.661103
-4.44587
-1.35153
-3.26915
4.62068
-3.40467
0.168668
3.236
-4.50236
-2.80559
0.0778733
-0.920634
0.954669
-0.0340351
-4.78076
-1.25844
4.06901
1.25999
-0.644389
0.280079
-1.10572
-0.558098
1.57781
0.476374
0.272405
-1.28968
0.0602567
-0.523416
0.463159
-0.585809
0.308029
-0.333489
0.392407
-0.90354
1.75574
-3.46185
2.06657
1.39527
-1.01207
0.540084
2.07782
0.627297
0.0148291
-0.831543
-0.404943
-1.65079
-0.897873
-1.83465
0.638659
1.196
0.0704963
1.42066
-1.49116
-1.35653
1.69065
-0.252202
2.48032
3.75043
-4.00779
1.90283
-3.13704
1.50146
-2.05201
0.550547
0.307871
0.017613
0.192331
0.0273584
-3.68075
2.12427
0.373577
1.40287
0.0450527
-0.654062
0.609009
-5.71804
2.29753
0.24475
-1.1351
-0.629487
-0.0805065
-0.700295
0.780802
-1.87966
0.72111
-3.6465
3.2408
4.2753
-2.54472
-0.772946
0.697218
0.0757282
-0.740721
0.457756
-0.459949
-3.27031
0.784275
2.48603
-0.436308
0.347466
-0.30766
1.10364
-0.795977
1.4979
0.695042
0.998472
-0.992637
-0.00583469
-0.864225
0.919287
0.31072
-0.106655
1.9477
-3.1003
3.62137
0.256324
-2.02495
-0.463765
3.33471
-0.087996
-3.24671
-0.831752
-0.455147
1.2869
1.84638
-3.78825
-0.747356
2.25548
-1.50813
0.112186
-0.237499
0.125313
-3.65406
3.65124
0.00282152
-1.54829
1.67174
1.75925
0.968399
3.47069
-1.29122
-2.17947
0.133434
0.445905
-0.579339
-1.12861
-1.03061
-0.0524785
-0.995182
-0.0354319
0.0503551
-1.11197
1.06162
-0.305748
3.33338
-3.02764
-3.03047
1.14229
1.88818
0.945178
3.2957
0.12665
0.0431063
-0.169756
1.92962
0.842407
-2.77203
0.0996552
-0.309663
-1.45992
3.4308
-1.97088
-3.00371
0.490093
2.33246
0.945547
-2.6641
-0.0106651
-0.387442
0.398107
3.97066
-1.30033
-2.67033
1.75324
0.717148
-3.99791
2.08236
3.89165
-3.99467
-1.78414
0.43257
1.35157
-0.491959
0.310064
1.22035
-1.53042
0.393736
0.257963
-0.651698
-0.0365724
0.382963
-0.34639
0.966231
-1.10952
0.143285
-1.97854
4.15325
-0.964788
1.01497
0.449052
-0.756712
1.22846
-1.84056
0.612107
-1.99982
-1.47864
-1.25058
-0.255235
0.208301
-0.0783563
-0.129945
3.73355
-2.83859
-0.894957
0.39576
2.21554
-0.765344
-0.436942
-1.89944
0.275742
2.20041
0.698408
-2.89881
0.0376503
-0.109861
0.072211
-0.0758432
1.13949
-0.187034
0.702559
-0.515525
4.50316
-1.77616
-2.727
-4.13029
0.791549
1.16729
-2.84788
-0.0327967
2.88067
1.33589
-2.70138
-1.30021
0.652445
0.0172868
0.175044
-2.97086
4.69273
-1.72186
0.453771
0.112764
0.0587569
0.568227
-0.768226
0.634202
-1.47735
1.73029
-2.42062
2.71792
-0.2973
2.3865
-1.38638
-1.00012
2.00614
-1.19833
0.762897
0.212323
-0.753325
0.621844
-0.0803684
-1.31008
1.10921
-2.59511
-3.39477
1.51075
-1.04323
1.70735
0.443284
0.203421
0.0802738
0.0319125
3.06857
-3.10046
0.0318893
3.10483
-1.66735
0.639483
1.02787
0.315967
-1.14696
-1.3379
-3.10467
-0.784368
0.648436
-0.543312
-0.90118
1.44449
-2.71653
0.584755
0.897234
1.2092
-2.10644
0.612465
0.273734
-0.895564
-2.42658
4.88668
-0.137182
-2.37431
0.870673
-1.71501
0.844338
-0.838163
1.09146
-2.25264
-3.4654
-1.02116
-0.886722
2.28255
-3.84544
2.41373
1.4317
-0.0609539
-1.01464
0.0703124
-1.11715
1.04684
-3.7138
-1.84049
-0.4931
0.467045
3.38618
1.87327
1.04606
2.75359
-2.61335
-1.83183
3.1664
-0.168869
-2.99753
2.79569
-3.58637
4.25518
-2.93697
-1.31821
1.03698