/*--------------------------------*- C++ -*----------------------------------*\
| =========                 |                                                 |
| \\      /  F ield         | OpenFOAM: The Open Source CFD Toolbox           |
|  \\    /   O peration     | Version:  2306                                  |
|   \\  /    A nd           | Website:  www.openfoam.com                      |
|    \\/     M anipulation  |                                                 |
\*---------------------------------------------------------------------------*/
FoamFile
{
    version     2.0;
    format      ascii;
    arch        "LSB;label=32;scalar=64";
    class       volVectorField;
    location    "2";
    object      U;
}
// * * * * * * * * * * * * * * * * * * * * * * * * * * * * * * * * * * * * * //

dimensions      [0 1 -1 0 0 0 0];

internalField   nonuniform List<vector> 
13486
(
(5.59837 -0.729856 1.75762e-20)
(6.62218 1.23097 7.94025e-21)
(10.6797 0.1439 0)
(-6.89368 2.50084 -3.14777e-20)
(8.81507 -1.99399 4.66556e-21)
(9.75038 0.754223 7.60403e-22)
(9.81049 -1.55181 7.13719e-23)
(7.45224 -2.64001 -8.75707e-21)
(7.45606 -1.46475 0)
(7.88522 3.05187 0)
(-3.75493 13.7546 -4.19599e-20)
(9.95323 -0.354015 0)
(4.85556 -1.4012 -1.76127e-20)
(9.69744 3.05139 1.49457e-21)
(9.34255 -1.34003 2.19526e-21)
(7.74292 3.1962 -4.53925e-21)
(8.4202 -2.1541 2.14069e-20)
(2.54069 -2.1884 1.27904e-21)
(9.03079 -0.0612901 6.94885e-23)
(6.19612 -0.0998171 -1.74084e-20)
(-6.04539 -0.24041 -1.1338e-20)
(4.93047 -1.4379 2.26902e-20)
(6.6595 1.22357 -6.36071e-21)
(18.2897 -4.96905 0)
(8.23724 2.49982 1.40486e-21)
(16.875 -4.88323 -1.3184e-20)
(3.85014 -2.02121 2.23196e-20)
(11.5525 -0.551334 1.78588e-20)
(7.92194 0.462586 0)
(11.2232 -2.16327 -1.3593e-20)
(-4.3217 -3.36803 -7.02852e-21)
(9.57681 -0.939283 -3.04821e-21)
(13.8488 0.714896 1.49163e-20)
(9.53892 -0.753349 0)
(7.47628 -2.53337 0)
(7.23152 0.0617816 5.84938e-23)
(6.20257 0.528778 -1.97742e-21)
(5.87555 -2.71756 8.98623e-21)
(6.8952 -0.798612 -6.06074e-22)
(7.63072 -0.916078 8.47941e-21)
(9.2335 -3.11224 0)
(4.09567 -1.91134 -2.0912e-20)
(8.59545 0.0762061 0)
(8.23394 2.06899 -7.10421e-21)
(8.27264 2.06203 2.87573e-21)
(9.92519 -0.383454 2.17159e-21)
(-0.166865 -2.17823 3.73337e-20)
(7.85511 0.462681 5.26366e-24)
(6.3092 0.566851 1.49748e-21)
(11.3346 0.27925 6.98261e-21)
(7.93651 0.117735 9.44978e-21)
(7.07607 -0.301557 0)
(9.99782 -0.743715 -3.06052e-21)
(6.18738 -2.28373 -1.29913e-20)
(2.75467 -2.98773 0)
(8.73215 -2.03659 -3.22476e-21)
(9.60326 2.5222 1.36037e-21)
(7.12739 -0.493521 -2.49406e-21)
(13.7026 0.780932 1.78071e-20)
(5.05378 0.519473 0)
(-5.15418 13.3886 -6.41246e-20)
(4.99569 0.778684 0)
(11.5468 4.68439 -4.84811e-21)
(-6.01903 0.00369402 -1.1812e-22)
(5.46651 -11.6278 0)
(6.03714 0.641811 -1.03994e-21)
(-7.40146 2.64984 -3.44714e-20)
(5.62053 0.329124 5.8482e-21)
(7.46529 -1.54786 -4.87802e-21)
(6.74536 0.0818678 6.73143e-22)
(-7.69556 3.0162 3.98029e-20)
(2.79505 -2.75053 6.69378e-24)
(7.59896 -0.4022 6.30876e-21)
(-4.5443 0.156284 -3.11715e-20)
(5.8597 1.08551 -2.88443e-22)
(9.70681 2.38331 -2.89179e-22)
(5.95734 1.10487 7.4082e-22)
(9.32792 -1.39976 -8.939e-22)
(0.289515 2.50567 -2.03692e-20)
(7.16378 -2.3301 0)
(7.63738 0.104697 2.3066e-24)
(6.49605 1.62307 -5.11511e-22)
(8.9981 3.9479 2.15129e-22)
(10.737 -0.0137547 -1.90764e-23)
(5.57985 -0.781854 -3.42376e-20)
(5.80966 7.13629 0)
(5.77158 -1.03444 -7.17385e-22)
(7.95539 0.190597 -1.42529e-20)
(7.41854 0.87409 -6.46283e-21)
(7.12287 4.20536 -4.6251e-21)
(9.66461 -0.936059 -1.76625e-21)
(7.93477 -2.29546 -4.38524e-21)
(5.84774 -1.10878 4.48163e-21)
(6.51794 0.416164 4.48389e-22)
(6.90714 -2.13365 2.01761e-21)
(7.78508 0.393129 4.8243e-26)
(4.70475 -3.07051 0)
(-9.70135 2.71348 2.3676e-20)
(7.67519 -0.874745 -1.61917e-20)
(8.14131 -1.30554 8.38356e-22)
(7.68817 0.0377055 0)
(9.59766 3.06828 4.62242e-22)
(-9.69575 2.07653 1.74702e-21)
(7.07254 -0.412292 2.92014e-21)
(5.32441 6.93971 0)
(6.7899 -0.264739 7.73665e-22)
(7.78895 0.219836 3.66445e-23)
(6.90751 -0.879752 -1.3872e-21)
(1.01488 -0.509729 2.67628e-20)
(7.58489 -3.47208 0)
(6.24698 -2.9453 0)
(9.5254 -1.1211 -2.35339e-21)
(6.23173 -2.20867 1.27166e-22)
(9.19334 1.31662 -2.35291e-23)
(4.01265 -0.0351289 0)
(6.12621 -2.90297 -7.62064e-21)
(8.16235 2.66973 0)
(9.81646 -0.710627 0)
(7.5981 -0.383934 0)
(6.64463 0.574706 -8.01649e-22)
(2.94703 -2.08402 -6.01497e-22)
(-6.78286 13.0761 0)
(6.75154 -1.92994 0)
(6.87879 -0.778673 1.95435e-21)
(7.10099 -2.45976 0)
(7.11187 -0.270316 0)
(8.4193 -1.06102 1.76784e-22)
(8.64654 0.423648 2.32591e-21)
(8.89079 -0.409573 -1.71064e-21)
(7.14975 -10.0524 -1.42401e-20)
(6.98443 -0.240266 -3.11342e-22)
(-0.846077 -2.06945 -9.07606e-21)
(6.39277 0.193741 5.33949e-20)
(-2.91287 2.25554 3.31545e-20)
(7.97259 0.0619077 -1.55319e-21)
(7.56129 1.84734 -6.99979e-21)
(3.83795 3.41218 -4.80959e-21)
(7.44144 -3.34624 0)
(6.63521 0.551564 2.22761e-22)
(7.5861 -2.17278 -3.10237e-21)
(12.5629 0.938929 -1.43977e-20)
(10.0881 -0.772079 2.56297e-21)
(9.59573 -0.745916 0)
(7.16568 -2.19384 0)
(9.34014 0.0825518 -2.12887e-23)
(10.1411 6.40491 -2.92683e-20)
(8.55319 -0.814814 3.43055e-22)
(-3.75616 7.03439 0)
(11.4439 0.463586 0)
(7.94298 0.433069 0)
(8.04777 0.0488402 1.345e-22)
(9.28011 -1.63109 0)
(7.68499 0.0543968 -2.41403e-24)
(6.26887 1.58052 -4.32012e-21)
(8.71348 1.37485 0)
(10.8946 0.159944 0)
(7.41442 -3.31713 0)
(-2.56484 0.327792 2.83473e-21)
(6.49118 -2.54135 1.83996e-20)
(7.52403 -2.5583 -5.13534e-21)
(10.8407 0.215819 4.10361e-21)
(6.5471 -2.49898 -2.76143e-20)
(10.3034 -1.06061 8.41629e-22)
(3.74259 -1.83063 9.20534e-21)
(7.19809 -0.35085 0)
(10.1115 3.05144 -3.13549e-21)
(9.32061 2.79323 -9.18785e-22)
(1.43902 -0.197599 -2.21396e-20)
(8.42944 -0.69163 -9.11669e-22)
(-2.94151 2.32088 9.07011e-21)
(5.41618 -0.649639 5.50141e-22)
(8.67873 1.24868 1.99524e-21)
(7.86164 0.285045 -1.12087e-20)
(9.0531 -0.821379 2.5879e-22)
(7.67079 0.20001 -2.65632e-23)
(-9.77006 -0.294938 0)
(9.77646 4.36819 4.7327e-21)
(12.7694 1.61874 1.84004e-20)
(7.8327 0.174063 -1.57588e-20)
(9.64086 -0.705485 0)
(7.77789 -1.02879 1.70878e-20)
(9.22015 1.21397 -3.33158e-23)
(9.2975 -0.726121 -1.27576e-22)
(-9.13536 5.79244 0)
(10.4596 -0.283726 1.52356e-22)
(11.003 -0.416947 -8.10522e-21)
(8.21107 0.412003 -4.25958e-24)
(10.6239 -1.49764 -3.64256e-21)
(9.05226 -3.11314 0)
(5.63124 -2.70738 -1.03299e-20)
(6.45258 0.655479 0)
(10.2442 0.291972 0)
(7.29428 -0.697455 0)
(5.28458 3.41624 -8.96808e-21)
(7.39779 -0.784886 0)
(-5.61156 13.9968 -1.17651e-20)
(6.66361 -11.6874 3.11697e-20)
(11.1207 0.127157 2.30677e-21)
(5.25263 -2.56603 -4.0767e-21)
(9.9782 2.85118 -1.43333e-21)
(-3.84579 -3.41324 7.01492e-21)
(8.67523 0.477386 -6.81986e-23)
(5.83806 -2.78336 -1.04132e-20)
(8.10432 -3.36653 1.41791e-21)
(7.95376 -3.4284 6.2892e-21)
(7.53453 -0.770708 -2.0753e-21)
(1.32046 -2.8252 -2.77977e-22)
(7.40997 -0.13044 1.30074e-20)
(7.23966 -0.691449 0)
(10.5249 -0.19099 0)
(11.2552 -0.676864 1.22017e-20)
(14.724 -7.87759 2.80584e-20)
(6.30628 0.0112291 1.59849e-20)
(7.62974 0.212663 3.45512e-23)
(9.73597 0.902002 -8.76912e-22)
(8.27087 -3.49993 1.67903e-21)
(11.5229 -1.74255 0)
(7.29057 3.95278 1.29787e-20)
(6.04812 -1.22425 0)
(11.7863 2.7065 0)
(7.04202 -1.16682 -3.95361e-20)
(11.4341 0.561051 0)
(7.5319 -2.14698 7.27387e-21)
(10.9331 0.293713 0)
(10.0959 -0.805844 -4.91032e-22)
(4.96975 -2.24674 6.47243e-21)
(10.1496 1.59188 -1.96345e-22)
(-5.30521 -5.99209 8.06205e-21)
(8.19716 -2.17768 3.09168e-22)
(6.39257 -1.46551 -8.42298e-23)
(7.87028 -1.01227 -5.47661e-21)
(7.17482 -1.67457 8.55766e-21)
(12.8174 0.914154 1.80399e-20)
(3.982 -1.83831 7.15955e-21)
(-8.05935 -0.12331 0)
(4.8218 -2.32528 7.61787e-22)
(10.0932 -1.26589 6.15769e-21)
(10.3722 0.234226 8.50874e-23)
(4.84825 -2.30146 2.09706e-20)
(9.33073 -0.485249 0)
(14.3183 0.590222 0)
(8.05635 0.278569 1.72398e-20)
(9.39534 0.806442 0)
(4.6859 -2.30729 6.93294e-21)
(6.70376 -0.94174 -1.25662e-21)
(7.14265 0.314364 0)
(9.73064 -0.0817547 -1.07497e-21)
(13.7628 -3.40393 3.34632e-20)
(-3.68141 1.16283 5.05999e-20)
(8.06165 1.97186 0)
(-12.0245 4.70884 -1.39024e-20)
(3.90153 0.0831889 2.58351e-21)
(5.70301 -2.78865 9.68673e-21)
(6.91322 -0.836837 0)
(7.64713 -2.05535 1.54254e-21)
(-8.90755 -0.400542 1.28209e-20)
(9.60214 -0.946535 2.51945e-21)
(8.14365 -3.5808 -2.12171e-21)
(-1.74081 0.0512992 -2.96833e-21)
(14.3327 0.528996 1.41567e-20)
(7.02825 0.992306 0)
(6.68197 -0.931472 -4.8371e-24)
(9.32669 -1.34541 -5.17615e-21)
(-10.133 1.10839 -1.60078e-20)
(8.39653 -2.74477 -5.11943e-21)
(-9.43069 6.9854 0)
(8.2899 -2.1255 -3.67987e-21)
(-5.2169 -2.50123 -1.1398e-20)
(8.1656 0.00716674 -7.35464e-21)
(4.35392 -1.55766 0)
(5.90147 3.86137 6.37669e-21)
(7.81984 0.241463 -4.27585e-21)
(11.4601 -1.8572 0)
(10.0338 -0.520575 1.69173e-21)
(5.09184 -2.35313 8.64065e-21)
(13.0338 -3.50979 -1.87904e-20)
(7.7006 -1.84681 0)
(3.73502 -5.42186 0)
(6.97075 -0.982058 -1.4662e-21)
(8.8071 -0.936867 -2.76403e-22)
(3.76702 -5.75741 6.33795e-21)
(8.19988 -0.774092 -6.05019e-21)
(7.71795 0.351199 9.39045e-21)
(15.215 2.5596 -3.82751e-20)
(-7.89472 12.3151 6.9846e-20)
(4.95734 -0.583892 3.50649e-20)
(12.3726 1.26332 1.47409e-20)
(8.82493 -0.557141 2.24942e-21)
(11.2317 -0.878589 5.9157e-22)
(8.01534 -0.0032973 0)
(-8.383 0.426031 0)
(6.05017 -1.03024 1.64804e-21)
(6.06507 -2.86914 7.71853e-21)
(7.99004 0.096578 -1.518e-21)
(9.98699 -1.16502 5.60993e-21)
(10.3613 -1.44332 0)
(10.4464 -0.00223527 -5.40488e-21)
(10.1015 -0.458129 -1.23668e-21)
(7.59176 0.232315 -8.6194e-21)
(9.74582 -2.13593 4.31792e-22)
(8.07761 -0.837641 -1.03957e-21)
(1.58063 -2.86353 3.14737e-22)
(9.0935 -0.862898 2.35547e-22)
(9.54238 -0.956469 2.92695e-21)
(6.4922 0.402239 3.41294e-22)
(7.04917 -3.41215 0)
(1.8352 -0.688387 0)
(8.75325 -0.120812 2.18078e-21)
(6.26367 -1.17641 6.79755e-22)
(6.34164 0.617901 0)
(8.72342 5.81594 -5.03803e-20)
(-6.19054 2.41866 0)
(9.33911 4.32806 -1.27323e-21)
(9.77547 -1.11473 -2.47176e-21)
(7.34235 11.1767 0)
(7.52994 1.66856 -4.22845e-21)
(5.75427 -1.15764 -2.47281e-21)
(7.38526 0.875955 -5.50404e-22)
(7.41099 -0.126448 -1.43259e-20)
(8.56068 -2.27119 0)
(6.1606 0.68615 1.88625e-21)
(6.23418 -0.767648 -5.16435e-23)
(7.85108 0.182329 1.98318e-21)
(6.48101 0.576891 -8.3974e-21)
(2.26429 3.48259 8.8684e-21)
(9.86263 -0.931008 3.48858e-21)
(8.65347 -1.46618 -1.58726e-20)
(8.25438 -0.758167 0)
(10.3379 -0.380225 7.13896e-23)
(8.76249 -1.48827 -2.86897e-21)
(8.01048 0.0712235 2.06266e-20)
(8.00025 -2.30409 0)
(9.47976 -0.943382 -7.82385e-22)
(5.64943 1.73871 0)
(9.60926 -1.5655 -1.51333e-21)
(7.19629 -1.97328 -5.41373e-21)
(2.92207 -1.28377 8.68141e-21)
(9.21776 -1.70841 -3.46692e-21)
(8.08545 0.768432 0)
(6.59787 -0.977579 -2.03156e-21)
(8.42017 -2.15803 4.07696e-21)
(6.55728 0.577256 7.94089e-21)
(8.8118 -1.51265 1.11556e-20)
(9.27662 -0.723274 5.13301e-21)
(-10.5651 7.80184 -3.83571e-20)
(7.87708 0.425492 8.68832e-24)
(8.78789 -0.789397 0)
(3.75343 -1.15043 2.04859e-20)
(11.8574 2.56448 0)
(6.05635 -1.02805 3.12415e-23)
(8.76863 -0.42103 9.73377e-21)
(10.2618 -0.475896 -1.05531e-21)
(10.0747 -0.514481 1.24884e-21)
(4.38083 -1.53078 -2.44897e-20)
(7.7128 0.228027 1.07758e-20)
(7.3249 0.107751 0)
(-2.56591 2.71378 -2.99458e-20)
(8.46481 -1.05754 -3.50973e-21)
(6.37218 -1.31028 -3.95351e-22)
(13.0182 -6.93126 2.08979e-20)
(10.3571 -0.0570735 0)
(10.1086 -0.921951 2.38967e-21)
(7.09564 0.676956 1.67881e-20)
(7.82524 0.295908 1.29171e-20)
(11.2826 -2.23568 0)
(7.72549 0.0690518 -4.08122e-25)
(10.3191 -1.35832 -5.78324e-21)
(-2.12696 -5.29378 6.34558e-21)
(6.12424 -0.034728 2.22687e-21)
(8.52787 -0.927809 3.34762e-21)
(8.80541 0.0538854 8.07916e-24)
(8.77415 -0.757404 0)
(10.0758 -0.776504 -1.31765e-21)
(-11.905 5.5479 1.47443e-20)
(9.66061 1.74563 1.301e-21)
(8.04364 0.0985182 7.91544e-21)
(6.53062 0.0173677 0)
(6.33821 -0.951334 -2.50591e-21)
(7.39879 12.0593 0)
(13.8565 3.82111 -1.18539e-20)
(8.19566 -0.0487378 0)
(7.95837 -2.61653 -1.91566e-22)
(5.15189 -0.261522 -4.85347e-21)
(6.07024 3.26816 1.53488e-20)
(-0.883977 -6.12503 -1.87069e-20)
(7.83332 -1.91964 0)
(9.1289 0.309682 -8.72632e-22)
(8.06473 0.820014 -4.40454e-21)
(4.07214 -4.00155 -1.17394e-20)
(-3.86553 -1.81432 7.96925e-22)
(6.41857 -0.141785 -2.40108e-20)
(11.6317 -1.52585 6.498e-21)
(8.21596 0.781115 2.84488e-21)
(5.5996 -1.52077 0)
(5.3584 1.35567 9.22418e-21)
(6.78953 0.666679 -5.95498e-22)
(-6.83634 2.59214 1.86154e-20)
(-12.4275 5.05242 -5.06037e-20)
(6.46606 -3.67389 -2.50636e-20)
(12.4755 1.27185 0)
(5.09464 -3.78427 0)
(8.26851 4.82887 0)
(8.18662 -0.302086 0)
(2.50253 -2.06629 -2.99094e-21)
(9.54004 -1.46364 0)
(5.89394 -0.791381 0)
(6.51728 0.477468 3.29191e-21)
(12.716 1.61077 -1.89066e-20)
(8.70707 -0.721859 -7.9341e-21)
(6.74837 1.42075 2.72149e-20)
(8.012 0.123229 -2.18259e-21)
(9.57262 6.86201 0)
(11.9241 -1.04554 0)
(7.63035 0.254381 9.20367e-21)
(7.88042 0.0961017 1.57597e-21)
(4.83378 3.82109 0)
(-9.67094 5.61089 3.5685e-20)
(8.29168 -2.79932 5.74261e-21)
(4.29039 -3.80123 0)
(9.34402 -0.480018 5.11709e-21)
(7.95806 0.216949 -1.05308e-20)
(0.535642 0.401648 -1.11494e-21)
(3.73956 -1.11117 0)
(8.00892 0.82304 8.37706e-21)
(10.4197 1.03776 0)
(10.566 -1.44834 0)
(8.82277 0.888964 -3.09024e-22)
(7.72109 0.333864 4.90211e-21)
(3.32232 -3.01374 -2.92159e-20)
(9.24304 2.73549 1.01354e-22)
(5.094 -1.10605 -8.60173e-21)
(8.14633 -0.275532 1.06992e-21)
(8.33392 0.834464 2.17698e-21)
(11.1704 -0.790525 3.00786e-21)
(8.63994 -2.75079 0)
(13.6221 -2.40745 1.54051e-20)
(5.19673 0.000235722 0)
(6.15355 -0.958138 1.38245e-21)
(9.02641 -0.827875 0)
(5.68765 0.329679 1.24455e-20)
(-1.3203 -5.50676 -3.98921e-20)
(11.7433 -1.42826 0)
(0.179079 2.35938 1.47428e-21)
(12.1141 -1.18299 -1.41258e-20)
(6.74001 -0.938542 -9.75862e-22)
(6.85906 -0.874594 2.28363e-20)
(5.68509 3.17945 -9.49411e-21)
(5.07478 -1.08567 -2.45586e-20)
(13.9997 3.69621 0)
(6.54223 0.530917 7.8928e-22)
(-10.5367 8.57932 -9.77313e-20)
(8.06586 0.880565 0)
(7.35767 0.970716 6.03019e-22)
(11.0068 0.156823 -1.51196e-21)
(10.9381 4.34237 0)
(8.03666 0.0376544 0)
(-10.8571 5.10328 0)
(-7.66854 -1.55722 5.6259e-20)
(13.7786 1.63543 4.53331e-20)
(10.0829 6.95506 4.37463e-22)
(9.26104 4.12788 0)
(6.68641 -0.580705 1.55173e-20)
(7.64198 0.199487 4.2147e-23)
(9.20001 2.55671 8.80367e-23)
(-6.08202 1.13807 2.23644e-20)
(7.65139 0.699991 0)
(7.89209 0.479227 0)
(2.80728 -0.238157 -1.37033e-20)
(5.50246 -1.47966 -6.06209e-21)
(7.60708 -0.685512 0)
(6.82393 -3.19558 -7.10753e-21)
(7.83209 0.064936 -2.61543e-23)
(7.81475 0.36117 8.35244e-24)
(3.16045 -1.34492 0)
(7.96335 -0.322475 2.3862e-21)
(6.74314 0.560031 6.10469e-22)
(10.5066 1.01274 4.25658e-21)
(7.11238 -2.06667 0)
(5.4889 -0.777712 -5.28488e-20)
(10.1232 -0.482209 1.35059e-21)
(8.01175 0.374459 1.79525e-21)
(7.09673 0.156807 2.56843e-22)
(10.2993 2.93267 0)
(6.72372 1.41919 -7.21875e-21)
(11.5972 2.39407 -6.02919e-21)
(7.3421 -3.28369 4.70749e-21)
(8.03293 0.219127 0)
(-3.90681 -1.6557 -8.17738e-22)
(1.77741 -0.0361405 0)
(8.09312 0.194923 -6.81202e-21)
(7.96939 0.236937 3.13561e-21)
(7.42851 0.224006 -1.80807e-21)
(-9.35224 -0.792471 0)
(10.4867 -0.0998425 -2.80349e-22)
(4.28772 2.16333 2.49102e-20)
(8.58376 -2.73239 0)
(6.44453 0.430358 1.01634e-20)
(9.55303 -2.16853 -4.93501e-22)
(8.81353 0.094249 0)
(-4.86961 -3.40653 6.25015e-21)
(7.13618 -2.1558 -2.80434e-21)
(8.87315 0.0819184 0)
(6.35447 0.700107 3.98079e-20)
(7.28318 0.884283 0)
(6.68701 -3.02297 7.473e-21)
(-11.8199 4.11309 2.98425e-20)
(8.19 0.45347 4.45392e-24)
(9.85594 0.745361 -2.05218e-21)
(5.28817 1.30075 4.90505e-21)
(6.89507 -1.02796 -8.35796e-21)
(7.86081 -1.75264 -1.61115e-21)
(6.70447 -2.95605 8.96684e-23)
(8.49283 -0.943927 3.22442e-21)
(10.3125 2.93248 6.36527e-21)
(7.99415 -3.60063 0)
(7.98147 0.0480654 -7.01611e-21)
(3.95819 -1.43314 -2.61527e-20)
(5.2959 -0.0279966 0)
(6.77766 1.05462 -1.77098e-22)
(6.76165 0.0977107 0)
(4.65479 -1.1708 2.15639e-20)
(7.88336 -2.87888 0)
(7.56392 0.0413041 -1.31892e-22)
(8.94074 -0.367841 -5.57376e-21)
(-4.59065 -4.04577 1.1286e-20)
(-10.892 5.18138 4.18534e-20)
(10.1196 -0.125523 -4.33315e-23)
(6.88734 -3.29748 6.38693e-21)
(6.71984 -1.92685 8.2326e-21)
(5.76544 -1.08284 0)
(-2.90019 3.57744 -1.50738e-20)
(8.68612 -2.57106 -1.16498e-21)
(-2.92757 4.50949 -1.83603e-20)
(7.82631 0.410799 4.57437e-24)
(5.57756 -2.04466 0)
(8.84978 0.0660496 -2.90527e-23)
(-9.86245 6.58214 0)
(-9.76954 2.15131 1.87585e-21)
(1.31779 -0.286641 1.25455e-21)
(-2.46724 2.08719 0)
(7.91653 -2.03406 2.26684e-21)
(6.42409 -12.2919 0)
(10.8809 4.14104 0)
(6.38262 -3.01715 -9.82044e-21)
(5.75849 1.48781 7.46877e-21)
(6.39791 -2.5904 0)
(7.17119 0.801341 -4.58074e-21)
(9.33454 7.14187 2.99948e-20)
(-11.925 6.17101 7.0013e-20)
(11.1648 5.60834 0)
(8.37775 -0.0019849 0)
(-10.0468 9.25088 -4.30769e-20)
(7.34262 -0.388504 0)
(10.562 -0.0453391 0)
(-6.78255 12.6361 -3.39237e-21)
(7.99421 -1.47971 -1.08552e-20)
(6.63462 -1.51229 7.03542e-21)
(14.8663 0.194203 2.14117e-21)
(-4.33035 5.01969 3.36474e-20)
(7.91507 0.195273 3.61106e-21)
(5.89077 -1.18834 0)
(8.60719 2.02144 -9.84195e-22)
(5.54584 -0.622336 0)
(10.2192 -0.0159354 0)
(7.9586 0.452208 0)
(8.78038 0.845403 -2.48821e-22)
(7.44833 -0.1248 6.6294e-21)
(9.2739 0.573971 3.03178e-23)
(5.97195 -1.2428 0)
(2.61311 -1.32301 -1.96823e-20)
(8.17004 4.56832 7.45377e-22)
(7.07769 -2.47927 7.68824e-22)
(8.82755 -0.616432 -3.67558e-21)
(12.7594 -3.34906 2.83158e-20)
(8.16732 0.0875911 -6.09574e-21)
(-1.55063 -5.50624 0)
(10.0523 -0.469626 0)
(5.51723 3.81346 0)
(4.63097 -1.96178 -1.57849e-20)
(-0.445281 -7.90603 -1.31587e-20)
(-1.44031 -1.28135 0)
(8.7301 2.02175 0)
(10.5262 -0.955349 1.90534e-21)
(7.8173 -0.0313155 -1.6801e-21)
(7.6241 2.65178 6.86607e-21)
(8.29683 -3.38918 0)
(-6.29671 11.4973 -9.10395e-21)
(9.29 0.343868 -1.80679e-22)
(5.35231 -1.33898 -1.44474e-20)
(8.79541 0.406384 -1.2474e-21)
(9.16881 2.555 7.89369e-22)
(12.1947 -7.00191 4.09572e-20)
(4.56823 -1.93393 2.72182e-20)
(7.93347 -5.53191 1.04901e-20)
(9.34321 1.16347 -4.58473e-23)
(7.99422 0.0332778 -1.79181e-21)
(6.14145 -2.98057 -2.10592e-21)
(7.19761 -1.95199 1.22049e-21)
(6.6887 9.16863 9.95554e-22)
(6.64879 -3.14787 3.75718e-21)
(10.1702 -0.355992 0)
(6.26244 -1.11102 8.16128e-23)
(8.46566 0.00795333 -5.18269e-21)
(11.2297 2.92612 3.9271e-21)
(5.21733 -1.2089 -1.31994e-20)
(7.03568 -2.41016 -8.29013e-21)
(8.16581 -0.0693911 1.53841e-20)
(10.2216 -0.202825 -8.84103e-21)
(5.51742 -0.940346 -1.92082e-22)
(12.2718 1.46165 -7.80159e-21)
(4.36469 -0.439074 -2.90587e-20)
(8.80283 0.042662 -4.02825e-21)
(4.28328 -0.693554 0)
(-5.08181 -4.66882 -3.44104e-20)
(8.32139 0.0477858 1.5483e-20)
(6.90991 0.0192446 2.25719e-23)
(-4.13533 0.944217 0)
(7.23343 -3.3165 0)
(8.11532 1.84126 5.9227e-21)
(3.80242 -0.368192 1.80757e-20)
(3.90526 -11.3191 -6.27423e-20)
(8.05708 -2.60427 -3.81421e-21)
(8.70051 -1.48559 8.6884e-21)
(11.838 2.63384 0)
(8.12949 1.97147 3.15143e-21)
(2.06422 -2.40644 -1.78045e-22)
(9.95798 4.1319 4.79194e-21)
(7.69155 -0.965613 -9.7401e-21)
(-4.68795 4.9147 -5.487e-20)
(12.2163 -3.36053 -2.67647e-20)
(14.126 -2.72145 9.22512e-21)
(9.02014 4.9067 0)
(9.198 -2.17198 -2.87132e-21)
(7.46061 0.170348 1.66253e-21)
(7.65959 0.132154 -2.14508e-23)
(3.70418 -1.76916 2.53374e-20)
(7.65269 -1.01289 1.46766e-20)
(7.4663 -3.3123 2.91285e-21)
(-12.1949 5.45904 -3.90688e-20)
(10.4946 -0.6938 -6.18819e-21)
(8.59194 0.128769 3.59574e-21)
(-6.84943 12.4914 -8.37292e-21)
(9.61359 4.1142 -5.37795e-21)
(7.49346 -0.611795 -4.3253e-20)
(4.97385 -2.38151 -8.24876e-21)
(7.71334 0.147615 0)
(9.45806 2.10947 6.51527e-22)
(-9.83401 7.77429 -3.80187e-20)
(5.08304 -0.372467 2.5975e-20)
(8.43975 0.357991 0)
(9.09789 -0.713727 1.0778e-21)
(4.37939 -1.63281 6.18001e-21)
(7.95983 0.156663 -1.54031e-20)
(-11.0563 6.66934 -3.89723e-20)
(6.30738 -2.47011 -6.79918e-22)
(8.73041 -0.761637 5.42946e-21)
(9.01574 0.343155 1.1528e-21)
(6.77855 -3.07102 -1.02634e-20)
(9.41799 0.863435 -9.75536e-23)
(-0.441878 -9.21756 -4.5786e-20)
(8.5973 0.035478 4.85926e-21)
(8.12376 -0.226806 -4.61264e-21)
(8.5213 0.512492 -1.5514e-22)
(9.24801 -0.0368657 -9.73226e-21)
(4.19694 -1.70938 -1.19397e-20)
(9.30675 1.0623 0)
(-7.99948 -2.18164 3.61239e-20)
(8.30147 0.093797 1.17271e-21)
(2.89151 -0.0249695 -1.15696e-21)
(9.99836 0.243358 -1.53211e-21)
(8.47994 -1.56987 -5.51665e-21)
(8.02473 0.0709177 -1.17129e-20)
(8.38294 1.39263 1.67961e-21)
(-9.73087 6.31058 -3.66804e-20)
(10.6683 -0.0494467 0)
(6.421 -0.85303 1.2928e-21)
(10.2305 -0.482992 1.08163e-21)
(5.61668 -1.96926 0)
(8.49692 0.42313 2.82467e-21)
(10.2836 -0.382175 1.0697e-21)
(10.5664 -0.00392603 2.17098e-26)
(9.6799 -3.51502 5.8479e-22)
(7.66413 -0.765231 0)
(7.06062 1.57486 1.31216e-20)
(8.91736 -2.08385 -9.78952e-21)
(6.49889 -3.05407 8.34156e-21)
(7.88309 -0.651166 0)
(5.67203 1.46548 -2.16405e-20)
(3.27605 -1.67941 -8.92341e-22)
(10.1013 6.09155 -1.16928e-20)
(4.4138 -0.501384 2.84238e-20)
(8.89147 0.0771429 8.81106e-24)
(-11.331 5.43626 3.39873e-20)
(7.53616 -0.312531 -1.0247e-20)
(13.8028 -1.55788 -2.06313e-20)
(7.03973 0.681468 -9.68002e-21)
(8.86647 0.0508535 0)
(7.98336 0.086285 -6.77341e-21)
(-1.48001 -0.49727 1.38662e-20)
(-1.98483 2.78769 0)
(15.5069 -7.4486 0)
(7.64835 0.138187 0)
(7.58442 -2.68522 0)
(8.18768 1.35704 0)
(4.12216 -0.381107 0)
(8.65911 -3.63088 -2.17227e-22)
(11.6209 5.90283 -2.11764e-20)
(10.2622 1.6808 0)
(7.15312 1.50662 1.96128e-20)
(4.40921 -1.85425 6.64817e-22)
(8.25424 0.887719 1.87443e-22)
(-9.16745 9.45874 -1.76065e-20)
(4.18533 0.575792 -6.83577e-23)
(-10.4934 6.28572 3.22168e-20)
(8.41331 0.000174712 -3.49057e-21)
(11.32 0.278092 9.88418e-22)
(8.12743 1.29739 -4.12419e-21)
(7.47767 0.8204 -1.29217e-20)
(7.92431 4.30312 -3.50018e-21)
(13.4546 3.96551 0)
(-5.22642 -0.511306 2.76556e-21)
(4.72919 -1.23307 -2.36085e-20)
(8.02977 0.0467075 -2.05498e-20)
(8.78792 -2.53838 -6.08656e-21)
(8.83405 -0.0333614 1.60024e-21)
(10.4107 -2.44322 -1.4183e-21)
(8.23248 -1.24323 -1.2112e-21)
(7.97751 -1.99759 -7.83915e-21)
(8.06149 0.736141 4.56531e-21)
(8.77664 6.30669 0)
(7.77784 -1.54338 -1.44265e-21)
(6.62622 0.416399 -3.00517e-21)
(9.55726 -1.34263 0)
(7.03741 -0.897419 0)
(7.15048 -3.23454 -8.37116e-23)
(-10.8488 4.54003 3.64273e-20)
(8.54039 -3.66977 -8.878e-21)
(6.75136 -0.171661 0)
(7.51204 -0.184271 -1.34724e-20)
(7.1407 0.916276 -2.51468e-21)
(-8.54476 -2.79764 1.89888e-20)
(10.4522 -0.298849 3.23535e-22)
(-11.0954 6.4865 0)
(-5.67193 -0.259518 3.91007e-21)
(10.3669 -0.355319 0)
(9.04764 -2.24837 3.07773e-21)
(9.66076 -0.940207 -1.8706e-21)
(8.06981 0.0967068 -4.88959e-24)
(9.36389 2.83791 1.66409e-21)
(10.9891 4.97221 -1.12482e-21)
(6.47885 -1.81285 1.7129e-20)
(-1.92062 -3.26686 0)
(5.31108 -9.77837 -2.57967e-20)
(5.06334 -3.30333 0)
(10.4928 1.67994 -1.75157e-21)
(-8.73937 -1.77725 3.26576e-20)
(16.022 -7.13666 3.12775e-20)
(6.51586 -0.853157 -1.26807e-21)
(-8.95579 1.18896 -8.99995e-20)
(5.85824 -2.73852 -9.63419e-21)
(4.90284 -1.24325 -1.36975e-20)
(6.7218 0.689384 2.17613e-22)
(6.02036 -8.75926 2.11365e-20)
(4.27851 -1.74558 9.79056e-21)
(5.1517 -1.32562 1.48065e-20)
(-0.34081 -8.16721 1.66492e-20)
(7.86642 -10.6402 -1.44567e-20)
(6.98135 -2.15853 8.29841e-21)
(-2.61489 -7.41251 2.65011e-20)
(9.64626 0.181233 -5.55653e-23)
(4.64716 -2.04107 -4.59591e-22)
(9.27695 1.88556 -2.74021e-22)
(8.64217 -2.09734 0)
(7.15777 -3.15072 -4.91841e-20)
(8.2724 0.00642628 -6.22988e-21)
(8.017 0.477415 0)
(10.37 1.57512 0)
(4.10085 -6.6462 -9.92219e-21)
(16.4083 -1.19311 -2.50433e-20)
(9.71454 1.03461 2.7067e-21)
(7.96524 -1.41686 1.42683e-20)
(7.79596 4.13038 3.59178e-21)
(7.03508 -0.101497 9.94353e-21)
(-10.1982 -0.910517 -1.75348e-21)
(7.05747 2.73418 0)
(5.30946 -1.45265 1.40892e-20)
(-1.0228 12.9456 6.68411e-21)
(-9.99724 1.6273 6.81446e-20)
(6.51414 -2.4672 2.84598e-21)
(7.34308 -3.40252 -1.67034e-21)
(8.20619 -0.0932662 4.9719e-21)
(6.76178 -0.7928 6.62754e-22)
(10.8873 -2.21751 1.409e-20)
(-9.49927 -1.27611 -2.54623e-20)
(9.59508 1.00875 -1.99683e-21)
(7.67906 0.195509 5.38014e-21)
(4.2564 -0.664271 -1.16915e-20)
(7.36823 -0.280392 8.44113e-21)
(4.45571 -0.926553 0)
(9.63334 1.68438 -1.97459e-21)
(7.88197 0.168169 1.18693e-21)
(5.79123 -1.02364 -4.50748e-21)
(7.99473 7.31228 3.93541e-21)
(6.87657 -2.12921 6.2181e-21)
(8.10166 0.0449219 2.32262e-21)
(5.27962 0.712351 -1.68197e-20)
(9.68663 -1.41906 0)
(6.46307 -0.733995 -2.28948e-21)
(8.84626 0.420452 1.68965e-21)
(8.7907 -0.672297 0)
(5.5413 0.282449 9.67611e-21)
(10.4729 -0.266836 0)
(6.80624 7.61361 -1.14295e-21)
(9.81157 -0.189169 0)
(7.78921 -1.69621 0)
(9.98355 -0.265179 1.12613e-21)
(9.58382 0.814961 -9.27532e-22)
(11.7217 1.77175 -1.0793e-20)
(7.63185 0.625189 -5.80085e-21)
(5.9903 4.65105 -3.82787e-21)
(7.8169 0.382078 -2.1591e-21)
(8.26335 1.39595 0)
(1.95869 7.09545 -9.76599e-22)
(10.0282 0.748053 2.76801e-21)
(8.86898 -2.20743 -6.21883e-21)
(8.66156 -2.09454 0)
(11.3482 2.92331 5.80771e-21)
(8.85676 7.00907 8.43609e-22)
(9.48862 0.167294 -1.49319e-22)
(2.15097 -5.33355 0)
(-5.11522 12.4691 5.89815e-20)
(8.13025 0.709135 0)
(11.0708 -1.78904 -6.93059e-21)
(-3.78026 0.882987 0)
(4.69056 2.58867 0)
(7.59667 -6.19129 0)
(7.72132 -2.8345 0)
(-4.67583 12.9961 -5.35693e-21)
(-7.43645 -2.79305 -1.17821e-20)
(7.36818 -0.108636 -9.90579e-21)
(-5.66944 -3.55714 -1.5541e-20)
(4.65823 -1.84803 0)
(-4.48269 -6.07834 -1.44105e-20)
(-4.78239 0.708876 -5.01818e-20)
(5.98786 -2.78248 0)
(5.62492 -1.79033 -1.51214e-20)
(5.73112 1.22534 -3.29344e-22)
(9.24319 1.8021 4.82638e-22)
(9.34615 -3.17329 1.04591e-21)
(7.40148 0.745462 0)
(8.29708 -2.61936 0)
(12.0153 2.95093 3.20241e-21)
(7.19827 -1.79384 3.05791e-22)
(6.50483 0.415832 -6.57992e-22)
(3.95843 -6.19926 5.6678e-22)
(7.96812 0.0268598 5.01321e-22)
(9.43922 2.06317 3.27128e-23)
(8.01642 0.735366 6.47559e-21)
(6.2215 -0.817157 1.22983e-21)
(7.20198 -1.93197 0)
(0.871826 -0.583239 0)
(9.37506 0.758845 0)
(7.08851 0.0993815 0)
(6.6755 -1.14285 6.21036e-21)
(12.0504 0.530101 0)
(-5.52602 13.7846 9.69737e-20)
(12.6575 -10.7691 -2.35583e-21)
(5.01549 -1.3843 -2.23853e-20)
(4.47604 -1.77682 -4.58575e-22)
(-9.20912 -3.32146 -2.01847e-20)
(-2.32997 15.1115 -4.52774e-20)
(8.32429 0.0970551 1.84091e-21)
(-9.88815 0.780425 -2.86175e-20)
(6.09498 -0.875779 2.08412e-21)
(10.0787 -0.214 0)
(9.15045 -1.40123 0)
(5.34923 -1.55058 0)
(8.4702 -1.65385 2.90265e-21)
(7.89737 -12.0442 0)
(7.2164 2.67699 0)
(8.06336 0.0220814 0)
(6.75418 -1.51887 6.58243e-21)
(8.36766 0.836166 -5.69971e-21)
(6.69437 0.0591947 0)
(9.10369 -3.69694 -8.31541e-21)
(7.86079 0.798307 -6.59531e-21)
(9.95291 3.94705 -1.02206e-20)
(6.03565 -2.74791 9.02779e-21)
(7.48805 2.97547 6.17019e-23)
(7.07914 -2.40082 -2.28044e-22)
(6.95848 -0.96422 1.44098e-21)
(7.88002 -2.13702 -3.13542e-21)
(9.50361 0.851727 1.38089e-21)
(6.60269 0.429136 -1.31396e-21)
(7.16971 0.382729 -9.48772e-21)
(8.49657 0.0293466 0)
(3.84494 0.0431332 8.37708e-22)
(7.72741 0.224991 9.56774e-21)
(2.61891 -2.39773 -5.78264e-22)
(8.17582 -1.17793 -3.55185e-21)
(3.92025 -0.465585 -1.96619e-20)
(9.57548 0.720758 -2.5983e-22)
(11.6318 2.42892 8.72199e-21)
(8.03687 0.316317 0)
(5.76542 -0.726898 7.92235e-23)
(6.84269 -0.298348 -6.11e-22)
(7.95587 -2.14584 6.20225e-21)
(-6.42247 0.597259 -2.55152e-20)
(7.96511 0.0502371 5.01651e-21)
(9.40824 1.0288 4.55748e-23)
(8.72103 0.0861672 -1.50634e-23)
(9.22046 0.572894 0)
(3.80153 -1.07185 0)
(5.65331 -2.66313 1.13049e-20)
(-11.1961 6.40148 4.20978e-20)
(7.72564 0.077252 -1.1058e-24)
(7.81444 0.216225 1.91405e-20)
(6.1442 -0.834709 -3.39477e-23)
(5.64378 1.28143 0)
(7.09497 0.463039 0)
(6.16362 -1.24745 -8.40985e-23)
(9.80966 -0.146393 1.66773e-21)
(7.69277 2.75801 8.9902e-21)
(9.61088 -0.685762 0)
(9.89336 0.117803 0)
(7.98051 -2.20966 1.081e-20)
(7.79008 -0.605889 7.8394e-21)
(0.877185 2.72515 -7.33294e-22)
(8.44176 -0.402114 0)
(3.09241 1.27142 6.98474e-22)
(10.4239 -4.48599 -3.95862e-21)
(-10.6284 6.85823 -4.30954e-20)
(7.84598 -0.0785906 -1.07622e-20)
(13.7371 5.22714 0)
(17.1752 -0.452814 1.98876e-20)
(6.17025 -6.11165 -9.98117e-20)
(0.57319 2.34935 0)
(7.02455 0.156034 -8.12305e-22)
(7.57817 0.422132 -6.28454e-21)
(7.66621 0.0645593 -3.72143e-25)
(10.0756 -0.961184 9.99167e-22)
(6.03608 6.70846 1.47456e-20)
(8.51204 0.0676315 0)
(3.80315 -1.23052 -1.28968e-22)
(5.46738 -0.69354 -1.35213e-22)
(9.65907 9.25152 -1.01947e-19)
(8.12188 1.30216 4.88373e-21)
(-1.34321 -3.10118 3.50733e-21)
(7.9994 0.0175511 -2.36735e-20)
(6.39594 -3.36557 -1.52944e-21)
(6.75566 -0.928171 1.3832e-21)
(6.67254 -1.43629 0)
(7.06307 0.00992242 -2.79069e-21)
(4.13583 -1.79203 7.91499e-21)
(8.81338 -0.382348 -1.07997e-20)
(7.86696 0.158359 -8.6318e-21)
(10.7603 -1.82967 6.09952e-21)
(6.46922 -0.497067 2.2675e-20)
(9.54552 0.109723 7.04989e-23)
(7.01172 0.501415 5.47075e-21)
(6.68659 1.06607 -6.88599e-22)
(14.9203 0.180893 -2.32726e-20)
(9.8276 4.37693 -8.08457e-21)
(5.76456 -11.0614 4.88501e-20)
(8.01085 -0.16322 0)
(5.77896 -1.47158 0)
(5.21611 -1.71312 0)
(4.99733 -1.25307 1.72298e-20)
(8.13137 0.0755344 -1.37937e-20)
(7.12305 1.01398 0)
(5.92089 -1.10649 -1.32934e-20)
(7.08833 0.945917 0)
(6.74728 -0.969714 -1.01949e-20)
(8.73223 -2.28505 -6.78698e-21)
(7.13623 -1.79713 -9.05788e-21)
(8.64837 0.0598311 0)
(7.7005 0.16673 0)
(8.77771 -0.779086 3.32348e-21)
(10.2324 1.47799 1.95337e-22)
(11.4369 0.0228768 7.74182e-21)
(9.3874 7.29235 -6.15288e-22)
(9.60819 -0.860657 0)
(6.57975 -2.41291 -4.70234e-21)
(-2.11759 4.10931 0)
(2.7992 3.49095 -8.82876e-21)
(11.0424 4.91328 0)
(9.33425 0.932253 -9.27079e-23)
(4.4149 -0.343018 7.54385e-21)
(5.91525 -0.329053 7.40031e-21)
(8.24109 -0.419234 -3.36664e-21)
(11.0416 -10.91 -1.44865e-19)
(7.66944 -0.706356 1.98461e-20)
(8.15587 1.37163 -1.98224e-22)
(9.61939 -2.47401 1.77488e-21)
(7.71788 -1.60496 -4.46785e-21)
(-0.288195 3.40813 2.54063e-20)
(10.3644 2.16762 0)
(7.87327 0.160917 2.77248e-23)
(5.93303 -1.2271 0)
(6.73598 -0.869185 -1.4269e-21)
(6.65688 -2.4043 -2.43287e-21)
(6.53851 -0.425162 -7.44694e-21)
(7.65736 0.0426047 4.53119e-25)
(10.699 0.371427 -5.47401e-21)
(6.49376 -0.0309246 1.5363e-20)
(9.45469 -0.353131 -3.55508e-21)
(6.50044 0.533238 0)
(-6.63434 10.2523 0)