/*--------------------------------*- C++ -*----------------------------------*\
| =========                 |                                                 |
| \\      /  F ield         | OpenFOAM: The Open Source CFD Toolbox           |
|  \\    /   O peration     | Version:  2306                                  |
|   \\  /    A nd           | Website:  www.openfoam.com                      |
|    \\/     M anipulation  |                                                 |
\*---------------------------------------------------------------------------*/
FoamFile
{
    version     2.0;
    format      ascii;
    arch        "LSB;label=32;scalar=64";
    class       surfaceScalarField;
    location    "4.25";
    object      phi;
}
// * * * * * * * * * * * * * * * * * * * * * * * * * * * * * * * * * * * * * //

dimensions      [0 3 -1 0 0 0 0];

oriented        oriented;

internalField   nonuniform List<scalar> 
20045
(
0.251433
-0.274546
0.0231128
-0.538235
0.189827
0.348408
0.163314
0.902678
-1.06599
0.056215
-0.0797127
0.0234977
-0.42457
0.414579
0.00999108
-0.277537
1.09815
-0.820617
-0.512643
0.222983
0.28966
0.0357645
0.217943
-0.253708
0.237414
0.213381
-0.450796
-0.413393
-0.0608726
0.474266
0.246526
-0.0830831
-0.163443
1.13407
-0.555252
-0.57882
0.183429
-0.183603
0.000173923
-0.645902
0.545083
0.10082
-0.166556
0.536903
-0.370347
-0.5491
0.135707
0.0856341
0.028643
-0.114277
0.446902
-0.33788
-0.109022
-0.850259
1.24343
-0.393169
-0.382167
0.0313493
0.350817
0.188076
-0.171495
-0.0165814
0.0631499
0.120279
-0.0672383
-0.470997
0.262841
0.459494
-0.722335
0.427058
0.0903731
-0.517431
-0.48821
0.751052
-0.314898
0.336056
-0.0211571
-0.579961
1.11585
-0.535889
0.87887
0.116622
-0.995492
-1.06623
0.603428
0.462802
-0.0657711
-0.166276
0.232047
0.726727
-0.510189
-0.216538
-0.425042
0.760857
-0.335815
1.12103
-0.649774
-0.471253
-0.281013
0.316778
1.09526
-0.541601
-0.553661
0.730701
0.11367
-0.844371
-0.0305554
0.188102
-0.157546
-0.984475
0.381543
0.602932
0.306047
0.257213
-0.56326
0.0260916
0.198965
-0.225057
0.065577
-0.0949303
0.0293533
1.07761
-1.07839
0.000786531
0.749433
-0.269967
-0.479466
0.339777
0.409657
0.53039
0.603681
-0.0416176
0.303816
-0.262198
0.627995
0.286153
-0.914148
0.927141
-0.19644
0.0680645
0.919697
-0.987762
0.649631
-1.0992
0.449573
0.910564
-0.676211
-0.234353
-0.603505
-0.447084
1.05059
-0.0456213
-0.154405
0.200026
0.431336
-0.104119
-0.327216
-0.351319
-0.0732504
0.0330645
0.74799
-0.781054
0.818418
0.0371954
-0.855613
0.413178
-0.838219
1.06333
-0.711611
-0.351721
0.280339
-0.00797008
-0.272369
0.433042
0.63029
0.400626
-0.937875
0.537249
0.154851
0.0332249
0.371445
0.0757712
-0.447216
0.827646
0.116393
-0.94404
-0.0241298
0.0851766
-0.0610468
-0.340334
0.0817854
0.258548
0.428453
-0.191038
0.914444
-0.930854
0.01641
-0.0513181
0.0271883
-0.0591427
0.490478
-0.128125
-0.521317
0.649443
-0.032723
-0.0817166
0.11444
0.915229
-0.161668
-0.753561
0.693064
-0.66
-0.0239334
0.939162
0.217423
-0.383979
-0.226105
-0.102241
0.328346
0.233473
-0.588304
0.354831
0.522758
0.606966
-1.12972
0.457274
-0.3528
-0.104474
0.818496
-0.41787
-1.18145
0.225568
0.955877
0.00842092
0.243012
-0.273526
0.316089
-0.0425627
0.371052
-0.385312
0.0142602
-0.804621
0.0362523
0.768369
0.520178
0.0743639
-0.594542
-0.435153
0.396125
0.0390281
-0.732162
-0.110538
0.8427
0.366437
-0.0627255
-0.303712
0.203242
-0.293738
0.0904961
-0.0770624
-0.414893
0.491955
0.298835
-0.316189
0.0173542
0.750498
0.201825
-0.952324
-0.273747
-0.0411516
0.000354305
-0.101301
0.100947
0.615503
-0.309456
0.0969452
0.128441
-0.225386
0.741975
0.353288
-0.240718
-0.405184
-0.13386
0.134214
-0.14036
0.958778
0.00415985
-0.277686
-0.220498
0.317443
0.22711
0.603886
-0.830996
0.603516
-0.889691
0.286175
-0.267723
-0.209369
0.182651
0.0267177
-0.0991734
0.126507
-0.0273339
0.626725
-0.45565
-0.171075
-0.2511
0.205479
0.663518
-1.08034
0.416819
-0.0878652
0.1616
-0.073735
0.023075
-0.123182
0.100107
0.58344
-0.156382
0.82635
0.294678
-0.586517
0.458391
0.696099
-1.00793
0.311829
0.297125
0.149777
0.182651
0.0976876
-0.391882
0.319807
0.0720745
-0.380959
0.0474418
-0.295461
0.248019
0.659208
0.251357
0.564168
-0.718286
0.154118
0.81331
0.0889399
-0.90225
-0.991002
0.767723
0.223279
-0.189789
-0.351818
0.541606
0.965561
-0.306354
-0.0607029
0.364519
0.0326978
-0.0734236
0.0407257
-0.0481521
0.0225376
0.0256144
0.569288
0.403065
-0.972353
0.606413
-0.580992
-0.0254208
-0.178543
0.104535
0.0740079
-0.150229
-0.0591395
1.12792
-0.431823
-0.326959
0.350494
-0.0235352
0.630666
-1.05393
0.423266
0.188064
-0.791569
0.572687
0.231203
-0.803889
0.645016
-0.411543
0.974378
-0.133789
-0.840588
0.225474
-0.816379
0.590905
1.1817
-0.9746
-0.207101
-0.134526
0.237401
-0.102874
0.00660107
1.00729
-1.01389
1.07267
-0.1938
-0.825803
0.0266084
0.799195
-0.479305
0.420016
0.0592892
1.02041
-0.497651
0.17367
0.283604
-0.638955
0.775264
-0.136309
-0.735099
0.898413
0.0106946
-0.152967
0.142272
0.0242853
-0.0354544
0.0111691
-0.0160295
-0.190727
0.206756
0.93674
-0.11521
-0.82153
1.29394
-0.638373
-0.655564
-0.224569
0.20854
0.344185
-0.673817
0.329631
0.0772155
-0.0116386
-0.816572
-0.48663
0.688431
-0.201801
-0.66789
0.498578
0.169312
-0.0122304
-0.0264542
0.0386846
0.280814
0.900886
-0.0500463
0.0018942
-0.0331983
0.0658961
-0.706735
0.0677806
-0.734599
0.931823
-0.197223
-0.659882
0.761846
-0.101964
-0.606881
-0.423253
1.03013
-0.121261
-0.119223
0.240484
0.451877
-0.484402
0.0325248
0.818643
0.119
-0.937643
0.0127167
-0.757855
0.745139
-0.368689
0.941376
0.200161
-0.549229
0.349068
-0.407143
1.07066
-0.836333
0.546251
0.290082
0.062626
-0.0933228
0.0306968
0.390512
-1.14184
0.751333
-0.900252
0.320291
-0.618837
-0.407314
1.01151
-0.62335
-0.388165
-0.268419
0.294511
0.124178
-0.131198
0.00701976
-0.772877
-0.187047
0.959923
-0.808386
1.13771
-0.329326
0.929464
-0.64566
-0.283804
0.0822896
-0.253993
0.171703
-0.230183
-0.492296
0.722479
0.113
0.133526
-0.459994
0.270205
-0.658597
-0.220753
0.87935
0.0898584
0.0248942
-0.114753
0.119335
-0.605966
0.150886
-0.216657
0.865381
-0.0520718
-0.141026
0.11047
-0.129901
0.158329
-0.0284276
-0.069111
1.00585
-0.769869
0.539686
0.319091
-0.0143639
-0.304727
-0.697371
0.127742
0.569628
0.324499
0.604965
1.192
-0.801487
0.697659
-1.16207
0.464409
0.221997
-0.711874
0.489877
0.0256778
-0.407844
-0.487382
0.714492
0.661029
-0.938567
0.267963
-0.688564
0.420601
-1.16231
0.649158
0.51315
-0.0236135
-0.41154
0.180332
0.144342
-0.324674
0.702161
-0.198595
-0.503567
0.214075
-0.696517
0.703118
-0.256258
-0.0707006
0.63534
1.11342
-0.904816
-0.2086
-0.0109991
-0.128727
0.139726
0.675067
0.101228
-0.776295
0.180233
0.0753861
-0.255619
-0.10487
0.622724
-0.517854
-0.102843
0.473895
0.571994
-0.371833
-0.0569287
0.153591
-0.0966619
0.878687
-0.248021
0.09124
-0.00786968
-0.0833703
0.144894
0.0278058
-0.1727
-0.104325
0.108144
-0.00381989
1.00299
-0.649926
-0.353065
0.231774
-1.04016
-0.113913
0.00958817
-0.881086
0.285922
0.595164
1.06235
-0.301495
0.246683
-0.981282
1.26397
-0.589356
-0.674609
-0.0117886
0.101647
0.853919
-0.339428
-0.514492
-0.616526
0.143211
0.473315
-0.957443
0.963194
-0.00575042
0.275642
-0.779675
0.504033
-0.0383592
-0.0276568
0.0660161
-0.474324
0.632055
-0.157731
-0.0629024
-0.0291688
0.0920713
-0.14694
0.0590743
-0.115048
0.0158746
-0.616947
-0.272744
0.439742
-0.750172
0.31043
0.326057
-0.227338
-0.0987188
0.41072
0.316007
0.61002
-0.342057
0.00672742
0.0175579
0.650253
0.412099
-0.50095
0.0211759
0.479774
0.251447
0.602472
0.383059
0.153844
0.245951
0.0801058
-0.286976
-0.0199584
0.306935
-0.0510459
0.113672
-0.662107
0.557238
-0.191539
0.25925
-0.0677116
-0.898738
0.862011
0.0367268
-0.399256
0.623461
-0.224205
-0.219648
-0.111868
0.331515
0.763251
-0.827348
0.0640978
-0.701198
-0.46111
1.30713
-0.851028
-0.456099
-0.0942271
0.0832279
0.871389
-0.595747
-0.339329
0.779072
-0.0961189
-0.25368
0.349799
0.809694
-0.113991
-0.695703
1.24339
-0.153442
-1.08995
-0.387951
0.291832
0.829963
-0.483908
-0.346055
-0.158823
0.780015
-0.621192
0.5987
-0.769349
0.170649
0.155087
-0.269918
0.114831
0.390518
-0.101437
-0.28908
1.19206
-0.942702
-0.249359
-0.526383
-0.464619
0.770725
0.342691
-0.820785
-0.0779535
-0.0372467
0.182141
0.164092
-0.790959
0.626867
0.00420397
0.119974
-0.539741
1.10903
0.369562
0.633429
1.10059
-0.683805
-0.416781
-0.759003
0.53825
0.765202
-1.2167
0.4515
-0.626003
-0.0396198
0.665622
-0.232728
-0.177507
0.410235
0.563865
-0.21968
0.0568216
0.262269
0.26879
-0.0261287
-0.484061
-0.712293
0.990236
-0.277942
-0.14903
0.019129
-0.059278
0.0023493
0.122078
-1.07952
0.403666
-0.506509
0.154264
-0.22176
0.309561
-0.087801
-0.00291027
0.0591253
-0.518214
0.375635
0.142579
0.349637
0.277088
-0.394085
0.68454
-0.290455
0.493376
0.113037
-0.643932
0.808024
0.577291
-0.0571134
-0.198137
-0.499234
0.966799
-0.708263
-0.258536
0.941317
-0.900476
0.282726
0.61775
0.797428
-0.863175
0.0657474
-0.433005
0.355943
-0.117043
-0.0614995
-0.118806
-0.613356
0.282923
-0.544766
0.261842
0.42237
0.407593
0.770992
-1.12718
0.35619
0.223613
-0.537995
0.314382
-0.972861
0.16824
0.00903484
0.357402
-0.582617
0.888967
-0.30635
-0.261675
0.310464
-0.0487887
-0.406137
-0.106507
-0.131078
-0.223323
0.3544
0.0849813
0.000814672
-0.0857959
-0.332828
-0.146477
0.371286
0.450399
-0.821685
0.813132
-0.561685
0.304692
-0.452569
0.0195641
0.463436
-0.239822
-0.668484
-0.167849
-0.0463517
-0.0502116
0.0965632
0.976075
-0.34808
-0.452126
0.749348
-0.297222
-0.118078
0.137901
-0.0198234
0.74691
-0.0447485
-0.219014
-0.571945
-0.49362
0.9165
-0.422879
0.68981
-1.14498
0.455167
0.566892
0.740235
0.285833
-0.245475
-0.0403575
0.0873372
-0.71334
0.682871
-1.04133
0.358461
0.124608
-0.157331
-0.0710477
0.635216
-0.104969
0.508635
-0.488401
0.710398
0.189724
-1.03998
-0.903219
0.493454
0.409765
0.639685
-0.103135
-0.53655
0.935084
-0.171834
-0.417072
-0.534338
-0.485567
0.450659
-0.227559
-0.0897914
0.317351
0.32092
-0.289571
-0.713066
0.642018
0.853559
0.224046
-0.786298
0.334172
1.1191
-0.348379
0.11921
-0.0442873
-0.0749224
-0.00572089
-0.608178
0.613899
-0.90258
0.17019
0.732389
0.728817
-0.728817
-0.245801
0.840534
-0.594734
0.391576
-0.785662
0.672537
-0.407209
-0.265328
-0.925994
0.958093
-0.0320988
0.340345
-0.0470632
-0.293282
0.263573
-0.108788
-0.154785
0.110974
-0.330622
-0.288262
0.474396
-0.813725
-0.846938
0.998876
-0.151937
-0.286872
0.658157
0.0509352
0.00529049
-0.0562257
-0.109689
0.200476
-0.090787
-0.381638
0.407316
1.04088
-0.841777
-0.199106
-0.0892539
-0.523715
0.612969
-0.23371
0.251445
-0.0177352
0.121423
-0.279778
0.158355
-1.05163
0.434963
0.616666
-0.0583215
-0.0213912
0.0760887
0.043121
0.0200479
-0.0445087
0.0244608
0.503931
0.68813
0.044337
0.00659819
-0.0567392
-0.289572
0.346311
-0.494432
0.792288
-0.297855
-0.00671193
0.0759624
-0.0692504
0.433671
-0.210688
0.925481
-0.389401
-0.536079
0.00570699
-0.4206
0.038872
0.779771
0.42339
0.30379
-0.72718
0.468207
-0.412461
-0.0557455
-1.01281
0.187011
-0.432707
0.188933
0.243774
0.41791
0.539238
-0.957148
-0.626484
0.586864
0.0449028
-0.914773
0.869871
-0.127732
0.210022
0.0508344
-0.0743926
0.0235581
0.0207669
-0.307743
0.107465
-0.0239568
-0.0835086
-0.677885
-0.203201
0.616602
0.112288
0.0346002
-0.146889
-0.124742
0.00666426
0.162989
-0.705442
0.542453
0.20883
0.543571
-0.752401
0.327709
-0.713393
0.860349
-0.146956
-0.717814
0.558991
0.155708
0.180348
-0.399721
-0.268169
-0.256397
0.0653435
0.191054
-0.861861
0.367429
0.665588
-0.754842
0.411726
0.707378
-0.299506
0.304237
-0.0047311
0.345687
-0.857522
0.511835
0.14886
-0.267435
0.118575
0.553276
-0.77229
-0.642082
-0.0178001
-0.310719
-0.0296146
0.0435942
0.246926
-0.29052
0.339685
-0.00150391
-0.0318006
0.0333045
0.893591
-0.475681
-0.787459
0.781516
0.00594338
0.259434
0.182047
-0.441481
-0.371653
0.24392
-0.215404
-0.0409929
0.38071
0.291827
-0.254347
-0.753581
0.103854
-0.150206
0.613388
0.411954
0.165337
-0.872475
0.94054
0.0917856
-0.458336
0.36655
-0.0850074
-0.828151
0.913158
0.0273498
-0.0325245
0.00517475
0.198986
-0.320247
-0.18874
0.787441
0.856636
-0.631161
-0.431746
-0.086468
0.00941927
-0.410906
0.401487
0.405717
-1.0126
-0.106293
-0.479104
0.585397
0.0348798
-0.134244
0.0993639
-0.65199
0.0506046
0.601386
0.960326
-0.674173
-0.0166439
0.0843393
-0.0676954
-0.21334
-0.0203695
0.178095
0.356973
-0.535068
0.0957659
-0.121436
0.0256697
0.638439
0.375511
-1.01395
-0.399444
1.14994
0.0819939
0.00298731
-0.257322
-0.567264
0.824586
0.396048
0.731874
0.908016
-0.699185
-0.351897
0.220819
0.278508
0.11201
-0.413489
1.17869
0.137151
-0.767963
0.630812
0.938008
-0.140228
-0.797779
-0.459398
0.713294
-0.253895
0.400968
-0.366092
-0.482435
0.848526
-0.0118224
-0.0280333
0.0398557
-0.285661
-0.484198
0.76986
0.0805818
-0.190271
0.0331256
-0.045356
0.505204
-0.790865
-0.707045
-0.206103
0.913148
-0.0666061
-0.474373
0.540979
0.126729
1.14746
-1.17336
0.0258978
0.211427
-0.150196
-0.0612311
0.00833849
-0.307845
0.26319
0.228765
-0.315872
0.0831435
-0.810337
1.01865
-0.208317
0.0203242
-0.211863
0.349111
0.295905
-0.827149
-0.251242
-0.0984002
0.351028
-0.252628
0.540669
-0.128714
-0.196813
0.217585
-0.0207723
-0.122811
0.0599083
-1.16544
0.546607
0.929763
0.168392
-0.130684
0.252107
-0.202111
0.461545
0.80015
-0.325754
-0.205257
0.008444
-0.0958614
-0.617204
0.229033
0.206388
-0.195694
-0.918454
0.0158743
0.0742671
0.21003
-0.0611697
-1.00187
0.636726
0.365149
0.770545
0.143898
0.187898
-0.0620659
-0.125832
0.276998
-0.260833
-0.0161645
-0.838902
0.297301
-1.02081
0.527188
-0.245104
0.211605
0.0334989
-0.00242093
-0.0372753
0.0396963
1.04777
-0.00696191
-1.04081
0.140683
0.00783831
-0.148522
-0.133335
-0.258546
0.225608
-0.022366
0.142336
-0.159467
0.0171305
0.387139
-0.0603652
-0.326774
-0.0528503
0.195187
0.848764
-0.646939
-0.0272653
-0.14366
0.170925
-1.01172
0.20138
-0.0424884
0.00856115
-0.142421
-0.101949
0.214238
0.00489359
0.00183383
0.246466
0.153493
-0.399958
0.425151
-0.0537059
0.431277
-0.339491
0.191061
-0.167986
0.0625291
-0.324204
0.602404
-0.0398645
-0.56254
0.534131
-0.0400507
-0.49408
-0.618332
-0.198047
0.103827
-0.106126
0.00229864
0.39206
-0.446789
0.0547294
1.10828
-0.0401562
-1.06813
0.0201917
-0.182049
0.161857
-0.494334
0.656621
-0.162286
0.501406
0.614987
-1.11639
-0.308278
0.300308
-0.261499
0.429964
-0.168466
0.215487
0.0920772
-0.307564
-0.932863
0.452347
0.480515
-0.15952
5.33027e-05
-0.843544
0.136499
0.301585
-0.183956
-0.117629
0.473025
-0.613341
0.140316
-0.0838896
-0.190656
0.174618
0.972847
0.82103
-0.136103
-0.684927
-0.837066
0.123673
0.3415
-0.539637
0.679063
-1.08995
0.410886
-0.100354
0.280686
0.0120859
-0.397256
0.340517
-0.161905
0.209347
-0.113714
-0.764921
0.878635
0.382346
0.489043
-0.743307
0.77486
-0.0315524
-0.179571
0.223165
-0.64981
-0.260678
-0.112913
0.126563
-0.0136503
0.189067
-0.330254
0.141187
0.0246136
0.0133432
-0.0379568
-0.0846947
0.557719
-0.812991
-0.113506
0.926497
-0.737916
-0.238411
0.976327
0.476136
-0.35788
-0.118257
-0.16514
0.0190295
0.146111
-0.125248
-0.176136
0.301384
-0.994254
0.0412043
0.95305
0.0242065
0.1855
-0.209707
0.806981
-0.901097
0.0941164
-0.506014
0.537494
0.0862818
-0.623775
0.0122696
-0.125183
-0.213797
-0.407321
0.621117
0.625509
-1.03265
-0.948433
0.822987
0.125446
0.111162
-0.0153966
0.652711
-0.3036
-0.0563451
-0.244665
0.30101
-0.00807174
0.121807
-0.113735
-0.297986
0.93518
-0.637194
0.513536
-0.572301
0.0587645
1.03008
-0.975242
-0.0548411
0.798897
-0.332814
-0.466083
0.0420944
-0.221193
0.179098
-0.287905
-0.0075563
-0.937507
0.825498
0.112009
0.0566905
-0.994197
-0.471203
0.694919
-0.223716
-0.583662
-0.35904
0.184463
-0.160459
-0.0240037
-0.790565
-0.221151
-0.175526
0.116469
0.0590572
0.247864
-0.0676309
-0.892729
0.852257
0.0404716
-0.200464
-0.114445
0.0327283
0.151884
-0.0112008
-0.602343
0.128019
0.128949
-0.155526
0.0265764
-0.459819
0.356907
0.102912
0.355619
-0.0152736
-0.255072
0.637494
0.109416
0.362087
0.0787565
0.277053
-0.35581
-0.108288
0.560165
-0.612635
0.388929
0.223706
-0.129784
-0.0297359
0.863421
-0.481076
0.721032
-0.375345
-0.234107
-0.172473
0.40658
0.333759
-0.777961
0.444202
0.545419
-0.612025
0.989225
-0.43325
-0.555975
-0.00369028
-0.512309
-0.100326
-0.791567
0.989803
-0.198236
0.0595398
-0.27318
0.970839
-1.05896
0.268395
-0.0485806
0.203667
-0.108768
-0.318898
0.111107
-0.00296282
-0.492061
-0.52072
1.16312
-0.470057
0.330087
-0.0802589
-0.249828
0.0624405
0.201133
-0.663736
-0.367462
1.0312
0.224536
0.33933
-0.00475573
-0.137379
0.142135
0.819821
-0.00882168
-0.0570436
0.0658653
0.571135
0.0312692
-0.362908
-1.0181
0.171163
-0.204379
0.0086617
0.195717
0.567463
0.696502
0.270837
0.0508523
-0.32169
0.974629
0.0554547
0.590339
-0.83858
0.248241
-0.829628
-0.0064114
0.836039
-0.758219
0.988478
-0.230259
0.132952
-0.00587892
-0.127073
-0.39464
1.02015
-0.038892
0.245749
-0.206857
0.0221882
-0.765495
0.154017
-0.0294782
-0.124539
-0.925131
1.19324
-0.268109
-0.243297
0.535644
-0.292348
1.1604
-0.509838
-0.65056
0.00273234
-0.599293
0.59656
-0.0764073
0.00201479
-0.485477
0.986883
0.555456
-0.801257
1.11697
-0.42716
-0.177922
0.150657
-0.864803
0.0351753
1.19461
-0.42362
-0.0268768
-1.15457
0.221083
-0.0221177
0.269312
0.53675
-0.806062
0.547467
-0.126613
-0.420855
0.688196
-0.976392
0.288196
-0.123292
0.00950534
0.113787
-0.198176
-0.468178
0.666354
0.348146
-0.285616
-0.460794
0.174332
0.286461
0.13827
0.282352
-0.420622
0.0763666
0.108097
-0.854321
1.00475
-0.150432
0.0394753
-0.0121255
0.446601
0.195433
-0.642034
0.503958
0.391756
-0.895714
0.150506
0.489178
-0.0159714
0.990349
0.003388
0.783536
-0.786924
-8.62856e-05
-0.00662565
0.0316768
0.0796282
-0.111305
0.712476
-0.661376
-0.0511005
0.44797
0.541256
0.00747665
-0.0406664
0.0331898
-0.279874
0.803888
-0.524014
0.0123601
0.148627
-0.160987
0.37218
-0.723431
0.351252
-0.580582
-0.264754
0.845336
0.816302
-0.141235
0.294422
0.253046
-0.457936
-0.101875
0.559811
0.286617
-0.810331
-0.282633
0.3157
-0.0330668
0.18081
-0.0755206
-0.105289
-0.0386153
-0.0377921
-0.0725197
0.658299
-0.585779
-0.122388
1.04209
0.767997
-0.623045
-0.144952
0.619066
-0.544702
-0.529422
0.164799
0.364623
0.0512685
-0.458478
-0.176829
0.13398
0.0428481
0.0573185
0.130579
0.137751
0.735368
-0.87312
0.20448
0.182658
0.118267
-0.856183
-0.421245
0.172539
0.248706
-0.312366
-0.240505
0.552871
0.469513
-0.223047
-0.841482
0.554611
0.3058
-0.25128
-0.0545198
-0.483745
0.777205
-0.29346
-0.436282
0.441989
-0.424767
0.550538
-0.125771
-0.632368
0.890335
-0.257967
-0.0207189
0.193892
-0.173173
0.062549
-0.0649699
-0.316385
-0.625634
0.943152
-0.317517
-0.545215
0.672958
0.503428
-0.513137
0.00970936
0.00670126
-0.204334
0.197632
-1.13779
0.824799
0.31299
-0.0295413
0.0453136
-0.0157723
-0.0219772
0.610398
-0.908384
0.723715
-0.389956
-0.368338
-0.534881
-0.69582
0.699208
0.495656
0.00292243
0.376043
0.146864
-0.522907
-0.319577
0.297194
0.0223829
0.310107
-0.261455
-0.0486515
0.0971135
-0.415541
0.318427
-0.215479
0.510656
-0.295177
-0.754952
-0.223269
0.978221
0.177189
-0.170488
0.578375
0.134101
-0.877816
0.682335
0.195482
0.376113
-0.181653
-0.19446
0.00321503
0.170313
-0.220029
0.0497163
-0.655581
-0.362745
0.459858
0.128196
0.191049
-0.148955
0.303962
-0.114895
0.160229
-0.512046
0.0317663
0.267069
-0.293315
0.251297
0.0420183
-0.57547
-0.447358
1.02283
-0.0756076
-0.382329
-0.514315
-0.0793997
0.593715
0.130685
0.17303
-0.303715
-0.00434576
1.12866
-0.738443
-0.390219
0.172192
0.648838
0.0613497
0.435891
-0.409369
-0.0265222
-0.298662
0.789488
-0.490826
-0.570073
-0.228082
0.798155
-0.44188
0.180382
-0.410815
-0.118607
0.944286
-0.438005
-0.506281
-0.133308
-0.0537032
0.187011
0.382505
0.0522601
-0.434765
-0.16006
0.184267
0.0847361
0.0228315
-0.107568
0.148775
-0.0220298
-0.202539
-0.00681155
0.514744
0.429542
-0.468425
0.849969
-0.330125
0.933553
-0.184158
0.0508503
-0.839558
0.269485
0.712519
-0.625182
-0.0991596
-0.614476
0.120142
0.17764
-0.648843
0.701595
-0.707316
0.815517
-0.018089
-0.18744
-0.106298
-0.279952
-0.0783458
0.358298
-0.286667
-0.0295225
0.71626
0.142556
-0.858816
0.0285669
-0.248329
0.219762
0.00890442
0.306157
-0.904357
0.598201
0.86457
-0.0575885
-0.894778
0.938
-0.0432223
0.209283
-0.127498
-1.03973
-0.0980604
-0.336297
0.854975
-0.0294768
0.316405
1.11821
-0.421357
-0.696858
-0.610856
-0.0582259
0.669082
0.133535
0.519704
-0.65324
-0.686896
0.0349052
-0.169592
-0.143934
0.313526
-0.463781
0.600932
0.138373
0.507646
-0.646018
-0.588898
0.249735
0.339164
-0.929926
0.0928628
0.837063
0.227301
0.496414
-0.220634
0.537789
0.261108
-0.295569
-0.137138
0.731951
-0.86574
-0.0896884
-0.343897
0.433586
-0.403929
0.0956505
0.66912
0.0419551
-0.711075
0.620568
-0.950693
0.00992482
-0.048284
-0.577134
0.884632
-0.307498
-0.605793
0.391996
-0.0130839
0.264353
-0.251269
-0.00645299
-0.175395
0.181848
0.267679
-0.0686939
-0.238855
0.580355
-0.0285604
-0.216544
-0.143484
0.155754
0.305049
-0.229663
-0.0491809
0.021524
-0.174823
0.16881
0.00601271
0.193112
-0.215564
0.0224512
-0.704661
0.542993
0.110937
-0.625252
-0.0110428
-0.257376
0.027577
0.532856
-0.560433
0.308463
-0.328421
0.268141
-0.796979
0.528838
-0.33024
0.659708
-0.329468
0.23496
-0.947254
0.0479403
-0.025327
-0.923106
0.46301
0.700112
-0.737654
-0.103828
-0.65482
-0.245656
-0.394591
0.171268
0.238099
0.0961776
-0.334276
1.13556
-0.568095
0.905095
-0.222224
-0.222199
-0.145547
0.367747
-1.05287
0.421022
0.63185
0.158027
-0.24111
-0.0717999
0.609293
0.149852
-0.0867016
-0.501131
0.206915
-0.245807
-0.21525
0.257871
-0.0426211
-0.108419
0.824679
0.185641
-0.130117
-0.0555238
0.836002
-1.2741
0.588885
0.685215
0.229089
0.188579
-0.417668
0.558936
-0.184858
-0.374078
-0.502591
0.259294
-0.384223
0.00752427
0.374981
0.886493
-0.9715
0.385435
-0.169948
-0.388644
0.67526
-0.967927
0.688317
0.27961
0.407603
-0.759496
0.351893
-0.686508
0.725207
-0.0386987
0.413088
-0.521376
0.013279
0.227651
0.248485
0.0537622
-0.642066
0.192747
-0.894107
0.415178
0.478928
0.239785
-0.85064
0.735888
-0.0457704
-0.570756
0.133042
0.188617
1.01408
-0.335501
-0.678578
-0.397023
0.256449
-0.568816
0.141309
-0.950311
0.892085
-0.737224
0.371132
0.468041
-0.773646
0.633776
0.13987
-0.878267
0.590783
0.287483
-0.271383
-0.0889381
0.123818
-0.988924
0.688239
0.300685
0.60965
-1.00429
-0.841617
-0.012704
1.08642
-0.407356
0.326357
0.114257
-0.440614
-0.0199114
-0.124605
0.144517
-0.038363
0.486071
0.526698
-0.588961
-0.184686
0.172395
0.17575
0.226075
0.33444
-0.560515
0.356325
-0.211983
-0.0502132
-1.05938
1.10959
-0.321449
0.412333
-0.781022
-0.561196
-0.394844
0.956039
0.237273
-0.299998
-0.64822
0.203072
0.445148
0.00246315
0.00636981
-0.00883295
0.778558
-0.892272
0.194167
-0.771301
0.451552
0.295915
-0.747466
0.169222
0.160865
-0.785277
0.217097
0.56818
-0.867326
0.286744
0.492514
-0.791176
0.400038
-0.489727
0.000366147
0.002097
-0.0371991
0.975207
-0.586998
0.72553
-0.138532
0.931966
-0.00127971
-0.930686
-0.693155
-0.00887891
-0.212881
0.0630269
0.66579
0.109979
0.027922
0.33652
-0.239929
0.631506
0.488122
0.0898615
0.220245
-0.832606
-0.0601229
-0.860678
0.405004
-0.744432
0.162104
0.175948
-0.338052
0.831663
0.0451244
-0.876788
-0.0946538
0.0887749
-0.315797
-0.705011
-0.75582
-0.107355
-0.352959
0.973527
-0.318602
0.431562
-0.11296
-0.842706
0.267236
-0.259386
0.485461
-0.385091
-0.616784
-0.28261
-0.303087
0.335612
-0.442562
-0.0172576
0.983539
-0.128564
0.424227
-0.115192
-0.309035
0.0831231
0.0704675
0.235656
0.983877
-0.938974
0.0024775
-0.207949
0.298445
-0.47135
0.492526
-0.42431
-0.480963
0.197502
0.16483
-0.362332
-0.764978
0.0361609
-0.107742
0.7298
-0.622058
-0.0842736
-0.810504
-0.674234
0.775463
1.24439
-0.534625
-0.70977
-0.12765
0.316583
0.798664
-0.430715
-0.367949
0.243523
-0.265553
0.06877
-0.0370932
-0.199063
0.0475886
0.151474
-0.133697
0.509741
-0.408312
1.01796
-0.0292661
-0.131193
-0.257458
-0.0705433
0.328001
-0.012298
0.790856
0.135222
0.214622
-0.349844
-0.356502
0.534597
0.402728
0.40116
-0.322395
-0.0988503
0.483938
-0.172712
-0.311225
-0.0487514
0.0331583
0.015593
0.110917
-0.76002
0.649103
-0.879625
0.123805
0.201231
-0.360472
0.765476
-0.00459144
0.248114
0.108017
-0.426619
-0.973489
0.487922
-0.958453
0.32008
-0.416777
0.0351388
-0.397262
-0.549034
0.946296
-0.940627
-0.110096
0.263148
-0.153052
0.872514
-0.646946
0.713673
-0.580138
0.149499
0.496121
-0.64562
0.202384
-0.371975
-0.689759
-0.217061
0.90682
-0.118717
0.290749
-0.172031
-0.400752
0.85251
-0.451758
0.783961
-0.49306
-0.290901
0.772724
0.0208797
-0.793603
-0.517441
-0.756659
-0.303546
-0.00717303
0.344397
0.621164
-0.012649
0.0803235
-0.0676745
-0.639063
-0.146214
0.667707
0.57572
-0.50427
0.597168
-0.0928979
-0.0559629
-0.00108072
0.0753359
0.364564
-0.4399
0.0473669
0.138274
-0.113984
-0.87494
-0.828897
0.310243
-0.00444346
-0.133381
0.284267
0.0693051
0.695717
-0.765022
-0.480416
-0.121927
0.595689
0.217444
0.0632854
-0.213515
-0.171824
-0.0718125
0.243637
0.0940579
-0.341728
0.24767
0.296367
0.327094
0.185714
0.774367
-0.351997
0.855897
-0.443564
-0.101725
-0.230553
0.332278
0.7091
0.0709154
0.0275315
-0.624513
0.426337
0.460997
-0.473295
-0.488843
-0.431649
0.920493
-0.594171
-0.458701
-0.975379
1.01026
-0.0348807
-0.0594169
-0.362482
0.284136
0.525383
0.248984
0.0494007
-0.250583
0.201182
-0.309912
-0.620942
-0.138052
-0.720402
0.858454
0.453101
-0.228565
-0.379196
0.096563
0.555865
-0.871662
0.438315
-0.347942
-0.326407
0.97109
-0.644683
0.462669
0.479486
0.274417
-0.753903
1.01868
-0.61518
-0.403496
-0.353564
-0.708041
1.11329
-0.405245
0.136535
0.287692
-0.258952
0.25436
0.398787
0.761611
-0.187362
0.16745
0.0267667
-0.0282706
0.902384
-0.499319
0.433582
0.701976
-0.371471
0.191672
0.179799
0.21854
-0.452647
0.710467
-0.0413468
0.549651
-0.223294
-0.651244
-0.0904907
0.741735
0.167059
-0.0308521
-0.136207
0.120834
0.0905926
0.133471
-0.89169
-0.255997
0.276764
0.653648
-0.575272
-0.0783757
0.14199
0.341948
-0.131117
0.0690509
0.219013
0.22116
-0.440173
-0.472227
0.885405
0.235441
-0.518481
1.11134
-0.592857
-0.269621
0.407891
-0.321874
-0.267025
1.0469
-0.500121
-0.320664
0.160513
0.398423
0.269803
-0.280846
-0.13882
0.118101
-0.271522
-0.121454
-0.00328756
0.591881
-0.136906
0.762825
-0.625919
-0.017954
0.0380019
-0.329977
0.0853128
-0.288937
-0.0146092
-0.850984
0.593662
0.209149
0.220816
0.0658422
-0.308812
0.242969
0.26825
0.0478385
0.783096
0.430051
-1.21315
-0.0836909
-0.018166
0.101857
-0.272947
-0.514512
0.813429
0.430966
0.735196
-0.665891
-1.12153
0.124046
0.0200186
-0.163668
0.430996
0.700143
0.18392
-0.884063
0.334602
-0.0261393
-0.0301388
-0.294122
-0.0773485
-0.500557
-0.449004
0.500273
0.0866622
0.694853
0.540512
-0.53879
-0.00172172
0.161132
0.00767762
-0.0639831
0.223107
-0.0299947
0.702758
0.175062
-0.877819
-0.41549
0.20024
-0.201586
0.12408
0.0775067
-0.309858
0.00406998
0.305788
0.370969
0.459281
-0.83025
0.21152
0.257993
0.646643
-0.0152483
-0.235852
0.465113
-0.705043
-0.0421109
0.0569353
-0.0148244
-0.919487
0.512172
0.779224
-0.622435
-0.156789
0.0113315
-0.115772
0.10444
0.784108
-0.856628
0.538519
-0.0854186
0.260424
0.453249
-0.109261
-0.0121938
0.0743552
-0.065615
-0.00874024
-0.550001
-0.102524
0.997917
-0.510213
-0.487704
0.510791
0.0860053
-0.596796
0.367677
-0.640393
0.272716
0.0268551
0.472803
-0.00936738
-0.178102
0.560434
-0.382333
0.0349362
0.039419
-0.282128
-0.204255
0.0741377
0.679955
0.000674983
-0.68063
-0.315828
-0.249304
-0.044011
-0.0364099
-0.00425654
0.392728
0.491903
-0.132644
0.157258
-0.000171766
0.0469198
-0.13037
0.13453
-0.352185
0.501684
0.0128165
0.193572
-0.261615
-0.295299
0.70602
-0.030548
0.57106
-0.124548
-0.09634
-0.21926
0.438274
-0.194656
0.798681
-0.604025
-0.743877
-0.0996671
-0.435052
0.770491
-0.335439
-0.0778857
-0.126369
0.276636
-0.0586924
-0.019526
-0.206844
0.22637
-0.753063
0.252943
0.0910173
-0.107661
0.447
-1.11074
0.305728
-0.872991
-0.213262
0.672756
-0.317046
0.451685
-0.230525
0.0132064
-0.592236
0.703153
0.00139052
-0.130118
0.130081
-0.48796
-0.0839109
-0.548528
0.632439
0.23193
0.322471
1.14233
-0.747245
-0.395086
-0.197089
0.0576613
0.180238
0.0199635
-0.200202
-0.721812
0.134815
0.155205
0.0256044
-0.00540477
-0.104157
0.109562
0.377515
-0.812567
0.0759446
0.406122
0.0209242
-0.427046
-0.884898
0.690242
0.118661
0.0327979
-0.151458
0.303469
-0.929104
-0.11973
-0.00150994
0.12124
0.151913
-0.0332525
0.00462133
0.64663
-0.496123
0.541101
0.439231
-0.227711
-0.800567
0.239371
-0.60935
0.488515
0.120835
0.425999
-0.914843
-0.435984
-0.273401
0.709385
0.0762443
0.343772
-0.262274
0.215211
1.00905
-0.131267
-0.877788
-0.00197492
-0.830631
0.705027
0.0676967
0.379025
0.419639
-0.134586
-0.0027928
0.118128
-0.255628
-0.289137
0.0526025
-0.0720038
0.0194013
0.0188573
-0.686972
0.668115
-0.0401711
0.238525
-0.198354
0.286811
-0.809865
0.523054
-0.0951533
-0.485839
-0.0278401
0.0208019
0.604776
-0.293022
-0.173705
0.466727
-0.31229
-0.365595
0.387118
-0.222289
0.00445965
-0.192319
0.187859
-0.26723
0.333072
-0.827811
-0.119587
-0.0205105
0.140098
0.100511
0.275239
-0.37575
0.694831
-0.802801
0.10797
0.0167217
-0.487718
0.140152
-1.06528
-0.440101
-0.586095
1.0262
-0.84719
0.0368919
0.810298
-1.16829
-0.703956
0.0174481
-0.230017
0.237763
-0.00774583
-0.976309
-0.31272
1.01548
0.325046
-0.171554
0.0693981
-0.288659
-0.15057
0.408563
0.124624
0.0713936
-0.328852
0.0127842
-0.0988166
0.0860325
-0.204961
0.0704346
-0.0669163
0.0782478
-0.225847
0.454936
-0.92116
0.591068
0.330093
-0.309038
0.36586
0.538923
0.168272
-0.00121299
-0.22104
0.27044
-0.42133
-0.22689
-0.471557
0.172742
0.298816
0.0799161
-0.047183
-0.0327331
-0.343027
0.437084
-0.0586438
0.628272
0.588418
-0.453196
0.490755
-0.803045
0.386787
-0.514791
0.128003
0.0848579
-0.000518601
-0.262336
0.0168607
-0.941398
0.544136
-0.133468
0.644259
0.0137405
-0.163295
0.149555
-1.24427
0.509171
-0.149289
0.177095
-0.162711
-0.0153736
-0.187249
0.202622
-0.4842
0.191178
-0.95102
0.837036
0.832287
-0.380735
-0.147613
0.132087
0.0155256
0.218692
0.132336
-0.125135
-0.9797
0.371483
0.608217
-0.115929
0.0977627
-0.0573367
0.233606
-0.176269
0.348159
0.19036
0.0242013
0.00780591
-0.0320073
-0.218037
0.230854
0.0072343
0.117373
0.520629
-0.746359
0.932925
0.0417039
-0.255423
-0.129889
0.852931