/*--------------------------------*- C++ -*----------------------------------*\
| =========                 |                                                 |
| \\      /  F ield         | OpenFOAM: The Open Source CFD Toolbox           |
|  \\    /   O peration     | Version:  2306                                  |
|   \\  /    A nd           | Website:  www.openfoam.com                      |
|    \\/     M anipulation  |                                                 |
\*---------------------------------------------------------------------------*/
FoamFile
{
    version     2.0;
    format      ascii;
    arch        "LSB;label=32;scalar=64";
    class       volScalarField;
    location    "6.1";
    object      p;
}
// * * * * * * * * * * * * * * * * * * * * * * * * * * * * * * * * * * * * * //

dimensions      [0 2 -2 0 0 0 0];

internalField   nonuniform List<scalar> 
13486
(
22.0381
18.1482
4.49995
-32.0229
7.63054
0.147086
5.6894
12.1878
15.1286
10.1038
-44.6792
3.98327
23.0828
0.503485
7.59635
10.521
-37.1934
1.01465
5.70183
20.0267
-22.5977
22.8652
17.8085
-21.6585
8.93262
-18.9745
-42.8859
-5.97241
0.190204
-5.92308
-15.4863
7.14554
-14.7484
-1.80115
12.2318
-1.14439
-70.5302
17.9162
-4.16207
15.1896
0.229012
23.9639
2.2674
9.1108
8.95599
3.79272
-33.3592
0.139373
-70.7034
-6.2075
13.677
4.9218
1.63238
18.2751
-1.78858
7.9645
4.14044
1.61376
-13.9178
-27.8762
-51.6629
-30.2514
-26.6567
-21.4359
-28.1231
-57.582
-36.7934
22.1879
15.0294
-4.13593
-36.7271
-0.161052
15.5566
-32.8629
-34.0868
4.31845
-35.1147
7.37109
-33.6053
-6.16743
-0.57398
18.3128
-27.2033
4.26305
22.1061
9.25289
-61.8436
13.0661
15.5094
11.4517
4.40009
10.7402
21.1091
19.2004
15.5072
0.00409737
-43.6296
-45.1771
15.1594
-37.5184
-1.04331
1.08204
-45.7964
7.87428
12.2096
-37.2792
15.3056
-4.29251
-33.5354
9.47698
14.4476
8.90137
18.2466
3.74074
25.8537
14.7036
9.19795
-0.400315
15.6811
-38.4238
1.43691
-51.2332
16.2696
-2.85435
14.2301
6.19005
11.3569
5.2537
0.965238
-21.0196
7.44858
-33.4186
-30.318
-32.7921
14.1904
13.1326
25.2633
9.72824
-33.7692
12.7398
-10.9583
1.81684
5.32641
-6.74368
3.63716
-29.0625
-7.17466
20.6653
-6.75229
0.145682
9.65679
6.50069
-0.499504
18.7857
5.95761
4.60876
7.40763
-3.15353
16.2419
0.247739
-4.22984
16.2371
-0.386396
23.7849
6.33664
-2.03761
2.49212
29.7458
-7.26527
-32.6998
-35.6971
6.00541
11.2369
9.22272
-0.565846
-74.9692
-1.01596
-13.149
15.3613
5.22972
14.4271
3.62609
7.82967
-49.838
3.50482
-5.85566
0.0523136
-4.08467
0.633941
15.7609
-53.4051
4.81174
3.47614
20.4187
2.74558
-44.2626
-22.612
-3.86333
19.9941
-1.09008
-16.1995
5.11054
17.9009
5.48924
0.0916054
4.447
0.358559
16.5799
3.61621
3.73978
-5.06927
-19.097
19.7965
15.2986
0.141891
-4.99681
-6.11363
11.6467
20.0491
-15.2427
-37.0987
-6.82206
13.0253
-4.40744
-0.340108
21.3771
-2.10347
-37.9441
-1.67929
-62.4819
14.278
-12.4507
-11.6337
24.5073
-38.1722
20.6286
-2.43379
5.19549
20.8704
7.71561
-14.863
11.1272
4.0317
19.6726
-12.3377
17.3192
7.81525
-13.1496
-32.8619
9.99039
-63.0051
26.0917
13.9719
-4.68266
-2.26807
-79.1943
6.76317
-4.66653
-2.93119
-14.8341
16.8341
-13.9265
7.72325
-78.107
7.58625
-50.9217
-2.38907
-19.571
14.7403
0.051765
16.5497
15.0299
-6.39781
2.07648
21.46
-11.7077
-1.47549
-9.09079
-4.32366
-7.42457
-9.46215
12.8837
15.5292
-32.8768
-52.7664
-39.1387
-11.0271
0.453389
-0.468055
14.8326
-35.5785
-21.1122
15.5328
14.1697
-2.02337
-3.51407
-4.07753
2.04652
15.8114
2.03677
-1.37813
0.269814
-7.50871
7.26632
-57.8942
4.82359
-13.2612
7.96169
-53.4425
-55.4139
-25.3537
-29.8437
1.37821
9.64169
-44.2818
13.3007
-19.6727
15.5147
16.646
-2.51931
-65.6974
-23.0315
15.2276
19.3301
26.1309
4.14473
10.0825
12.6878
1.53166
9.55633
13.1642
10.264
3.02358
20.8441
4.98865
14.7214
26.7595
6.61772
10.382
-14.9577
-0.30612
19.1149
9.27094
8.0065
-56.7948
0.110623
10.8133
25.7771
-15.4699
-19.55
10.5973
1.21762
1.89566
-44.4333
15.7061
-7.36875
-32.8952
11.3236
-54.138
-16.8831
6.12165
2.77298
16.9991
15.0756
-6.42466
-0.111664
-2.74279
-33.287
20.2396
11.4501
1.99599
10.9344
-1.42057
-65.4241
1.13408
13.7546
15.2202
-18.2832
-43.8384
-22.1717
14.5017
9.65957
23.1891
16.8599
-32.9953
-0.740782
3.05007
10.1996
-34.6425
-9.73165
19.4644
-6.38442
7.73832
20.9764
22.0317
-18.3689
-33.859
-64.2989
-35.4627
-11.4046
-34.9133
6.16477
13.7904
-7.62864
6.252
-18.2976
19.0507
-12.6816
11.3652
17.3881
9.75382
-4.72066
-7.45576
15.847
15.1447
19.3951
-51.3693
7.8353
-33.8215
7.92504
15.3568
11.534
25.8308
10.8015
-3.09131
-3.76662
4.98869
15.5222
-42.7856
3.08614
22.7299
13.8202
7.57941
-1.38291
6.21795
-11.8029
23.0897
-21.2477
9.40722
21.8396
-34.3703
-6.32632
-32.1098
-7.805
-80.3103
17.6594
18.7241
22.8039
-22.1685
-48.8504
-57.0621
10.6114
15.7189
-6.12223
-6.954
14.9108
-55.0401
-75.2475
-35.0324
-29.0544
2.10411
18.7424
-0.636324
3.35659
-25.452
14.8907
0.141264
28.0946
21.2898
15.3755
11.4563
-1.90969
-0.014398
26.6394
5.00897
-25.29
-3.33687
14.796
-39.2108
1.57923
11.4948
-12.1344
-3.14537
17.6369
-13.5194
-36.0369
10.8202
-9.9083
29.4992
10.9282
13.7609
16.5378
-76.5298
3.47668
24.1734
6.72289
19.4008
2.64807
5.89759
-22.8517
-6.14886
2.34069
-37.3971
15.8923
14.5116
-65.539
0.0618263
-0.333114
22.2232
17.7091
-0.112266
14.7966
11.6076
-2.87942
7.46549
13.8299
-32.4435
22.8342
-11.3458
0.650548
23.83
9.7592
-1.71681
10.6941
-26.5054
-53.9733
6.74773
8.81064
16.4255
21.202
-46.8623
6.12376
-47.3394
0.0550913
20.5334
5.64751
-50.9271
-48.4745
11.7531
-4.97534
11.9418
-28.0274
-6.83631
14.8156
20.6145
-10.1319
16.7552
-29.6684
-66.0902
-10.5881
7.35922
-55.1704
16.593
3.76569
-54.6479
12.8875
17.4012
-15.9929
-47.7786
13.838
20.6081
6.56743
22.2008
3.60033
10.9891
5.09775
16.7075
3.56241
20.082
-43.6939
6.62657
14.192
1.27488
-10.7785
15.1837
-34.2875
2.38823
19.045
22.8106
-22.682
0.578906
6.10425
0.742606
13.8711
11.9081
3.5137
-44.9002
2.25401
21.8179
4.32315
3.52983
-39.0771
22.889
-9.73329
3.84933
14.7217
11.0327
-6.90229
1.4203
12.4034
1.70644
-58.7672
7.05464
-9.59711
22.2847
14.5729
10.7759
11.6191
-0.912871
-11.1607
25.0011
6.25256
25.0298
-35.4155
14.9734
-1.75939
-32.803
8.58727
9.89353
26.178
-48.4785
9.32352
9.81109
-16.3976
9.76573
1.28016
-1.7747
14.8288
-48.0593
-10.0921
-13.3012
1.91197
-1.59646
16.452
-0.723529
24.2995
15.0214
-2.43777
-64.9556
-4.39572
6.38167
-50.6253
0.231347
-37.7822
20.5142
-0.121185
4.1237
-72.5715
23.2944
0.39385
-5.36271
23.8096
13.7485
-55.4477
-5.03453
11.2043
3.27421
14.0386
3.89993
-28.5283
6.97655
14.0086
6.05634
12.8187
24.1208
3.81688
-63.2167
15.1269
11.6938
-0.335601
10.6379
11.9233
8.05832
-52.7005
3.89529
-18.6841
1.02414
20.4888
6.15905
1.25242
3.94734
-1.22038
4.89151
16.0389
2.3071
13.5605
14.436
20.8878
1.9987
-5.77967
24.8432
1.70767
-54.6966
15.829
-12.286
17.2178
3.72668
14.7573
-9.60488
-32.9515
-19.6989
-0.516929
-36.5792
9.35874
25.5381
-4.81152
-27.7902
-2.6966
16.1964
-0.436439
8.00372
-67.4276
25.3245
-51.7722
8.70551
-6.46719
9.92718
15.4773
8.30335
-20.1413
-17.012
23.5934
15.0848
5.89398
13.8505
-0.811544
12.1038
11.8423
10.0514
-30.3282
0.812149
18.7651
6.85378
-1.16045
12.0256
-55.1652
-5.15696
1.67255
16.3102
16.3704
-51.8729
3.10639
-53.2388
-18.786
2.23008
-1.69533
3.28062
14.7129
2.32634
-8.37204
17.2766
-3.64537
-19.9998
-5.10973
-3.93819
-51.4145
-19.9691
-16.2315
-80.7716
14.0043
23.1155
-25.6956
-19.0474
23.8404
22.4039
-23.106
-20.7659
15.2522
-33.3954
4.10652
-2.81279
2.79346
8.09265
-36.2399
7.86162
11.0756
-3.29112
-12.3729
-17.5192
0.467064
12.996
8.84311
10.3323
-58.1501
14.1112
21.8567
-35.46
-80.3429
16.5086
4.09938
10.78
-6.44667
-5.40985
-60.3313
0.660318
15.695
25.1202
16.5465
-5.31115
0.977775
15.2666
21.3756
0.436831
15.7279
15.3098
22.6808
6.95065
-17.3961
4.11696
1.94909
22.2718
3.1157
5.77999
11.029
-1.10577
4.27855
1.03824
-10.5522
14.8338
14.6468
11.3922
8.61927
-33.2089
-1.22503
-1.68258
8.12631
-10.334
-2.65007
3.80779
-70.3892
-55.7471
9.17265
-5.02244
-32.816
-31.3356
-10.8869
10.5867
-42.2147
-72.9205
16.8587
-28.4656
22.9159
-37.3059
-32.8828
17.3615
20.6677
-25.9855
3.10294
1.93093
15.9025
8.06488
-19.6361
-7.68601
-68.2868
-11.5218
14.7433
4.21385
9.98669
-18.7508
14.8648
-42.2803
3.90766
-6.95089
18.0587
-8.76584
-46.4829
-37.0443
22.7318
1.03621
-64.2146
-41.3098
15.2406
-68.602
-21.4554
4.10439
8.19836
-8.25457
10.6042
-26.0265
13.7148
14.854
17.176
8.16144
5.71203
-5.33488
12.2492
-1.41479
17.6355
11.9052
-6.94277
-6.05161
-1.4764
1.34295
-48.787
17.1773
7.3533
14.1017
15.2082
0.256032
12.2981
25.9095
0.969726
-13.8335
11.186
-33.9711
-0.160714
-2.01029
-25.0857
15.267
3.97969
1.67479
3.47384
3.71023
18.9315
-55.0614
-0.263912
15.252
-28.1759
21.2359
17.3213
19.6974
4.41798
11.3349
5.48626
5.26524
10.9432
14.8894
-13.9958
0.852527
-32.7138
-9.28415
-73.1732
15.2547
-25.7696
-19.0337
-69.2875
-8.56457
-10.6241
15.464
-4.15122
3.60373
-31.885
15.215
25.5547
-21.0057
-47.3139
9.76083
-2.4781
15.1656
-1.71448
-11.0734
17.7286
9.18226
24.1929
10.9341
15.173
-4.82513
19.259
4.22639
17.4223
-14.854
-16.1136
-1.04478
-49.622
10.2992
-16.2551
-9.02599
22.8886
15.1921
16.6022
20.8665
16.9327
18.0104
-1.95113
15.3746
15.2076
15.7248
2.12917
-2.23654
-6.72067
-6.04787
5.21741
16.4995
-32.9791
24.7064
-8.56241
3.93862
24.9151
21.1335
1.05676
-32.9169
15.2495
9.23354
-1.43556
13.96
-32.9144
-2.90929
15.1404
20.3763
-8.41687
16.2017
19.1087
-0.23104
-3.79559
19.2492
7.38873
-55.6843
-46.5245
4.31772
-10.2432
14.5558
12.8326
-49.2676
-6.49514
-8.02396
6.05158
7.40454
4.22207
21.6655
6.44238
27.7015
15.3254
5.66234
16.9506
-56.8616
-33.773
-65.5062
15.2942
-8.33296
-31.9169
-14.7733
8.54945
10.1434
-16.2066
10.0863
-32.825
8.54254
1.56472
-20.5336
12.5161
5.46736
19.1575
15.6517
16.2292
14.6064
1.20916
-12.4757
-8.6755
3.7523
-26.9863
1.08668
12.3391
-22.0759
5.18345
-36.25
-1.92397
-68.7325
11.2939
8.72041
3.4726
-9.53476
8.33887
-6.52382
-12.6661
1.01666
-18.64
16.1866
11.9518
18.897
-33.1358
13.9947
3.7491
20.5928
2.52152
9.16853
0.979045
0.433101
23.7335
24.7868
12.4507
7.44408
11.3215
13.73
24.0118
10.1952
-13.1654
-68.908
2.88441
-7.45374
-33.0642
15.1737
14.9087
-8.07516
2.7045
11.9608
13.9763
26.1544
-28.5938
12.6457
-35.4725
-3.02241
21.3174
4.13918
12.4502
-17.258
7.56862
6.61338
27.1792
-85.2427
-6.75398
8.70528
1.3972
-55.1023
-32.6778
1.55127
16.9797
-6.91649
7.80667
22.3617
20.6685
3.42973
-19.9286
-69.0435
4.5413
17.1528
14.5948
20.3878
9.81379
-41.103
21.4188
13.357
-17.6703
11.3736
15.8712
18.4686
-45.1919
-12.9918
0.0197151
13.3783
23.4995
8.70069
-2.71518
-10.4763
26.225
-36.6406
-10.6695
24.4357
13.7069
-3.56948
12.2114
-35.0259
9.04672
-9.54517
-37.1877
-13.2846
-70.8318
2.68239
-6.17496
-33.7953
-36.7427
-31.4031
0.866162
-35.201
-62.8937
15.4835
14.4652
7.09931
-32.6633
6.58533
4.30745
0.784108
27.5083
9.76281
-7.41252
13.7066
-6.50118
-72.8925
11.8952
11.6747
14.9111
27.9087
0.3329
4.07625
-21.8615
3.38598
10.211
14.2932
-2.77394
21.6252
11.7433
16.1471
-22.2637
-7.17005
4.41256
15.2504
15.3235
15.6714
15.3782
25.6065
25.14
-6.31166
13.7588
19.0523
-7.06145
20.3933
3.61561
24.8031
20.2777
2.60971
17.2137
8.83997
11.3325
4.12877
15.7828
-11.7536
13.3235
6.79452
9.55397
0.181717
14.9807
7.81461
4.87274
23.9639
23.8713
10.3503
-32.6275
4.64598
-1.26862
3.35817
12.9683
21.4573
-33.3881
15.7641
14.3685
8.21698
15.1825
-75.881
-16.7101
-38.3782
26.2215
7.52277
-46.2115
17.635
0.028425
4.39657
8.59084
2.73734
12.2917
4.95758
-4.70835
9.83819
11.8442
9.89084
11.059
25.3162
20.9283
18.2133
23.2131
23.6246
8.29226
5.94686
-0.941429
-10.1099
23.6759
-22.1763
15.092
13.4927
-60.3837
8.67542
16.6854
-32.8493
8.33031
10.9491
28.1917
-44.4544
7.43677
-5.38237
16.6862
4.63714
-37.5546
23.3125
19.8932
14.4906
15.2461
-8.02822
5.57648
-37.34
25.0635
-5.2916
27.0022
-5.90387
-1.46563
-33.4315
7.27759
-32.8361
2.6056
-2.13981
6.62197
-49.1169
6.55725
-43.5045
-0.186649
-14.3865
-33.463
-5.52531
-20.4192
-77.3141
7.4489
-21.433
-53.6678
14.9429
15.2396
19.9504
14.9506
7.40094
6.59654
29.6672
14.7831
-42.0753
-0.762829
0.886767
12.3745
13.4243
21.6287
-10.0948
-10.1913
11.6636
-0.238469
4.55649
18.9338
-33.118
-59.4055
-36.8685
25.372
-43.808
11.1591
18.9302
-5.4253
11.8921
5.75169
-45.2059
-45.5567
0.336403
11.1763
17.4281
18.6184
-21.5537
-33.3083
9.29461
-33.896
-7.09756
0.811687
3.66703
-11.5479
-45.0825
-48.7925
-45.1332
-18.687
22.4123
-24.6376
24.5544
-57.0065
-6.5956
7.67849
-0.559168
20.8103
14.2935
18.3056
-44.515
-9.4713
-44.9068
20.1459
-33.1785
11.8904
-15.9408
18.5817
20.8061
-14.434
15.1574
23.5367
16.1991
16.2309
-20.9668
-7.03747
7.60652
-11.4189
-5.66712
9.10149
10.1305
4.59726
-43.1934
4.09194
2.03887
12.612
10.6275
-5.10459
24.7205
3.82273
0.0955069
1.04582
14.8656
-19.7149
0.243852
16.0876
-4.39193
5.0509
-0.825888
15.406
14.9125
14.3853
-42.6309
14.6305
17.3938
16.7236
-5.58526
4.06328
5.34142
13.1004
-10.233
-32.6866
-59.8854
-14.9304
-34.9285
-0.524387
-1.69457
3.63414
-33.1134
-6.89145
-66.9652
1.73771
-12.6395
7.01249
-49.2597
16.2189
29.8536
6.88634
-12.9654
8.24765
3.7414
4.58315
1.47501
-6.62259
-68.9094
3.81816
19.4335
0.269357
23.1593
1.38789
14.3479
12.1499
7.81341
-33.4817
8.06627
25.6869
-22.7863
14.9444
14.7798
21.5499
3.37463
19.8296
15.6513
-33.1548
16.6578
-44.0716
-37.3213
20.2587
13.7356
-18.7812
3.79255
19.2875
-0.408851
-34.7806
3.62256
3.71939
12.743
9.31818
15.6715
13.6465
13.0357
-22.2479
-6.03476
-5.43071
15.3448
27.0357
-8.19085
-35.4385
-33.5464
14.5776
3.90047
3.35153
5.93409
2.39022
11.8193
-7.04357
8.10931
24.2478
7.78722
-0.105171
-18.2456
-51.5456
-12.3699
-35.9092
-18.3836
-61.4484
18.049
9.20222
-7.34472
23.7747
-0.671592
-46.6583
-13.4119
-37.4534
15.9981
-30.2893
6.4901
14.8321
-78.9265
-4.79182
-8.62383
-41.442
-32.0921
16.6622
-65.686
-2.11376
-36.8562
14.8018
16.2246
-45.3653
18.7779
17.3593
22.25
22.9849
16.3686
2.26883
26.1653
-36.3316
14.2329
3.51854
-57.4625
18.3879
-55.8266
22.5902
8.54354
-12.4377
-33.7923
-33.3173
16.3882
-59.5697
-17.9403
-4.49627
-6.14169
-0.198565
10.3234
4.67105
11.1953
25.3444
-32.7899
-18.253
-1.9919
15.1167
12.4912
-15.0932
29.5582
0.462131
1.24885
11.1285
-10.3784
14.5975
15.3028
17.0783
16.8662
0.949705
8.94772
14.4992
4.05111
-12.6261
-4.08503
15.9937
16.8734
20.171
-19.3721
4.62991
6.79888
10.1089
2.10875
-44.6119
13.1318
-18.1737
13.6559
15.7721
-37.0174
23.0867
-28.5688
25.2056
16.8894
-72.9444
0.393227
-53.4588
8.61581
16.1906
-79.4448
19.8865
14.7348
7.19292
3.26896
4.43213
-0.324469
6.98747
-36.8079
9.12043
-29.573
14.947
-33.4303
1.40367
-6.45688
18.5094
20.86
9.80999
-33.0977
8.68376
-0.491698
4.16771
9.57591
-9.85241
-14.8446
24.5503
-4.17645
-4.45059
-11.0788
-38.2482
-4.81432
15.1156
-36.9689
-1.22764
16.1327
10.102
16.3111
-55.758
7.72028
24.9197
-21.7751
15.155
6.58272
-9.64412
6.57875
4.13482
-1.06885
25.3191
16.9637
-24.0974
24.7254
19.1471
18.4823
-33.9635
-33.552
9.23815
-13.6143
-1.65346
-25.8562
-11.8246
-24.2702
12.1144
6.57163
9.14649
10.3456
-9.29307
10.7654
15.3809
-38.1251
15.2744
10.3931
15.0265
-1.0634
-12.2682
-46.6625
-35.7433
-53.8684
-2.22047
15.2138
-59.7855
22.5128
-58.3216
14.6543
8.82121
-23.0704
3.52313
15.5094
8.56439
5.52216
13.5598
4.37079
0.0871237
21.17
18.1421
-16.774
-30.7037
-4.47401
13.8754
2.45803
5.49609
-20.6658
2.25617
6.38715
-48.1481
13.2741
12.06
-0.911154
8.46501
2.07959
-6.84746
-63.8338
18.584
-49.3794
15.0599
0.099209
13.4733
15.9617
9.77152
14.018
2.51273
-44.1056
-20.213
-32.0216
-59.1571
-25.834
1.33151
-10.6222
12.7152
1.42716
14.8178
-6.30404
2.09529
-18.3047
0.0669397
15.7747
-45.8064
14.7296
4.38583
-64.9872
-5.18002
-52.4388
11.0607
15.3315
-11.9512
2.71851
-30.8221
17.0813
6.08263
6.70575
-57.3239
18.6303
8.13593
-2.19049
16.1754
15.4106
17.9104
8.50859
18.7841
-22.5056
0.780846
-9.20847
13.9819
10.6628
4.5808
0.171706
-34.4243
-74.0491
9.07548
5.31807
-78.2678
24.1522
-23.4277
17.5753
11.2684
-18.98
12.3188
1.69058
-8.41982
3.65138
1.34925
14.5818
-22.7949
15.2562
-19.0994
5.33432
-13.0639
9.33952
-37.364
18.1511
24.9508
16.5321
7.70767
1.7021
11.2254
-42.4398
2.34946
-55.7882
3.41237
-19.7139
-69.8349
-41.812
-6.98671
13.4251
14.3614
-27.1986
4.66625
17.036
-6.10403
-17.0556
16.4095
4.0389
-48.6059
3.12445
-0.707373
0.308443
23.8097
-57.8745
14.1239
-10.9511
-6.47849
-5.97479
14.6768
8.38763
12.2629
-7.48627
-8.87618
3.23861
7.23015
17.3904
13.3696
4.73732
-8.30408
-2.04529
25.8707
-14.1813
16.868
18.1843
2.2939
8.62997
7.62157
-32.9865
-9.04879
13.7159
10.0194
14.616
-65.828
16.6145
3.77382
21.1074
7.99237
13.9218
18.7927
13.1823
2.23465
-54.6499
6.42868
-38.5136
12.2911
8.31525
17.8529
3.49011
22.1202
2.28085
23.6318
-3.54768
18.4296
0.465258
11.6398
-39.4233
14.6861
8.2952
8.10308
22.8107
15.2341
3.79603
-5.73355
9.28142
14.4453
3.01409
-35.7178
11.1551
-10.3733
19.2075
-46.0218
22.6248
5.47472
29.7118
22.9519
10.4577
9.25331
-40.6372
3.04057
24.307
-1.36311
1.49614
0.855884
24.6144
9.04695
12.987
21.0865
-7.06933
16.3175
-1.026
17.4858
4.53993
16.461
15.347
20.3075
7.81046
-32.9251
5.1193
-52.2076
8.21935
0.937059
-61.1397
19.5242
21.2973
1.51169
4.31836
1.64655
19.109
12.5995
13.8463
10.2748
-8.04111
-30.1791
-27.1245
15.6656
-18.6536
-4.60218
4.63095
10.946
7.98456
-5.9446
25.5623
-7.94366
22.4593
3.63025
23.8901
-6.68951
8.88701
-25.9618
4.43456
12.9346
14.9971
-2.65825
-4.50932
-1.61474
-5.56723
21.1527
-1.48838
2.27572
-13.2075
-3.46093
3.76961
17.8868
7.50808
-1.18065
-5.87752
15.1526
27.077
-54.3186
1.29794
14.4878
2.85604
8.69087
-16.2732
10.109
-4.6251
-32.649
2.34636
-18.7959
-5.36063
-23.4561
-25.9928
-38.5702
2.44341
12.5748
15.9813
13.5641
26.3153
-49.2229
24.396
-30.8155
23.2906
-79.1753
-8.14992
25.4737
7.76265
-27.6859
14.4629
10.0114
15.9146
-11.5414
-37.262
2.53704
-6.2456
-9.93602
-0.521681
-2.2791
7.40089
18.1313
-69.3029
7.90936
-18.6385
5.60516
-10.9232
-3.16074
2.56397
-11.1341
-14.8712
19.8826
4.38134
21.917
6.50499
-45.0397
6.93031
-8.66836
-23.0144
13.4931
18.4693
26.4238
12.1849
13.7686
7.55472
-32.7715
25.6192
27.2379
16.616
-5.88585
-65.3752
-38.3157
13.957
9.83992
7.51041
13.8997
-16.5841
-6.83228
-38.5341
22.4633
-1.00919
3.74556
-41.1234
14.0837
7.22785
29.0652
27.344
13.6243
4.06265
7.85361
-26.034
8.08778
27.9274
7.53043
-34.5444
10.9529
0.467177
2.34229
0.069015
-2.14774
4.23448
0.802092
7.56696
-10.2755
6.46684
20.4689
3.34787
15.9221
-44.4298
-2.77472
24.6149
-29.0391
8.19089
2.86895
8.02381
5.31818
-46.7821
1.61922
0.740893
2.18813
29.1689
-33.7576
-26.3816
-29.9118
-5.11781
-0.214578
3.06556
-41.5828
-23.8601
-1.79011
-25.7819
-7.70868
-10.7204
5.47986
4.51099
3.49854
28.7466
3.59682
4.99964
-6.0437
4.80998
-32.8854
-2.67027
20.654
15.269
5.18757
-3.56605
14.6247
16.0555
3.31998
-72.0525
-47.9728
20.5436
-6.47621
14.2612
2.6617
22.4591
-1.31377
-48.2863
2.47248
16.4637
-4.78567
13.9425
-7.17652
27.7271
-41.0853
-1.13331
-42.2647
8.72304
-50.4772
-9.10559
-43.4515
2.56777
5.87226
-70.3311
-11.8809
8.19665
2.87327
-16.1596
-7.7964
12.4514
-37.0104
13.1535
-46.1267
16.6254
25.4144
13.7015
-33.7593
14.8477
2.96402
4.88086
7.00928
-3.31615
-38.7426
-60.7784
-7.50471
5.78116
2.23551
-4.96757
-3.7753
-39.906
8.36606
15.1369
-6.80412
-51.1759
-2.17971
-18.0603
-4.4659
9.7371
-21.579
-54.0343
15.7506
-7.76262
7.89503
-12.5703
-40.5338
-49.1298
-49.8614
28.5085
7.22049
-8.95351
7.10636
24.2538
24.6749
-51.8627
-0.739475
15.0915
-8.46865
-66.3849
24.6637
9.1372
12.6735
29.4633
-1.37883
3.73629
4.30319
21.9948
15.7692
15.1303
19.2435
11.6252
2.484
4.84464
8.39753
3.51702
-35.3297
25.0686
-1.14709
-3.83137
-7.29983
-14.2933
8.67925
-41.1789
-2.19393
3.74187
15.4473
16.442
16.7597
-41.8661
21.9083
24.4622
-27.9736
10.1979
-7.27368
-8.63434
7.1887
9.97525
-9.57164
-6.25659
-6.91395
27.0791
-44.1745
17.0526
15.3097
19.3878
11.1344
12.1255
-4.96819
1.93004
8.09421
7.6321
-35.9189
-17.6083
4.66536
-36.5744
18.2278
-67.3491
-43.3187
5.0425
-32.7599
-47.2504
-36.8105
13.5087
-0.565742
-75.4358
7.84688
-35.824
7.15496
-28.7643
-7.85425
16.2841
-45.8317
25.2191
-7.67074
26.642
-0.465332
-62.298
4.36767
13.6906
12.9675
-23.7015
-0.420583
-0.0456792
4.31778
10.9208
29.8321
19.3733
7.57812
-5.92965
8.92579
-0.785229
16.7531
-5.5495
10.0731
-29.4621
-41.5866
-34.5985
4.33636
2.34518
-35.49
10.819
10.374
24.1519
26.0399
-36.0416
-39.0721
-1.15331
-9.92439
25.2497
1.05708
-2.25523
7.83928
11.8014
-25.9993
5.37807
-1.31713
9.70415
13.3042
-19.3255
3.59581
-18.9918
-7.27421
-21.4693
-1.06947
-21.1358
-19.3336
16.2943
-55.1187
-44.3665
-3.94664
2.0943
27.4285
10.5991
14.4459
-10.6717
8.87476
1.37339
7.96257
6.16048
-42.1929
-32.9911
25.1617
16.069
2.00841
-33.3748
28.5337
-49.1623
-30.4577
-26.4974
8.13274
-53.0597
-24.8669
21.9926
1.35995
13.8031
7.49412
-33.2422
9.29484
-92.699
8.04185
-22.2637
2.31507
6.68826
14.8324
-54.4586
-32.3553
1.69598
-6.7508
-11.2513
-10.7936
26.9131
10.9043
-76.6404
7.74793
5.6749
23.5838
9.30007
-33.3409
8.9217
18.9455
15.8112
-7.15092
13.9537
-4.9673
24.9874
2.00086
15.7548
-49.7896
-6.39516
-16.8717
-34.7097
8.63603
6.75172
-33.4522
-57.571
17.5194
-3.45105
0.940706
20.5998
12.6059
20.0885
14.2555
-9.30849
1.17359
2.58289
14.7999
0.028146
18.1715
11.3064
24.7211
-38.9321
19.5933
6.69609
25.0693
-30.979
-6.48741
25.5519
-41.0313
10.9061
-43.5034
22.0396
24.6815
16.3513
-16.0721
14.9942
19.0731
-15.0874
8.15113
-42.62
20.2592
-43.6098
-12.8821
-38.4224
-37.8417
18.7383
6.89636
-35.3214
9.03725
24.608
-3.32501
0.572482
-37.1022
-8.86042
12.1003
-5.26811
14.6104
14.1793
-34.5359
27.6638
9.24702
21.3447
20.7834
4.70961
-8.16967
13.2851
-16.9473
-5.2085
12.9209
11.4464
-2.58586
14.2486
-26.4842
23.0672
16.5714
7.78879
-1.95379
16.2006
-13.8271
10.5989
19.3846
4.2911
-2.86416
18.8243
15.8271
-6.77518
-32.7026
11.0967
16.5375
24.8636
-33.2203
26.3197
26.1495
26.6747
-7.39599
18.4322
-52.9547
15.2377
19.6929
19.5419
16.3948
21.4811
29.0363
13.7584
-33.1107
-0.0712576
-32.5518
28.8371
9.18317
-5.80325
-49.0215
14.9328
22.0501
14.5493
7.38765
1.46571
21.672
-24.8851
15.8053
-51.897
8.10342
-3.79724
3.50682
10.5179
-55.293
-61.1398
-7.20176
-5.69435
-5.75386
18.0947
-0.139969
1.12545
14.1101
-37.5567
8.86613
-18.8013
-34.9284
-47.8647
-33.4197
20.5832
22.2948
-46.3725
9.15372
19.1225
18.188
1.59628
-69.7794
16.216
-34.7345
20.4055
-30.8244
19.8619
10.8377
4.01964
18.7578
10.7155
19.3602
7.38879
8.43567
-4.83662
-32.6503
-38.539
-13.8086
19.0225
-57.3625
-31.5896
-49.1582
21.793
19.0934
7.34229
11.4965
21.4176
-18.7914
14.4109
-20.2171
-6.00682
14.3392
-47.6421
-43.283
-9.87711
-36.2904
-1.54573
-75.222
-22.2989
-36.7197
-32.8582
12.5362
25.1964
27.5188
23.9089
-63.9743
15.9139
-50.4349
14.0241
21.5223
4.25635
18.7028
-42.2377
7.09563
-5.79266
1.11459
20.2083
-5.44992
16.7426
-41.0524
-1.15915
-36.4097
17.3026
16.6356
15.0605
-44.0888
14.2803
-11.844
-35.7013
-36.2153
7.16278
25.3453
-22.8539
-8.60991
-55.0536
14.9788
14.698
7.88691
10.4301
-42.3187
21.7237
20.6885
-28.9913
-0.503985
21.0149
-46.1182
-52.9122
2.17989
19.4147
21.593
-50.6102
10.2603
1.01904
24.7873
-34.8028
-27.5723
1.07687
23.2177
1.99883
-4.34368
-6.02283
20.0228
12.5902
19.9487
0.663272
-20.5655
16.4439
28.3429
-33.184
13.0146
1.75109
-33.8027
1.92225
6.94595
-52.4663
9.94186
-27.1471
10.8095
-17.0757
-12.1031
18.3731
21.7322
14.1886
-15.7913
-24.816
16.9213
-42.2971
6.33943
-6.14339
8.58927
-36.2915
16.6196
17.016
1.67372
15.906
24.4283
-12.3149
11.8024
17.077
-36.6075
10.4817
-3.27316
8.68059
5.07115
12.6798
0.231586
6.83106
2.28403
-19.0965
20.4931
5.60771
0.0205424
-48.9598
-5.36232
15.7688
-39.5988
26.5909
-44.9958
-34.9
-5.17894
19.0077
16.8141
19.6397
-33.7619
23.5206
-47.5547
11.3434
-2.36205
-34.6207
14.3807
8.04048
0.809965
10.6331
-33.6576
12.9672
-36.6363
-51.1183
-0.546217
-28.011
-31.7701
13.1227
24.1147
-88.1985
-52.7652
18.8367
-22.788
21.9292
5.9765
2.46517
10.6147
15.4277
9.0459
-10.1228
3.49308
1.88001
5.86124
7.3699
-37.1331
-56.6121
5.22587
8.34574
2.53517
29.032
15.8999
15.2229
22.1762
4.61227
16.8909
-34.0741
-33.5802
-63.8028
15.1203
28.4668
14.1018
-7.31613
20.489
13.6531
14.0277
-74.4016
1.76101
8.78604
26.7478
-3.00695
-11.4117
20.0188
20.9445
15.3776
14.9662
18.0317
11.1264
-18.2154
-77.0459
16.274
-32.9469
-31.8364
15.1287
-70.6365
-2.27985
4.33752
15.8521
16.4025
16.8918
1.46258
19.5519
20.0111
6.95867
17.561
15.5152
14.8362
12.9257
9.69627
8.85695
8.47868
18.9272
17.402
1.40385
13.4427
1.27265
-52.3406
23.9238
18.1174
0.679368
-61.4645
0.543509
18.6562
10.6458
6.14912
-8.8517
2.56347
-23.8443
2.98827
-57.3516
-0.176698
10.5067
-10.6114
-31.9897
-43.4669
22.6432
-51.9702
-28.717
-67.6345
24.2654
-14.681
4.56402
5.12453
-37.1687
13.3535
14.4545
9.37995
21.3341
12.2169
2.3643
-32.5339
-64.1192
1.79882
17.7034
1.90124
-50.2639
-34.4709
-15.7254
-33.1758
-64.9658
-26.122
2.73572
7.1176
14.9769
19.0692
-13.7108
-10.3515
21.4078
16.6381
-50.2089
1.42757
-31.5276
9.83439
-3.11323
9.00417
13.2557
-2.30112
-15.8104
-19.9253
6.10379
-54.1802
-33.3211
4.02184
-62.1896
-35.7153
-36.4899
-69.8511
3.88574
-33.8819
8.77415
-48.1181
15.158
13.8049
8.38463
19.2187
-77.677
24.248
-10.1694
2.76338
-9.06908
14.9976
9.75885
-32.7458
-33.4781
15.604
18.2357
25.1414
-59.4671
-35.1063
-79.6595
4.41221
0.458033
-43.6221
5.19472
-39.8005
9.45921
-50.965
10.9486
2.3241
8.3295
22.1491
13.4073
-5.23854
-1.00444
-13.9828
-32.926
19.7764
27.505
-33.4729
17.8737
14.3838
-0.0306791
-9.84169
18.7544
18.2435
-27.3109
-12.5998
-67.5449
-77.1149
-8.17217
-41.1898
-6.45927
11.3911
-3.97506
16.7977
-45.681
-35.9357
14.5046
-7.01152
-38.0702
2.99933
12.9684
-37.38
-3.62864
-34.9399
-44.9474
-38.6144
25.5383
-33.0261
-0.144265
-53.3088
16.336
-36.2283
-6.36842
-23.9659
-47.3863
-5.1219
16.7787
-0.682241
-43.178
13.2843
-0.625194
-20.5392
-34.8329
-42.3693
10.5896
12.3243
15.2834
-32.8438
21.8807
-17.5518
0.339906
4.60631
-17.4757
-78.4067
-42.8494
-31.4269
4.20937
7.63392
-62.7432
-0.405762
-12.4782
13.9999
-56.542
15.2841
-41.4409
10.4398
-2.568
-8.61897
-0.10012
30.0062
-6.56556
-36.6168
-32.7904
-12.9257
15.0823
-37.8047
-0.186562
3.46175
-33.9464
-59.2681
-32.8471
-41.0599
15.8934
-36.5525
4.1086
-34.2517
1.42469
13.3714
5.43974
7.07956
-3.56196
19.1892
-36.3051
-26.5006
20.6156
7.91538
-36.4137
-0.434882
-37.6288
-11.7245
-1.67885
18.8594
-56.0208
8.15958
-34.8584
-34.2141
-39.898
-37.2334
-34.1631
8.4692
-11.7483
15.229
7.52647
-48.7745
23.9413
-79.9567
18.5559
21.5475
-36.7604
3.61628
16.0675
14.8225
11.4368
-30.0715
-29.5813
-27.1125
15.1628
6.04258
-14.8918
-38.3879
8.81572
18.0033
0.128921
1.24544
2.92357
20.3093
-12.5416
-14.1363
-46.7802
13.4315
4.16913
-0.921106
21.9692
18.5572
-48.3908
-53.6425
18.6021
8.95426
1.51446
13.3396
-10.1043
-30.1952
-30.7649
-44.5767
18.3011
15.5753
5.87599
-6.20259
-0.6249
-2.06049
16.1284
-61.4574
11.0341
19.3347
20.7723
-22.4743
15.2934
12.9669
16.1379
17.1656
0.901179
17.3021
-0.761694
15.3357
10.3291
16.3812
-56.7529
18.6683
17.7766
13.8932
11.2249
-24.7966
10.8595
2.1529
-9.16914
19.7953
20.4763
-70.8949
19.7364
-36.0081
-33.1169
16.0527
16.2523
-22.4373
0.960813
-35.1431
-61.6264
-6.95069
-47.5745
-24.3623
-0.73079
13.8001
26.7458
18.4263
-15.4266
-32.1957
15.6724
9.00818
-14.577
-32.4584
-25.7233
-13.3495
-32.9154
-31.1602
14.6089
-5.12473
8.20135
1.56673
1.48202
-3.21683
2.68397
4.31434
8.35843
12.0458
-8.55096
6.47073
-23.4014
-63.6762
10.9861
9.45845
8.54854
3.61728
11.4279
7.49603
7.82604
-6.74833
15.2832
12.6534
23.2555
15.2551
-31.2658
-1.05652
-6.23022
-23.0744
-14.5137
-50.2777
-7.54752
-65.0832
27.0806
4.39075
0.690925
21.6102
-55.4144
-5.0539
-12.1745
-59.3458
-33.4657
4.01281
-10.4697
14.2855
-7.89526
-29.7518
1.23482
-29.3372
-9.1435
-12.4295
-21.9906
12.609
-42.8953
-50.2479
-11.5987
7.12015
-13.0737
16.2732
22.2223
-24.5262
16.5173
9.44075
11.7527
24.4677
-56.712
10.376
8.63505
7.90908
20.8936
-0.353176
4.60817
-11.612
16.0013
22.2457
-53.8296
-10.3479
-17.2613
-12.1208
9.16203
-28.3103
-19.5274
-28.5459
7.84789
-34.3584
4.58676
6.72793
13.773
2.96348
-32.7397
-27.4034
-10.1057
-9.05662
23.677
26.5607
19.6817
27.8301
14.1361
17.1224
16.4351
14.1688
15.1258
-18.2474
15.3939
-1.06033
-32.7672
21.7096
1.9654
-11.7218
25.3955
2.60055
-74.1831
9.27221
8.14876
18.276
-33.1437
14.4092
23.7406
-55.3692
-33.1437
-15.9259
11.0941
-48.574
18.831
0.619533
18.4066
15.1598
-51.8375
17.3635
-5.28562
-32.4174
-33.0508
-73.6641
17.6597
-13.4507
15.1732
8.56592
-42.6077
2.23395
-4.19779
-8.45692
-32.42
-33.3359
17.9792
5.01979
-37.9437
-2.66898
11.1469
4.85205
-72.0382
8.91515
-34.9517
8.79958
-36.7962
10.5357
5.96359
8.5946
4.31062
14.4838
9.9568
6.3769
-35.9251
27.803
-8.70443
-35.2998
14.5589
12.6471
-40.0945
-11.0922
-52.386
9.4757
9.0064
-11.4004
0.953446
-0.664161
27.9011
-4.77787
-58.5903
-0.243022
-5.15099
10.3129
-1.13529
13.9437
11.154
-47.0706
10.3401
-34.5618
11.2143
6.81246
14.9761
11.6486
0.222176
0.503025
8.62287
16.3852
9.65193
4.57066
-36.0454
-3.54995
-3.93888
13.7914
-35.6055
8.83315
-32.6155
17.6296
-41.7016
-0.64056
19.4014
17.6119
9.27437
-57.3317
-33.068
16.6717
3.55475
18.5356
9.52421
2.5181
15.3728
6.24275
6.28362
2.20629
-5.54043
-16.67
11.4591
-6.53706
19.8991
5.4792
28.2766
1.81554
5.99669
17.8877
4.03769
4.93586
16.1586
12.5323
10.0504
-15.8667
-6.74061
14.3977
10.5219
7.71577
-64.8931
-4.79
-68.0406
-40.354
-7.14664
14.0582
1.67865
12.9192
1.83051
24.2428
19.4638
7.4233
12.4171
7.12446
-35.8578
14.786
11.4035
3.2028
7.57586
18.3567
16.3596
-10.657
-49.8052
-17.4066
13.379
8.31017
2.42394
16.1654
-75.3528
13.6091
-24.0894
14.8385
8.65636
-13.4765
8.1595
17.111
4.65327
15.1957
19.0348
2.89226
-7.31461
10.2268
-0.107956
22.4559
-37.0051
20.4016
17.1201
-41.8119
-22.6865
-7.71445
-5.41889
-51.2932
-40.7878
14.7568
20.8196
16.9836
20.9223
11.5024
19.1722
8.06765
2.43879
8.56925
4.45005
3.86688
12.843
1.4841
22.1351
4.78376
-33.4839
11.9202
21.4835
22.7275
-53.814
9.5337
-27.1268
-32.8137
9.06355
11.1462
-51.691
9.74262
23.2397
-33.9593
-34.6018
-56.3997
8.20617
3.04571
4.58608
14.2714
14.6766
-9.6306
-1.21776
-25.7478
-49.2029
14.6597
14.4673
15.4774
8.99834
1.04111
9.90526
5.4343
-26.9447
8.06621
13.0176
9.58768
10.8792
-5.21228
-1.74136
-68.0059
15.188
-36.431
4.82068
18.2912
12.3228
-10.0877
-44.1522
-68.7063
-11.3492
11.413
4.10129
-0.623131
15.368
12.1907
-6.89082
-5.46969
9.30139
7.94169
-62.4735
13.7572
9.15142
-7.60108