/*--------------------------------*- C++ -*----------------------------------*\
| =========                 |                                                 |
| \\      /  F ield         | OpenFOAM: The Open Source CFD Toolbox           |
|  \\    /   O peration     | Version:  2306                                  |
|   \\  /    A nd           | Website:  www.openfoam.com                      |
|    \\/     M anipulation  |                                                 |
\*---------------------------------------------------------------------------*/
FoamFile
{
    version     2.0;
    format      ascii;
    arch        "LSB;label=32;scalar=64";
    class       surfaceScalarField;
    location    "6.1";
    object      phi;
}
// * * * * * * * * * * * * * * * * * * * * * * * * * * * * * * * * * * * * * //

dimensions      [0 3 -1 0 0 0 0];

oriented        oriented;

internalField   nonuniform List<scalar> 
20045
(
0.769215
-0.846452
0.0772374
-1.61762
0.598275
1.01934
0.488189
2.75346
-3.24165
-0.689883
0.953288
-0.263405
-1.28527
1.24008
0.0451893
-0.869376
3.26646
-2.39708
-1.46594
0.60924
0.856704
0.098912
0.666525
-0.765437
0.722072
0.641258
-1.36333
-1.19445
-0.194195
1.38865
-0.418737
-0.204107
0.622843
3.41688
-1.67062
-1.74626
0.567286
-0.572146
0.00485922
-1.88166
1.58105
0.300611
-0.492325
1.58578
-1.09345
-1.60998
0.415524
-0.0150089
-0.138639
0.153648
1.24241
-1.59654
0.354133
-2.61202
3.80812
-1.1961
-1.13473
0.0528217
1.08191
-0.737599
0.531588
0.206011
0.192965
0.374322
-0.223325
-1.39429
1.06993
1.60224
-2.67217
1.25024
0.279441
-1.52968
-1.67666
2.74658
0.160939
-0.17163
0.010691
-1.82507
3.4029
-1.57783
2.77893
0.019012
-2.79794
-3.33176
1.6568
1.67496
-0.790001
0.372725
0.417276
2.23173
-1.49892
-0.732812
-1.16921
2.34274
-1.17353
3.27565
-1.81851
-1.45714
-0.857174
0.956086
2.45545
-1.11998
-1.33546
-0.390137
2.33668
-1.94654
-0.101662
0.609145
-0.507483
-1.31357
-1.30227
2.61584
0.926459
0.775256
-1.70172
0.0629925
0.660104
-0.723097
0.2656
-0.366824
0.101224
3.94072
-3.93664
-0.00408357
2.2156
-0.802483
-1.41312
1.00676
1.20884
1.58756
1.82932
-0.271082
0.297979
-0.0268971
1.5379
1.14104
-2.67894
2.87375
-3.26389
0.231043
2.7281
-2.95914
1.95363
-3.29316
1.33952
2.57931
-2.83769
0.258379
-1.7035
-1.39332
3.09682
-0.140109
-0.468312
0.608421
1.88526
-1.00958
-0.875682
-1.05295
-0.232325
0.267678
1.53503
-1.8027
3.22848
-1.16633
-2.06215
1.45782
-2.62703
-0.611836
1.01787
-0.406029
-0.583357
-0.00957223
0.592929
0.160484
-0.77232
0.926923
-2.65941
1.73249
-0.393205
-0.344394
2.27155
-0.312357
-1.95919
-1.00061
1.64293
-0.642316
0.347869
-0.902588
0.554719
-1.01734
0.213062
0.804281
1.29592
-0.573849
4.60482
-3.7553
-0.849523
0.797343
-0.449474
0.504174
1.38108
-0.397987
-1.54869
1.94668
0.072691
-0.150553
0.0778618
-1.03583
1.18015
-0.144317
1.69668
-1.429
-1.84418
0.808343
0.642433
-1.13476
0.15271
-0.339112
0.186402
-0.787494
-1.054
1.84149
1.45469
1.52212
-2.97681
1.3507
-1.07758
-0.27312
2.26042
-1.3335
-3.93371
0.772606
3.1611
0.0205361
0.748678
-0.790431
0.94709
-0.156659
-0.954237
-2.59709
3.55133
-2.40516
0.0963862
2.30877
1.52952
0.255353
-1.78487
-1.27044
1.12686
0.143581
-2.31452
-0.358186
2.6727
1.1156
-0.202334
-0.913265
0.621375
-0.901407
0.280032
-0.268608
-1.21041
1.47902
0.906987
-0.966078
0.0590907
1.96813
0.867421
-2.83555
0.12696
0.0339798
-0.211009
0.8993
-0.68829
1.84665
-0.920192
0.002147
-0.112295
0.110148
1.70937
0.746078
-0.703378
-1.17829
0.703348
-0.914358
0.860271
2.36821
-0.0104722
-0.779959
0.0430756
-0.0409286
0.657309
1.81248
-2.46979
2.27542
-1.05543
-1.21999
-0.118372
-0.721201
0.622486
0.0987148
-0.408309
0.509996
-0.101687
1.81872
-1.24072
-0.578008
-0.764439
0.62433
2.08267
-2.83631
0.753635
-0.295144
0.516735
-0.221591
0.0815198
-0.494507
0.412987
1.70755
-0.457312
2.3375
0.938148
-1.76702
1.36903
0.380198
-5.07506
4.69486
1.4148
-0.172391
-0.719819
0.136462
-1.1967
0.970997
0.225704
0.961855
0.150668
-0.899527
0.748859
2.89876
-0.319455
1.69527
-2.16188
0.466611
2.37798
0.288353
-2.66633
-2.85819
2.21339
0.644799
-0.0520357
-2.01625
2.06829
3.06842
-0.169655
0.222366
0.0756131
-0.0477304
0.0232417
0.0244887
-0.0788402
0.0474485
0.0313916
1.71293
1.20007
-2.91299
1.80654
-1.71852
-0.088016
-0.520695
0.187604
0.333091
-0.510481
-0.21072
5.66291
-5.28271
-0.996038
1.06068
-0.0646398
1.86107
-3.24359
1.38251
0.6684
-2.3719
1.74583
0.712004
-2.45783
1.17195
-1.95945
3.32131
-0.527385
-2.79392
1.29598
-2.68801
1.39203
5.70144
-2.8214
-2.88005
-0.271508
0.600655
-0.329146
-0.029852
3.06979
-3.03994
2.97179
-0.192856
-2.47632
0.0809099
2.39541
-1.42955
1.23347
0.196082
2.58539
-1.1307
0.473514
0.87719
-1.88572
2.29724
-0.411515
-2.43334
2.92153
0.0359889
-0.594841
0.558852
-0.274277
0.54795
-0.273673
-0.0537284
-0.574892
0.62862
3.39106
-1.81265
-1.57841
4.07497
-1.95387
-2.12111
-0.682932
0.629204
0.690498
-1.96724
1.27674
0.324251
-0.0586504
-1.97742
-1.40292
1.98799
-0.585071
-1.96655
1.45805
0.508498
-0.0437122
-0.101695
0.145407
2.91952
2.78192
-0.0600769
-0.0187632
-0.233589
0.185859
-2.09565
0.209928
-2.20328
2.79065
-0.587365
-1.98097
2.2986
-0.31763
-1.7208
-1.24381
2.96461
-0.258162
0.219581
0.0385809
1.27828
-1.37867
0.100394
2.62906
0.207081
-2.83614
0.0208476
-2.23867
2.21782
-1.12474
2.87056
0.602284
-1.65777
1.05549
-0.896469
2.97914
-2.5385
1.63931
0.899192
0.521419
-0.499638
-0.0217815
1.39189
-3.80123
2.40933
-2.76034
0.935267
-2.03237
-0.715779
3.03631
-1.72576
-1.31055
-0.845113
0.908105
0.492321
-0.524618
0.0322964
0.519432
-4.1276
3.60817
-2.42161
3.53484
-1.11324
2.04721
-0.615529
-1.43168
0.205345
-0.744441
0.539097
0.136448
-1.11324
0.976793
0.365613
-0.78435
-1.94854
1.89651
-2.10299
-0.699031
2.80202
0.350193
0.0903358
-0.440529
0.357605
-1.76053
-0.240029
-0.549972
2.55877
-0.180798
-0.501459
0.399797
-0.52064
0.627152
-0.106512
1.38453
2.00654
-1.05151
1.18796
0.461243
0.513901
-0.975144
-2.10126
0.416217
1.68504
1.50104
0.546171
3.98058
-2.58869
2.02295
-3.51634
1.49339
0.642622
-2.72058
2.07796
0.110853
-1.24558
-1.46647
2.12378
1.93819
-2.80757
1.76736
-2.31452
0.547162
-3.61786
2.19306
1.42481
-0.105683
-1.16476
0.55026
0.44051
-0.99077
2.06621
-0.637213
-1.429
-0.127304
-2.12109
2.09124
-0.775783
-0.220254
1.97198
3.08241
-2.65909
-0.423319
-0.0330101
-0.420339
0.453349
1.97794
0.325742
-2.30368
0.946583
-0.6433
-0.303283
-1.14662
2.01842
-0.871796
-3.01987
2.06563
1.72163
-1.11935
-0.309591
0.834739
-0.525148
2.72985
-0.868772
0.350079
-0.0323205
-0.317758
-0.228978
-0.471945
0.700924
-0.409201
0.425844
-0.0166423
2.90273
-1.77431
-1.12842
0.79467
-3.21628
-0.453027
0.043826
-2.65519
0.872516
1.78268
3.44636
-1.10361
0.732928
-2.93621
3.92218
-2.04016
-1.88202
-0.0533649
0.403558
0.521568
1.66373
-2.1853
-1.82401
0.400227
1.42379
-2.95408
2.96362
-0.0095361
0.794708
-2.62977
1.83506
0.016332
-0.0327736
0.0164416
-1.41062
1.86507
-0.454449
-0.113439
0.996716
-0.883277
-0.47249
0.177346
-0.488893
0.0805842
-1.96546
0.910027
0.338821
-1.76772
1.4289
0.0567845
0.0329085
-0.089693
1.19851
1.03321
2.3554
-0.588033
0.00851458
-0.282791
1.99768
1.44868
-1.49394
0.0624903
1.43145
-1.92211
2.44368
1.12455
0.461225
-0.0738442
0.130629
-0.866233
-0.0709392
0.937172
0.0769719
0.444447
-1.96377
0.817146
-0.394119
-0.0282054
0.422324
-2.68496
2.59442
0.0905337
-1.7279
2.15295
-0.425056
-0.571657
-0.355063
0.92672
2.26875
-2.48424
0.215486
-2.31461
-1.30325
3.86785
-2.53487
-1.33298
-0.332876
0.299866
2.96347
-2.16876
-1.28952
1.62834
-1.3111
-0.2864
1.5975
0.547004
0.990733
-1.53774
5.43746
-2.26465
-3.17281
-1.69687
0.385776
2.5072
-1.46417
-1.04303
-0.498201
2.3525
-1.85429
1.64285
-2.90215
1.2593
0.33734
0.509047
-0.846387
-0.0121251
0.015425
-0.00329988
3.63366
-2.94951
-0.684156
-1.56977
-1.28842
2.2233
0.859111
-2.44919
-0.235765
0.388506
-0.617485
-2.89866
0.120005
2.77866
0.0132725
0.479049
-1.61788
3.33081
1.24824
1.65449
3.2578
-1.8867
-1.3711
-2.80046
2.10143
2.23702
-3.61161
1.37459
-1.86652
-0.132053
1.99858
-0.742616
-0.504709
1.24732
1.80041
-1.10991
-0.559532
1.02077
2.61606
-0.018378
-1.48054
-1.30712
5.93281
-4.62569
-0.613922
0.0932822
-0.426148
0.116558
0.35389
-3.30797
-0.448363
-2.5715
3.39318
-0.74466
0.966334
-0.221674
0.0839065
-0.77379
-1.48153
1.05979
0.421742
0.907106
0.911618
0.4571
0.415056
-0.872156
1.45147
0.355073
-2.88124
-0.0174226
1.71273
-0.18321
-0.623055
-1.4782
2.21965
-2.15537
-0.0642806
1.33607
-0.305862
-2.96218
3.26805
2.35827
-2.58241
0.224141
-1.33103
1.06242
-0.384871
-0.135824
-0.352991
-1.96153
0.854241
-1.63673
0.782487
1.27344
1.23376
2.16226
-3.3882
1.22594
0.675744
-1.61485
0.939103
-2.91522
0.51006
0.0355666
1.08003
-1.93257
2.95266
-1.0201
-0.733216
0.936547
-0.203331
-1.20877
-0.257171
-0.393531
-0.681099
1.07463
0.312121
0.0035367
-0.315658
-0.978814
-0.450735
1.11043
1.34257
-2.45301
0.493366
-2.41548
0.255882
-1.35305
0.0220209
1.39205
-0.716305
-2.01552
-0.522984
1.02529
-1.07156
0.0462721
2.75186
-1.21396
-1.37052
2.26148
-0.89096
-0.375941
0.434041
-0.0580999
2.12921
-0.0629962
3.04663
-2.92663
-1.48868
2.75634
-1.26766
1.92751
-3.37369
1.44617
1.69151
2.17633
-0.140129
0.104071
0.0360588
0.278375
-2.1449
1.58631
-2.17464
0.588332
0.172406
-0.0997152
-0.214797
1.91007
-1.66455
1.21619
-2.04755
2.69017
0.580673
-3.19269
-2.85707
1.6635
1.19357
1.92318
-0.318936
-1.60425
2.79488
-0.52613
-1.13871
-1.42677
-1.09504
1.4835
-0.256106
0.166267
0.0898383
0.96281
-0.909988
-2.14608
1.93128
3.14309
0.797635
-2.36687
0.996343
3.01296
-0.789659
-0.909191
1.06501
-0.155819
0.0241019
-1.81454
1.79044
-2.70614
0.505043
2.2011
2.47804
-2.47804
2.65734
0.308649
-2.96599
1.06666
-0.609564
1.89005
-1.10609
-0.783962
-2.77391
2.89002
-0.116105
1.0263
-0.132957
-0.893342
0.811864
-0.320004
-0.49186
0.354951
-0.926609
-0.0337393
0.461571
-1.75109
-2.46984
2.91046
-0.440622
-0.858627
1.96906
0.0979536
0.0186852
-0.116639
-0.239446
-0.144215
0.383661
-1.13132
1.24217
3.24943
-2.73354
-0.515892
-0.254005
-1.55762
1.81162
-0.717935
0.775785
-0.0578503
0.410575
-0.848795
0.43822
-4.83286
4.66075
0.172108
0.601566
0.351722
-1.10904
0.199847
-0.0202577
-0.121192
0.14145
1.63774
1.99593
0.127101
-0.0291476
-0.195601
-0.804813
1.00041
-1.49244
2.38459
-0.892152
-0.0626499
0.389664
-0.327014
1.23907
-0.629832
5.60367
-2.66676
-2.93691
0.0508978
-1.26131
0.266298
2.36276
1.27293
0.911197
-2.18412
1.41415
-1.22743
-0.186715
-3.03399
0.557672
-1.2013
0.534314
0.666984
1.39301
1.60874
-3.00175
-1.88229
1.75024
0.194743
-2.72057
2.52583
-0.402027
0.607371
0.584606
-0.594954
0.0103474
0.0708079
-0.937041
0.221563
-0.0185989
-0.202964
-2.0302
-0.62499
1.83333
0.0676278
0.16603
-0.233657
-0.393418
0.017477
0.49212
-2.11527
1.62315
0.655879
1.59312
-2.249
1.14961
-2.11424
2.56778
-0.453538
-2.15191
1.65371
-0.0635199
-0.108111
-1.18136
-0.785188
-0.797283
0.203017
0.594266
-2.58039
1.08794
1.98156
-2.23556
1.0168
1.99616
-0.915011
0.917949
-0.00293803
1.19594
-2.87989
1.68395
0.478355
-0.826153
0.347798
3.05087
-0.00423753
-1.93595
-0.045017
-0.963559
-0.0537829
0.253498
0.0100813
-0.26358
0.934817
0.0451041
-0.0642655
0.0191613
2.85604
-1.46303
-3.45697
1.3949
2.06207
0.782883
0.559566
-1.34245
-1.07657
0.674543
-0.673006
-0.124277
1.14516
0.744897
-4.80901
-0.266046
0.97717
0.0481186
1.83469
1.23358
0.479148
-2.70462
2.93566
0.278202
-1.30004
1.02184
-0.267427
-2.4775
2.74493
-0.928231
1.01103
-0.0828031
-0.0313923
-0.22677
-1.33025
2.9731
2.7717
-1.47573
-1.22478
-0.256746
0.0127294
-1.23722
1.22449
1.20898
-2.92978
-0.323962
-1.40085
1.72481
-0.302004
0.820214
-0.51821
-1.93982
0.140176
1.79965
2.81195
-1.67091
-0.046455
0.276285
-0.22983
-0.660104
-0.0578308
0.554493
1.0633
-1.61779
0.399284
-0.491459
0.0921754
1.41577
0.722296
-2.13807
-1.36471
3.33285
0.305929
0.00619202
-0.470956
-1.59635
2.06731
4.82245
0.840457
2.716
-2.06012
-1.06834
0.674809
-0.0434561
0.031331
-1.25728
3.4943
0.401306
-2.30225
1.90094
2.45446
-0.314059
-2.1404
-1.34021
2.05935
-0.719142
1.19082
-1.16276
-1.32514
2.4879
0.160701
-0.143894
-0.0168065
-0.852311
-1.45378
2.3061
-0.351387
0.111941
0.116482
-0.160194
1.5206
-2.37291
-2.10995
-0.635065
2.74502
-0.179484
-1.44148
1.62096
0.145737
3.55567
-3.59239
0.0367207
0.644434
-0.411693
-0.232741
0.014913
-0.929924
0.770472
0.708543
-0.954129
0.211513
-2.40226
3.0443
-0.642035
-0.595747
0.201629
-0.715403
1.88736
-2.99835
-0.938294
-0.00277226
0.108359
-0.105587
1.5991
-0.365517
-0.627073
0.6914
-0.0643267
0.845054
-0.958493
-3.19434
1.16196
2.72383
0.542622
-0.355985
0.76656
-0.618667
1.40155
1.60254
-1.14097
-0.647528
0.0204545
-0.28894
-1.85714
0.647781
0.703835
-0.667846
-2.75707
0.0509284
-0.0120256
0.645877
-0.167522
-2.72229
-0.392159
3.11445
2.28513
2.31969
0.587333
-0.195072
-0.392261
0.84734
-0.787367
-0.0599738
-1.78904
0.66906
-3.08213
1.59345
0.0326567
0.584543
-0.6172
-0.0980505
0.927949
-0.829898
3.21293
-0.00595366
-3.20698
0.549751
0.0369696
-0.58672
-0.409676
-0.787026
0.692123
-0.0707484
0.0641377
-0.0595873
-0.00455046
1.17175
-0.172489
-0.999258
0.0674235
-0.00328577
2.58567
-1.71825
-0.089799
-0.435557
0.525356
-3.0984
0.696136
0.0849684
-0.355727
1.05908
-0.375382
0.44301
-0.108337
0.116852
0.740109
0.473625
-1.21373
1.85199
0.419555
1.24054
-0.962335
0.661103
-0.579584
0.231344
-0.96456
1.59126
0.896042
-2.4873
1.61474
-0.122487
-1.49225
-1.77982
-0.908191
-0.991069
0.0468098
0.944259
1.11471
-1.24826
0.133554
3.27696
-0.0794939
-3.19747
-1.13286
0.270216
0.862647
-1.47903
1.98265
-0.503623
1.61098
2.06365
-3.67463
0.663901
-0.673473
-0.792883
1.29508
-0.502197
0.65339
0.279594
-0.932984
-3.07463
1.61817
1.45646
-0.0491642
-0.010423
-2.53345
0.423501
0.923092
-0.56281
-0.360282
1.41337
-1.81781
0.404447
-0.263152
-0.5833
0.582761
2.97291
2.45834
-0.410874
-2.04746
-2.50471
0.390472
1.00342
-1.62647
1.93367
-3.5419
1.60824
-0.306226
0.856486
-0.0131696
-1.13602
0.940416
-0.485178
0.635846
-0.30638
-1.84898
2.15536
1.12205
1.84142
-2.19677
2.33246
-0.135688
0.0586443
0.194854
-1.9201
-0.721619
-0.362854
0.404265
-0.0414106
1.84539
-1.49391
-0.35148
-0.0482758
0.272888
-0.224612
-0.23504
1.64841
-2.24154
-0.503029
2.74457
-2.33053
-0.712454
3.04298
1.39644
-1.06891
-0.327529
-0.660301
0.0706087
0.589692
-0.698708
0.116771
0.581937
-2.92062
0.139375
2.78124
0.0772586
0.570601
-0.64786
2.34713
-2.65006
0.302926
-1.50532
2.53219
0.524677
-3.05687
0.0287015
-0.391556
-0.0843379
-1.99528
2.07962
2.01825
-2.91472
-2.84074
2.4736
0.367143
0.47779
-0.0785061
1.22709
-1.94249
-0.174314
-0.713607
0.887921
-0.0313018
0.490971
-0.459669
-0.661165
2.81622
-2.15506
5.51415
-1.10226
-4.41189
3.05383
-2.92327
-0.130563
2.30158
-0.925748
-1.37583
0.131202
-0.68547
0.554269
-0.87002
-0.029507
-2.99352
2.64528
0.348238
0.167845
-3.16136
-1.20188
2.70955
-1.50768
-1.72281
-1.2267
0.587857
-0.502878
-0.0849795
-2.42413
-0.674269
-0.558214
0.37177
0.186443
0.552452
0.394131
-2.792
2.66897
0.123025
-0.37327
-0.124896
-0.0256564
0.589892
-0.0401415
-1.77949
0.368867
0.422765
-0.502054
0.0792888
-2.72737
1.69567
1.0317
1.08146
-0.0551646
-0.760606
1.90205
0.227154
1.06259
-0.434907
1.24542
-0.81051
-0.318286
1.59656
-1.84928
1.17498
0.674299
-0.163571
0.114407
2.9198
-1.79774
2.4702
-1.27426
-0.644924
-0.498834
1.14376
1.42605
-2.21839
0.792341
1.64448
-1.82396
2.70881
-1.26989
-1.43892
-0.0167451
-1.54514
-0.304142
-3.09364
1.81396
1.27969
0.073941
-0.914009
2.93696
-3.16575
0.741624
0.74799
-0.41065
-0.318884
0.0403033
0.439085
-0.0132411
-1.40488
-1.32026
2.65243
-0.955757
-0.755308
0.37109
0.384218
0.183703
0.628161
-2.26123
-0.652369
2.9136
0.643681
1.15673
-0.00638808
-0.428735
0.435123
2.45868
-0.927309
0.163767
0.763541
2.64673
-1.05547
-1.09394
-2.95896
0.489126
-0.654675
0.0327407
0.621934
2.00211
1.92007
2.04228
-0.804786
-1.23749
2.93532
0.118507
1.77662
-2.51336
0.736741
-2.44257
-0.0405698
2.48314
-2.39184
3.08911
-0.697264
0.412313
-0.0106608
-0.401652
-0.91773
2.93598
-0.436599
0.0605191
0.376079
0.121972
-2.31874
0.46499
-0.12803
-0.33696
-2.83895
3.68369
-0.844739
-0.725838
1.61192
-0.886081
3.48418
-1.53495
-1.94923
-0.00201137
-1.77141
1.77342
-0.482221
-0.112733
-1.62547
3.23645
3.01825
-0.360912
3.28971
-1.3622
-0.546592
0.456793
-2.56874
0.126169
3.63902
-1.47676
-0.105238
-3.82847
0.723311
-0.0632069
0.0485311
1.23159
-1.28012
1.63519
-0.386402
-1.24879
2.10928
-1.92888
-0.180405
-0.493382
0.0317522
0.46163
-0.602694
-1.40857
2.01127
1.05664
-0.825295
-1.26678
-0.0233038
1.29008
0.385662
0.785532
-1.17119
0.238454
0.349403
-3.28919
3.84554
-0.556346
-0.911876
-0.016355
1.32765
0.601257
-1.92891
1.68292
1.30466
-2.98757
0.467542
1.45564
-0.0355202
3.35683
-0.00906855
2.35417
-2.3451
-0.0143014
-0.0483485
0.0933427
0.0646218
-0.157964
2.67345
-2.46998
-0.203471
1.28722
1.42159
-0.162022
0.137573
0.0244491
-0.839133
2.39544
-1.55631
0.0304306
0.48216
-0.51259
1.87158
-2.4374
0.565827
-1.40838
-1.37599
2.78436
2.42267
-0.444731
0.864921
0.770267
-2.20496
0.103967
2.10099
0.844194
-2.40181
0.536916
-0.757053
0.220137
0.565619
-0.207384
-0.358235
0.170619
-0.652839
-0.212702
2.32768
-2.11498
-0.401771
3.12987
2.29164
-1.85887
-0.432765
1.87655
-1.6212
-1.54051
0.510351
1.03016
0.224546
-1.33064
0.613072
-0.279223
-0.333849
0.179973
0.40736
0.442221
2.18093
-2.62315
0.630273
0.541475
0.390893
-2.72142
-1.29714
0.480345
0.8168
-0.94411
-0.718826
1.66294
1.42231
-0.682201
-2.5147
1.65607
0.967917
-0.73903
-0.228887
-0.387087
1.40324
-1.01615
-1.28818
1.33908
-1.22808
1.56332
-0.335242
-1.88352
1.16719
0.716324
-0.0665522
0.628634
-0.562082
-1.00184
0.90379
-0.442949
-3.79831
3.81584
-0.0175337
-1.60944
2.02566
1.4908
-1.5253
0.0344995
0.481585
-0.150844
-0.330741
-3.73718
2.60155
1.13563
0.127132
0.569817
-0.696948
0.219867
1.97541
-2.63658
2.13105
-0.705001
-1.13334
-1.72373
-2.09693
2.08786
1.44989
0.00816388
1.07098
0.397641
-1.46862
-0.971589
0.903087
0.0685021
0.362492
-0.843902
0.48141
-0.424083
-1.38296
1.80704
-0.071326
1.85752
-1.7862
-2.21042
-0.684338
2.89476
-0.0266558
0.508241
2.2502
0.423248
-0.594241
2.89919
-2.30494
-0.0308832
0.0812932
-0.05041
0.0166145
0.530446
-0.687613
0.157167
-0.0104092
-2.07938
1.65529
0.405925
0.592979
-0.461777
1.56318
0.28221
0.0628823
-2.07913
0.0931671
0.81382
-0.0394332
0.276608
-0.237175
-1.80229
-1.55779
3.36008
-0.859231
-1.34573
-1.49649
-0.257809
1.7543
0.379956
0.531855
-0.911811
-0.00132125
3.33319
-2.13824
-1.19495
0.512416
1.94592
0.212246
1.06817
-1.76195
0.693774
-1.18451
2.69139
-1.50688
-1.6724
-0.710058
2.38246
-1.33175
0.538866
-1.16704
-0.373468
3.16196
-1.43621
-1.72575
0.58033
-0.442415
-0.137915
1.1118
0.180983
-1.29279
-0.493653
0.570912
0.287223
-0.451346
0.164123
0.00202533
-0.0705357
-0.612397
-0.0331486
1.83245
1.32951
-2.50415
1.20188
-1.2162
2.873
0.318166
0.262164
-2.50724
0.834837
2.13393
-1.85555
-0.319759
-1.85396
0.374931
1.46249
-2.66437
2.08523
-2.06113
2.43239
-0.0741203
-0.57093
-0.330477
-0.718793
-0.269335
0.988128
-0.871364
-0.0947138
2.20646
0.405966
-2.61243
0.0458269
-0.739476
0.693649
0.0109916
-2.41228
-0.804798
3.21707
2.54257
-0.195436
-2.30261
2.45271
-0.150104
0.625065
-0.412003
-3.2692
-0.467977
-0.893107
2.74077
-0.0954914
1.21546
3.39323
-1.27863
-2.1146
-1.83936
-0.133374
1.97273
0.499817
1.48649
-1.98631
-2.0544
0.114576
-0.526408
-0.345285
0.871693
-1.3904
1.7917
0.403191
1.51064
-1.91384
-0.597645
0.402523
0.195122
-2.769
0.303555
2.46545
1.21467
0.916379
-0.672992
1.58987
0.711708
-0.798761
-0.402537
2.40536
-2.93274
0.531702
-1.27906
0.747363
0.528182
0.135719
1.98724
0.127173
-2.11442
1.70017
-2.91637
0.0102192
0.00611276
-1.4357
2.04806
-0.612368
-2.08987
2.00553
-0.0482441
0.80526
-0.757016
-0.729655
0.3177
0.411955
0.221859
-0.253251
-0.737968
1.74139
0.496474
-0.463817
-0.446372
0.475074
0.607091
-1.25039
0.0131556
-0.0459292
-0.570349
0.548041
0.0223081
0.588478
-0.663166
0.0746881
0.346742
0.833409
0.359949
-1.85644
-0.0489098
-0.796203
0.0487538
1.6283
-1.67705
0.927083
-0.998022
0.582722
-2.2873
1.70458
0.63249
1.14051
-1.773
4.09099
-5.39811
-0.628701
-0.0715716
-2.76917
0.871025
1.78141
-2.19961
-0.315084
-2.99342
2.68756
-1.19699
0.515894
0.064785
-0.0203766
-0.0444083
3.57897
-1.57685
1.79658
-0.210269
-0.670913
-0.44495
1.11586
-3.22511
1.33215
1.89296
-0.740513
0.536407
-0.483782
3.01597
0.46465
-0.271685
-1.62393
-0.13353
-0.303069
0.575192
-0.467541
-0.107651
-0.379258
2.58572
-0.178365
0.520164
-0.341799
0.0886872
-3.89708
1.79803
2.09906
0.680695
0.56393
-1.24463
3.12859
-1.05311
-2.07548
-1.51279
0.786952
-2.2609
-0.00879761
1.1206
2.6505
-2.91793
1.16986
-0.516467
-1.16122
2.00542
-4.87549
3.12436
1.75113
2.00449
-2.47349
0.468998
-2.0469
2.16657
-0.119667
1.17719
-1.49547
0.0387965
0.64623
0.750208
1.05435
-2.10835
-1.41846
-1.98893
1.63935
0.34958
0.690804
-2.53016
1.12379
-0.119598
-1.70442
0.353696
0.631019
3.02777
-1.01285
-2.01492
-1.09236
0.765621
-1.70973
0.453195
-2.78977
2.6564
-2.17936
1.0166
1.40025
-5.9792
1.87523
4.10397
-2.78995
3.82499
-1.03504
0.029486
0.27066
-0.572664
-2.87274
2.0172
0.855535
2.05691
-2.97464
-3.17725
-0.111936
3.49206
-1.5584
0.618097
0.523245
-1.14134
-0.0678851
-0.438183
0.506068
-0.800177
1.15862
1.56129
-2.3171
-3.6621
0.480011
0.576629
0.650544
1.02033
-1.67087
1.08537
-0.644856
-0.164498
-3.20151
3.36601
-0.963746
1.25733
-2.38207
-1.60586
-1.23383
2.83968
0.711394
-0.913728
-1.95417
0.618456
1.33572
-0.217377
-0.138659
0.356036
2.31065
-2.61703
0.357069
-1.79276
1.06921
1.62801
-2.69721
-0.585909
-0.169399
-2.33809
0.660031
1.67806
-2.70572
1.29734
1.50522
-2.68973
1.66483
-1.13313
-0.216518
-0.000859118
0.0951251
2.35933
-1.74695
2.17848
-0.431533
1.72436
0.0546178
-1.77898
-2.29075
-0.0474601
-0.6972
0.145977
2.33206
0.342051
0.0919904
3.28657
0.575358
0.491306
1.4525
-0.413934
0.776426
-2.62644
-0.165561
-1.70912
2.34559
-0.681862
0.495353
0.533731
-1.02908
2.66971
0.566466
-3.23618
-0.308913
0.298252
-0.958367
-2.12376
-2.23673
-0.345684
-1.24046
2.94063
-0.952471
1.31162
-0.359152
-2.74325
0.940963
-0.79553
1.44607
-3.53682
0.814527
-1.07696
-0.850799
0.951193
-2.25712
-0.470247
3.14929
-0.408516
3.45345
-0.591808
-2.86165
0.247279
0.58746
0.733462
2.90813
-2.71339
-0.00313228
-0.633514
0.913547
-1.41009
1.47258
-1.28958
-0.940697
0.603516
0.494814
-1.09833
-2.53477
0.0567259
-0.340328
2.18286
-1.84253
-0.108429
-2.19418
-1.98829
2.31403
3.78474
-1.63112
-2.15361
-0.32114
0.855454
2.49535
-1.36961
-1.12574
0.737239
-0.807775
0.123853
-0.03051
-0.487672
0.0250805
0.462591
-0.366741
1.43772
-1.00883
3.06575
-0.0799847
-0.422893
-0.777799
-0.231466
1.00927
-0.0187312
2.32938
0.466297
1.20459
-1.67089
-1.06156
1.61605
1.20539
1.19005
-1.02236
-0.27478
1.46532
-0.528043
-0.937278
-0.076775
-0.00907355
0.0858486
0.351052
-2.23944
1.88839
-2.6306
0.393868
0.616866
1.49711
0.848482
-0.017974
0.755213
0.350934
-1.3034
-2.31186
1.21682
-2.87847
0.924605
-1.26907
0.137758
-1.21297
-1.6447
2.85767
-4.39365
0.387258
0.430777
-0.818035
2.93817
-2.16556
2.15891
-1.65909
0.428282
1.50199
-1.93027
0.548182
-1.07459
-2.26899
2.85723
-0.588237
0.422298
0.536127
-0.958425
-1.10975
2.80012
-1.69037
2.43787
-1.48585
-0.952021
3.87438
0.116553
-3.99093
-1.57597
-2.32112
-0.909572
-0.0539877
0.107682
2.96074
-0.0441338
0.259987
-0.215853
-1.88138
-0.456703
2.04842
1.7597
-1.49992
1.80204
-0.302118
-0.855937
1.0197
0.102083
1.0873
-1.18938
0.339258
-0.517623
-0.311114
-2.56162
-1.00704
0.940596
0.0273212
-0.823872
0.583844
0.200759
2.08319
-2.28395
-1.43673
-0.342764
2.62472
-2.13136
0.201393
-0.711874
-0.177599
0.205109
-0.0275104
0.273755
-1.02015
0.746397
0.782963
1.36999
-2.68477
2.33313
-1.05969
2.60472
-1.34739
-0.313005
-0.699163
1.01217
2.11891
0.233582
0.0737937
-1.88728
1.28459
1.41564
-1.43437
-1.48689
-1.48389
2.97078
-1.77622
-1.44889
-3.02929
3.16964
-0.140347
0.548372
-1.03283
0.76349
1.57926
0.75387
-0.602356
-0.256623
0.858979
-0.512085
-3.24322
2.6522
-1.73461
-0.917589
1.52239
-0.878712
0.530616
0.00630008
1.65164
-2.61001
1.28992
-1.01048
-0.0627312
2.98673
-2.924
1.81005
1.46061
0.811186
-2.2718
3.05527
-1.81924
-1.23603
-1.19698
-2.03271
3.25153
-1.21882
0.160417
3.29304
-0.788683
0.770709
1.19587
2.28831
-0.599579
0.531694
0.0758938
-0.0307897
2.7061
-1.50603
1.63331
1.94565
-1.13608
0.59549
0.540592
0.625534
-1.27046
2.1145
-0.127252
1.66734
-1.04924
-1.90241
-0.306695
2.20911
0.52141
-0.0915729
-0.429837
0.405418
0.239015
0.389419
-2.78126
-0.773841
0.844649
1.95304
-1.7196
-0.233439
0.435568
1.02975
-0.412517
0.217445
0.666954
0.660327
-1.32728
-1.38441
2.84223
-0.385963
-1.56333
3.32371
-1.76038
-0.744311
1.12997
-0.268205
-0.32944
3.05411
-1.50143
-0.94776
1.11611
2.01248
0.81824
-0.86715
-0.487788
0.421236
-0.803763
-0.38814
-0.00527769
1.39572
-0.418813
2.27859
-1.85978
0.0774841
-0.0977418
-1.01533
0.301723
-0.903632
-0.00593981
-1.96405
1.4931
0.635791
0.659288
-0.687194
-0.800714
1.48791
0.682372
0.264718
2.34774
1.33182
-3.67956
-0.268236
-0.0596484
0.327884
-1.93806
-1.51891
2.46824
1.3165
2.19026
-1.9895
-3.28999
-0.155693
0.0470777
0.14802
1.2958
4.16837
-1.03669
-3.13168
1.01745
-0.0903676
-0.0912042
-0.887066
-0.249017
-1.00298
-1.24357
1.46812
-2.56782
3.96272
1.57776
-1.59495
0.0171943
0.527466
0.0205749
-0.17949
0.685431
-0.0969531
2.13635
0.581389
-2.71774
0.377674
0.197518
-0.620847
0.375902
0.244945
-0.937938
0.00569567
0.932243
0.941057
1.47199
-2.41304
0.632638
0.789672
1.9253
-0.0475974
-0.716842
1.32357
-0.748214
0.395239
-0.55109
0.155851
-2.30475
1.58897
2.33651
-1.86173
-0.474781
0.0441753
-0.399323
0.355148
2.3985
-2.6112
1.89574
-0.373346
0.881458
1.27745
-0.347268
-0.0408725
-0.525698
0.218009
0.307689
-1.60585
-0.341233
2.99475
-1.53201
-1.46275
3.15335
-0.561228
-2.59213
1.11316
-1.92933
0.816174
-0.301022
1.41393
-0.0218856
-1.0442
2.03897
-0.994771
-0.306351
-0.219347
2.03048
0.310758
0.209406
2.52458
0.00467574
-2.52926
-0.43291
-0.286667
0.247234
0.163771
-0.0261982
1.12887
0.919194
-0.81528
0.767004
0.00590908
-0.112322
-0.365976
0.355504
-1.06504
1.49333
0.0417467
0.662088
-0.0113316
-0.98518
2.18369
-0.109129
1.68689
-0.403637
-0.31237
-0.652858
1.31981
-0.542277
2.4065
-1.86423
-2.22315
-0.310306
-1.81363
2.44327
-0.629648
-0.241451
0.552209
0.83842
-0.171895
-0.0561358
-0.643566
0.699702
-2.23221
0.730783
0.304278
-0.350733
0.782506
-3.04374
0.712877
-2.30923
-0.979792
2.58203
-1.19968
1.36163
-0.701299
0.0367251
-1.71992
2.07097
-0.00292579
-0.417413
0.367396
-1.4363
-0.262458
-1.63889
1.90135
-0.011204
1.85958
3.68553
-2.30367
-1.38185
-0.593477
0.193723
0.616856
0.0607562
-0.677612
-2.15994
0.412991
0.503657
0.0619623
-0.0240243
-0.337051
0.361075
0.806908
-2.62053
0.23553
1.20005
0.0948317
-1.29488
-2.66802
2.12574
0.403497
0.103093
-0.50659
-0.465837
-3.33247
-0.370818
-0.0114436
0.382261
0.524583
-0.121087
-0.0101555
1.94117
-1.47363
1.60858
1.32536
-0.692717
-2.39591
0.790054
-1.80634
1.4607
0.345647
1.4057
-2.89259
-1.31641
-0.821619
2.13802
0.210186
1.02328
-0.787509
0.654552
3.00109
-0.427387
-2.5737
-0.0140605
-2.61238
3.49509
0.379288
1.18563
1.30972
-0.413682
-0.0150534
0.399476
-0.762644
-0.874083
0.102215
-0.143994
0.0417794
0.0729958
-2.40747
2.33448
-0.151371
0.785571
-0.6342
0.563233
-1.77631
1.21308
-0.267868
-1.45065
-0.0895026
0.0379491
1.7936
-0.885676
-0.522096
1.40777
-0.927789
-1.10242
1.17228
-0.677461
0.513596
0.214953
-0.728549
-1.75766
1.07047
0.383209
-0.339661
-0.107716
0.447376
0.265987
0.820035
-1.08602
4.68086
-2.31295
-2.36791
0.0722105
-1.4665
0.453815
-3.29276
-1.24341
-1.32919
2.57259
-2.54583
0.121063
2.42477
-3.48343
-2.11055
0.0636485
-0.737549
0.760802
-0.0232529
-2.96621
-0.951631
3.08798
0.986896
-0.513271
0.216841
-0.869699
-0.446685
1.23636
0.39718
0.236499
-1.0143
0.0488363
-0.400592
0.351755
-0.419295
0.147787
-0.271865
0.31604
-0.671633
1.35233
-3.11054
3.20001
-0.0894689
-1.56996
1.01042
1.51235
0.528174
-0.00676387
-1.13825
0.535892
-1.25798
-0.696188
-1.42318
0.516873
0.906304
-0.112298
1.05355
-0.941252
-1.03134
1.3051
-0.210113
1.89515
2.74761
-2.28132
1.48607
-2.41386
1.15824
-1.52253
0.364289
0.278062
-0.00177668
0.120008
-0.0159374
-2.83843
1.62546
0.500769
2.65258
0.0397646
-0.532348
0.492583
-4.10984
1.6765
0.115943
-0.587888
-0.507639
-0.0505926
-0.56997
0.620563
-1.46313
0.57745
-2.74897
2.43786
2.77035
-1.70114
-0.587036
0.530883
0.0561527
0.0972382
0.0111208
-0.394842
-2.28393
2.39383
-0.109908
-0.374439
0.31479
-0.214253
0.857884
-0.643632
1.41165
0.484085
0.152265
-0.0817566
-0.0705085
-0.690931
0.732678
0.0798306
0.0925755
1.81932
-0.892784
2.75211
0.183211
-3.68203
1.08494
2.51105
-0.0789772
-2.43207
-0.416178
-0.303491
0.71967
1.33925
-2.74412
-0.0537288
1.70512
-1.65139
-0.0864414
-0.043325
0.129766
-1.8757
1.79973
0.0759698
-1.06328
1.646
5.44536
0.0687881
2.19146
-0.407051
-1.78441
0.0878225
0.551002
-0.638825
-0.210771
-0.819362
-0.0506577
-0.796561
-0.0228015
0.0970094
-0.88047
0.783461
-0.229075
2.49785
-2.26877
-2.38572
0.9366
1.44912
0.739562
2.47337
0.102382
0.0924589
-0.194841
1.46488
0.652163
-2.11704
0.038727
0.026058
-1.04399
2.66548
-1.62149
-2.21045
0.308035
1.74776
0.737807
-2.05421
-0.00479221
-0.305024
0.309816
2.67621
-0.668596
-2.00762
0.953403
0.572498
-2.80935
1.48909
2.86207
-3.02656
-1.34382
0.300447
1.04338
-0.0969163
0.380643
0.712542
-1.09319
-0.096198
-0.000298493
0.0964965
-0.0259323
0.322932
-0.297
0.907226
-0.999107
0.0918815
-1.48225
3.13389
-0.766805
0.779534
0.37306
-0.587313
0.957019
-1.42106
0.464039
-2.93958
-1.93591
-0.690919
-0.0077886
-0.0408655
-0.0145178
0.0553833
1.908
0.672989
-2.58099
0.277835
1.6752
-0.626181
-0.345408
-1.47579
0.23857
1.14925
1.19074
-2.33999
-0.0145259
-0.0504929
0.0650188
-0.0613227
0.908663
0.216377
0.135619
-0.351996
2.76408
-1.03374
-1.73034
-2.3343
0.485315
0.948974
-2.10833
0.0958573
2.01247
-0.466806
-1.19775
-0.816955
0.461228
0.0779534
0.0420546
-1.74568
2.50197
-0.756293
0.388468
0.0761819
0.0999095
0.431679
-0.621756
0.541771
-0.761252
1.03147
-2.04397
2.06826
-0.0242884
1.88027
-1.04292
-0.837348
2.62155
-1.83859
0.629946
0.145839
-0.596777
0.495089
-0.0921512
-0.985433
4.54008
-5.64234
-1.9652
0.921004
-0.705717
0.822488
0.363733
0.16085
-0.0707801
-0.0156614
2.29015
-2.31689
0.0267439
0.605977
-1.27377
0.527819
0.745951
0.261229