/*--------------------------------*- C++ -*----------------------------------*\
| =========                 |                                                 |
| \\      /  F ield         | OpenFOAM: The Open Source CFD Toolbox           |
|  \\    /   O peration     | Version:  2306                                  |
|   \\  /    A nd           | Website:  www.openfoam.com                      |
|    \\/     M anipulation  |                                                 |
\*---------------------------------------------------------------------------*/
FoamFile
{
    version     2.0;
    format      ascii;
    arch        "LSB;label=32;scalar=64";
    class       surfaceScalarField;
    location    "1.5";
    object      phi;
}
// * * * * * * * * * * * * * * * * * * * * * * * * * * * * * * * * * * * * * //

dimensions      [0 3 -1 0 0 0 0];

oriented        oriented;

internalField   nonuniform List<scalar> 
7520
(
-0.98412
0.675713
0.308407
-1.38749
-0.163651
1.55114
-0.00998309
-1.66984
1.67982
0.260873
-0.0358816
-0.224992
-0.21673
1.4037
-1.18697
-0.105912
0.113958
-0.00804594
-0.227347
2.06051
-1.83316
-0.125302
-1.46175
1.58705
-1.18182
1.17183
0.802023
0.401998
-1.20402
-0.224807
-0.115709
0.340516
-0.19035
-1.80209
1.99244
0.739254
-0.0486737
-0.690581
-0.116569
0.161041
-0.0444719
-1.78128
1.0065
0.774778
0.15213
1.59512
-1.74725
-0.180817
-0.0443612
0.225178
-0.0307429
0.301383
-0.270641
0.0267576
0.0735636
-0.100321
0.0779012
-0.258718
-0.510617
-0.195427
0.706044
-1.06357
1.2157
-0.0373801
-0.341391
0.378771
0.186429
-0.170042
-0.0163872
-0.0301863
0.103106
-0.07292
0.279984
-0.274878
-0.00510545
0.876537
1.12553
-2.00206
-0.0401669
0.345901
-0.305734
0.0232397
0.00351797
0.240935
-0.0386535
-0.202282
-1.04416
1.74
-0.695833
-0.0569788
-0.0218479
0.0788266
-1.73574
1.93484
-0.199099
-0.33401
0.390438
-0.0564281
-0.174164
-1.25075
1.42492
-0.644309
0.83809
-0.193781
0.298238
-0.586017
0.287779
0.919704
-1.60236
0.682659
0.0953518
-0.356996
0.261645
-0.0542234
-0.123553
0.177776
-0.0307207
0.291594
0.564722
-0.0653335
-0.499388
0.319569
-0.0395852
1.82692
-1.1568
-0.670115
-0.375585
-0.716289
1.09187
-1.46695
1.65076
-0.183813
0.0328809
0.136852
-0.169733
0.313269
-0.0976304
-0.215639
-1.36925
0.325087
0.30333
-0.0832223
-0.220108
1.78359
0.086485
-1.87007
-0.698645
0.189207
0.509438
-0.0813302
0.0857582
-0.00442801
1.03431
0.453757
-1.48807
0.0165704
-0.122483
-0.76897
0.0692754
0.699694
0.319879
-1.23519
0.915314
-0.046226
-0.135429
0.181655
-0.140126
0.0831469
-2.36622
1.1084
1.25782
1.77698
-1.1732
-0.603774
-0.0220652
-0.058845
0.0809102
-1.17395
0.999787
0.941542
-0.202288
0.0245578
-0.105888
0.00480939
-0.121378
1.10079
-2.16898
1.06819
0.194945
1.58864
-1.29336
1.00863
0.284732
0.345381
-0.260716
-0.0846655
-0.551861
0.871741
0.761458
-1.08705
0.325589
0.370298
-0.101609
-0.268688
0.162528
-0.436303
0.273775
0.860481
-1.69411
0.833626
0.150854
-0.131671
-0.0191833
2.29631
-0.908107
-1.38821
0.475079
-0.810815
0.335736
1.48733
-1.31436
-0.17297
-0.901303
0.132333
-1.54681
-0.819406
0.686819
0.0395962
-0.726415
0.272212
-0.668428
0.396216
-0.0233599
-0.31065
0.315096
-0.345839
0.261937
-0.021002
0.0354699
-0.0448443
0.00937431
1.27103
1.02528
-1.50768
1.72057
-0.212892
1.1742
0.602775
-1.01564
1.15622
-0.140579
-0.065221
0.0561928
0.00902819
1.34818
-1.53853
0.267449
0.220148
-0.124796
1.04748
-0.288065
-0.759416
0.0081895
0.101384
-0.109573
-0.581341
0.372243
0.209098
1.56786
-0.70738
-0.776354
0.667852
0.108503
0.849178
-0.769687
-0.0794913
-0.103627
0.130577
-0.0269494
0.0796578
-0.13153
0.0518722
2.1217
-1.35636
-0.765336
0.544354
-0.522187
-0.461932
-1.37801
0.826146
-1.74756
1.52022
0.199016
-0.0901724
-0.108843
-0.313115
0.0883082
-0.188195
0.186885
0.00130981
-0.425175
0.504322
-0.079147
1.94459
-1.02488
-0.135669
0.0703865
0.0652826
-0.810374
0.299756
0.146867
0.0983739
-0.245241
0.0226519
0.664167
-0.738137
0.355532
0.382605
1.17671
-2.06216
0.88545
0.0662456
0.120183
-0.12248
-0.576164
-0.310274
0.0182465
0.292028
1.39939
-0.597368
-0.0983826
0.408673
-0.31029
0.120597
-0.127464
0.00686676
0.129551
-0.124038
-0.0055125
0.726402
-1.79678
1.07037
0.417356
-0.454736
-0.369509
-0.0789607
0.44847
-0.12445
-0.0112193
0.1073
0.291734
-0.399034
0.17026
0.036094
-0.206354
-0.0710449
0.241305
-0.635933
-0.102204
0.286709
-0.67253
0.385821
-0.684274
1.37775
-0.693475
0.330695
-0.376617
0.0459217
-1.13534
-0.242666
-0.0396481
-0.0589248
0.0985728
1.39715
-0.362839
-0.625805
0.485956
0.139849
-0.00391086
0.161691
-0.15778
0.32618
-0.0855781
-0.240602
0.177138
-1.84698
0.318463
-1.78541
-2.08646
0.907966
1.1785
-0.869764
-0.423599
-1.21449
0.768412
0.446079
1.57615
0.195281
-1.77143
0.210042
-0.264265
0.217712
0.467011
-0.684723
-0.364047
-0.793694
1.15774
-0.148594
-1.0659
-1.76242
0.0266776
0.0285915
0.00687846
0.0773455
-0.153355
0.0760099
0.312541
-0.358767
0.644198
0.20498
-0.176495
0.145774
0.00124597
-0.0144373
0.0131913
0.817996
-0.456995
-0.361002
-0.580498
-1.20078
0.368816
-0.732863
0.0774592
-0.621846
0.544387
-0.176788
-0.0930826
0.26987
-1.53892
0.776378
0.76254
0.380096
-0.596826
-0.0829842
0.502466
-0.419482
0.148868
-0.179054
0.560243
-0.258734
-0.301508
1.1573
-0.10982
0.262606
-0.345828
0.99256
0.14498
-1.13754
0.324104
-0.364271
-0.386554
-1.23271
1.61926
1.26005
0.684391
0.754095
-0.481883
-1.0428
0.398495
-0.690532
0.959487
-0.268955
-0.0195326
-0.0250924
0.044625
0.269615
-0.331619
0.0620033
-0.775776
0.798428
-0.297334
-0.160334
0.457668
-0.244849
0.0680618
-0.850958
0.928417
0.365698
-0.942684
0.576986
-0.492389
-0.0889519
0.726429
-0.428191
0.163659
-0.0128048
0.299086
-0.0738192
-0.225267
-0.0268219
-0.398353
-0.612972
-0.36161
0.974583
0.141566
0.228732
-0.788453
-0.905654
-0.886338
-0.652581
-0.0541181
0.044139
0.00997917
0.958008
-0.472284
-0.485724
-0.856103
0.171829
-1.14012
2.08982
-0.949703
0.390241
0.170001
0.313399
-0.268684
-0.0447148
-0.719235
0.596755
0.657181
-1.03277
1.77217
-0.0431067
-1.72906
-1.66884
2.17637
-0.507531
-0.0314228
0.108768
0.441986
1.12146
-1.56344
0.0393392
-0.192803
0.153464
-0.0878442
1.73836
-1.65051
0.000981615
0.133633
-0.134615
-0.923458
1.29206
-0.368604
-0.0612323
-0.658003
0.0499207
-0.662893
0.263272
-0.201547
-1.66078
1.86232
-0.198275
0.271838
-1.74716
0.958707
0.332184
-0.0233854
-0.308799
0.044033
0.0765638
0.171291
1.5662
-1.7375
-0.51995
-0.641884
1.16183
-0.552725
0.449643
0.103082
2.27302
-1.45725
-0.81577
0.518097
-1.03805
0.0918089
-0.104943
0.0131336
0.129418
0.740169
-0.869588
0.0731344
-0.0751613
0.00202684
0.878049
0.761505
-1.63955
-0.245027
-0.531327
-0.0736335
0.207519
-0.133885
-0.956444
0.682005
0.274439
-0.0991163
0.050435
0.0486814
0.815878
0.14213
1.09031
-2.03135
0.941048
-2.45326
1.1147
1.33856
-0.984533
-1.46872
-0.387404
0.429816
-0.0424124
-0.326858
0.359175
-0.0323172
0.410487
-1.11091
0.70042
-0.018372
1.12825
-1.10988
-0.503363
0.542959
1.10165
-0.109086
0.968825
0.974641
-1.94347
-0.221965
0.114758
0.107207
-0.0300735
-0.926371
1.83153
-0.450841
-1.38068
0.157821
-0.118481
0.0190688
-0.27242
0.228059
1.01374
0.817788
0.28081
0.574424
-0.855235
0.391364
-0.0454637
-0.0279731
-0.179891
0.207864
-0.286176
0.349242
-0.0630662
-1.83194
0.90449
0.927449
-0.097095
-0.229763
0.848241
-0.561531
1.05762
-0.331921
-0.725703
0.153876
0.159394
-1.92023
1.92967
-0.00943749
1.09677
-0.731072
-0.00297918
-0.0991577
0.102137
0.00754676
0.076615
-0.0841617
0.132743
-0.234352
1.70386
-0.603073
0.0607702
-0.198081
0.13731
0.00446578
-0.00321982
-0.418011
0.302302
0.686259
-0.974324
-0.709918
0.691546
0.312633
-0.0135473
2.06051
0.000283327
-0.00311604
0.00283272
-0.573653
1.25991
-0.238496
0.157812
0.0806839
0.179056
-0.0993985
0.0636129
0.501109
0.848829
-0.631117
0.457462
-0.398348
-0.0591139
0.333163
-1.25662
-0.127392
0.234692
-1.56391
1.36237
0.110771
-0.0189622
-1.68922
0.276011
-0.279921
-0.145147
-0.0761374
0.221285
-0.641057
-1.19088
1.17695
0.944749
1.64385
-0.867471
-1.80209
0.377002
-0.475385
-0.167875
-0.253926
0.421801
0.186492
-0.29144
0.104948
-1.26942
0.553129
-0.211395
-0.281469
0.492864
1.18434
-0.782347
-0.210002
-1.71472
1.92472
0.853658
0.267205
-1.53017
1.26297
0.891914
1.04293
-0.909513
1.41309
-0.971109
-0.0467186
0.420974
-0.374256
-0.864265
0.797081
0.0671842
0.111472
-0.0507017
-0.0909788
0.354993
-0.264014
-0.320308
-0.185895
0.506203
-0.500149
1.7602
-0.292824
-0.397039
0.689862
0.243373
-0.210492
0.221663
-1.2373
-0.152863
0.12489
0.0103311
-1.95577
1.06072
0.895054
0.447943
-0.496616
0.00905887
-0.0699591
0.400654
0.994749
1.27827
1.57989
-0.460271
-1.11962
0.145976
-0.0508259
-0.0951501
0.918344
0.56899
-0.332962
0.165087
0.619815
-1.58651
0.966697
0.0256706
-0.0944758
0.0688052
0.672397
0.895464
-0.253233
-0.103763
0.756017
-0.475206
-0.540136
1.41667
0.188164
0.0108512
1.91678
-0.740064
0.168012
-0.159822
1.75061
-0.17072
0.118173
0.435152
0.0223101
0.0194106
0.325971
-1.66108
-0.926878
1.01875
-0.0918699
0.0069686
-0.138639
1.8045
0.0109721
-1.81548
-0.773022
0.480198
0.252459
0.0737209
-0.336735
0.076019
-0.207095
-1.10727
1.55531
-1.54817
-0.00714204
0.0876066
-0.414399
0.326792
-0.893543
1.56594
-0.866315
1.59272
0.160825
-0.0732188
0.769324
-0.413791
1.91159
-0.563413
0.00494816
0.149592
-0.15454
-0.13413
-0.0510611
0.185191
0.143616
0.00235974
0.186007
-0.847373
0.146637
0.124847
-0.271484
0.552232
0.825517
-1.77864
1.39208
0.139311
-0.50882
-0.407307
1.16876
-1.12828
1.30928
-0.181001
0.572969
-1.98775
1.89991
2.14901
-0.877975
0.881841
0.945074
-0.0846203
0.241238
1.31408
-1.3471
0.332669
1.01443
0.285996
-0.324649
-0.380103
0.283008
-0.248125
0.17708
0.177068
-1.33387
0.732587
-1.09155
0.358962
-1.75871
0.88331
0.875402
-0.567511
-0.519536
0.108352
-0.130417
0.0929073
-0.0840398
0.604018
-0.519978
-0.5923
0.509316
1.21061
0.938392
-1.66884
0.0564898
0.073061
1.63692
-1.42345
-0.213476
-0.371034
1.49249
-1.23401
2.08372
-0.849708
-0.818401
0.962305
-0.143903
0.155383
-1.32933
0.124336
0.234839
-0.284783
0.456939
-0.172157
-0.119552
-0.0119778
1.39273
0.483721
-1.20342
0.719701
-0.0774813
-1.57158
1.64906
-0.0617705
-0.126425
0.0685039
-0.48757
0.419066
-0.73364
1.02872
-0.295079
0.22747
-0.158303
-0.069167
-0.103074
0.725153
-0.622079
-1.90937
1.74572
1.81764
-0.536539
-1.28111
0.70669
-0.74654
0.0398503
-0.0152804
0.201773
0.164474
-0.656863
-0.802255
1.6803
0.201795
-0.0549279
1.77217
-0.965373
1.09479
-0.0343817
0.0343817
-0.44565
0.225349
-1.73303
2.2504
-0.941563
-1.30884
-0.452582
0.884128
-0.431546
-0.0103609
0.205684
-0.195323
1.08236
-1.05181
-0.030549
-0.455031
-0.35565
0.810681
0.94653
-1.98864
1.04211
-0.0138287
-0.850437
-0.254875
0.120745
-0.314292
-0.479536
0.793828
0.707804
0.51964
-1.22744
-1.34302
-0.400024
0.708523
-0.308499
-0.537389
1.34907
-0.811679
1.46612
-1.29483
-0.100169
0.246806
-0.021188
-0.104148
0.266676
-1.1406
0.708782
0.431816
-1.43034
1.64218
-0.211846
-0.020146
0.157156
-0.13701
-1.36422
-0.80476
-0.0186769
0.0419165
-1.68008
0.539963
-0.400594
0.309615
-0.380605
-0.437797
-0.136011
0.161682
-0.65122
1.62005
0.0497535
-0.391144
-1.52876
0.142057
1.3867
0.452446
-0.758639
0.306193
-0.893394
0.202861
0.228583
-0.604146
0.375563
1.59585
-0.168146
-1.42771
-0.0170916
-0.125787
0.142879
-0.3189
0.553189
0.436143
-0.989331
-0.376451
1.38296
0.306047
0.668582
0.728566
-0.0290474
1.50882
0.241797
-1.44815
1.37067
-0.208086
-0.0422497
0.250336
-0.253556
-0.0535486
0.307105
-1.69593
0.461913
-0.345917
0.280583
-0.624683
-0.302195
0.269434
0.914368
-0.469415
-0.444953
0.212022
0.107547
-1.04978
1.88194
-0.832162
0.205384
-0.256445
-0.0952657
0.364881
0.276252
-0.561035
-0.0757192
-0.239219
0.314938
-0.155021
0.0233099
0.131711
0.598548
-0.664812
0.066264
0.00867138
0.0614873
-0.0701586
-0.3171
0.352098
-0.0349977
0.334642
-0.722542
0.3879
0.349802
-0.063806
0.0388809
0.349211
-0.388092
1.0303
-1.01503
-0.987031
-0.536665
-0.0395135
0.576178
0.208059
0.0637792
-0.312713
-0.240011
1.00056
-0.0861894
0.0810052
-1.27317
1.19216
-0.32082
0.0105461
-0.128477
-0.507456
-0.378093
0.275019
0.196892
-0.195911
-1.25327
-0.0420688
-0.0954419
0.137511
1.17426
-1.02929
1.03243
0.785215
0.348348
0.709276
-0.220179
-1.63037
1.85055
0.387671
0.690717
-1.07839
-0.372185
-0.978032
0.501749
0.476283
0.795065
-0.342619
-0.0878159
-0.0166736
0.10449
2.21443
-1.21992
-0.994507
0.147428
-0.338084
0.190656
0.361677
0.680977
-1.04265
0.0801878
0.111134
-0.191322
1.63498
0.0498365
-1.68482
0.281717
0.0196667
-0.279389
0.329142
0.0312168
0.11325
-0.144467
0.382173
-0.0670767
0.0331141
0.0691044
-0.102219
-0.75859
-0.365567
1.12416
1.19251
0.403341
1.00732
-0.92632
0.197143
-0.930783
-1.88038
1.67038
-0.177123
0.0496596
0.316915
-0.60466
0.287745
0.840055
0.803794
1.14993
-1.34294
0.193006
1.25849
-0.589907
-0.164038
0.113212
-0.0573331
0.199858
-0.142525
-1.45956
-0.236186
1.69574
-0.372904
0.473727
-0.100823
-0.00240106
-0.0319807
0.54639
0.857308
-0.157826
-0.0641392
1.16048
-2.11438
0.953901
-0.941783
0.118844
0.82294
1.71302
-0.622718
0.040102
0.370857
-1.16455
-0.29199
0.00592435
0.286066
0.024266
-0.226548
-0.659703
1.14342
0.0235942
0.0495403
0.250989
0.0884075
-0.339396
0.115307
0.967049
-0.134445
-0.538085
-0.32085
-0.424307
0.442554
0.53821
-0.918815
0.0833094
-0.0129229
-0.0494893
0.277548
-1.91135
0.896317
0.022174
0.207402
-0.229576
0.139039
-0.102777
-0.0362614
0.260412
0.867842
-0.0692156
0.0103706
-0.0606408
-1.51078
1.57142
-0.160379
-0.425226
0.585604
-0.0582501
0.0810722
-0.0228222
-0.293804
1.02639
-0.233412
-0.293952
0.527364
-0.299644
0.528227
-0.804153
1.72476
-0.920608
-0.914265
0.508939
0.405326
1.69269
-0.116537
-0.286967
-0.0603034
0.347271
0.364013
-0.0722787
-0.194691
-0.282603
1.00149
0.719089
0.493718
-1.30339
0.809669
-0.792195
-0.208778
1.00097
-0.000514082
-0.396765
0.397279
0.13193
0.255753
-0.387683
0.674336
0.0231599
-0.697495
-0.0512621
-0.1016
-0.901685
0.104768
-0.00166184
0.0263213
0.0985683
-0.139845
0.42609
-0.286245
-0.25911
0.301651
-0.0425406
0.0934331
-0.0808816
-0.0125514
0.767008
-0.436599
-0.0312103
-0.0136339
-0.417586
-0.358939
0.776524
1.22423
-0.963821
-0.0402491
-0.350978
0.391227
-0.29703
-0.472657
-1.3046
1.49954
0.653016
-0.186005
-1.29575
0.829718
0.466032
0.294754
-0.127723
-0.16703
1.78385
-1.78385
-1.67121
0.124395
-0.903766
-0.137542
-0.69037
0.827912
0.535546
-0.565879
0.0303333
0.0817055
0.253122
-0.209195
-0.0439268
-0.0447316
0.249907
-0.205175
-0.591209
1.14581
-0.554605
-0.266219
-0.0592012
0.32542
0.790022
-0.634638
-1.08969
0.29749
-0.0459124
-0.245911
0.291823
0.0785136
-1.42561
-0.703878
-1.10091
0.397027
0.867002
-0.0570079
0.238982
-0.181975
-0.297762
0.365522
-0.06776
-0.270614
0.196981
-0.0903126
-0.231197
0.0860491
0.0425593
-0.0443672
-0.136848
0.181215
0.166686
0.0331714
-0.295298
0.334179
0.16841
-0.225034
0.0566241
0.0471821
0.0408961
-0.0880782
0.0977883
0.0935723
-0.191361
-0.0738713
0.195776
-0.121904
-0.758804
1.11777
0.744639
-1.02649
0.281853
-0.181394
-0.0832871
0.264681
-0.00477951
-1.91804
1.92282
0.836042
-0.629273
-0.206769
0.313855
-0.0920027
-0.199437
0.245309
-0.146935
-0.0633695
0.210797
0.354453
-0.911955
0.557502
-0.474128
-1.4461
-0.311558
0.946174
-0.634616
-0.0566601
-0.0677896
0.438297
-0.296542
-0.141755
0.0949757
-0.512562
-0.584509
-0.326424
0.379723
-0.0532986
-0.56376
0.352365
-0.0883637
0.57432
0.146152
-0.138605
-1.37025
0.0138898
-0.301628
0.57788
-0.0278262
-0.227049
-0.232686
0.0901612
0.260225
-0.317233
-0.0894604
-1.10899
0.350186
1.86649
-0.128131
-1.66078
2.16329
-1.04207
-1.12122
-0.145641
0.517885
-0.143509
-0.757794
0.520779
-0.547601
-0.271009
-0.0209809
-0.56135
-0.520331
1.08168
-0.0615714
-0.117102
0.178673
0.0339873
-0.903752
-1.77536
-0.34137
-0.343708
0.685078
0.26002
-0.420399
-0.270645
-0.042623
0.313268
0.50874
-0.0913841
0.216595
0.0781588
1.96005
-1.01352
-0.991223
0.429873
-0.271377
-0.0553375
0.326715
-0.049651
0.0275119
-1.07932
-0.306454
-0.0695713
0.376025
-0.100282
-0.0398434
0.921042
-1.20762
0.286582
-0.646341
-0.0493125
1.83316
0.371413
-0.730352
1.14949
-2.03352
0.884034
-1.96814
1.21125
0.756891
0.182936
0.112313
-0.295249
0.160653
1.05239
0.0754433
0.835903
-0.911346
-0.0354849
-0.162596
0.0473161
0.659374
-0.0298542
-0.383902
0.413757
1.19049
-1.41066
0.542701
-0.186672
0.231181
-0.0445092
-1.50478
-0.166428
-0.661446
-0.810802
0.274138
0.130035
0.00375986
-0.133795
-0.668005
0.342999
0.325006
-0.42543
0.378712
-1.09627
-0.617792
1.71406
-0.127438
-0.154645
0.144284
0.467154
-0.520348
0.0531937
-0.817871
1.70118
-0.187803
-0.90631
0.453728
0.547848
0.300393
0.683846
-1.27506
0.0943706
-0.208534
0.114164
1.31006
-0.143249
-1.04372
-0.368895
-0.086276
0.455171
-0.0568275
0.233907
-0.0547795
0.274377
-0.219598
-0.281912
-0.0639269
0.185302
0.663527
-0.416495
0.333819
-0.0712127
-0.415876
0.345917
-0.17469
0.0245614
0.150128
0.281663
-0.108439
-0.173224
-0.167434
-0.0446628
0.212097
-0.210352
-0.0327236
0.243075
0.143186
-0.136319
-0.275996
-0.138403
0.177029
1.20178
0.414741
-0.199615
-0.215126
0.377724
0.0166116
-0.394336
-0.229128
0.416382
-0.187254
-0.359301
0.306205
-0.706229
-0.0653375
0.392263
-0.0797216
0.205585
-0.0567179
-0.151304
-0.0414991
1.75069
-0.989182
0.781368
-0.926283
0.144915
-1.57394
0.269336
-0.0722784
-0.11699
0.189268
-0.0510239
-0.0480924
-0.821235
-1.1469
0.388617
-0.0645125
-0.744169
-0.842343
0.341114
-0.0901247
0.0309861
0.436168
1.05183
-0.78985
-0.834126
1.32784
-1.5997
0.140136
0.447438
-0.0682597
-0.379179
-0.0897387
-0.20228
-0.417318
0.619598
0.170429
-0.0331189
-0.70517
-0.632236
1.33741
-0.925142
-0.977224
1.90237
0.549526
0.51033
-1.05986
-0.011685
-0.290455
-0.035969
-0.268757
-0.292278
-0.203848
-0.106473
0.310321
0.878967
0.278774
0.295442
0.142855
-0.254719
-0.642998
0.0756291
-0.0753457
-0.434546
1.24161
-0.807065
-0.159295
-0.248243
-1.62202
0.031251
0.012888
-0.534896
-0.121474
-0.27756
-0.805285
0.243754
-0.168643
-0.961293
-0.318838
1.28013
-0.302799
0.823578
0.550133
0.333995
-0.325301
-1.00262
-0.908727
-1.28961
1.25907
0.0906912
0.0735573
0.037463
-0.100979
0.0635157
-0.679237
0.611316
0.0679209
0.732841
-0.794073
0.297795
-0.275621
-1.10293
-0.192816
0.168981
-0.217622
0.0486406
0.592529
0.00601923
-1.40881
0.00537855
1.40343
0.0487283
0.117958
0.0543206
0.317546
-0.371866
-0.271706
0.438423
0.105931
0.100837
0.0380118
-0.138849
-1.30344
0.8526
0.160156
0.0102737
-0.19943
-0.138654
-0.361568
0.0397003
0.043609
-0.157624
-0.302947
-0.125299
-0.0191677
0.42083
1.50884
-0.714169
1.59601
0.995867
0.478957
-0.834607
-0.102689
-1.30612
0.673821
-0.350661
0.414583
-0.0639219
-0.0985507
-0.0254876
0.075999
0.0242125
-0.0640245
0.147171
-0.0958913
1.50903
-1.41314
0.16272
-0.820723
-0.133806
-0.284168
-0.0745995
-0.182504
-0.307598
0.387668
-0.0800702
0.0218027
-1.50274
1.48094
0.629984
0.197833
0.337713
-1.0082
-0.599133
1.02694
-0.427806
0.147448
0.0637044
-0.166482
-0.585535
0.499596
0.0859382
0.392755
-0.510048
0.117293
-0.220883
-0.524192
0.745075
-0.299656
-0.0646153
-1.95248
0.0865255
0.215293
-0.210345
0.0559798
0.190893
-0.0307372
0.382874
-0.726581
2.15696
-0.941016
-1.21595
0.0421709
0.486578
0.336665
-0.282345
0.247217
0.132506
-0.207179
-0.00846023
-0.38536
0.362
-0.526365
0.795178
-1.01606
0.167136
-0.10987
-0.0572657
-0.390148
-1.70865
0.854987
0.853661
-1.69662
1.69184
-1.07414
0.533602
0.540537
-0.837903
0.0484278
0.789475
0.333749
0.666808
0.205546
0.216669
0.804528
0.685639
0.0630103
-0.280457
-0.0160848
1.00499
1.15198
-0.216497
0.0366063
1.30564
-1.11036
-0.049309
-1.4007
1.45001
1.15411
0.0476658
-0.316966
-0.0836279
-0.161087
-0.0545604
-0.287135
-0.205393
-0.17471
0.18344
-1.03145
0.848006
-0.409317
2.22609
-1.38299
-0.843099
0.0183281
0.168079
0.0376044
0.674847
0.123582
1.60885
-1.48445
0.994559
-1.9197
-1.22316
-0.00830004
1.23146
-0.84344
0.2806
0.562841
0.178021
-0.079453
1.95042
0.018108
-1.96853
-1.06135
1.61614
-0.554785
0.0553215
0.24633
-1.2438
0.706415
-0.00405171
0.114823
-1.35049
0.222209
0.00219427
-0.0290083
0.0268141
-0.153829
0.218561
-0.0647321
0.0812052
-0.446156
0.36495
0.613076
0.405671
-0.529953
-0.138051
0.00550904
0.888989
-0.902817
-0.0790378
-0.0743176
-0.279091
0.0589827
0.108558
0.678704
-0.787261
0.0543119
0.51647
-0.570782
0.0917135
-0.508935
0.417221
-0.531223
-1.38284
0.575042
0.807799
-0.0329017
0.823372
0.296585
-1.11996
-0.655612
0.249069
-0.274382
0.025313
0.193433
-0.0399695
-0.275989
0.00534377
-0.314
-0.783404
0.152287
-0.462834
0.853477
-0.390643
-0.790149
-0.252655
1.90248
-0.84176
-0.104199
0.198205
-1.24538
-0.05797
-1.25767
1.31564
0.132742
0.0199379
-0.15268
0.764462
-0.494014
-0.270448
0.192811
-0.03112
0.105743
-1.17116
0.381012
-0.683375
1.18512
-0.0653709
-0.35264
0.322981
0.25638
0.0252832
0.869952
-0.389753
0.0595163
0.673325
-0.949943
0.373779
-1.89574
0.918516
1.51524
-1.49343
-1.62614
1.53025
0.0381217
-1.4542
0.245366
1.20884
0.56358
0.382594
0.0379555
-0.897779
0.760237
-0.150195
-0.129718
0.279913
-1.12195
0.358462
0.763492
0.298663
0.572453
-0.871115
-0.0576399
-1.23197
0.787222
0.0373822
-0.824604
0.257615
0.649155
-1.05646
-0.0424389
-0.0164058
0.0668408
1.60081
-1.55097
-0.235287
-1.0104
-0.372444
0.656141
-0.00373871
-1.21942
1.1522
-0.328827
-1.89991
0.0978141
-0.168439
-0.969101
0.35833
0.235299
1.88038
0.180127
0.0560264
-1.13535
0.159034
-0.12294
0.127966
-0.448275
0.336601
-0.601356
0.264755
-0.149327
0.00689752
0.142429
0.302427
-0.36273
-0.0162655
-0.269911
-1.13909
1.18644
-0.0473505
-0.730334
0.781759
-1.39104
0.60928
-0.839155
-0.069866
0.118547
-1.49079
0.133849
1.35695
-0.385736
0.958705
-0.680638
0.714625
0.157904
0.928878
0.652802
-0.973652
-0.828369
-0.197149
1.02552
-0.822276
-1.25688
0.551707
-0.141814
0.145696
-0.00388202
0.0830826
-0.105905
0.754918
-1.41462
0.0600745
-0.547456
0.487381
-0.335504
0.269474
0.0660301
-1.01817
0.493975
0.0422592
0.0288691
-0.253861
0.441761
1.81554
0.134884
-0.78364
0.859083
-0.297823
0.0983934
-0.806621
1.45869
-0.652067
-0.0880279
0.0736256
0.0900331
0.399802
-0.0210314
0.89062
1.1992
0.523412
-0.937203
0.317308
-1.77455
-0.192461
0.150392
0.014527
-1.04381
-0.268588
-0.939036
-0.237156
0.060661
0.841624
-0.399863
-0.658138
-0.0732499
0.736776
0.208287
-1.76607
0.342785
1.42328
-0.068631
0.507054
0.344978
-1.35463
-0.314215
0.790846
-0.363336
-0.42751
0.915371
-0.313977
-0.601394
-0.202734
0.0444306
0.680282
-0.668131
-0.0121504
-1.70402
0.781401
0.922618
0.960041
0.76472
0.000902275
0.129132
0.824932
-0.518727
-1.49073
0.595491
0.895239
-1.86232
1.62614
0.569642
0.733849
-1.30349
0.862676
-0.730343
1.6884
-0.75207
-0.936329
-1.09696
0.207207
-0.0939949
0.0687378
-0.106689
0.221447
-0.0555366
0.148514
-0.0929777
-0.293103
-0.1432
-1.26615
-0.195601
0.121459
-0.151313
-0.0392046
-0.0359566
1.03146
-0.345361
-0.686097
0.828197
-0.485199
-0.156228
0.140947
-0.0892306
1.23916
0.16637
-0.0336282
-0.258974
-0.759194
-1.51581
0.554521
-0.0593143
-0.110728
0.134126
0.0384363
0.13766
-0.100197
-0.518545
-1.01925
0.125403
-0.0951477
-0.0302548
0.207854
-0.632575
-0.887454
1.52003
0.171956
0.0189371
-0.0333749
1.01819
0.985865
-2.00406
-0.537841
1.08737
0.24292
-0.0971453
0.375846
-1.06502
-0.612351
1.67737
-0.949344
-1.03523
0.514894
0.289964
-0.116815
-0.173149
0.290742
-0.763025
-0.202516
1.19736
-0.415599
-0.205231
0.119653
-0.254446
-0.772046
0.0164617
1.88553
-1.67038
-0.215148
-0.91943
-0.596384
0.195696
0.189245
0.0707015
-1.01323
-0.282875
1.29611
0.285197
0.450233
-0.0574775
-1.61347
-2.02491
0.795148
1.22976
-0.191012
-0.00579859
0.196811
0.990822
-0.619143
-0.371679
0.125671
-0.189695
0.089402
0.0974834
0.912284
-2.00856
0.79159
0.12378
-0.404599
-0.586623
-0.150027
0.0329256
0.170598
0.735743
-1.36832
0.0225669
0.398408
-0.318525
0.214377
-0.186288
0.00239452
0.183893
0.712556
0.975843
0.514334
0.0515777
0.302342
-0.53941
0.237068
1.98775
-1.64496
0.229868
-0.559671
0.164195
0.0292382
0.136135
0.0247766
0.156438
0.00436397
-0.146178
0.62674
0.0502726
-1.71039
-0.0239967
-0.167016
-0.0842035
-0.0167751
1.08759
-0.537462
0.884891
-0.588395
-0.296496
0.00474327
0.125833
-0.00363811
0.00583238
0.39812
-0.0399306
0.171642
-0.360301
-0.30451
-1.99144
0.890653
1.10079
0.0496783
0.00651451
-0.0495427
0.119653
0.142284
-0.288039
-0.316107
0.41518
-1.4802
-0.1193
-0.95714
1.97533
0.625385
-0.15827
-0.467115
-0.819052
-0.428358
-0.137521
0.103544
-1.14739
0.418759
-0.716871
0.298112
-0.322541
0.275073
0.0474683
-0.0649261
1.10281
0.980908
-1.63399
1.64496
-1.45102
0.852524
0.598497
1.02041
-1.97755
2.07253
-1.07778
-1.00119
-0.961743
-0.129008
0.733026
-0.131203
-0.356366
-1.54538
0.0911742
-0.0198528
-1.32309
1.21491
-1.99594
0.781037
-0.0598659
0.269907
-0.535929
0.715347
-0.310021
0.859063
1.36703
-1.47541
0.668786
-0.0914994
-0.857844
-1.35237
0.301089
-0.0260155
1.69662
-1.81316
-0.0845892
-1.33198
0.042498
0.786918
-0.233729
-1.46975
1.66542
-0.195677
0.264664
1.65815
0.464994
-0.0559856
-0.409009
1.89966
-0.905103
0.256596
0.168842
0.628796
-0.757273
0.11169
0.14469
0.0848033
0.834302
-0.919106
-0.711962
-0.422149
1.05919
-1.05304
-0.00614375
-0.375509
0.305937
-1.60544
0.857612
0.747831
0.612738
0.151725
-0.743978
0.134391
0.862014
-0.561621
0.317711
-0.586468
0.184123
-0.240841
-0.672346
0.470067
-0.992543
-0.916859
1.9094
0.270894
-0.303618
0.298748
-0.365825
1.04993
-0.596204
0.0961164
0.988298
-1.70247
0.120143
0.210988
0.259056
-1.22288
-0.0126236
0.688336
0.0846074
0.131537
-0.611072
-1.39891
0.564788
0.172562
-0.453763
0.281201
0.074694
-0.338708
1.07782
1.08547
1.27574
-0.98916
-0.0702696
0.174701
0.174542
0.475913
0.302695
-0.366621
-0.723861
-0.954328
1.97474
0.167778
-0.20068
-0.813588
-1.05241
1.866
-1.57151
0.510152
-0.0776753
-0.410493
0.223239
-1.43406
-0.0946955
-0.235008
0.653767
-1.06751
-0.923929
1.88553
0.686023
-1.3386
1.06671
-0.66104
-0.292189
-0.390165
0.354196
-0.282792
0.242543
-1.68136
0.251901
-0.851035
1.02231
-1.97664
-0.830595
0.307739
-0.380018
-0.0395889
-1.43016
0.854807
-0.611053
1.35696
0.913425
-1.70993
0.796509
1.72907
-0.947673
1.99244
-0.950294
-0.984107
1.9344
0.4085
1.29977
-1.01458
-0.784415
-1.2405
-0.940175
-0.510846
0.480623
-0.730109
1.70671
-0.976598
-0.146279
1.38545
-1.23918
-1.00222
-0.973833
1.97605
0.890269
0.168918
0.294979
0.400697
-0.941229
-0.042823
0.984052
0.0547607
-0.311206
0.459312
-1.37874
-0.820976
-0.408304
-0.270933
0.281511
-0.402985
-0.833663
1.15925
-1.95883
0.956733
1.00209
-0.0202484
-1.6728
1.69305
0.117929
-0.293614
0.0884383
0.54384
-1.83554
1.83554
-0.0650872
-0.0142433
0.0793305
-0.57569
1.09533
0.291731
0.00935813
-0.826748
-0.686267
0.965041
-1.63399
-0.0627868
-1.28163
0.316255
1.29302
-1.21451
-1.22512
0.211888
0.299992
-0.372696
0.0727037
0.163908
0.516373
-0.164461
0.0151339
-0.948465
-1.16537
0.126865
1.0385
-1.39962
-0.0678145
-0.45285
-0.938189
-0.0465165
0.147354
0.181149
-0.144273
0.39149
-0.18759
0.0622909
0.390759
-0.303438
-0.368908
-0.760593
1.57404
-0.813449
0.346314
0.217813
-0.219582
0.429807
-0.210225
-0.392981
0.207087
0.446022
-0.590606
0.144584
-0.88145
1.51286
-0.943218
-1.46797
-1.66265
0.15991
-1.08342
0.0582928
0.974953
1.23948
0.0300802
-0.999181
1.13028
-0.421494
-0.38246
0.317089
0.648218
0.620364
0.242312
1.96942
-0.947113
-0.995361
-0.915592
1.91095
1.14988
-0.0247277
-1.12516
-0.23397
0.250581
-0.220879
0.200733
0.144353
1.33383
-1.47818
-1.49066
1.49343
-0.0027753
1.49066
-1.53025
0.233846
-0.293712
-0.501964
1.15112
0.0973364
-0.240185
0.103867
-1.67735
0.147179
1.72951
-0.816083
-0.439857
-0.111295
0.135856
-0.459978
1.07391
0.278699
-0.088043
0.699172
-0.613233
0.194878
-0.264045
-0.597034
-0.0713934
0.323638
-2.06432
0.492745
-0.0746033
0.461989
-0.387386
-1.05412
-0.94182
0.096841
0.466468
0.630302
-0.896056
0.112416
-0.131542
-0.377393
0.113557
-1.99195
0.990756
0.128319
-0.0936798
-0.223553
-0.0145455
-0.143079
-0.0112521
-1.36409
0.862623
-1.56893
0.706307
0.0673726
0.270787
-0.33816
-0.722249
0.468323
-1.04178
1.35804
0.527903
0.559464
1.31984
-1.35463
0.205417
0.0470419
1.67638
-1.88894
0.212562
-0.31779
-0.202557
-0.813936
-0.0106685
0.396328
-0.482604
-0.202672
0.292833
-0.879916
-0.193905
-0.0230755
0.21698
-1.48694
0.224235
1.2627
-0.228443
0.277171
-0.0393313
-0.179657
0.218989
1.16995
-1.17369
0.226361
-0.219463
0.647402
0.180511
0.259694
-0.211054
-0.22882
0.16103
0.229116
0.634844
-0.86396
-0.459209
0.0130537
-0.940495
-1.03572
1.97621
0.222186
-0.732925
0.87784
-0.765388
1.69184
-0.241576
0.151837
0.0694764
0.0568225
0.0643171
1.99244
-0.987453
-1.24134
0.830922
-0.579021
-0.503883
1.39912
-0.211158
0.171227
0.098567
-0.100968
-0.599574
0.384448
-0.323791
0.217317
-0.137223
-0.453672
0.309399
1.04274
0.209439
-0.223984
0.263578
-0.0245959
0.0442297
-0.435245
0.260535
0.508558
-0.811996
0.229693
-0.26447
0.0347771
0.219399
-0.199461
0.367862
0.728598
-1.09646
-0.278715
0.148998
0.353906
-0.656705
1.29929
-0.747055
1.00395
0.890322
0.0310649
0.564106
-1.00609
0.372532
-0.463916
-0.238444
1.01961
0.940434
-1.62749
1.62749
1.57017
-0.890292
1.11196
-0.00903605
1.51335
-1.50431
0.923493
1.02095
0.926931
-1.91947
0.0484727
-1.06453
-1.34259
-0.223517
-1.47007
1.69359
-0.432133
-0.131627
0.0863506
0.76869
0.195786
-0.304225
-0.956856
1.80371
-0.846851
-0.188361
0.300051
-0.00112094
0.280573
0.514493
2.13862
-0.803574
-1.33505
1.60255
-1.46871
1.10937
0.199909
0.169818
-0.00899212
0.0180613
1.54814
0.563016
1.02027
0.861672
0.0244492
0.217053
-0.241502
-0.379417
0.240763
0.200819
-0.215217
0.0143973
0.179328
-0.243137
0.063809
0.454908
-0.449399
0.355388
-0.514682
-0.115036
0.492038
0.0425127
0.0936695
-0.011964
-0.283393
0.0558868
0.227507
0.121745
-0.114644
-0.00710026
1.81316
-1.5145
-0.443193
0.180179
0.263014
-1.60081
-0.365435
0.285713
-0.970612
1.8941
0.278591
-0.35319
1.93211
-1.00518
0.267109
-0.338322
-0.178619
-0.722466
-1.31531
-0.128102
1.51746
1.32637
-1.06731
-0.108749
0.174995
-0.0484966
-1.49968
-0.317896
0.312791
0.264946
-0.398752
-0.389936
0.309866
-0.106248
-1.35558
1.30627
-1.45796
1.45082
-1.17595
-0.512132
0.453018
0.689794
0.408678
-0.424763
-0.0812787
0.0730271
0.371921
-0.444948
-0.425775
1.43951
-0.990171
-0.97055
-1.93038
-0.0992084
0.095132
0.00407641
-0.0423657
1.47773
-1.43536
0.844009
-0.691722
0.341818
-0.40574