/*--------------------------------*- C++ -*----------------------------------*\
| =========                 |                                                 |
| \\      /  F ield         | OpenFOAM: The Open Source CFD Toolbox           |
|  \\    /   O peration     | Version:  2306                                  |
|   \\  /    A nd           | Website:  www.openfoam.com                      |
|    \\/     M anipulation  |                                                 |
\*---------------------------------------------------------------------------*/
FoamFile
{
    version     2.0;
    format      ascii;
    arch        "LSB;label=32;scalar=64";
    class       volScalarField;
    location    "7.7";
    object      p;
}
// * * * * * * * * * * * * * * * * * * * * * * * * * * * * * * * * * * * * * //

dimensions      [0 2 -2 0 0 0 0];

internalField   nonuniform List<scalar> 
5098
(
-0.303702
0.641083
0.189708
1.77624
-2.05794
2.05387
0.186246
-1.33019
0.174076
0.460726
-5.4041
0.671543
0.130784
2.39604
-0.770931
-0.0138159
-4.01227
-7.39269
-3.25677
-4.16832
1.56865
-0.0199294
0.452699
3.06236
-5.61159
1.97626
1.43133
1.09539
-3.27357
0.0574667
0.549639
2.6029
1.56013
-2.45784
-0.207628
-2.34084
1.35843
1.46166
2.29542
0.670026
1.72933
-9.27161
1.94096
0.247443
0.0406192
0.738717
-4.71081
2.65463
0.549798
1.82474
0.366238
1.9441
-4.30084
1.34347
2.06099
2.12751
1.63313
1.62834
2.61073
-0.303083
-0.0171825
-5.18762
-0.210505
0.211641
-4.30161
2.42693
0.0358383
0.279983
1.03487
1.51332
1.59116
0.129298
0.873962
-0.242867
-0.189914
1.82537
-0.155763
2.20205
0.350091
2.06264
-0.352849
-4.4073
1.81359
-2.80607
-7.75759
-0.030222
3.32959
-0.165601
-1.46973
-0.0348085
0.681575
-4.21934
0.686225
1.77895
2.30493
0.229878
1.48242
2.2689
-0.176376
0.970629
-7.48703
1.9836
-1.02851
-0.125628
2.19308
-0.0784517
1.51427
0.211473
2.6999
-5.52049
1.64126
-3.06119
1.43758
-4.31225
1.5073
-3.26151
-5.42227
-0.957299
-0.423001
3.03032
1.90129
0.493188
0.418056
-6.46374
-4.34287
-4.24296
1.25835
0.514674
2.39842
-4.32903
-6.82493
2.52837
2.49253
-0.746629
-4.71786
-2.939
-1.07451
1.47684
2.31427
1.32516
1.96197
-1.49196
0.983676
0.209733
0.744863
-0.350339
1.10006
-1.77414
-1.21858
0.687778
-9.08517
-4.09472
-2.14006
1.56779
3.35802
2.94482
1.63431
-6.31857
1.73541
-3.29355
1.20817
-0.875333
-4.02669
1.67286
-6.75616
0.456939
-2.39252
0.0865397
-5.70819
1.63801
0.244424
1.8315
0.580338
1.11122
0.518166
0.86482
1.77305
-2.29535
1.78342
3.3416
-2.23401
-5.24175
1.51173
-6.53881
1.63792
-0.643213
2.19668
1.32683
1.79298
-4.33721
-3.16824
0.363843
0.809426
-0.209991
0.477223
-4.26379
-3.13692
-2.995
0.0144841
1.59281
-5.71136
1.91867
0.0586739
0.645405
1.29
2.93978
-0.718892
2.34933
0.862603
0.794281
1.48423
1.88051
0.317013
0.699686
-1.10437
-3.21915
-0.225047
-6.42802
-4.25732
0.904645
0.624399
2.00137
0.011417
0.59493
-4.29268
1.3536
3.25875
1.49051
1.05993
-0.527977
1.64798
3.1003
-3.68403
-0.00170499
0.342085
0.378236
1.30578
-4.53445
-2.16734
1.72328
-4.44517
0.545867
0.0236765
2.76355
1.52603
0.739553
2.34187
-6.00744
-4.1548
0.692883
0.624782
1.02886
-3.28564
-5.03473
1.59588
-4.49042
-4.30375
0.477803
2.60921
-0.109591
-0.653452
-4.2901
-5.31677
0.893469
0.0355026
-5.80915
-3.29275
-5.92512
0.297872
1.75329
-4.27208
0.0811483
-3.28644
0.307949
2.56995
-0.826553
-9.65848
-8.57448
0.160785
1.49125
-6.63679
-1.16436
-4.30568
-1.24529
-1.33592
-1.78239
1.59726
-0.182514
0.463081
0.717537
-6.6332
-4.08258
2.77993
0.08808
1.01322
0.453181
-0.287264
0.51845
1.38663
1.54409
-0.301649
-0.760472
1.94104
1.46547
-5.69203
1.28989
-1.18898
0.877664
1.50135
-4.77807
0.718169
-3.37065
2.00616
-0.278986
0.0624049
3.33747
-0.947611
0.000775957
0.913735
2.86438
0.322645
-3.97134
-1.96368
-3.7989
-0.171314
2.33711
0.689079
1.44729
2.66696
-0.331043
1.48248
0.874965
2.31767
0.0303752
1.46203
0.326993
0.4002
1.855
1.07838
1.51305
0.934609
1.55194
0.380103
1.55957
-3.18557
-0.163974
1.23224
-3.36128
-0.953248
0.661088
-0.267426
2.90835
2.83327
-6.00705
-0.303215
-6.31936
-3.05221
0.528809
2.36462
0.0689565
1.50348
1.11794
0.876085
-0.194285
0.210952
2.60411
1.5636
1.08061
0.101066
-4.61058
2.49706
0.243977
-2.41325
-0.0824193
0.122191
-5.26711
1.53844
0.337471
0.18369
-0.215586
1.33535
-4.08253
1.62628
-0.769599
0.192267
-1.72803
-0.121802
-4.77222
1.71231
-1.22018
1.41512
0.412967
1.55719
1.65366
1.2727
-2.20086
1.86613
-2.86411
0.622846
-1.14372
-4.26718
2.82115
2.13212
1.50314
-3.24228
0.582664
1.32595
-5.76854
0.360494
-1.33154
1.50941
-0.697713
-4.2776
0.190658
-1.1772
-0.227713
1.46917
2.88327
-1.47491
0.57622
1.32491
2.06734
0.137186
0.934631
-6.56347
-4.25854
-0.0605141
-1.32957
0.164146
1.12487
0.0270004
-3.28605
0.00974816
1.30475
-1.48386
-3.77062
0.0331538
0.504897
1.28744
-1.73795
1.77396
1.48917
1.18497
-3.72017
1.48286
-1.17775
-2.68605
-0.747036
-3.22034
1.25961
-4.58246
0.821136
1.53139
-3.53934
-4.57105
0.200592
-9.13713
0.429015
1.24328
-2.28979
1.90498
-0.207242
2.85952
-1.92475
1.72714
-6.76889
-4.30902
-8.00606
-5.51326
1.68162
-3.23395
0.0399272
-1.70727
-2.13073
1.41352
-2.06494
-3.29177
2.04097
-2.46155
0.977734
0.942497
-0.396667
-3.15785
0.808615
0.207033
1.39663
0.48494
-1.03496
0.468291
1.39609
-2.42621
-1.66449
-0.178663
-1.96476
-4.06081
0.00666046
2.15707
-3.17778
2.05258
1.57655
-6.98803
0.464281
-3.30856
-7.89149
-3.28956
-3.51607
1.20403
1.0022
-2.38718
-0.249509
-4.31661
1.51702
1.80076
0.436783
0.851557
1.25858
2.86551
-4.39085
-0.989785
2.39903
-5.83321
-1.68603
2.80407
-0.28816
-2.85828
0.00355407
-4.41794
-3.7731
1.09514
0.121769
0.413768
3.23366
-7.65009
0.132213
-5.92048
-0.0132806
0.454348
-1.21862
-4.30709
-3.95658
1.4022
-0.853778
-4.37434
1.70154
-3.74232
-5.25342
-0.150516
-5.35445
3.27177
-2.67496
-1.41194
1.47527
-0.0303385
-3.43976
-1.17735
-4.64851
-7.40731
2.03412
-4.75873
-1.45306
-4.84564
-1.35504
1.59068
-4.08894
-1.37396
-4.64856
-3.44044
-0.428295
-5.67901
-3.46052
0.266471
-0.108423
-3.75003
1.52527
1.91648
3.26387
-1.14841
1.65833
2.49642
-7.67979
0.311902
-10.0845
0.849656
-1.35636
0.453756
-0.403842
-0.273493
1.20313
0.895753
-4.39876
-4.34401
2.84049
-1.21259
-7.41908
-0.0973219
1.59248
0.498596
1.07401
-2.2629
-2.01745
-0.279573
2.14191
0.0924881
-0.474649
2.53503
-1.88619
2.37309
-6.21887
-4.43985
-1.48568
-2.46401
-4.32852
-4.08323
2.44484
-2.23942
-1.98552
2.49425
-1.22964
0.210759
0.089788
2.79242
-3.2891
2.15276
0.472528
-0.128409
0.260845
-4.40326
0.727338
-1.22187
-0.0744517
-7.8517
1.04165
2.05841
-5.40414
-0.129861
1.67457
2.7865
-4.37926
1.85017
3.25249
-2.02605
0.802797
-1.12188
1.60539
2.34961
2.03023
-3.11389
1.14561
0.363425
-6.12477
1.14553
-0.157073
1.62297
-5.44933
1.23812
0.47441
-1.26789
-0.185439
0.321994
1.21394
1.73597
0.315534
-7.39049
2.63408
1.62144
2.13788
0.373915
-1.67777
-0.459564
-0.72599
2.562
2.88055
-2.85733
1.74586
-6.00874
-4.5734
-0.748096
1.41053
-3.28105
-3.28988
-6.36265
-7.34224
-0.435076
0.582043
-1.98648
1.3254
1.89651
-3.27511
1.91799
-0.0116524
1.56933
-4.29092
-8.95823
-0.0527885
2.70519
-1.03354
-3.0131
-1.11109
-3.2837
1.273
-2.24301
0.322589
2.46017
-6.87955
-8.10253
-3.04766
-9.00446
-3.32985
1.79308
-0.473705
2.85386
2.64934
2.42317
-6.59193
-4.42854
-3.18452
-3.33309
0.34505
-4.30181
-3.89176
-4.30735
-7.19621
2.03032
-4.29954
1.58577
-5.93031
2.38353
1.45409
-4.60415
0.398197
-3.40014
3.13376
-0.874548
1.05081
-1.82474
-7.98096
-8.32034
-7.79581
-3.63168
2.05451
-1.21276
-1.07733
-4.11753
-4.32474
0.530883
-5.77093
-0.491847
-0.096512
0.3245
0.51639
-8.01394
1.79618
2.4348
-4.2398
0.639403
-6.39167
1.68146
-3.29552
0.364116
0.60105
-6.3092
-0.0371011
-4.26605
-1.52281
-6.46278
-4.80537
1.63429
0.987774
-3.08042
-0.423627
0.525666
1.39862
0.151611
-0.0717281
-7.57153
3.19969
0.706257
1.90932
-0.878827
0.919186
-4.3371
-8.76458
-0.115969
-4.49381
-4.0268
2.53402
2.25905
-4.73128
0.732887
-5.53553
2.19779
0.122377
-4.28654
-4.28449
-4.34002
-3.31586
-0.104077
0.209754
1.62035
-0.918083
-0.0152209
-4.36178
0.913092
-4.42309
-4.40457
1.94228
0.357793
2.58403
-0.89114
1.82285
1.8723
1.6922
-2.3502
1.47567
-0.604817
0.257634
0.650978
0.377046
0.6601
-4.14831
-4.34021
-8.6245
-9.83279
0.932762
1.18422
0.666777
-4.3894
-0.232691
3.31224
-5.51098
1.63651
0.0223516
2.45493
-3.62215
1.6536
-3.76122
-8.05141
2.67135
-3.02608
-3.28004
0.882388
2.77426
1.58205
-0.407641
-1.17575
-1.52047
-4.15888
-2.52305
-4.40962
1.64187
-4.63377
-2.60547
-4.30813
0.793602
0.0283676
-3.28269
-1.27174
-4.16415
1.18156
0.262106
1.36385
-5.93677
-3.66591
2.48676
-4.43768
-2.7441
-4.0571
0.29024
-4.27961
-4.31507
-5.9401
-0.413714
-0.0928147
1.45865
-4.31546
-8.00927
-3.40671
0.0878685
0.0127156
-0.243319
0.13998
-4.30399
1.4997
-1.59405
2.57202
2.11166
0.417776
1.93952
0.841797
1.51048
2.98711
1.85946
-7.47644
-9.76342
-0.70878
-9.6601
-0.564374
-5.60673
1.72723
-3.56693
2.20478
2.31578
1.28344
1.25403
-7.55219
0.520648
-2.19552
-0.281048
2.52599
1.65753
-0.107946
0.0878579
-4.28042
-10.0282
-1.51958
-3.48904
-1.99902
-0.230728
0.163982
-6.6852
-0.0215012
2.62356
1.44813
1.99378
1.85409
1.74237
-0.133298
-0.612777
-0.869422
-4.31988
0.709128
0.312672
0.960948
1.24885
2.73653
-4.08655
-0.933121
0.241466
1.67943
-4.13905
-0.0703048
-3.88853
3.09001
1.5848
-4.18206
1.2302
-0.445338
-9.67293
1.46333
1.76835
0.76596
0.722567
0.166177
-3.60882
-0.0360607
0.375776
2.52482
-0.788071
2.24598
-4.63704
-4.97818
-5.11577
1.38978
2.00019
-2.34314
-0.359428
3.07069
0.629131
1.07229
1.15648
2.86279
0.457488
1.52684
0.0813021
1.7227
-0.657369
-0.490095
2.20937
3.21624
0.43298
-7.61841
-0.446317
-1.2197
-4.53782
1.80473
1.00176
-2.27212
1.18572
1.81099
1.15449
1.36049
0.0877797
1.75537
2.23603
-2.03595
2.90599
1.76458
0.353424
0.0113721
-0.69951
-0.001976
1.40297
0.537048
1.65083
1.7623
1.32339
-8.17683
-9.8076
1.83031
0.987285
2.24586
-0.704471
1.3855
1.65261
0.880179
1.89311
2.0327
-0.0955156
-0.0412113
1.29328
1.95086
-2.07672
-0.967272
-1.55679
2.01719
0.392154
1.70194
2.82141
-6.02601
2.73061
3.03261
-0.44611
-1.3895
-0.858863
3.27543
-3.04824
1.83635
2.86559
0.850008
-4.29095
1.06412
1.03446
3.03372
0.832749
1.02839
3.14805
2.33348
-0.0234511
3.11682
2.45473
0.0720099
-5.29941
-4.25066
0.0122051
0.357665
1.70161
2.41035
-3.2027
-0.298256
1.17354
0.397814
2.32487
-3.10804
2.76366
-2.57109
-7.00742
0.993369
-1.91826
2.05461
-0.487336
1.09348
-6.17928
2.42156
1.4145
1.66029
1.63218
-10.4586
-0.0370594
-0.259115
0.48653
0.764521
2.59318
1.60895
-0.0157773
0.806441
0.300595
-6.05918
2.38726
0.0696459
1.9145
-0.199854
-0.552673
-7.25222
0.357441
0.656372
2.7912
0.00974234
0.978363
-6.63436
-6.30355
2.28723
2.45115
-6.19445
2.22203
0.821931
-6.6954
0.395968
0.550635
3.23179
-0.470059
-2.17125
1.95744
-1.48692
1.92699
-4.29107
-7.06475
-0.0865583
-4.16551
-4.29484
-0.109215
1.55224
-0.294578
-4.32519
0.0117565
0.106906
-1.86683
1.05963
2.63435
1.3894
1.29821
-3.49417
-3.8765
0.165837
1.08814
-1.55535
0.00963883
-0.00201035
0.0012109
0.339859
1.4054
0.745888
0.903858
1.31295
0.636882
-1.26466
-3.62175
0.256624
-1.82272
3.0749
1.21147
0.81314
-3.13268
-1.13381
-0.440834
-0.249215
-6.70484
-3.03505
-0.741792
-1.28021
1.55985
-0.146475
-0.0769971
1.68443
-4.29546
-0.283733
2.58773
-2.37118
-1.8988
0.389405
1.62133
-7.97759
0.381622
-9.39275
-0.0824821
-4.01632
-2.5928
1.79838
-6.08107
0.600815
-0.158481
-6.91984
-8.49416
-0.961737
1.49634
0.24031
-5.54426
2.56419
-4.36377
1.64407
-0.396756
-2.73001
-1.55071
-1.30876
-4.38224
1.32229
1.59658
1.57804
-0.0127031
-5.2456
2.28963
-8.72477
-2.10984
0.00857803
-5.74571
-0.191386
0.0658883
2.27321
-4.25711
-3.33849
-7.603
1.25228
1.21334
-8.44021
0.931183
-0.0667379
-0.620314
0.474221
0.811738
0.463223
-0.838854
-8.55249
2.51314
-0.119857
-0.0188113
0.650083
0.0147212
1.29161
-7.82167
-0.78613
-3.98253
1.30679
-0.193313
-0.10114
0.636612
0.00863898
0.293229
-0.112638
1.59769
-0.302875
-1.77934
1.24835
1.56352
-0.18168
0.940427
0.955083
1.64994
1.912
1.58815
0.465791
2.76673
1.13164
-1.88953
0.772936
-6.7795
0.184013
-0.0387599
0.794603
-0.229457
2.7636
0.375753
0.387981
-1.51537
0.538464
-2.79807
0.3427
-4.06515
1.13718
-2.2918
1.36446
1.03935
1.6373
-6.1067
2.0164
-4.56058
1.42945
1.69268
0.699937
-3.6265
-2.29372
-4.68164
1.66332
-8.68566
-3.31036
1.70762
0.668985
-0.15105
1.77491
1.49035
-1.13523
2.49594
-1.29948
-0.400789
-2.05186
-1.49252
-0.159777
-0.610388
-2.0926
2.7363
0.00607584
0.738014
-1.11402
-7.22361
1.80007
2.04003
0.0086437
-0.0485153
1.56072
-3.83315
1.12995
1.59654
-0.674241
-0.7485
0.660631
-0.169787
2.78157
-4.50974
1.34134
-0.200637
-0.941002
2.8063
1.52473
0.329617
2.12031
-7.99328
1.87703
1.87647
0.208028
1.56865
1.16513
1.30979
1.59955
-0.823098
1.7217
-0.722393
0.286633
0.00248468
-3.33313
1.88557
-4.27856
-4.13392
0.0831987
-0.309677
0.780527
-4.14459
1.34322
0.380197
0.935532
1.40157
0.880461
-0.316266
0.124749
-9.57419
1.64671
0.401686
-4.39818
-1.86386
-2.9917
1.59755
-4.54565
-4.94123
1.47806
-4.73774
1.80013
1.14317
-4.33383
-4.46175
1.75671
2.13327
-1.57188
1.41785
-4.17309
-1.36049
-4.24709
0.412293
-1.16206
-4.36117
2.99041
0.209667
-3.93529
0.0204869
-1.023
1.60696
0.572761
-2.30253
-4.2866
-5.90433
-8.58633
-4.25138
0.756455
2.41907
-0.265911
-9.29995
0.0162979
-4.26632
2.02745
3.027
-4.37631
0.744973
1.37438
-4.26591
0.448907
2.70261
-2.75427
-2.58872
1.34389
1.43248
1.28527
-1.16258
0.601233
0.00721381
0.536187
-1.7605
-0.107003
1.56428
-0.71371
0.35373
0.738646
1.49917
1.05048
-0.157286
0.884485
1.59878
1.28329
1.1214
2.79654
-1.60348
2.61562
-0.16618
2.54055
3.20307
-2.0242
0.143925
0.548501
1.53003
-3.15753
0.875475
0.713983
-0.16287
1.4527
2.19905
1.53019
1.59583
0.752323
0.656405
-7.37419
3.11028
-4.43217
0.256668
-5.79767
-0.972946
-5.22658
1.57413
1.59595
1.03465
1.69824
-1.8796
-0.0983945
1.79563
1.17351
-0.211596
-1.62905
0.194363
-0.695371
0.437976
1.61165
2.97236
1.54087
1.97578
1.87951
1.48805
2.82302
1.14956
1.56833
0.35709
-6.85978
0.264787
0.993484
0.813424
3.14608
-0.194595
0.686285
0.00146567
-0.218001
2.9873
1.0695
-0.354313
-6.86616
0.94549
-1.53069
-0.218814
2.07727
1.73838
1.09061
1.78512
0.0818677
2.40073
-3.66183
1.07145
0.486226
0.299608
0.230315
2.39493
0.391244
0.143954
1.59035
1.19714
-5.34394
1.52769
2.46789
-0.560903
-5.52475
-4.35591
-3.39389
-0.913965
-4.80879
-0.438886
1.48217
0.429259
-0.0790611
1.43117
-0.653244
-0.829607
-0.820288
-3.20271
-4.30664
0.233325
-4.36078
-4.2614
1.41763
1.52024
1.98707
-4.48266
0.792019
-0.589423
1.51492
2.51218
-5.47865
0.0220877
-0.141998
2.52272
1.0403
-4.68199
-1.04534
-3.37594
-0.0618086
0.0120605
2.73309
-0.163873
0.00385632
0.833903
0.323749
0.00996534
1.0293
0.263698
0.491034
-4.2981
-5.09784
0.49997
-4.2729
-0.17743
0.260454
-3.39791
1.69789
1.15658
2.92411
0.525888
2.69201
-0.453102
1.85715
-1.93843
-0.415852
-6.25125
2.32541
0.0732819
0.370131
0.324465
-2.95393
-6.14896
0.00844158
-0.00986234
-0.197244
-0.406701
-0.250826
0.179743
1.13921
1.8847
-3.69271
-0.00604844
0.18497
-0.362284
-0.0553071
1.66227
0.221373
0.975049
-0.325422
-0.121464
2.11453
-3.38668
0.439267
0.00331987
0.00456299
-1.20678
2.05662
-2.551
-0.16753
-0.168562
-4.60477
-1.37927
-0.194951
2.52464
1.93382
0.00748683
-3.10476
-10.6225
1.54001
-0.112324
-0.470066
0.00734926
0.561885
0.0167157
-0.132514
-1.53463
0.00365881
0.811618
-0.742249
1.37807
-0.33778
-1.99163
0.477088
0.751896
0.0754428
0.110781
1.53667
0.423527
-0.650036
-0.799673
-0.254534
-5.66061
-0.18722
1.5702
-3.31677
-0.701478
-0.0206832
0.00831261
-1.28707
-0.077252
-0.19381
-0.0583725
2.22055
1.20087
-3.32632
-0.166706
-5.37751
-5.19751
0.175386
-0.216297
1.78915
0.383159
1.35376
1.43936
-0.261222
-2.99262
-6.62527
-3.27865
-3.23117
1.72602
-0.189874
0.456217
-4.29135
1.74087
-0.0279375
1.70439
-0.0722401
-0.0271683
2.0936
0.016014
-0.00974652
-3.27424
2.15302
0.361663
1.47849
1.59187
-8.48423
-0.0546965
1.54571
-3.62716
2.09232
-1.88595
2.02329
-3.44949
-0.183483
-0.030608
1.58696
1.95205
-2.73053
1.42482
0.798829
-0.224472
2.31182
0.718487
-6.32128
1.54582
-0.154437
-0.105941
-1.60416
-7.26487
-0.161535
-4.48999
0.00089429
1.45443
1.26201
-0.209893
-0.0246185
0.846022
-0.127913
1.52275
-3.96013
0.0170443
-1.09204
-1.44098
-0.349993
-1.54397
1.01883
-0.452867
-0.151337
-3.41708
1.46765
-0.200078
-4.52059
-0.223621
0.44099
2.49656
-0.532952
-0.000766179
0.765269
0.273977
-0.322641
-0.757619
-2.34302
0.401769
-0.00758246
0.342386
1.6626
0.00318933
-0.176779
-2.56414
-0.131457
0.00959839
-0.677686
1.59179
-0.562883
0.0139542
-0.0493447
-4.85627
-0.0949179
-0.112191
0.566544
-5.9612
0.0998638
0.0266348
-0.224928
-0.232431
0.0171848
0.0106971
-8.63168
-1.16005
-2.96966
0.646809
0.533518
-0.48549
0.837924
0.900887
-0.13711
0.0187092
0.90523
0.241443
0.0172144
-2.45822
-0.0507892
0.481874
-0.57346
-6.42604
0.0122487
0.598402
0.0861356
1.12393
1.02621
-0.239462
0.508889
1.57411
-0.0568368
-6.02064
-0.108117
-2.39381
1.95614
1.54017
0.0128525
-0.0447686
-0.177171
-0.118702
-0.00143385
-0.174957
-5.42068
-0.0667703
1.50391
0.184954
-0.125633
1.56372
-0.145756
2.47968
-0.184937
0.150306
0.0814888
-0.198933
2.11412
-0.0948732
0.0172498
-9.57697
0.0165843
1.21384
0.741967
-0.143531
1.58583
-0.468002
0.964697
1.94237
0.41072
1.01376
-0.167496
0.77181
-0.0822709
0.406512
-2.51411
-8.58677
-0.0551562
1.85899
0.689278
1.18187
0.90723
0.0014125
0.00434008
-0.0561005
0.0243556
0.724877
-7.91831
0.00734465
0.00341211
-0.0120137
-0.164012
-0.463642
-5.98513
2.56741
-8.95502
-4.28248
2.44016
0.0097347
-6.00687e-05
-0.0688682
-0.0275096
1.14688
-0.0202309
-0.0784223
-3.29971
-10.2501
0.290939
1.58895
-0.0319843
0.00702304
-0.446175
0.0109292
-0.068311
-0.113362
-0.111359
-0.00515225
1.60072
-8.33073
-3.26932
0.817381
-0.225668
-3.3003
-0.152672
-9.02814
-0.0312301
1.44392
-3.32306
1.92386
-0.268358
-0.0365438
-4.29437
-0.184202
-0.267202
-0.155855
-6.49213
-3.05198
2.4507
-5.69485
-2.38922
0.00029218
-2.16947
-0.016334
-0.0721709
-4.23311
0.00696323
-0.109539
-0.329427
-0.143055
0.0073046
1.96531
0.416903
-0.00184213
-0.107616
-0.0817965
-7.56412
-0.293274
-2.62115
-0.162329
-0.314262
1.84028
0.0372303
1.60145
-0.0074973
-0.00485346
-0.0237657
0.00338812
0.0144515
-3.28265
-9.22807
-0.524175
0.762844
1.12906
0.772337
-0.0508245
-0.0641605
-0.0109399
1.77201
-0.125797
0.259549
0.791539
0.00431501
-0.0962183
-0.51612
-0.0900529
0.00596711
-0.0980883
1.59003
0.00418254
0.919091
-0.0227867
1.4653
0.0035388
0.611146
0.00759765
-0.0331364
-4.17598
-0.0999316
-0.112303
-0.411098
-0.0658038
1.31063
-0.0443833
0.0428705
-0.187266
-0.162272
0.323562
0.0165201
-0.135681
-6.52771
-4.2932
-0.0710469
1.98056
1.55774
0.0136413
-0.142818
-1.61355
0.0238863
0.380877
-0.582799
-0.00612401
2.09258
0.219903
0.0307908
-0.00340888
-3.79426
1.58918
-0.209656
0.0342391
-3.62476e-05
-4.51775
0.0893479
0.00760429
-5.85012
0.834643
0.938964
-0.0682726
-0.0524333
-0.0056899
1.54774
-0.00910961
0.0139209
-0.0165868
0.0114655
-1.46006
-0.0154612
0.000708589
0.00448222
-0.130493
0.0169497
0.0572634
0.00339739
0.0141987
-0.406359
-0.233544
-0.0577634
0.0237038
2.95064
-0.0900362
0.0738411
0.00147091
-0.164709
0.404332
-0.0679761
0.0322805
0.301099
0.0281213
-0.0523512
-0.0414402
0.00253799
1.5878
0.00221316
-0.0748387
0.052565
0.0158726
0.0147806
0.0803347
-0.103173
1.61105
-0.18556
-1.61178
1.13885
-0.02908
0.0136391
0.0170174
-0.0873854
-4.25282
-0.843383
0.222404
-0.0385473
-0.0449751
0.0189457
-2.61527
1.69587
1.65842
-0.00439698
-0.253215
-0.0540395
-0.0448236
1.56999
-0.00179424
-0.125984
1.67465
-0.0357548
1.66459
0.0234843
-0.00831485
-0.0333446
0.025683
0.00213185
1.96017
-0.16212
0.00195962
-0.50951
-0.551243
1.34956
2.14905
0.00437983
-0.405546
-0.00816271
0.0250285
0.00103597
1.33391
-4.8597
-0.00110903
0.0181079
-0.110296
-0.0934655
-0.0751226
0.00869849
-1.46466
0.000407808
0.0241311
-0.820063
1.60757
-2.59212
0.0183763
-0.0935482
1.18067
1.27297
0.0205933
0.00417391
-4.29267
-7.39632
0.00420466
0.0117987
-0.0117085
0.0079618
0.000946268
-4.05013
0.00866528
-0.00287641
0.00713183
1.761
-0.00601126
-0.0176887
-0.00876863
-3.28753
-0.00369193
1.41394
0.00851375
1.7407
-0.0569234
-4.45508
0.024084
0.00102128
-0.023258
-0.185077
-0.141398
0.00881971
0.0249289
-0.0336113
-0.00165409
-0.00357842
-0.0383324
0.0190504
0.0261629
-0.0553317
1.62947
0.0289451
-0.682232
1.82415
-0.00150678
-0.0186384
-1.35969
0.718635
-0.000260586
-8.58262
0.0101563
0.0263198
-4.06521
-0.0124672
0.0103134
-0.475926
0.0247802
-0.286386
-1.19703
-0.00675239
-5.19325
-0.20997
0.0162116
-2.48847
-1.13746
0.019701
0.0155512
0.0201322
0.139067
-0.000958292
-0.00160095
0.469738
0.0117195
0.00799914
0.0285779
-4.21533
-0.00953897
0.0029146
-0.0167074
-0.11716
-0.116708
-0.0216309
-0.000217656
-5.30594
2.51052
0.0288812
-0.00805258
0.0153414
-4.13421
1.77793
-0.174379
0.107733
0.00276537
1.7956
-0.00620611
0.501114
-0.0562601
0.00878222
0.012876
-0.0943662
-3.27911
-0.366927
0.292791
1.08817
0.0155034
-0.00659923
-0.161021
1.59458
-0.0395653
0.0248654
-0.00444111
-0.1493
1.481
-0.23207
0.0191195
0.00803191
-0.0162564
-0.00777373
0.0320999
0.978351
0.00374846
2.20925
0.00260144
-5.17818
-0.349974
2.46352
0.736145
-0.0229227
0.0166811
0.018665
-0.15531
1.51216
-0.352997
-0.0738435
-0.00273708
-4.40413
-0.00935074
-0.00696555
0.0326179
3.13293
1.12673
1.65688
-0.0320393
1.60306
-0.00172369
-10.7928
-4.50873
1.92681
-4.92133
-4.6919
0.0160236
0.85345
-0.25039
-0.0175024
-0.832482
-0.294627
-1.88039
0.529438
-1.66808
-0.0554418
1.54777
-0.149775
-0.132772
0.0134142
0.0212108
0.0160652
1.72787
-0.00374512
-7.10291
0.0299586
-3.3753
0.000626963
-0.0813363
-0.0319412
2.55257
-5.18229
-0.372329
-0.268248
0.015396
0.0255398
1.18976
1.60427
-0.0984468
-0.0583501
-4.53097
-0.0436954
0.375008
2.90532
0.956675
0.222218
-0.423883
-0.555661
0.00127938
0.598717
0.0243423
-0.194647
-0.0066107
0.809427
1.55592
1.28528
-4.33346
0.891469
-0.129017
-0.00805876
-5.98986
-0.0654579
-0.0646802
1.6419
-0.120417
-4.42595
-0.0133585
2.45735
-1.20197
-0.339437
-0.587795
-1.22654
-0.0338437
-3.40925
2.71724
-0.460391
-2.94884
-4.31813
-0.401342
-0.017171
0.380996
-0.570758
-0.141906
-1.60856
-4.2754
1.64317
-0.0907565
0.0346278
-0.098041
0.503669
-0.194441
-4.25469
-0.0149284
-1.70461
3.02178
-0.0204116
-4.25701
2.70637
0.00619604
-0.0200831
-0.797812
0.010259
1.78828
-6.73275
1.52082
1.59197
-0.229629
-0.508969
1.58097
0.963302
-0.153883
-1.12108
-6.51635
-3.20097
1.67429
-0.0292313
-1.37848
-4.15786
0.297359
-1.20944
-0.130954
-0.568719
1.58593
-0.803197
-0.0547245
-3.95727
0.00662965
0.00853227
0.0224819
-4.334
-10.4652
-0.0337705
-0.0384981
0.00130804
-0.941221
0.0102829
2.90577
-0.000388846
-6.00191
0.402392
0.00747829
1.41609
-0.174145
1.58699
0.0177255
1.34058
-3.66405
-0.0584497
2.24195
-1.70943
-3.36328
1.87228
0.401115
-0.147242
-0.153338
1.61802
1.49516
0.0206047
1.56946
2.71814
0.621444
1.62821
-2.11349
-0.0740182
2.36453
-3.84379
0.405737
-0.278614
1.56077
-1.43905
1.65172
1.54909
1.75021
-2.57384
-0.0957752
-0.44199
-0.00347341
-0.00947135
-11.3249
-5.70792
-0.0630705
0.00433739
-4.5751
-0.298634
-0.455621
-0.276193
1.83959
2.02825
1.92584
-0.0398005
0.751248
-0.178251
0.59143
-0.0363339
-0.303185
2.82015
0.0195219
-0.138116
0.113886
-4.47173
2.15279
-0.143459
-0.72685
-3.23662
0.0620059
0.390675
-1.51067
-5.22393
0.899169
0.0298314
1.0194
1.64258
-5.82224
-4.72906
0.0944479
1.44024
-0.809835
0.0066598
-0.0816238
0.00628806
1.02275
0.313754
-0.150726
3.21248
2.2549
-0.181909
-0.0248382
-3.92241
2.55801
1.14256
0.172507
2.91607
0.00708336
1.25869
0.733504
2.69513
0.179619
-4.70325
1.09144
-4.08749
0.00388419
-0.739041
0.141713
-5.8159
2.7218
0.141264
-0.110202
-0.0521105
-0.300923
0.825592
3.02381
-0.109587
-0.14236
-0.859025
1.26337
-0.346755
0.164636
0.523615
1.30761
-0.627263
-0.249944
-5.37548
0.107266
0.437313
1.16047
-0.510646
2.64192
-0.148101
-0.180135
1.63919
0.0213114
0.00138746
0.0148241
-0.480516
0.961826
0.00197082
0.592553
-1.90853
-0.118909
1.04248
-5.75719
-0.172511
0.0831203
-0.122266
-0.125045
1.02013
-0.00590393
-0.00703928
-0.00104969
-0.242698
-0.162125
-0.452426
-3.67648
-0.056145
0.353892
0.270902
-0.0955676
0.29447
-0.913521
-6.83465
-0.12587
1.62041
-0.513802
-0.136076
0.0540847
-0.412023
2.25144
-0.121828
0.12055
0.106829
3.18708
2.9283
-0.598024
-0.23614
-3.25086
0.00136308
1.42678
1.61124
1.44456
-0.0808
0.00364774
0.0274561
2.49871
0.144664
0.217286
0.416166
-3.50279
0.198631
-0.039329
1.43831
2.40787
-0.960895
-1.57749
-0.17933
1.35485
2.11
-0.405223
0.429549
-0.950225
2.9564
0.00600477
-0.315049
0.928572
-0.00134458
0.00456849
0.00702274
1.56953
0.00834178
0.00489749
-0.494293
-3.19691
-0.162181
-0.00402734
2.35009
0.926056
1.74916
0.0729167
-1.68658
3.12799
-0.144728
0.0494231
0.829332
-0.526608
1.11058
1.44462
1.60234
-0.00250139
-6.47345
-0.938001
1.57709
-0.653289
0.0128875
-0.792423
1.52314
0.413727
0.0151639
-0.16729
0.529996
-0.336596
0.0124814
0.0368517
-0.0812152
-0.559086
-0.116714
1.26044
2.48963
-0.911956
1.91622
1.10556
-1.7089
0.00987528
-8.08753
1.37043
-1.77874
0.0988751
0.0884784
-0.0507196
-0.127449
0.138188
3.16388
6.28528e-05
1.7124
1.18175
-0.171571
0.00314968
-0.185684
-0.272298
0.248434
-1.19854
-0.217037
0.828919
-0.0879788
-0.447889
1.92581
0.426507
0.354021
0.178545
-3.76027
0.0803516
0.493875
0.112161
1.02524
0.0894841
-1.52111
2.17062
1.80913
-0.338656
1.04847
0.00821152
0.886763
1.55677
1.70206
-0.83052
-1.57585
-3.12218
0.00415189
1.58369
-1.68437
2.09842
0.0151038
0.672295
-6.18216
-3.28805
1.58546
-0.506974
1.59089
0.457806
0.196932
0.0750753
-0.010668
-2.37608
0.962781
0.102526
1.58783
0.400825
2.05377
2.18495
-0.211976
1.95524
0.120517
0.0048637
0.769643
2.12404
0.301919
-0.701785
1.64892
0.505891
0.118818
2.05966
1.3373
1.98841
-0.188348
-0.257143
0.0761201
-4.33302
0.37102
0.279339
1.2218
-7.06187
1.78202
0.00168458
-0.752351
1.09085
1.6844
0.29945
1.52178
0.0310445
-4.48366
-0.636852
-0.158081
-3.43315
1.04845
1.07085
-6.42325
-0.617257
0.275263
-0.00501081
0.705388
2.09567
2.3723
0.510367
0.452113
0.156394
0.330151
1.20773
0.00644671
1.71592
-1.22334
-0.135767
-0.967112
-0.804161
0.761919
1.70408
1.75229
0.956962
-0.056128
0.0134645
1.57044
1.57883
1.53325
-0.413637
1.9816
1.05399
1.61543
0.872698
0.086796
0.124641
1.40767
1.36722
-10.7941
1.6556
-0.323822
0.380367
1.39265
-0.60431
-7.04654
2.54811
2.08566
0.118199
1.27969
0.660369
1.15275
0.0934902
0.0651105
-0.172819
-0.228292
-0.672855
-2.92962
-0.0893286
-0.962054
-0.313383
1.57138
2.35201
0.115433
1.60104
0.165912
3.34213
-1.6391
1.79747
0.0985001
-3.27193
-5.38462
3.37628
0.24106
-0.199454
3.35157
0.184304
-4.08907
1.42665
3.31367
0.20398
3.25627
1.02945
0.103722
-5.20762
3.14016
-0.246597
-0.159884
-3.53066
0.411037
-0.0206643
1.72044
2.96528
0.00353362
0.415686
1.86074
0.460558
1.52734
1.42897
-1.00073
-4.06889
-3.45275
2.90583
0.462044
-4.3135
0.250923
0.118618
2.85288
0.906974
0.126236
-4.59428
2.79663
-3.39187
-4.83899
2.74142
1.84743
-5.06117
-2.38831
-5.46228
0.872879
1.93288
-5.37667
2.65307
1.5938
0.130529
-5.479
2.01853
0.544141
0.319306
-1.07394
-5.67123
1.53948
1.58223
-2.75005
1.55868
0.298411
-1.38658
-3.9008
2.49705
0.612436
1.44643
-1.62457
-5.87139
-5.94729
-5.96555
-5.95097
-5.8984
-5.77394
-0.628637
-5.63066
-5.12234
2.12492
2.4479
0.665774
1.10726
0.287561
1.27494
-4.97356
2.40876
0.00270136
-4.83809
1.90655
-4.37531
-4.70211
-0.00192478
2.30356
1.49508
1.08565
0.743691
1.59941
-2.53393
-4.59374
2.26363
-4.51391
0.0868721
-0.232603
-4.29224
1.55751
2.21517
-0.188632
1.91524
0.00892461
1.36744
-4.44723
-0.71524
-0.00846558
2.16735
-0.830415
-3.2979
2.1196
-0.84821
-1.34044
-0.885188
-4.31435
2.07694
1.46212
0.469747
1.60113
0.406007
-0.0682
-0.042726
-4.29691
-5.26929
2.02343
0.561079
0.0128136
1.67007
0.61361
-9.79425
-0.876184
-4.28997
1.98023
-5.90492
1.49311
-0.357744
0.022692
-4.2941
1.92981
0.9716
-6.04987
1.8738
-4.30321
-0.197451
-0.599333
-3.2891
-1.12215
1.83311
-4.30797
1.76476
-4.31376
-3.36151
1.16723
0.00467431
1.0534
-0.031449
1.71092
-4.28876
0.438904
2.58376
1.67412
-4.29991
-10.4375
1.66471
-2.40534
-4.30396
1.48361
-4.25532
1.58463
1.61878
-0.0430888
0.332562
-1.49047
1.59444
1.23144
0.0947434
-0.580364
-4.18857
-3.29221
1.55586
0.413118
-2.99584
0.166738
-4.49995
-2.28427
-0.589834
0.902515
1.50523
2.26168
1.41784
2.42859
1.61727
-3.97873
0.564501
0.387397
-5.94888
0.93337
-0.0285757
0.0347004
1.05443
1.39363
-0.23125
-3.82181
-5.74796
1.39503
-3.22439
-0.359187
1.80486
1.51436
0.283065
2.74342
-11.1066
0.602821
0.31977
-3.64803
0.400721
-2.24311
1.32761
1.92016
1.72573
1.19753
-3.47473
1.26084
1.18294
1.13138
1.0511
0.987162
0.898266
-3.15095
1.20607
0.824632
1.69204
0.661981
-5.71975
2.3507
-3.33474
-0.701298
-6.74634
1.31573
-3.24383
2.08168
-3.25166
0.412088
-3.22101
-6.76618
-3.22867
1.57555
-0.956107
-0.758189
-3.23359
-4.18181
-6.34802
1.63581
-3.95696
-3.26455
1.68213
1.66167
-1.15489
-11.2687
1.78202
0.32506
-8.17105
0.23862
0.775234
1.64073
-2.51293
0.142171
-7.6299
1.81582
-3.84721
-1.97203
-6.10297
1.02554
1.57055
0.280345
-4.31994
0.85
1.84952
0.98503
-4.55527
1.53554
0.586161
1.12835
-0.496731
1.57844
-1.64855
0.00281464
0.000513545
0.885271
-2.64208
2.28626
0.499477
-0.456363
0.452987
-3.28956
2.04933
1.69678
1.54716
1.66746
0.284362
0.169712
-0.27238
-1.70391
0.20503
-0.646906
0.1726
1.30579
-3.04192
0.103472
2.94675
0.00304539
0.993568
1.04092
-7.34911
-0.052707
0.866817
0.102491
0.880148
1.20771
1.57844
1.63657
1.53636
0.199249
1.87115
-3.29222
-0.0016441
-0.128437
-1.58702
-0.481356
-0.568872
1.70106
-6.86109
1.49908
-1.21085
-5.83955
0.352999
-2.48207
-0.259357
-1.58028
0.314852
1.75064
0.166368
-0.740813
-0.00441875
0.634568
0.0991108
-4.71843
-0.00186521
1.34556
0.24652
-3.2182
1.31517
0.324411
1.32493
-3.55228
0.141455
-0.0433582
0.00615105
0.403443
-6.06561
0.369735
0.0127793
0.0400201
1.09255
2.32856
0.735262
-3.13191
1.58956
-0.744029
1.35674
-0.0641926
0.0230988
1.09699
-4.28752
0.0138675
-1.1075
-7.66199
-4.31963
1.57232
-0.284088
1.7513
0.00919451
0.00113346
2.46604
2.27511
-3.99823
0.708805
-3.92758
-1.39889
1.80518
-1.84976
0.33025
-2.68695
-0.216129
-2.34065
-0.0963413
0.595977
0.289592
0.00679193
-0.356909
1.57419
-7.24556
-3.56424
0.714467
0.241251
2.27347
0.164436
0.805061
2.46791
2.51574
-0.00487439