/*--------------------------------*- C++ -*----------------------------------*\
| =========                 |                                                 |
| \\      /  F ield         | OpenFOAM: The Open Source CFD Toolbox           |
|  \\    /   O peration     | Version:  2306                                  |
|   \\  /    A nd           | Website:  www.openfoam.com                      |
|    \\/     M anipulation  |                                                 |
\*---------------------------------------------------------------------------*/
FoamFile
{
    version     2.0;
    format      ascii;
    arch        "LSB;label=32;scalar=64";
    class       surfaceScalarField;
    location    "7.7";
    object      phi;
}
// * * * * * * * * * * * * * * * * * * * * * * * * * * * * * * * * * * * * * //

dimensions      [0 3 -1 0 0 0 0];

oriented        oriented;

internalField   nonuniform List<scalar> 
7520
(
-0.98563
0.799703
0.185927
-1.32788
-0.195908
1.52379
-0.0858011
-1.86106
1.94686
0.234043
-0.0325758
-0.201467
0.241483
1.93307
-2.17455
-0.0909003
0.0978273
-0.00692702
-0.318805
2.13708
-1.81827
-0.211409
-2.03997
2.25138
-1.55077
1.46497
0.822741
-0.0927694
-0.729972
0.432445
-0.04792
-0.384525
-0.273888
-1.55364
1.82753
0.638033
-0.0479018
-0.590132
-0.0988691
0.137072
-0.0382032
-2.18645
0.955089
1.23137
0.0773055
1.51544
-1.59275
0.300407
-0.0234876
-0.276919
0.0241498
-0.465377
0.441227
0.0339084
0.0220277
-0.055936
-0.0874694
0.387876
-0.389563
-0.28432
0.673883
-1.05125
1.12855
-0.0370978
-0.314128
0.351226
0.139585
-0.141808
0.00222289
0.105185
-0.222047
0.116862
0.253678
-0.245978
-0.00770019
0.86749
1.11958
-1.98707
-0.0364052
0.317675
-0.28127
-0.0198304
0.0537388
0.208975
-0.0355648
-0.17341
-1.12047
1.72742
-0.606945
-0.0478927
-0.0183591
0.0662517
-1.85085
2.03552
-0.184669
0.0729082
-0.295323
0.222415
-0.331702
-1.22991
1.56161
-0.354612
0.972224
-0.617613
0.269391
-0.541217
0.271825
0.823921
-1.5849
0.76098
0.0904124
-0.314139
0.223726
-0.0466215
-0.104235
0.150857
-0.0276021
0.261645
0.283272
-0.518082
0.23481
0.287393
-0.0337149
2.08417
-1.59068
-0.493491
-0.54748
-0.614675
1.16216
-1.46334
1.59144
-0.128103
-0.121449
-0.162073
0.283522
0.264552
-0.0781068
-0.186445
-1.32392
0.203449
0.27437
-0.0766115
-0.197759
1.79538
0.179299
-1.97468
-0.710849
0.264079
0.44677
-0.0322354
0.0329549
-0.000719517
1.07774
0.490109
-1.56785
0.0143207
-0.105221
-0.760607
0.131003
0.629604
0.398655
-1.26057
0.86192
-0.0425978
-0.122749
0.165347
-0.116658
0.0687651
-2.21851
1.15611
1.0624
1.55719
-0.704458
-0.852736
0.039671
0.164917
-0.204588
-1.28804
0.956337
0.794187
-0.156153
0.00614294
-0.0383783
0.00419395
-0.103063
1.18229
-2.42768
1.24539
0.13731
1.65807
-1.26836
0.989183
0.279181
0.315924
-0.237759
-0.0781654
-0.50036
0.899015
-0.118295
-0.568845
0.68714
0.340602
-0.0928233
-0.247778
-0.184743
-0.00867923
0.193422
1.02306
-1.59043
0.567377
0.129433
-0.113143
-0.0162905
1.81224
-0.50632
-1.30592
0.393986
-0.748852
0.354866
1.64782
-1.14397
-0.503848
-0.823829
0.0632215
-1.54421
-0.6743
1.00191
-0.742763
-0.259144
0.236627
-0.620446
0.383819
-0.300004
0.372912
-0.510905
0.535055
0.22629
-0.0173157
0.016552
-0.0469922
0.0304401
1.164
0.648232
-1.98125
2.38046
-0.399208
0.723084
0.83411
-0.984858
1.11622
-0.131365
0.010803
-0.0876509
0.0768479
1.3534
-1.62729
0.241795
0.19617
-0.105757
0.00669591
0.339412
-0.346108
0.00751214
0.085522
-0.0930342
-0.526151
0.3871
0.139051
1.46879
-0.445731
-0.721421
0.619796
0.101624
1.2615
-1.67626
0.414768
-0.0890306
0.112191
-0.0231601
-0.0562376
0.119331
-0.0630938
2.86442
-1.87157
-0.99285
0.524989
-0.408476
-0.577154
-1.33543
0.835073
-1.92557
1.60676
0.165932
-0.0781908
-0.0877411
0.455777
-0.023332
-0.160796
0.159646
0.00115038
-0.102192
0.130874
-0.0286819
1.99781
-1.17389
-0.130979
0.011279
0.1197
-0.751388
0.361824
0.0345506
-0.017803
-0.0167476
0.66929
0.332617
-0.772858
0.489033
0.283825
0.744203
-1.23619
0.491987
0.0383087
0.101277
-0.189647
-0.521202
-0.364688
0.0948394
0.269849
0.998294
-0.175553
0.712243
-0.639821
-0.0724217
-0.0251891
-0.090473
0.115662
-0.264714
0.242305
0.022409
0.703876
-1.87239
1.16851
0.383072
-0.42017
-0.344816
-0.0515002
0.396317
-0.0252662
-0.105713
-0.377597
-0.216917
0.594514
0.142375
0.0319461
-0.174321
-0.0638192
0.206194
-0.584428
-0.18843
-0.732002
-0.489106
1.22111
-1.36847
2.42755
-1.05908
0.383245
-0.395562
0.0123171
-1.15948
-0.175956
-0.0339003
-0.0504214
0.0843217
1.4235
-0.345761
-0.629202
0.409107
0.220095
-0.0308411
0.179974
-0.149133
0.290322
-0.0745997
-0.215722
0.266326
-2.12739
0.31112
-1.77446
-2.8977
1.16935
1.72835
-0.851065
-0.4173
-1.62386
1.67097
-0.0471138
2.15889
0.209651
-2.36854
0.183012
-0.229634
0.760105
0.160107
-0.920212
-0.261491
-0.186874
0.448365
0.38918
-2.01304
-1.84726
-0.00359114
0.0039888
0.0125632
0.0628036
-0.120362
0.0575588
0.284949
-0.327546
1.64489
-0.383395
-0.154915
0.127313
-0.0185551
0.00262309
0.015932
0.753941
-0.421221
-0.33272
-0.443509
-1.74294
-0.0734051
-0.188086
0.0381687
-0.575223
0.537054
0.260308
0.202443
-0.462751
-1.54963
0.925132
0.624498
1.06096
-0.819479
-0.084972
0.464246
-0.379274
-0.227553
0.332739
0.512497
-0.23942
-0.273077
0.593513
-0.586818
0.236276
-0.312887
0.895194
0.320337
-1.21553
0.299029
-0.335434
-0.351959
-1.44086
1.79282
1.2803
0.66414
0.686814
-0.450188
-1.33044
0.975831
-0.709993
0.914983
-0.20499
0.00460662
-0.0328484
0.0282418
0.260147
-0.299655
0.0395085
-0.71435
1.38364
-0.268595
-0.150067
0.418662
0.4065
-0.146192
-0.854681
0.89285
0.598737
-1.07777
0.479032
-0.512892
-0.013259
0.67287
-0.403479
0.140397
-0.0109632
-0.0703503
0.110845
-0.0404947
0.0768432
-0.179035
-0.413287
-0.0774814
0.490768
0.130422
0.210179
-1.04299
-0.547448
-0.753553
-0.796078
0.0225549
0.0637109
-0.0862658
1.00283
-0.0929811
-0.909849
-1.58583
0.217366
-1.20291
2.19827
-0.995359
0.355427
0.15707
-0.387675
0.48419
-0.0965154
-0.759777
0.57013
0.582981
-1.13046
1.75196
-0.0660764
-1.68589
-1.42853
1.89251
-0.46398
-0.023429
0.0862326
0.369779
1.5429
-1.91268
0.0339626
-0.164994
0.131031
-0.132097
1.80272
-1.67062
0.000948825
0.11266
-0.113609
-0.888695
1.23242
-0.343729
-0.107431
-0.652346
0.0379204
-0.451207
0.263562
-0.163833
-1.87938
2.04321
0.0321922
-0.0101645
-1.75369
0.710706
-0.401287
-0.105629
0.506917
0.0971189
-0.122308
0.122611
1.59291
-1.71552
-0.536329
-0.578675
1.115
-0.512773
0.403324
0.109449
2.83156
-1.87598
-0.95558
0.468062
-1.00439
0.0514519
-0.0516413
0.000189478
0.0971151
0.735627
-0.832742
0.0468091
-0.0499337
0.00312461
0.843193
0.802676
-1.64587
-0.229388
-0.492033
-0.0690121
0.185094
-0.116082
-0.901217
0.688268
0.21295
-0.0739802
0.039447
0.0345332
1.4406
-0.437765
1.05062
-1.94714
0.896513
-2.79417
1.21757
1.57661
-1.17026
-1.62391
-0.361884
0.47242
-0.110536
0.437129
-0.261793
-0.175336
1.02
-1.73789
0.717891
0.0285444
1.08321
-1.11175
-0.582284
-0.160479
1.12895
-0.233754
1.29027
1.29782
-2.5881
-0.180766
0.0855788
0.0951874
0.0535484
-0.954766
1.87179
-0.474384
-1.3974
0.134727
-0.100765
0.0544897
0.327431
-0.350919
1.05859
0.813196
0.172075
0.67339
-0.845465
0.359367
-0.0416917
-0.0587855
0.00562173
0.0531637
0.526295
-0.396812
-0.129483
-1.82651
0.876711
0.949801
0.406549
0.0305801
0.883093
-1.61509
0.145293
-0.0065207
-0.138773
0.134192
0.130359
-1.64824
1.588
0.0602358
1.17985
-0.581113
-0.00607835
-0.032688
0.0387664
0.0330301
-0.138564
0.105534
0.120207
-0.21303
1.74425
-0.561966
-0.117627
0.380163
-0.262536
0.0010391
-0.0195942
0.469847
-0.517767
0.703149
-0.363737
-0.667256
0.695801
-0.0114804
-0.0588699
2.13708
0.0111381
-0.0159286
0.00479045
0.0971567
0.605993
-0.201834
0.130869
0.0709651
-0.106584
0.0503463
0.460427
-0.177155
1.44054
-0.680432
0.42688
-0.364178
-0.0627022
0.306473
-1.19517
0.0198434
-0.397441
-2.05051
1.88668
0.0387358
0.012716
-2.26192
0.232064
-0.262905
0.0504337
0.111313
-0.161747
-0.609116
-1.2174
1.5373
1.32712
1.69979
-0.774657
-1.55364
0.159226
0.553017
0.257984
-0.262391
0.00440787
0.171114
-0.235113
0.0639987
-1.25043
0.63575
-0.195982
-0.257375
0.453357
0.258416
-0.351186
-0.10184
-2.01944
2.12128
0.973866
0.217087
-1.5109
1.29382
0.950534
1.08499
-1.3604
1.57374
-1.20396
-0.0552994
0.38715
-0.33185
-0.879791
0.73651
0.143281
-0.239651
0.122023
-0.0835246
0.325945
-0.24242
-0.239073
-0.255156
0.49423
-0.530135
1.81044
-0.27266
-0.364961
0.637621
-0.392525
0.271076
0.235163
-1.22002
-0.100381
0.0415955
0.00879672
-1.88072
0.978208
0.902508
0.371703
-0.419605
0.00859542
-0.0153445
0.398589
1.25872
1.57285
1.65277
-0.517249
-1.13552
0.117923
-0.0433835
-0.0745392
0.69114
0.956681
0.119206
0.138777
0.552672
-2.20594
1.65326
-0.0994348
0.0902604
0.0091744
0.858632
0.610155
-0.214296
-0.0998432
0.726352
-0.554277
-0.569554
1.43704
0.155226
0.0107058
1.24138
-0.497174
0.14505
-0.137538
1.78074
-0.127972
0.100827
0.40094
0.0259403
0.0177033
0.298221
-1.74627
-0.836182
0.938608
-0.102426
0.00596345
-0.119106
1.80058
0.0257069
-1.82628
-0.707486
0.434826
0.223786
0.0665356
-0.306634
0.0688748
0.0295458
-1.17352
1.54131
-1.57751
0.036203
0.00220776
-0.249336
0.247129
-0.607093
1.46572
-0.835527
1.5394
0.0215517
-0.019344
0.757933
-0.2689
1.94868
-0.595278
0.00236323
0.131118
-0.133481
-0.0739109
-0.0888213
0.162732
0.115004
0.00291913
-0.367831
-0.724606
-0.0652622
-0.301691
0.366953
0.938302
1.48925
-1.63586
1.28391
0.112375
-0.457192
-1.00675
0.888453
-1.13152
1.32786
-0.196332
0.524553
-1.68753
1.55543
1.59771
-0.433711
1.31352
0.770647
-0.0676419
0.260625
1.28068
-1.32775
0.298825
1.02893
0.253472
-0.289036
0.392165
0.0143842
-0.213238
0.149418
-0.112089
-1.47859
0.436586
-1.24866
0.81207
-1.52538
1.01269
0.512699
0.202032
-0.770877
-0.228156
0.267827
0.0868316
-0.0705203
0.03465
0.0358703
-0.544833
0.459861
1.07309
0.524628
-1.42853
-0.120992
-0.143722
1.62203
-1.43304
-0.188992
-0.404696
1.9476
-1.63568
2.46725
-0.83157
-0.718421
1.02628
-0.307858
0.0616875
-1.34973
0.140933
-0.402726
-0.267886
0.419089
-0.151203
0.0784565
0.040875
1.33667
0.691925
-1.23627
0.544345
-0.0178007
-1.54513
1.56294
-0.0528272
-0.107969
-0.00494712
-0.459059
0.464006
-0.392307
1.08785
-0.695543
0.198438
-0.137662
-0.0607762
0.258408
-0.251984
-0.00642463
-1.98619
1.79028
2.46217
-0.512962
-1.9492
0.0724547
-0.00633653
-0.0661181
0.00596718
0.165147
0.0907827
-0.603674
-0.828119
1.67131
0.0310768
0.0034738
1.75196
-0.97719
1.07431
0.12927
-0.12927
-0.148002
0.362909
-2.34416
2.24356
-0.929579
-1.31398
-1.28261
0.830657
0.451957
-0.00610374
0.0425466
-0.0364429
1.01656
-1.2107
0.194141
-0.580521
-0.193492
0.774014
0.406764
-1.93954
1.53278
-0.0865116
-0.793279
-0.209217
0.135306
-0.177412
-0.576289
0.7537
0.731411
0.435821
-1.16723
-1.38228
-0.425528
0.682471
-0.256943
-0.630803
0.907011
-0.276208
1.44488
-1.32227
0.308285
-0.373547
0.107922
-0.380506
0.195763
-1.40441
1.53467
-0.130261
-1.22295
1.7487
-0.52575
-0.0171686
0.132987
-0.115818
-1.62007
-0.807602
-0.0315593
0.0117289
-1.66698
0.464068
-0.367472
0.283948
-0.172145
-0.546276
-0.0507225
-0.0487123
-0.806085
2.09636
0.0469745
-0.361102
-1.52386
0.121748
1.40211
0.373561
-0.307785
-0.0657757
-0.869424
0.159431
0.21286
-0.559368
0.346507
1.60515
-0.140522
-1.46463
-0.0236858
0.212211
-0.188526
-0.366831
0.500116
1.09325
-1.59337
-0.692534
1.64762
0.163066
0.696131
0.727367
-0.0650936
1.58197
0.198766
-1.41544
1.39764
0.300605
-0.0288012
-0.271804
0.41956
-0.0888204
-0.33074
-1.98986
0.354177
-0.0918928
-0.426189
-0.579182
-0.257
0.25165
0.798871
-0.208895
-0.589976
0.189536
0.097857
-0.890013
1.36285
-0.472836
0.15277
-0.241592
-0.0593806
0.319527
0.247776
-0.515662
0.0366513
0.422317
-0.458968
-0.0659121
-0.0395093
0.105421
0.690097
-0.140254
-0.549842
-0.0262385
-0.166977
0.193215
-0.287835
0.319507
-0.0316724
0.0101132
-0.290193
0.28008
0.314138
-0.0606667
0.440033
-0.346699
-0.0933344
1.57267
-1.03755
-0.949527
-0.0673154
0.118472
-0.0511564
0.0614722
-0.0716368
-0.273674
-0.239098
1.11088
-0.312014
-0.039735
-1.22622
1.26595
-0.339634
-0.0250546
-0.0061296
-0.578298
0.20871
0.049698
0.170006
-0.169057
-1.33504
-0.0352926
-0.0808503
0.116143
1.31848
-0.998145
1.24661
1.21556
0.240766
-0.0954723
-0.15587
-1.69039
1.84626
0.795325
0.391062
-1.18639
0.26656
-1.04258
0.692757
0.349826
0.326418
0.0471433
0.0217867
0.0750165
-0.0968032
2.11013
-1.12118
-0.988945
0.134871
-0.302085
0.167214
0.743424
0.323943
-1.06737
0.0692057
0.101073
-0.170279
1.71187
0.0129494
-1.72481
-0.454921
-0.0104556
-0.252899
0.299873
0.0356134
0.0438475
-0.0794608
-0.555663
0.0447579
0.0289362
0.0203227
-0.0492589
-0.365192
-0.668744
1.03394
1.12762
0.477525
0.996241
-1.03598
0.767797
-1.1601
-1.91126
1.80942
-0.0287915
-0.0616815
0.251662
-0.593343
0.341682
0.713802
0.985987
1.1104
-1.33238
0.221975
1.23419
-0.538056
-0.131867
0.0884833
-0.0119216
-0.0390245
0.0509461
-1.72221
-0.453231
2.17544
-0.407409
0.44246
-0.0350505
0.0145504
0.11472
0.166036
1.76703
-0.135969
-0.0447972
0.907558
-1.3803
0.472742
-0.70005
-0.371154
1.0712
1.51392
-0.463302
0.726246
0.565747
-0.752621
-0.262387
0.00497286
0.257414
0.021351
-0.194761
-0.459514
1.15144
0.0120903
0.0347188
-0.339833
-0.223311
0.563144
0.0121212
1.00444
0.707985
-1.19709
-0.459602
-0.397465
0.492304
0.753956
-0.926101
0.0785713
-0.0672923
-0.0584174
-0.292502
-1.94335
0.905804
-0.104035
-0.0637229
0.167758
0.0373045
-0.0243381
-0.0129663
0.228189
0.855017
0.198201
-0.0332831
0.0366205
-1.6913
1.65468
0.656823
-0.855863
0.19904
-0.0232576
0.0625539
-0.0392963
-0.769294
1.20588
-0.112856
-0.35717
0.470027
-0.273148
0.486008
-0.974023
1.44987
-0.475844
-0.45943
0.47238
-0.0129498
2.2141
-0.055214
0.473345
-0.150971
-0.322375
-0.588535
0.371618
-0.176772
0.354467
1.35753
1.02293
0.0928791
-1.71992
1.62704
-0.805727
-0.170547
0.976273
-0.278973
0.25123
0.0277435
0.068514
-0.274443
0.205929
-0.0188048
-0.0986822
0.117487
-0.101002
0.00062106
-0.328632
-0.21146
-0.0105871
-0.0901839
0.131779
-0.133102
0.395393
-0.262291
-0.230959
0.273992
-0.0430333
-0.0434262
0.201236
-0.15781
0.790058
-0.365123
-0.0584305
0.0114384
0.474395
-1.11691
0.642519
1.1968
-0.968607
0.00574945
-0.341062
0.335313
-0.930155
-0.746108
-1.3709
1.50821
0.637054
-0.476946
-1.3057
0.805116
0.500586
0.281175
-0.0995615
-0.181613
1.75137
-1.75137
-1.64996
0.105748
-0.307214
-0.24528
-0.608904
0.854184
0.568659
-0.525986
-0.0426728
0.0253828
0.0736183
-0.093009
0.0193907
-0.00263589
0.200162
-0.197527
-0.40337
1.24603
-0.842657
0.413146
0.132034
-0.54518
0.770773
-0.709085
-1.05321
0.247488
-0.042072
-0.215311
0.257383
-0.016353
-1.3114
-0.453332
-1.22531
0.771981
0.351365
0.0103268
0.223528
-0.233855
-0.270756
0.337278
-0.0665212
-0.24228
0.173268
-0.0823683
0.187849
-0.137415
0.0363075
0.135707
0.216065
-0.351772
-0.0245885
-0.0144361
0.339102
0.100932
-0.214716
0.225671
-0.0109544
0.0130698
0.0198613
-0.032931
0.101405
-0.0252191
-0.0761859
-0.0642736
0.166413
-0.102139
-0.540865
1.35294
0.487175
-1.12583
0.638656
-0.150993
-0.0799335
0.230926
-0.0394779
-2.57701
2.61649
0.8804
-0.554162
-0.326238
0.471925
-0.0456954
-0.189418
0.0556875
-0.0734905
-0.0541791
0.18905
0.286698
-0.935627
0.648929
-0.411209
-1.23703
-0.230174
0.764034
-0.533861
-0.111668
0.0864022
0.404493
-0.273957
-0.130536
0.819357
-0.344961
-0.802301
0.568911
-0.540794
-0.0281166
-0.518543
0.32256
-0.158166
0.567273
-0.209537
0.242567
-1.73233
-0.139232
-0.286184
0.53396
0.0236684
-0.232886
0.0148991
0.036047
0.303748
-0.293422
-0.0816881
-1.29408
0.753216
1.98729
-0.184571
-1.87938
2.24016
-1.08511
-1.15505
-0.0827362
0.469836
-0.080934
-0.742895
0.455577
-0.378734
-0.243985
-0.0184019
-0.536239
-0.415984
0.952223
0.125179
0.238168
-0.363346
0.0380581
-0.889123
-1.98282
-0.311978
-0.321935
0.633913
0.605601
0.0512227
-0.242936
-0.0378724
0.280808
0.470366
-0.087294
0.169823
0.111352
2.07005
-1.66329
-0.868742
0.332504
-0.249442
-0.05023
0.299672
-0.04604
-0.125146
-1.08556
0.519012
-0.0354731
-0.483539
-0.0827321
-0.0339256
0.918333
-1.18858
0.27025
-0.658069
-0.0669051
1.81827
-0.573465
-0.543449
1.75696
-2.12434
0.367378
-2.34026
1.82115
0.519114
0.147349
0.103002
-0.25035
0.150134
1.13449
0.0181435
0.823093
-0.841237
0.0572323
0.322931
0.12413
-0.051675
0.040063
-0.354325
0.314262
1.26714
-1.42301
0.0715855
0.32693
-0.399183
0.0722534
-1.55272
-0.0972412
-0.592512
-0.293239
0.225924
0.109762
0.00335473
-0.113116
-0.614899
0.294068
0.320831
-0.391662
0.336362
-1.08362
-0.459711
1.54333
-0.135394
-0.0467805
0.0406768
-0.38006
0.157874
0.222186
-0.386469
1.39915
-0.156298
-0.930923
-0.351691
1.47437
-0.591275
1.02588
-1.42925
-0.00824337
-0.025912
0.0341553
1.05698
-0.626737
-1.54781
-0.337263
-0.0849462
0.42221
-0.054044
0.203462
0.103953
-0.460929
0.356976
0.420005
0.11505
0.549492
0.891045
-0.127127
0.303744
-0.0674678
-0.405819
0.390474
-0.174133
0.0656452
0.108488
0.239585
-0.105534
-0.134051
-0.141921
-0.0412056
0.183126
0.313232
0.124438
-0.437671
0.0869043
0.0287579
-0.187043
-0.062293
-0.0277893
1.19334
0.046258
0.138684
-0.184942
0.0797417
-0.126991
0.0472496
-0.0362733
-0.240779
0.277052
0.615589
0.23725
-0.662777
-0.0831578
0.359137
-0.0741884
-0.395218
0.167665
-0.128209
-0.0367843
1.7955
-0.992829
0.0638687
-0.211534
0.147665
-1.59009
0.219191
-0.106524
0.0139327
0.0925917
-0.0399167
-0.0340636
-0.760334
-1.57993
0.358496
-0.0594671
-0.739101
-1.46684
-0.552039
0.212206
-0.494163
0.114103
0.88969
-0.739003
-1.53988
1.63276
-2.11988
0.397678
-0.159232
0.0282639
0.130968
0.0537878
-0.194856
-0.374201
0.569057
-0.296455
0.0339188
-0.326185
-1.13866
1.46484
-0.502586
-1.1352
1.63779
0.54642
0.350097
-0.896517
0.000593708
0.297541
0.27137
-0.260927
-0.254736
-0.168145
-0.103058
0.271204
0.0874044
0.360961
0.271567
0.132926
0.44894
-0.598162
-0.0250569
0.036195
-0.57589
0.7296
-0.153711
-0.148603
0.452108
-1.36049
0.0764002
-0.0126893
-1.50439
0.460111
0.134403
-1.0799
-0.535193
-0.134881
-0.932325
-0.316478
1.2488
-0.114254
0.569831
-0.197958
1.02862
-0.294971
-1.01222
-0.931129
-1.25547
1.44961
0.0831793
-0.290994
0.0164377
-0.0672015
0.0507638
-0.625151
0.561869
0.0632819
0.684716
-0.792147
-0.22195
0.117916
-1.10457
-0.201127
-0.0313034
-0.0207784
0.0520818
0.0532796
0.636817
-1.43375
-0.183817
1.61757
0.054741
-0.0793295
0.204063
-0.441603
0.237541
-0.233361
0.387442
0.137547
-0.204834
-0.0627339
0.267568
-1.31009
0.835708
-0.294517
-0.00193792
-0.172777
-0.129309
-0.331423
0.0569542
0.0216171
-0.0528589
0.0745716
-0.0164157
-0.0630451
0.29568
1.29232
-0.640349
1.95387
1.01291
0.628582
-0.822074
0.0449259
-1.47868
-0.297778
-0.323591
0.382164
-0.0585735
0.218803
0.0235018
0.0448268
0.0116617
-0.0545027
0.123268
-0.198398
1.84031
-1.64191
0.184068
-0.836414
-0.123352
-0.257704
-0.0698427
0.930919
-0.280972
0.355582
-0.0746107
-0.055648
-1.53767
1.59332
0.564013
0.272446
0.296212
-0.478733
-0.546583
0.948627
-0.402044
0.0397236
0.0164043
-0.0407425
-0.239076
0.811132
-0.572056
0.094635
0.296071
-0.390706
-0.122486
-0.648433
0.770919
-0.275715
-0.0597195
-2.05227
-0.0247641
0.188674
-0.186311
0.0297055
-0.309903
0.0153862
0.339296
-0.661231
2.29184
-0.971664
-1.32018
-0.144428
0.403948
-0.216816
0.420879
-0.247708
-0.293086
-0.173254
-0.013191
0.150207
-0.450211
-0.17935
0.850669
-0.973155
0.136911
-0.0924835
-0.0444274
-0.36819
-1.96905
1.09516
0.873893
-2.01852
1.97904
-1.14039
0.308447
0.831947
-0.0820126
0.31679
-0.234777
0.699212
0.411673
-0.046751
0.196757
-0.0348136
-0.133512
0.0174448
-0.258621
-0.0153365
1.12911
1.16273
-0.012491
0.0181128
1.63912
-1.42947
-0.0344785
-1.39324
1.42772
1.2383
-0.0449687
-0.290456
-0.0770165
0.564989
0.111052
-0.248079
-0.0580103
0.450175
0.796858
-1.56077
0.763907
0.0934201
2.34482
-1.41405
-0.93077
0.00910792
0.00163136
0.0409152
0.618781
0.764859
1.09126
-0.985507
1.03669
-1.53928
-1.23363
0.0104842
1.22314
-1.74119
0.509922
1.23127
0.0912998
0.0404797
2.44088
0.0549403
-2.49582
-0.689481
1.3786
-0.689121
0.0536061
0.220386
-0.804457
0.173654
-0.00307878
0.0418146
-1.34397
0.212448
0.00247816
-0.01762
0.0151418
-0.095762
0.216839
-0.121077
0.136569
-0.478099
0.34153
0.53341
0.405198
-0.518137
-0.0967621
0.0749555
0.852929
-0.939441
-0.0653867
-0.0549757
-0.251154
0.0533948
0.751376
0.283395
-1.03477
-0.397193
0.330051
0.0671422
0.126808
-0.452422
0.325615
-0.636268
-1.59473
0.81041
0.784318
0.123202
0.848201
0.238958
-1.08716
-0.280241
0.219793
-0.243661
0.0238685
0.166647
-0.0356162
-0.246993
0.00405718
-0.287315
-1.37016
0.689725
-0.420116
0.783745
-0.363628
-0.622669
-0.707773
1.71362
-0.735411
-0.10073
0.179669
-1.41372
0.078769
-1.39261
1.31384
0.0438251
0.0310311
-0.0748562
1.06577
-0.787514
-0.27826
0.198576
-0.0186023
-0.0152247
-1.43088
0.808206
-0.587866
1.28062
-0.119321
0.589168
0.294244
0.210194
0.029391
0.805656
-0.37083
-0.00273174
0.687448
-0.944519
0.423317
-1.51095
0.375751
1.00782
-1.06346
-1.58998
1.39159
-0.065812
-1.45588
0.183425
1.27246
0.519374
0.24466
0.0349054
-0.928844
0.683565
-0.1092
-0.124931
0.234131
-2.30859
0.701459
1.60713
0.404099
0.828055
-1.23215
0.0714912
-1.32696
0.760451
0.101837
-0.862288
-0.389157
-0.0678829
-0.938865
-0.0759416
-0.0121356
0.0515827
1.49259
-1.47964
-0.0567953
-0.974106
-0.620622
0.513707
-0.0114703
-1.22216
1.11552
-0.267319
-1.55543
0.00178935
-0.31439
-0.901142
0.328872
-0.321303
1.91126
0.225821
0.149437
-1.23499
0.134306
-0.10236
0.20375
-0.442823
0.327964
-0.554786
0.226822
0.0539449
0.081753
-0.135698
-0.465551
0.31458
0.290994
0.235301
-1.11698
1.13676
-0.0197773
-0.741735
1.10304
-2.14222
1.03918
-0.182577
-0.0566283
0.0911615
-1.47327
0.1379
1.33537
-0.368695
0.893248
-0.664848
0.702906
0.154467
0.960088
0.54877
-1.00837
-0.826661
-0.174016
1.00068
-0.303196
-1.39277
1.06658
-0.121772
0.12483
-0.00305895
0.051022
-0.0903183
0.947855
-1.40737
-0.663254
0.164113
0.499141
0.167143
-0.120141
-0.0470019
-1.07521
0.426777
0.0368235
0.0252803
-0.226747
0.402177
2.28697
0.153913
-0.797928
0.816071
-0.262035
0.0892582
-1.26443
2.22498
-0.960547
-0.074308
0.0635616
0.076835
0.368814
-0.0175884
1.00532
1.19295
0.645476
-0.914376
0.297381
-2.17336
-0.16585
0.130558
0.137894
-1.13604
-0.229853
-0.958731
-0.207428
0.0525134
0.77787
-0.375693
-1.1917
-0.254559
1.1456
0.182148
-1.68558
0.306825
1.37876
-0.0826344
0.470077
1.09448
-1.1211
-0.307424
0.735686
-0.326038
-0.409648
0.867087
-0.306163
-0.560924
-0.175757
0.0380955
0.636319
-0.663344
0.0270259
-1.42854
0.89592
0.53262
0.505183
0.944684
0.00067823
0.109083
0.751462
-0.514213
-2.17943
0.911433
1.26799
-2.04321
1.58998
0.984123
0.719872
-1.70399
0.796904
-0.733682
1.76106
-0.580075
-1.18099
-1.05651
0.169366
-0.080883
-0.179153
-0.10008
0.185659
-0.0368791
0.11474
-0.0778612
-0.21911
0.210431
-1.81176
-0.228214
0.178037
-0.137974
-0.0315261
-0.0184076
0.935934
-0.495181
-0.440753
0.772015
-0.477947
-0.116468
0.122435
-0.161375
1.27178
0.0581157
-0.0142906
-0.336222
-0.738987
-1.48809
0.555762
-0.0651719
-0.0766363
0.123544
0.114995
0.100202
-0.0837639
-0.490146
-0.526382
0.0935074
-0.0771805
-0.0163268
0.176882
-0.722555
-0.445505
1.16806
-0.30826
-0.00164278
-0.116826
1.1554
0.997923
-2.15332
-0.389152
0.935572
0.211755
-0.0844425
0.655693
-0.830257
-0.826637
1.65689
-0.945126
-0.942443
0.526459
0.291938
-0.185677
-0.106262
1.04917
-1.14215
-0.150465
1.98267
-0.879632
-0.177766
0.103166
-0.430227
-0.695604
0.0837735
2.07433
-1.80942
-0.264909
-0.900566
-0.587521
-0.341951
0.162257
0.0651267
-1.02657
-0.213141
1.23971
0.238065
-0.31639
0.411025
-1.64637
-1.41825
0.639923
0.778323
-0.16299
-0.00455986
0.16755
0.94685
-0.581616
-0.365234
0.103356
-0.157859
0.0768577
0.0827882
0.74421
-1.82783
0.753644
0.113443
-0.335222
-0.53352
0.326795
-0.0886274
0.146342
0.293
-1.01556
0.0293372
0.357813
-0.294923
-0.0855822
-0.185364
0.0950312
0.0903323
0.978479
0.782581
0.537547
0.0559475
0.693954
-0.132921
-0.561033
1.68753
-1.3807
-0.388675
-0.147878
0.141124
0.0255233
0.196176
-0.0844661
-0.267306
0.00320675
-0.124978
0.536279
-0.105775
-1.81318
-0.021304
-0.141686
-0.0690221
0.00182059
1.08752
-1.28547
0.845744
-0.40441
-0.441333
0.00399396
0.108197
-0.0167096
0.0191878
0.388231
0.0432812
0.0621402
0.30579
-0.446045
-2.72392
1.18472
1.5392
-0.0953352
0.00768426
-0.019147
0.103131
0.123159
-0.268952
-0.290415
0.655577
-1.48583
-0.0276727
-0.947863
2.10326
0.600925
-0.0638479
-0.537077
-0.586657
-0.48185
-0.0441353
0.0875842
-1.1065
0.490313
-0.722235
0.231922
0.290653
-0.363403
0.0727507
-0.0985046
1.1272
1.34005
-1.355
1.3807
-2.17558
1.66484
0.510737
1.16974
-2.1176
2.41697
-1.15825
-1.04421
-1.05532
-0.0293385
0.0639885
-0.0525243
-0.406534
-1.55185
0.095965
-0.0310086
-1.30137
1.21411
-1.97563
0.761521
-0.053603
0.236615
-0.386438
0.106545
-0.119495
0.991628
1.35319
-2.19561
0.93118
-0.179518
-0.765608
-1.32987
-0.207308
-0.156095
2.01852
-2.07373
-0.125713
-1.09811
-0.0326049
1.28306
-0.782948
-1.77644
1.77601
0.000429592
0.454228
2.16226
0.412557
-0.0360077
-0.37655
1.60755
-0.570851
0.229973
0.0468197
0.728449
-0.734579
0.082923
0.127271
0.716605
0.792969
-1.50957
-0.522099
-0.409033
1.02631
-1.06366
0.0373456
0.444869
-0.480342
-1.70608
0.715164
0.990917
1.05845
0.00732861
-0.923357
-0.208462
1.04862
-1.63989
0.281389
-0.542316
-0.250849
0.418514
-0.622057
0.427201
-1.67367
-0.525444
2.19911
-0.392278
0.516717
-0.454986
0.499743
1.13327
-1.48496
0.0636663
1.35819
-1.99854
-0.265889
-0.298789
0.204728
-1.17334
0.108854
0.690848
0.50583
0.00823359
-0.584522
-1.83088
0.290999
0.0256252
0.100814
-0.126439
0.0680746
-0.310495
1.1333
1.10686
1.24343
-0.973178
0.0998813
-0.0465638
-0.350248
0.440339
-0.433337
0.548387
-0.639122
-0.93544
2.10518
-0.214401
0.337603
-0.625881
-0.706646
1.33253
-1.39402
0.704543
-0.0658654
0.231376
0.0456759
-1.45224
-0.071624
-0.144886
0.6352
-1.45071
-1.27321
2.07433
0.544364
-1.34044
0.984672
-0.579474
-0.227517
0.573341
-0.301971
-0.233493
0.239242
-1.51096
0.242458
-0.789041
1.17128
-2.10672
-0.785563
-0.202683
0.574301
-0.191397
-1.58504
1.22407
-1.75926
1.33586
0.638303
-1.55755
0.919248
1.51801
-0.622094
1.82753
-0.871299
-1.11509
1.98639
0.57429
1.25709
-1.01902
-0.627023
-0.791224
-1.11837
-1.05721
0.44515
-0.873445
1.46442
-0.590975
-0.122598
1.36256
-1.23996
-1.01178
-0.955261
1.96705
0.909198
0.117114
0.233325
0.367496
-0.257219
0.232065
0.0251543
0.00306929
-0.244661
0.476686
-1.37725
-0.67766
-0.37571
-0.24944
-0.132173
0.592284
0.0211386
0.666002
-1.98062
0.612275
1.36834
-0.0156557
-1.63876
1.65441
0.022627
-0.24137
0.0438431
0.563071
-1.79633
1.79633
-0.0990146
-0.0241597
0.123174
-0.60687
1.04269
-0.310088
0.10278
-0.744255
-0.220946
0.581907
-1.355
-0.0268676
-1.26298
0.285785
1.25722
-1.27358
-1.21813
0.19156
-0.141729
0.556615
-0.414887
0.118204
0.518115
0.0746193
-0.0206744
-0.956503
-1.20028
0.187945
1.01234
-1.3773
-0.291396
-0.951117
-1.1911
0.0444704
-0.249305
0.158928
0.353548
-0.601255
-0.0535341
0.0371183
0.360776
-0.287336
-0.334721
-0.966002
1.44755
-0.481545
0.321828
0.193212
-0.218763
0.385739
-0.166976
-0.409552
0.154396
0.383411
-0.534617
0.151206
-1.14025
1.9123
-0.928181
-1.41173
-1.91273
0.375062
-1.7451
0.0491698
0.971111
1.13902
0.146857
-1.048
1.27483
0.259842
0.369204
-0.488525
0.636266
0.617376
0.179528
2.06547
-0.894184
-1.04974
-0.614572
1.66431
1.13721
-0.0145896
-1.12262
-0.0272592
-0.0997321
-0.191276
0.174107
0.131592
1.35356
-1.48515
-1.20019
1.06346
0.136726
1.20019
-1.39159
0.210726
-0.264329
-1.13131
1.06343
0.0768827
-0.0627371
0.091495
-1.66733
0.156421
1.54165
-0.903351
-0.297519
-0.0673355
0.132981
-0.423214
0.86947
0.252108
-0.084894
0.632103
-1.20416
0.173353
-0.234129
-0.566437
-0.0540088
0.614652
-2.0719
0.526763
-0.0710368
0.424548
-0.353511
-1.04341
-0.932221
0.0735487
0.704393
0.475457
-0.872437
0.074509
-0.151127
-0.301295
0.106523
-2.15747
1.11326
0.0696202
-0.0219142
-0.271507
-0.00483658
-0.0480223
-0.100521
-1.39991
0.651792
-1.61405
0.962255
0.0596281
0.243141
-0.302769
-0.0190119
-0.24338
-1.01694
1.30273
0.577932
0.35764
1.32229
-1.1211
0.182563
0.0412237
1.71394
-2.00015
0.286207
0.289526
-0.131652
-0.812545
-0.0497422
0.361116
-0.446062
0.202448
-0.166401
-1.28418
0.246764
-0.0670469
-0.179717
-1.47733
0.188014
1.28932
0.25712
-0.202379
-0.0429292
0.279438
-0.236508
1.17415
-1.18562
-0.202641
0.284394
0.60507
0.249114
-0.101009
0.153091
-0.0499625
0.136365
0.201497
0.647242
-0.848739
-0.419211
-0.0588882
-0.92904
-1.01332
1.94236
0.143092
-0.168764
0.316429
-0.992278
1.97904
-0.0610093
0.114797
0.0493535
0.0580318
0.14695
2.16967
-1.04056
-1.22323
0.769623
-0.527165
-0.923593
2.19158
-0.0468629
0.0901441
-0.255379
0.26993
-0.034695
-0.150247
-0.278903
0.175845
-0.314374
0.646907
-0.29336
1.17431
0.0591672
-0.0640038
0.288102
-0.0645741
0.0361858
0.386421
0.0637534
0.467709
-0.755046
0.205737
-0.235502
0.0297651
0.0829054
-0.0518743
0.172767
0.863005
-1.03577
-0.230548
0.105617
0.467937
-0.582191
2.16934
-1.23104
1.0154
0.90103
0.0996582
0.528511
-1.15954
0.341033
-0.428327
-0.387157
1.51854
0.551506
-1.489
1.489
1.69364
-0.855024
1.09019
-0.0284074
1.53627
-1.50786
0.918265
1.02618
0.73223
-2.4059
0.164667
-1.13782
-1.34574
-0.193525
-1.43719
1.63071
-0.39494
-0.123603
0.0705762
1.1732
0.148529
-0.254063
-0.674729
1.5013
-0.826574
-0.17242
0.255343
-0.0180001
-0.179414
0.505832
2.64675
-1.08053
-1.56623
1.61771
-1.47981
1.11926
0.208599
0.0248534
-0.00330166
0.0309774
1.56194
0.544806
1.01929
0.343564
0.0208007
0.193262
-0.214063
-0.337848
0.208539
0.177957
-0.190074
0.0121169
0.158487
-0.213374
0.0548869
0.496288
-0.421333
0.326728
-0.47533
0.609059
-0.449833
0.0230211
0.0320765
-0.00669364
-0.0337673
0.298625
-0.264857
-0.316157
0.295794
0.0203626
2.07373
-1.66963
0.529193
-0.536914
0.00772034
-1.49259
-0.334632
0.260444
-0.989184
1.90745
0.252937
-0.32278
2.34197
-1.60974
0.240747
-0.308215
-0.154452
0.0897506
-1.32112
0.10342
1.57235
1.28195
-1.07722
-0.102177
0.140486
-0.0852709
-1.49224
-0.287959
0.280259
0.237865
-0.361217
-0.357667
0.283056
-0.0800215
-1.33428
1.29981
-1.43823
1.47443
-1.17752
-0.474329
0.411627
0.672706
0.376832
-0.392169
-0.0562435
0.0773306
0.337276
-0.414607
-0.361791
1.42038
-0.918081
-1.06426
-2.18873
-0.0781198
0.0744186
0.00370124
-0.00859136
1.44481
-1.43622
1.71361
-1.02389
0.315759
-0.374333
2.1528
-0.979593
0.990174