/*--------------------------------*- C++ -*----------------------------------*\
| =========                 |                                                 |
| \\      /  F ield         | OpenFOAM: The Open Source CFD Toolbox           |
|  \\    /   O peration     | Version:  2306                                  |
|   \\  /    A nd           | Website:  www.openfoam.com                      |
|    \\/     M anipulation  |                                                 |
\*---------------------------------------------------------------------------*/
FoamFile
{
    version     2.0;
    format      ascii;
    arch        "LSB;label=32;scalar=64";
    class       volScalarField;
    location    "10";
    object      p;
}
// * * * * * * * * * * * * * * * * * * * * * * * * * * * * * * * * * * * * * //

dimensions      [0 2 -2 0 0 0 0];

internalField   nonuniform List<scalar> 
5098
(
0.787101
1.05681
0.236089
0.825827
-4.51374
1.215
0.769593
-1.08907
0.250229
0.674803
-10.0407
0.317095
-0.959934
1.69793
-1.05823
-0.0647515
-11.7037
-5.24556
-0.808205
-11.3128
1.74986
-0.0690822
-1.4838
2.6688
-3.06119
1.12966
1.36982
-0.261182
-0.815397
-2.55103
0.260005
1.97023
1.21073
-9.57474
0.572623
-0.794327
0.372953
0.991754
1.58383
-1.10856
0.752446
-2.72502
1.07204
0.498097
0.831766
1.11413
-10.4228
2.057
0.214478
0.904719
0.904255
1.90046
-2.1706
0.774275
1.2299
1.76596
1.55414
0.609163
1.98194
-0.417039
0.0787864
-8.13096
0.59038
-0.709216
-2.17514
1.74039
-0.0359978
0.848082
0.228324
0.435027
1.54914
-0.631398
-0.666999
-1.00522
-0.133223
0.890407
-0.0605297
1.89052
0.647777
1.71744
-0.454673
-0.333787
1.07277
-9.06827
-5.14723
-2.80992
3.19119
-0.0775857
-0.844226
0.07399
-0.0379149
-1.40649
0.304779
0.835348
1.58976
0.147728
0.359279
2.00252
-0.118366
-0.228628
-8.77734
1.121
-6.64817
-0.0218834
1.84971
0.914506
1.51132
0.786214
2.10848
-9.83585
0.600425
-0.664323
0.966025
-1.97636
1.70587
-0.959014
-0.632786
0.516711
-0.100538
2.60554
1.84399
1.77349
0.694264
-2.03962
-1.43998
-10.611
0.689915
-1.32616
1.84043
-1.8976
-2.28052
1.87883
1.83249
0.660448
-9.28954
-2.09607
1.0909
1.48415
1.58366
0.734111
1.97229
-9.21673
-0.474758
0.246046
1.11447
-0.0870913
0.30872
-5.27288
-0.506008
-1.06443
-3.40819
-1.47099
-6.06343
1.22139
3.17118
2.43229
0.625561
-9.10595
0.757123
-0.870402
0.203663
-1.18965
-1.37029
1.01003
-4.00945
0.377127
-5.0878
-1.87903
-3.00038
0.687099
0.0670884
0.920177
1.13587
-0.217004
0.340528
1.19344
1.02695
-0.671884
1.17846
3.0631
0.469656
-0.498511
0.514737
-3.8686
0.964279
0.479545
1.96902
0.344029
0.840214
-2.43315
-0.742672
-0.314385
-0.787089
-0.169652
0.342594
-1.66902
0.228677
-2.04707
-0.0199599
0.61391
-2.24814
1.82184
0.856931
1.0509
0.768441
2.42064
0.0566633
1.63489
0.357315
-0.849827
0.822615
1.77271
-0.535586
1.09354
-0.897459
-0.737865
-0.203321
-8.06362
-1.33884
1.21013
-0.0386067
1.26972
-0.0457198
-0.130898
-2.06342
0.657786
2.88536
1.38091
-0.0761941
-4.4022
1.74349
2.64111
0.28489
-0.0334339
0.339319
0.33459
2.03204
-2.0865
-0.861486
1.28229
-0.515895
1.13064
0.0506282
2.21946
1.64996
0.275424
1.62259
-8.85297
-11.9257
0.28766
1.26274
-0.388985
-0.995799
-1.96831
1.22071
-2.18749
-9.4738
0.383748
1.99285
-0.134425
0.440177
-2.15674
-2.79338
-0.638452
-0.0437287
-6.49239
-0.871699
-9.16763
0.548192
1.31154
-2.45353
0.706939
-0.870398
0.611374
1.93608
-5.36109
-3.05863
-3.67606
-2.04869
0.853369
-2.32933
-0.945357
-2.1083
-0.944454
-7.65074
-10.1472
1.243
-0.0356702
0.373868
0.322715
-2.01525
-1.72638
2.32767
0.845619
-0.300613
0.695986
0.46057
0.310136
1.37184
1.17451
-0.0589547
0.0831246
1.16479
1.61532
-6.59916
0.0821297
0.549398
1.20512
0.588215
-10.5905
0.00475089
-1.08815
1.15339
-0.323963
-1.18596
3.09993
0.995658
-0.0452693
0.334444
2.32337
0.646073
-1.58804
-0.716573
-0.950294
-0.0900256
1.64636
1.31791
1.37065
2.06252
-0.114789
0.364223
0.32496
1.58923
-2.40818
0.348543
0.860373
-0.389884
0.933282
0.514505
0.626306
-0.568219
0.491269
0.591689
1.36547
-0.788499
-0.0749367
0.670215
-0.940633
0.475874
0.304035
-3.47785
2.65236
2.27927
-2.29128
-0.361488
-2.47534
-2.60466
0.344155
1.81435
-0.779042
1.39813
0.0697655
0.377678
-0.0703623
0.45137
1.97942
1.36967
1.30878
-2.42451
-2.18965
1.8423
0.555098
-0.83449
0.0327121
-0.745628
-8.13783
0.542225
-0.546266
-1.57959
-0.08658
0.828739
-10.8602
1.30663
0.0186426
0.299401
-0.0573429
0.660368
-2.03267
0.809855
-8.59593
1.38306
0.490834
1.36845
0.624431
1.89136
-0.401847
0.952419
-1.98656
1.03889
-1.24284
-1.60332
2.35911
1.90545
1.37984
-0.943052
1.01644
0.644686
-5.69375
-0.632311
-0.658697
1.37012
-4.14429
-2.17414
0.87314
0.302149
-0.348727
1.59403
2.67422
0.178265
0.106267
0.753049
1.49793
0.380026
1.21969
-2.5075
-1.42835
-0.727305
-4.56797
0.524313
-0.233527
-0.0492298
-0.849368
-0.0354948
0.115471
0.0911466
-0.946099
0.0539436
-1.38791
1.35577
-0.242083
1.1772
0.520114
1.32586
-11.4366
2.04726
0.329786
-1.1578
-0.963807
-0.751094
0.655948
-11.3832
0.286157
1.36971
-11.9436
-11.6419
0.32011
-2.67559
-0.409287
0.22884
-0.413789
1.02085
-0.152639
2.57392
0.483976
0.848668
-6.78754
-2.09665
-2.09519
-7.00585
0.68758
-0.696658
-2.57751
-3.5071
-0.826454
1.37042
-1.27472
-0.768759
1.33927
-0.535026
1.26394
2.0299
0.850065
-2.1932
-0.818948
0.582404
0.225871
1.06439
-1.14263
0.486766
0.865796
-0.755267
-5.44588
0.754218
-0.134791
-1.13472
-0.0166242
1.38767
-1.11868
1.23653
1.26486
-5.66669
-1.52302
-0.840715
-5.66122
-0.859927
-1.66811
1.3432
1.28241
-0.468912
0.478319
-1.36607
1.37135
2.03413
0.399608
1.18684
0.619741
2.32972
-2.21426
-0.887781
2.20102
-5.4356
-3.85723
2.28269
-0.0893273
-1.44979
-0.0273407
-0.248911
-1.23662
-0.276266
-2.39338
0.474557
2.84452
-3.41676
0.845377
-9.41032
0.84611
1.66366
0.206835
-1.92191
-12.3305
1.38759
-5.8693
-2.21313
1.23655
-11.772
-7.84841
0.558679
-8.25424
3.01634
-1.08997
0.328056
0.483896
0.0828401
-0.881286
-0.511178
-10.7066
-2.42445
1.21359
-11.2324
-0.94524
-10.9743
-3.39396
0.954449
-1.83097
-7.05018
-2.3635
-1.12507
-0.0834447
-3.22696
-1.17625
-1.90192
-2.96304
-1.45329
1.6695
1.91848
3.14659
-5.09952
1.18784
2.14114
-8.95467
0.871404
-3.8901
1.21691
-7.62489
0.943215
-0.539976
-0.0745049
1.49352
1.63065
-2.21791
-1.47861
2.48355
-0.0594184
-4.25098
0.689972
0.979576
-1.45836
1.30851
-0.673918
-0.482021
-0.134712
2.5269
-2.35567
-4.21979
1.89327
-10.2557
1.66331
-3.37881
-2.22299
-3.83585
-11.0215
-2.20544
-1.16389
1.76405
-0.712848
-0.396472
1.85004
-0.662233
1.04919
0.97449
2.37355
-0.981496
1.37728
1.12852
-0.146736
-0.489472
-1.89628
-0.92296
-5.07587
0.0250392
-2.85626
-0.23053
2.03497
-2.77465
-0.0240418
0.786766
2.60855
-2.18885
2.3101
3.06868
-0.528859
0.325531
-0.844356
1.37796
2.08815
1.72381
-0.712044
-0.186517
-0.162174
-5.17951
0.332269
0.537834
0.759578
-7.85847
-0.0273177
-1.38772
-6.85044
-0.392386
-0.298041
-0.0567329
0.774749
0.947355
-6.94745
2.01521
1.06022
1.86585
0.893892
-6.42534
-0.187537
-0.12099
1.94527
2.55289
-1.05344
1.61249
-5.96781
-1.95159
-4.17373
0.875399
-0.739381
-0.862506
-5.35396
-6.53085
-0.545654
0.169818
-1.06065
0.111422
1.22713
-0.830756
1.14904
-0.0814785
1.24437
-2.16684
-7.07351
0.0463685
2.11921
-5.1217
-8.73982
-0.0169242
-0.946806
0.72206
-3.97632
-1.69253
1.79521
-4.75331
-4.55464
-1.30893
-4.67016
-0.780604
0.868843
1.15914
2.74193
2.09833
1.73936
-3.4228
-1.64211
-0.760251
-0.821519
0.982405
-1.72766
-1.23677
-2.39687
-3.86211
1.47651
-1.71223
0.559757
-3.09209
1.68269
1.36964
-2.46618
0.9314
-1.02238
2.69184
-0.0819101
-0.315128
-0.572712
-3.71827
-7.50631
-4.15302
-1.37543
1.78415
-2.66417
-0.984181
-1.56481
-2.09737
-0.971511
-6.96395
-1.09053
-0.227597
-0.105363
0.978062
-2.73885
0.957638
1.78519
-1.81798
-1.08945
-3.27411
0.82462
-0.875642
0.781261
-1.14813
-5.01469
0.0705648
-1.73977
-6.24414
-2.15709
-9.86854
1.04606
0.248207
-0.683577
-3.12555
-1.39347
1.38074
0.827988
-2.90385
-2.58397
2.81367
-0.695332
1.7662
-4.84661
1.25044
-2.15753
-2.55811
0.614889
-2.22716
-9.09007
1.89755
1.88632
-9.54082
0.239767
-7.55673
1.44597
-2.31764
-1.96819
-2.16526
-2.41155
-0.873964
-0.13562
0.413606
1.28154
0.428566
0.672174
-2.17943
-0.560859
-10.3805
-1.501
1.1928
-1.64676
1.9489
-0.843581
1.73906
0.978718
0.718942
-7.16866
0.391211
-0.591657
-0.490549
1.50123
0.76288
-0.312873
-1.1787
-2.19981
-8.40265
-3.05344
1.33853
-0.0882516
1.06607
-1.71602
-3.36685
3.03045
-8.10765
0.802041
-0.0385194
1.78017
-1.31668
1.77836
-10.2849
-3.05292
2.08729
-7.53416
-0.772773
1.29805
2.20271
0.738245
0.403351
-0.628672
-0.0585377
-2.61344
-0.652394
-1.66914
0.626347
-2.59821
-1.75525
-2.01768
-0.7873
-0.0187368
-0.951389
-0.479129
-1.46138
1.31217
0.943645
0.215242
-9.82674
-1.32843
1.84985
-2.28059
-0.325811
-1.70996
0.294483
-1.83554
-2.15546
-1.20938
-0.533836
-0.19007
1.45799
-2.18801
-5.86061
-1.09202
0.146355
0.112696
-3.37069
0.357594
-2.11444
1.38737
-11.1274
2.57287
2.22228
-0.252441
1.29822
1.80249
1.59463
2.49299
0.951109
-1.82498
-7.49862
-3.9207
-7.78874
0.329362
-2.85768
1.35793
-1.06427
1.44354
1.59052
0.0474101
0.00657695
-2.86319
-0.482346
-0.658673
-0.333497
1.90535
0.725192
0.6331
0.763219
-2.20687
-7.82311
-9.81606
-1.10553
-0.525442
0.692028
0.882862
-8.20133
-2.64983
2.0483
0.559026
1.80811
1.81965
0.791492
-0.246634
-0.558491
-0.766889
-1.78979
1.11888
-0.243237
-0.481937
1.50396
2.22839
-3.8159
-0.145146
0.871944
1.68086
-12.2107
-1.42309
-1.04898
2.62176
1.27704
-1.32181
-0.0192637
0.416422
-3.12997
1.44859
1.38311
0.339807
1.20735
-2.13455
-12.2967
0.633821
0.97213
1.87122
0.750351
1.69644
-2.29638
-9.70093
-2.00592
1.44321
1.76612
-1.16322
-0.241345
2.60495
1.07296
0.0485466
0.310993
2.46956
1.14979
0.466017
0.925818
1.17932
-0.146985
-1.23722
1.43783
2.93991
0.420895
-8.08699
-3.50697
-0.585565
-2.07495
1.76
1.37372
-0.588562
-0.120741
0.874479
-0.163141
0.429243
0.111812
1.5995
1.49659
-1.82452
2.38533
0.797039
-1.72787
-0.00539811
0.5928
-0.0224201
0.236178
1.07837
1.12245
0.795824
0.405131
-4.84049
-5.6192
0.899529
0.426404
1.84562
-3.97456
0.887988
0.875004
-0.144773
0.990545
1.5536
0.0211891
0.0500104
0.0553533
1.37294
-1.39516
-0.839683
-0.341748
1.65412
0.496073
1.18493
2.27399
-3.27014
2.1801
2.56913
-1.79096
-1.04375
-5.01597
2.93065
-0.764552
1.15543
2.41566
1.19325
-2.16521
1.39231
0.315315
2.66572
-0.722071
0.45486
2.74977
2.12464
0.101604
2.67862
1.79407
0.231982
-8.68867
-2.75806
-0.01209
0.00483618
0.705285
1.71771
-0.898166
-0.328604
1.46076
-0.165387
2.37583
-0.19822
2.63719
-1.39663
-1.91169
-0.464576
-0.283222
1.86816
0.278156
0.369825
-5.85181
1.74099
0.288276
1.46148
1.13356
-3.4593
0.640471
-0.269625
-1.51378
-0.194525
1.96301
0.554362
-0.0877494
-0.241433
-0.443902
-4.98391
1.69025
0.229196
1.11342
-1.03278
-3.75015
-4.68997
0.534827
-0.0107439
2.3043
-1.23692
0.420575
-5.24572
-8.80426
1.55054
2.49404
-3.60252
1.45851
1.27086
-4.43092
0.899105
-1.35738
2.88119
-2.89515
-0.259418
1.08291
-11.0052
2.12715
-2.19193
-1.64266
-0.00841586
-1.32491
-2.16635
-3.03993
0.619905
-0.339111
-2.19891
-0.00954738
1.144
-0.355732
1.67843
2.01807
1.43245
1.59301
-12.2339
-12.0993
0.256993
0.521492
-2.52075
-0.0109745
-0.0589925
-0.00697598
-0.117558
1.9067
1.13422
1.21465
1.34159
-1.16037
0.118545
-0.951433
0.279578
-1.46346
2.61949
1.46126
1.17051
-11.7098
-0.478327
1.43541
-0.261281
-6.34729
-1.01782
-0.715132
-0.789779
0.658416
-2.4021
-0.170224
0.684471
-2.17224
0.869285
1.99706
-0.442993
-0.421053
-0.256623
1.50532
-6.63109
0.459004
-7.89162
0.0407037
-11.0812
-8.48218
0.982314
-2.97239
-0.805273
-0.233854
-3.30096
-5.5191
-4.73143
1.47866
0.403962
-7.03301
1.92629
-2.37157
1.19456
0.703509
-1.26767
0.179382
-2.52608
-2.29052
0.131561
1.35926
1.01604
0.718046
-2.00509
1.72767
-4.50588
-0.332685
-0.0102036
-2.76828
-0.119869
0.120712
1.54665
-2.28617
-0.903284
-8.42077
1.3414
1.55511
-2.4475
0.414634
0.00848875
0.163469
0.320664
0.353509
-0.134223
-4.48852
-2.80411
2.18368
0.572688
-0.0735186
-0.4192
-0.0109073
1.50307
-2.44839
-0.747657
-9.54515
1.34856
-0.148127
0.0140134
0.345473
-0.00826701
0.836143
0.744424
1.09215
-0.389581
-2.50783
0.299127
1.63237
-0.100683
1.22341
1.23249
1.51572
1.29029
0.775428
0.782009
2.48214
0.43681
-0.455512
-0.579716
-2.16307
-0.0650811
-0.850553
1.15287
0.970959
2.40873
-0.0384483
0.348938
-9.60502
0.0827491
-11.7034
-0.41564
-1.93706
0.579093
-10.9425
0.709998
1.27853
1.43609
-2.03209
1.50769
-2.27745
0.795557
1.43088
1.10512
-7.95774
-0.957167
-9.87216
0.642703
-3.32641
-0.886734
0.934394
-0.711053
-0.0621073
1.05991
2.14949
-0.521202
1.99544
0.57033
-3.08875
-1.20705
-0.332565
-0.0971804
-0.608416
-2.83204
2.15399
-0.00597692
1.19664
-4.41568
-7.74963
1.82032
1.64196
-0.0124415
-0.161524
1.46482
-1.21952
-0.223984
1.32005
-0.590772
-0.67075
-1.10158
-1.43271
2.21744
-1.76222
1.35338
-0.166483
0.378423
2.78224
0.542905
-0.0565041
1.34266
-8.87359
0.969921
1.1644
0.107972
1.37077
-0.0502317
1.34111
1.47794
0.3206
1.55836
-4.07386
-1.87967
-0.00242135
-0.986032
2.26628
-2.18295
-1.17826
0.746475
-0.398137
-0.860587
-2.05505
0.705601
0.153105
1.21282
0.924582
-0.677709
-3.64346
0.190696
-6.71128
1.63005
-1.48912
-2.15416
-1.33146
-11.6563
1.28497
-2.2078
-2.37481
1.44421
-2.27452
0.855914
1.4733
-2.12614
-2.03832
1.27679
2.18602
-2.96598
1.35947
-1.61364
-0.897114
-2.47031
0.436433
-0.709016
-2.2019
2.50631
-1.95497
-1.64171
-0.0257803
-0.85283
1.51844
-0.585589
-1.70624
-2.28768
-5.42834
-7.6685
-1.93215
-0.917963
1.77466
0.496672
-3.36179
-0.0215948
-2.22432
2.57675
2.54411
-2.22701
-0.527086
0.194436
-2.28859
0.325721
2.20618
-0.514271
-2.43084
1.35467
1.35536
1.34174
-0.801677
-0.334681
-0.006253
-1.23205
-0.165748
-0.573924
1.20977
-0.618499
0.499228
0.0824014
1.38715
1.27323
-0.150004
1.28464
1.30526
1.35767
-0.0838423
2.22997
-0.427376
2.07481
-0.114237
1.94176
2.87489
0.0158862
0.207563
1.01412
1.40795
-0.789601
1.18657
-0.223341
-0.173279
0.319538
1.45511
0.442508
0.538648
1.66416
-1.01206
-2.07781
2.68578
-2.22438
0.108946
-6.07723
-0.220349
-2.06726
1.23747
0.585639
1.26635
0.737321
-0.187239
-0.17308
0.879553
-0.146691
-2.2511
-4.10719
0.831426
-5.2291
0.412393
1.15422
2.52955
1.37269
1.13784
0.99718
0.423264
2.33269
1.29724
1.36335
0.950401
-7.73795
-1.75638
0.209979
-0.719926
2.71676
-3.02321
0.305165
-0.000205541
-0.236209
2.4847
1.26652
0.391811
-2.95772
-0.485328
-0.495334
-0.194351
1.28195
1.83622
-0.290657
1.6959
0.269834
2.37471
-1.21399
-0.268508
1.0352
0.669254
-0.0378021
1.72351
0.78634
-0.677057
1.27076
-0.0569411
-9.12621
1.58071
1.79445
-0.541848
-2.98139
-2.2112
-0.944729
-0.788847
-2.38463
0.36672
1.37713
-0.0677779
-0.721067
0.472485
-3.83062
-0.844857
0.169316
-1.75166
-3.32655
0.358656
-2.20977
-2.4224
0.907848
1.38234
1.12555
-10.8659
1.14855
-1.85484
1.45965
2.24158
-1.41128
-0.0619357
-0.121447
1.93778
0.47556
-9.09244
-0.356862
-0.953806
-0.188142
0.13685
2.31799
-0.11471
-0.00488287
1.16716
-0.561496
-0.019626
1.35426
0.365089
-0.466934
-0.680943
-2.52676
0.669397
-2.14377
-0.192147
-1.4446
-2.59919
1.31981
1.33724
2.51954
0.318474
2.50086
0.542303
1.70712
-8.01609
-2.92883
-7.86523
1.64227
1.40835
0.141467
0.583445
-2.31307
-5.91826
-0.0183221
-0.804703
-0.160149
-0.733185
-0.285867
0.203009
1.30563
1.43299
-1.05958
0.11094
0.210583
-0.498895
-0.621281
1.23884
-0.623195
1.25681
-2.01037
-0.134675
1.34183
-1.73405
-0.563295
-0.00150196
-0.663682
-3.61259
1.22661
-1.17657
-0.0954415
-0.193787
-2.04631
-2.03554
-0.20876
1.87059
1.70468
-0.0101164
-0.730319
-4.68617
1.15536
-0.0115118
-0.812759
-0.00924789
0.344622
0.11804
-0.142552
-1.79259
-0.0037222
1.15375
0.0494487
0.252101
-3.4952
-1.97173
1.50688
1.12042
0.110217
0.335209
0.955309
1.05867
-0.563365
-0.702356
-0.258434
-9.16671
-0.118152
1.0357
-2.52443
0.556308
0.111327
-0.0212802
0.406149
-0.796124
-0.156147
-0.102749
1.45838
1.31002
-0.938575
-0.100584
-2.87698
-10.413
1.14788
-0.198485
1.9763
-1.72045
1.36157
0.983512
-2.49374
-0.907553
-9.50512
-0.864554
-11.0353
1.23948
-0.203294
-0.0626698
-2.13859
0.91903
-0.832702
1.51027
0.0236953
0.0630229
1.68662
-0.0833943
-0.0559252
-0.535409
1.36371
-0.166336
1.42406
1.24405
-6.62966
-0.14424
1.446
-1.00859
1.28013
-7.01195
1.18137
-3.38301
-0.118808
0.08067
1.10104
1.07855
-0.393558
1.37491
1.14802
-0.215802
1.58727
1.10773
-3.06225
1.37433
-0.122079
-0.0119997
-1.64543
-3.53179
-0.10911
-2.2553
-0.00133252
1.36782
1.47316
-0.225528
-0.41464
1.1783
-0.0113194
1.37214
-6.3808
-0.0213574
-0.324261
-2.9539
-0.150936
-9.92722
-0.196707
-3.86613
-0.125736
-1.04215
0.329003
-0.219595
-10.0162
-0.227909
0.389148
1.83194
-3.37365
-0.0113789
-0.926659
0.638678
-0.4656
-4.87656
-0.830734
0.829885
-0.331253
0.997304
1.40903
-0.00679919
-0.12924
-0.37779
-0.129495
-0.505612
-3.5287
1.34043
-1.16819
-0.0184857
-1.88553
-9.87186
0.00101906
-0.127689
-1.3137
-6.88732
0.175981
0.193304
-0.0673845
-0.11032
-0.0237328
-0.0144822
-3.6735
-2.07772
-8.69655
1.13665
-1.01421
-0.0996062
1.17744
1.21119
-0.138946
-0.0362803
1.19041
0.608392
-0.0430214
-6.89289
0.0120671
0.974219
1.02888
-4.60489
-0.0318189
1.19405
0.112793
1.32132
1.27013
-0.0836649
0.0808319
1.2604
-0.222047
-5.63054
-0.126275
-0.439579
1.08179
1.37393
0.030156
-0.0942324
-0.143221
-0.0946473
-0.516253
-0.0955616
-7.35341
0.0307549
1.38257
0.225385
-0.127364
1.35685
-0.0807299
2.25587
-0.13258
0.203431
0.154833
-0.172264
1.30554
-0.127937
-0.548193
-7.98478
-0.413145
1.32496
1.10885
-0.132935
1.3816
-0.0793009
-0.0778668
1.14161
-1.66257
1.26017
-0.134291
0.129713
-0.359415
0.22571
-0.41936
-5.97389
-0.327011
1.07682
1.08235
-0.00680398
1.21122
-0.00905499
-0.585576
-0.145957
0.907269
-0.944897
-7.04464
-0.616485
-0.0128077
-0.78743
-0.178763
-0.724024
-2.82214
1.94139
-4.96257
-2.16515
1.94735
0.0552868
-0.777367
-0.140798
-0.82888
-0.00260322
-0.567426
-0.155042
-0.895017
-7.58725
1.06499
1.35277
-0.167789
-0.354533
0.739189
-0.00970161
-0.0165547
-0.137718
-0.131831
-0.248187
1.32972
-2.62918
-11.6569
1.16036
-0.212796
-0.952471
-0.0371011
-4.05335
-0.0858265
0.303985
-1.02452
1.36502
-0.285445
-0.221568
-2.02383
-0.209689
-0.669564
-0.16563
-3.63821
-11.8511
1.90724
-8.06822
0.607987
-0.0103435
-0.54253
-0.0728372
-0.091257
-2.2417
-0.010744
-0.12909
-0.40245
-0.140098
-0.382164
1.67204
0.446467
-0.0425503
-0.040349
-0.136213
-2.3135
-0.086382
-1.10499
-0.10749
-0.378001
1.45753
0.159615
1.35907
-0.0428912
-0.0479123
-0.0835006
-0.00448886
-0.0295883
-0.855515
-3.10492
-0.0847688
0.326837
0.157258
1.1292
-0.098285
-0.111399
-0.0605364
1.23321
-0.145723
0.345695
0.294924
-0.00576161
-0.135389
-3.30213
-0.127495
-0.0116851
-0.12874
1.35423
-0.00250789
-0.276422
-0.0713376
0.616437
-0.435867
-1.19891
-0.0112651
-0.0805183
-2.22175
-0.144133
-0.135449
-0.550311
0.0316565
1.36351
-0.091843
-1.64807
-0.0953331
-0.133789
0.49482
-0.257154
-0.132151
-2.09185
-2.17656
-0.128818
1.52133
1.57358
-0.0270562
-0.125808
-1.37672
-0.0689277
0.429511
-4.07808
-0.059349
1.27776
0.412241
-0.020425
-0.0990409
-1.65677
1.29546
-0.0328182
-0.0255579
-0.0790348
-1.69708
0.137432
-0.526302
-2.0063
1.18038
0.392398
-0.554511
0.62907
0.0319223
1.37604
-0.0513613
-0.0237239
-0.0672003
0.00524201
-8.90384
-0.15237
-0.208352
-0.0205637
-0.15121
-0.0470812
0.00132308
-0.0442372
-0.079972
-0.580548
-0.0926484
-0.100809
0.0297966
2.61529
-0.126337
0.0840107
-0.0278783
-0.0144732
-0.565578
-0.112078
0.0433597
0.518049
-0.266196
-0.13454
-0.0881858
-0.0597676
1.38381
-0.036461
-0.120783
0.0627913
-0.0236641
-0.0273205
0.0983317
-0.131401
0.684968
-0.162768
-0.883244
0.55964
-0.0806978
-0.357852
-0.0756151
0.0338402
-2.4455
-6.04603
0.301028
-0.163406
0.0167538
-0.0253896
-1.67575
1.28096
0.911132
-0.124857
-0.114172
-0.114658
-0.0930465
1.37557
-0.0417669
-0.165941
1.54613
-0.14416
1.49932
-0.23657
-0.396404
-0.0066844
-0.0525258
-0.0318431
1.6071
-0.113324
-0.00207467
-0.571902
-1.01756
0.47231
1.35649
-0.0154341
-0.818341
-0.63618
-0.0540833
-0.000218272
0.131635
-2.12317
-0.00122393
-0.31206
-0.0632334
-0.126436
-0.125013
-0.209506
-0.0557338
-0.0026715
-0.0478158
0.152262
1.46258
-0.447304
-0.10546
-0.132038
1.43067
1.79031
-0.040587
-0.00228014
-2.2862
-2.04657
-0.0304961
-0.366033
-0.0489291
-0.374576
-0.00389368
-2.19969
-0.0427551
0.0648448
-0.271283
2.16136
-0.0534946
-0.119201
-0.539577
-10.6251
-0.0522587
0.948739
0.0673129
1.10095
0.0549754
-2.23769
-0.0773569
-0.161782
-0.562905
-0.184872
-0.111812
-0.0753311
-0.0814036
-0.105493
-0.0353722
-0.0601089
-0.12919
-0.0444464
-0.0416555
-0.128017
1.3494
-0.0684507
-0.633438
1.16427
-0.0900955
-0.0734968
-1.2036
1.10709
-0.330462
-8.79823
-0.182195
-0.18257
-1.09782
0.00672742
-0.278246
0.366529
-0.274189
-0.019168
-7.36255
-0.031825
-2.02276
-0.195314
-0.214736
-2.6016
-4.96415
-0.0348591
-0.126534
-0.29797
0.340135
-0.0498928
-0.0644193
0.973155
-0.0308453
-0.0607078
-0.0604176
-9.09866
-0.0673419
-0.0033724
-0.134791
-0.129865
-0.149298
-0.308339
-0.0275852
-9.93291
1.89608
-0.214424
-0.0743097
-0.152164
-11.1998
1.35678
-0.106904
0.190361
-0.00251788
1.43252
-0.0778095
0.344158
-0.0140931
-0.00596
-0.0917836
-0.0262851
-0.860118
-0.0935166
0.391465
-0.29962
-0.203043
-0.0341529
-0.141561
0.556503
-0.41569
-0.034489
-0.0481603
-0.14372
1.66932
-0.0986931
-0.0620891
-0.0463582
-0.186721
-0.109047
-0.106493
1.73437
1.02576
2.31246
-0.00132253
-9.27597
-0.5633
2.99632
-0.940633
-0.135266
-0.152105
-0.16164
-0.433438
1.4328
-0.508621
-0.271745
-0.0667911
-2.10907
-0.231401
-0.0953603
-0.102647
3.10208
1.29214
1.97654
-0.32124
1.32431
-0.0433237
-5.23445
-2.15473
1.03837
-2.31908
-2.2304
-0.0999955
-0.720056
-0.256688
-0.151823
-3.43358
-0.34055
-0.461612
0.351291
-10.6958
-0.11752
1.17315
-0.121561
-2.1975
-0.154421
-0.146381
-0.164856
1.65637
-0.23794
-3.90162
-0.0690582
-0.953436
-0.00222407
-0.430494
-0.688929
1.90782
-2.4361
-0.465886
-0.21372
-0.145697
-0.142315
1.31549
1.4333
-0.127914
-0.364778
-1.97994
-0.69321
-1.50676
2.43825
1.23769
0.319883
-0.0704946
-0.149745
-0.196607
1.05613
-0.148729
-0.319147
-0.152854
1.23027
1.36708
0.462937
-2.10699
0.361888
-0.315736
0.0512511
-1.67291
-0.0478848
-0.588182
0.997887
-0.0383943
-2.18298
-0.0877326
1.83354
-1.88553
-0.414483
-0.118481
-0.829603
-0.0247481
-0.874411
2.40273
-0.0625524
-7.60593
-2.30229
-0.175532
-0.0118929
0.836572
-0.64056
-0.349602
-0.634263
-2.20415
1.47307
-0.126659
0.0815552
-0.599425
-1.27079
-0.102537
-2.2818
-0.103941
-9.03846
2.53218
-0.118279
-2.33613
2.16694
0.00108982
-0.0339796
-0.1096
-0.015477
1.67068
-1.2881
1.37553
1.31041
-0.0355859
-0.122846
1.27024
1.31785
-0.0280053
-0.0415879
-2.92758
-10.8878
1.30536
-0.201257
-1.7697
-2.09935
-0.288022
-5.23509
-0.131856
-0.071891
1.44355
-0.0951334
-0.229448
-2.62473
-0.133349
-0.139825
-0.0968729
-2.00773
-5.45223
0.0420666
-0.246369
0.0853865
-0.881202
-0.136465
2.39298
-0.103476
-1.84983
0.300611
-0.102267
0.262753
-0.159251
1.31023
-0.136005
0.799271
-1.98827
-0.0595633
1.51632
-5.10987
-10.9975
1.67972
0.46473
-0.138026
-0.155051
1.3091
0.389331
-0.11554
0.502416
2.33065
-1.05831
0.589765
-0.323329
-0.122151
1.70351
-1.37914
0.0496066
-0.0459363
1.43851
0.639192
0.673503
0.52137
0.818758
-6.03849
-0.124475
0.616549
-0.188058
0.0144596
-5.43701
-6.37266
-0.117556
-0.193647
-4.54134
-0.0408963
-0.550732
-2.61877
0.945541
1.21655
1.06852
-0.0151264
-0.819745
-0.907328
1.03198
-0.00454928
-0.0251446
2.27889
-0.0646917
-0.0246455
0.164674
-1.97675
1.39717
-0.0111002
-0.801277
-2.37746
0.133041
0.129196
-1.63216
-2.49264
-0.554349
-0.0697158
0.0343219
1.23976
-2.16738
-7.23597
0.165869
0.357913
0.294781
-0.0113903
-0.122741
-0.00620049
-0.343542
1.29023
-0.0558477
2.81047
1.73292
-0.171106
-0.0603454
-2.7654
2.00037
-0.142872
-0.199132
2.7942
-0.102167
0.048806
1.1326
2.45609
0.362951
-1.15223
1.37647
-1.36902
-0.00369286
-0.140727
0.2195
-3.33698
2.25265
0.217717
0.00137526
0.061099
-3.47261
0.155572
2.57075
0.0050292
-0.0907654
-0.0768679
1.3475
-0.403586
0.0540312
1.35784
0.520787
-0.0595538
-0.274966
-8.25555
0.164896
0.345586
-0.172356
-0.0593957
2.12876
-0.0273768
-0.188898
1.41211
-0.076364
-0.0229014
0.0855275
0.49861
1.23238
-0.0778875
0.345196
-0.765465
-0.0966114
-0.27037
-6.64541
-0.170009
0.169976
-0.00133103
-0.00930707
-0.43489
-0.0281433
-0.0331197
-0.0156985
0.52414
-0.168769
-0.592407
-1.96542
-0.0974338
-1.19535
0.582453
-0.0128605
0.426841
-0.122832
-2.11122
-0.0114142
1.39714
-0.542439
-0.573007
0.128737
-0.503617
1.50174
-0.0346527
-2.22322
0.32378
3.01735
2.49283
-0.0507173
0.735394
-0.943342
-0.00365277
1.42798
1.34242
0.839411
-0.108959
-0.042935
0.103075
1.9754
0.199674
0.513948
0.401809
-5.91739
0.267981
0.0207578
1.47391
1.73304
-0.0710771
-10.6811
-0.348267
1.4102
1.66809
0.372061
0.0272388
0.0922088
2.44213
-0.0106273
-0.0608132
-0.0333147
0.135021
-0.0543976
-0.0720062
1.35208
-0.0196758
-0.0165958
0.339308
-0.729906
-0.117062
-0.00694582
1.64136
1.24304
0.955606
-0.535768
-11.5993
2.7471
-0.125131
0.112152
1.29113
-0.784578
0.444449
1.41198
1.16958
-0.0113524
-7.49346
-2.84231
1.3445
-0.945078
-0.0363282
-0.105273
1.05014
0.615546
-0.0975694
-0.0368673
1.00314
-0.475158
-0.0459021
0.11046
-0.0350945
-0.734589
-0.942802
1.39183
2.19818
-5.14208
2.0141
-0.165853
-0.439907
-0.0479171
-2.37312
0.184819
-10.353
0.329281
0.246574
-0.169538
-0.142076
0.428953
2.90611
-0.0185585
1.4946
1.34601
-0.545965
-0.0702966
0.67965
-0.183482
-0.64189
-6.7
-0.0466393
-0.077084
-0.205527
-0.549594
1.66707
0.409745
0.427401
0.325047
-0.691494
0.149555
-0.296197
0.34822
0.343675
0.163158
-1.45279
1.39792
0.939324
-2.7008
-0.374427
-0.0324497
1.20445
1.38205
1.45658
-2.18946
-11.0057
-0.728165
-0.310974
1.35576
-1.1363
1.40764
-0.084569
0.0633735
-6.3009
-0.859867
1.37529
-0.70011
1.41476
0.969278
0.216979
0.134688
-1.43791
-11.0997
-0.509551
-1.39029
1.29316
0.220539
1.44766
1.40989
-0.0526094
1.43278
0.195372
-0.00153495
1.1383
1.3254
-1.92428
0.753151
1.26856
1.3921
0.347261
1.23546
0.611719
1.13194
-0.245761
-0.295944
0.127197
-2.39757
1.05922
0.583424
0.664452
-2.66771
1.49753
-0.00220949
-1.51136
-0.0704879
1.38148
0.562427
1.06864
-0.0785502
-2.24638
-0.846084
-0.0430711
-1.00514
1.2644
1.28229
-2.75011
-1.06749
0.29906
-0.57095
-1.04351
1.2784
1.85496
-0.11207
0.360765
0.779642
0.361568
0.267552
-0.0295526
0.724227
-7.90478
-0.035639
-2.23343
-2.77325
-0.256264
1.59627
0.857174
-0.280941
-0.330354
-0.11165
1.34958
1.35536
0.71746
-2.83446
1.55868
1.51085
1.37743
0.209425
0.150989
0.315498
0.268851
0.750586
-3.79323
1.38267
-0.779558
0.223692
1.53232
-0.937575
-7.95732
1.90177
2.27304
0.260801
0.0369654
1.06601
1.30018
0.154646
0.137154
-0.18614
-0.246274
-3.04428
-0.406763
-2.16199
-1.80735
-0.364322
1.34285
2.29371
0.19764
1.35481
0.224021
3.26404
-0.191722
1.23697
0.196926
-0.943931
-4.73677
3.16711
0.294844
-0.188677
3.05927
0.78374
-1.20518
0.730447
2.96559
0.284213
2.86897
1.26223
0.187414
-8.64722
2.69732
-0.272216
-0.234218
-0.919136
0.973155
-0.0116772
1.00347
2.45283
-0.0243242
0.317123
1.23523
0.484233
0.840461
1.4179
-0.107987
-10.5506
-0.93581
2.37225
0.242164
-10.1577
0.31304
0.245924
2.30274
-0.154524
-0.107115
-9.61703
2.22681
-1.3702
-8.94933
2.15385
1.38355
-8.2494
-0.68501
-7.57098
1.1845
1.61304
-7.55577
2.0431
1.33189
0.418893
-6.89028
1.17284
1.26024
0.313795
-1.56182
-2.41843
1.48177
1.32405
-11.2706
1.06965
0.744786
-0.415754
-2.01723
1.83334
-1.22916
1.40634
-3.41972
-5.17044
-4.69608
-4.28307
-3.93148
-3.62804
-3.35947
-2.01795
-3.12133
-2.63396
2.37097
1.76785
-0.752396
1.31677
0.348553
1.35776
-2.51814
1.71634
0.00122011
-2.41819
1.16394
-2.21593
-2.33917
-0.00884688
1.56907
1.37221
1.27845
1.31385
1.38676
-0.45652
-2.2849
1.51492
-2.251
0.187126
-3.18679
-2.1567
1.42394
1.44765
-0.149563
1.23325
0.00416782
1.40471
-2.23013
-1.26722
0.705463
1.38045
-0.877451
-0.879375
1.31289
-5.70752
-0.25983
-1.84876
-2.19313
1.25211
0.717026
0.367792
1.37179
0.424993
-0.120405
-0.110965
-2.17733
-2.7698
1.17237
0.305506
-0.0886939
1.44474
0.189466
-3.74516
-2.25002
-2.1628
1.11738
-5.7259
0.910624
-0.121324
-0.0272354
-2.15147
1.04326
1.59068
-2.12516
0.962303
-2.12995
-0.188302
-0.714513
-0.863266
-6.29508
0.901453
-2.06378
0.796451
-1.99582
-12.2644
1.33389
-0.0222955
1.28015
-0.110219
0.714787
-1.86537
-1.61537
2.44355
1.45297
-1.77872
-7.04939
0.644143
-10.8589
-5.05733
1.55347
-1.58348
1.33339
0.569162
-0.097754
0.733765
0.687751
1.34912
1.37091
0.256694
-4.3506
-1.40916
-0.864438
0.47357
0.162308
-0.201498
-0.972723
-2.13489
-1.13609
-4.57301
1.23832
0.395212
1.96149
0.571424
2.07506
1.21301
-1.06638
-1.33394
1.25443
-7.40778
1.26705
-0.101894
0.0859104
1.27237
1.40082
-0.243287
-0.945035
-5.97387
0.227025
-3.70263
0.450742
1.03675
1.87089
1.3255
2.17113
-3.90291
1.03683
0.387001
-0.859474
0.39119
-0.503171
0.115268
1.54682
1.38248
1.34245
-0.817388
0.000830018
-0.127642
-0.224485
-0.368645
-0.494257
-0.652485
-0.768204
-0.0929794
-0.797631
1.11021
-1.12286
-2.04011
2.50472
-0.813509
0.215288
-1.75098
1.35507
-0.944386
1.4221
-0.837519
0.34217
-0.883881
-2.46694
-0.918257
1.35875
0.0532697
-3.70119
-0.939172
-2.07963
-7.90804
1.36892
-0.757944
-0.936252
1.3256
1.36722
-1.01366
-4.20006
1.45044
0.449321
-2.28325
0.632793
1.15842
2.01654
-1.05573
0.456837
-7.56912
1.62468
-11.176
-0.487909
-4.7199
1.30436
1.15159
0.734966
-1.61503
1.18891
1.5227
-0.0774527
-1.84159
1.14035
0.254488
0.383574
-0.57302
1.13914
-6.34302
-0.0178004
-0.00200581
1.19957
0.378258
1.5479
0.226724
-3.07857
0.502008
-0.905888
1.53007
1.36071
1.54731
1.56348
0.330558
0.291643
-2.87573
-0.390519
-2.13429
0.380329
0.538532
1.48448
-0.677028
-1.11627
2.45273
-0.00634028
1.24913
1.26832
-2.83513
-0.00452642
-0.359434
0.233471
1.1992
0.553921
1.29323
1.2568
0.930798
0.556796
1.50939
-0.871779
0.0204138
-3.07718
-10.7249
0.286803
-3.49507
0.901635
-3.04887
1.04645
0.0888599
-2.03436
0.39981
-0.790508
-3.44011
-11.3351
0.365556
1.42291
-0.962923
-1.08346
0.00355301
1.19174
0.269998
-6.95756
-0.0278735
0.155829
0.683927
-5.04842
1.40756
0.806799
1.40169
-11.2973
0.440845
-0.0037643
0.019774
0.615784
-3.67923
0.745856
-0.07166
-0.0232575
1.30659
1.61762
-0.487382
-2.24602
1.33411
-2.29194
1.47769
-0.101413
-0.102283
0.14107
-2.17931
-0.0209725
0.0490642
-3.17223
-2.19127
1.17642
-0.306172
0.777933
-1.45127
-0.0202146
1.87143
1.5374
-7.45026
1.09463