/*--------------------------------*- C++ -*----------------------------------*\
| =========                 |                                                 |
| \\      /  F ield         | OpenFOAM: The Open Source CFD Toolbox           |
|  \\    /   O peration     | Version:  2306                                  |
|   \\  /    A nd           | Website:  www.openfoam.com                      |
|    \\/     M anipulation  |                                                 |
\*---------------------------------------------------------------------------*/
FoamFile
{
    version     2.0;
    format      ascii;
    arch        "LSB;label=32;scalar=64";
    class       surfaceScalarField;
    location    "10";
    object      phi;
}
// * * * * * * * * * * * * * * * * * * * * * * * * * * * * * * * * * * * * * //

dimensions      [0 3 -1 0 0 0 0];

oriented        oriented;

internalField   nonuniform List<scalar> 
7520
(
-0.860064
0.67764
0.182425
-1.27249
-0.227028
1.49952
-0.119399
-1.75448
1.87388
0.282614
-0.040227
-0.242387
-0.330921
2.96504
-2.63412
-0.115819
0.125007
-0.00918797
-0.302644
2.0491
-1.74646
-0.0626791
-2.33324
2.39592
-1.50351
1.38411
0.380846
0.165893
-0.546739
0.389958
0.157119
-0.547076
-0.212537
-1.42014
1.63268
0.403854
0.268349
-0.672202
-0.126733
0.17432
-0.0475868
-2.65953
1.10241
1.55712
0.0741814
1.40406
-1.47824
-0.16653
0.00336442
0.163166
-0.0650454
-0.20102
0.266066
0.0311251
0.0094371
-0.0405622
0.0758288
-0.242359
-0.479321
-0.172655
0.651977
-0.951843
1.02602
-0.083225
-0.377309
0.460534
0.210553
-0.173191
-0.0373615
-0.0311428
0.088211
-0.0570682
0.301892
-0.293763
-0.0081294
0.913585
1.0894
-2.00299
-0.0584631
0.394307
-0.335844
-0.000235037
0.0313601
0.327157
-0.0685926
-0.258564
-0.914181
1.58171
-0.667534
-0.0621849
-0.0246118
0.0867967
-1.87717
2.08168
-0.204512
1.03703
-0.81734
-0.219694
-0.296273
-1.17103
1.46731
-0.210107
0.847377
-0.63727
0.275168
-0.617372
0.342204
0.857975
-1.6536
0.795629
0.102961
-0.376773
0.273812
-0.0716371
-0.147734
0.219371
-0.0319947
0.314609
-0.071049
-0.451349
0.522398
0.34258
-0.0406871
1.70628
-1.4063
-0.299983
-0.477562
-0.584379
1.06194
-1.47552
1.57362
-0.0981055
-0.042255
0.111113
-0.0688576
0.33352
-0.105351
-0.22817
-1.24998
0.335796
0.328304
-0.0916419
-0.236662
1.72679
0.15782
-1.88461
-0.692722
0.174875
0.517848
-0.0247897
0.0279648
-0.00317512
1.13145
0.507471
-1.63892
0.0176056
-0.133424
-0.780693
0.0575124
0.723181
0.29318
-1.23922
0.946039
-0.0551189
-0.143817
0.198936
-0.151117
0.0889324
-2.45337
1.33415
1.11922
1.60313
-0.491856
-1.11127
-0.0562633
-0.110156
0.166419
-1.19997
0.903696
0.786283
-0.382429
0.026719
-0.0515087
0.0055169
-0.13225
1.28114
-2.75591
1.47477
0.150074
1.57671
-1.37695
1.01929
0.357667
0.378645
-0.280582
-0.0980631
-0.575522
0.868702
-0.712515
-0.105791
0.818307
0.413535
-0.103621
-0.309913
-0.0212798
0.546712
-0.525432
1.28184
-1.81874
0.536898
0.163846
-0.142945
-0.0209005
1.9874
-0.510477
-1.47692
0.509009
-0.819979
0.310971
1.22603
-0.899163
-0.326868
-0.921231
0.140538
-1.72447
-0.728901
0.344402
-0.532487
0.188084
0.275158
-0.714373
0.439215
0.480903
0.55613
-0.472587
0.407542
0.351683
-0.024526
0.0571648
-0.0431813
-0.0139834
1.31314
0.674262
-1.92258
2.51772
-0.595143
0.583265
1.01986
-1.12103
1.11857
0.00245425
-0.0382617
-0.0570758
0.0953374
1.39537
-1.60791
0.288077
0.233342
-0.13038
-0.222463
0.213832
0.0086306
0.00757338
0.113533
-0.121106
-0.593542
0.35549
0.238052
1.64158
-0.359737
-0.862203
0.692131
0.170072
0.656678
-0.232251
-0.424427
-0.113083
0.142293
-0.0292101
0.657894
-0.117974
-0.539921
2.5912
-1.7343
-0.856896
0.566521
-0.385351
-0.474713
-1.35393
0.778411
-1.86458
1.56193
0.210421
-0.0949398
-0.115481
0.408984
-0.0190258
-0.205014
0.203481
0.00153309
-0.0883321
0.10124
-0.012908
2.07423
-1.21625
-0.16349
0.0544015
0.109088
-0.755495
0.276173
0.0346885
0.0176121
-0.0523007
0.574613
-0.230211
-0.639375
0.395446
0.243928
0.742668
-1.71069
0.968023
0.0891122
0.121441
-0.100587
-0.592136
-0.24149
0.018804
0.222686
0.685591
-0.304745
0.509276
-0.491263
-0.018013
0.0575482
-0.0859996
0.0284514
0.270508
-0.242498
-0.0280105
0.722703
-1.95315
1.23045
0.445484
-0.528709
-0.361822
-0.102964
0.464786
-0.0853833
-0.0781062
-0.179945
-0.0936064
0.273551
0.179357
0.0390761
-0.218433
-0.0763184
0.255676
-0.499783
-0.139592
0.0408407
0.186785
-0.227626
-1.91485
2.60942
-0.694569
0.25612
-0.281692
0.0255722
-1.09227
-0.26166
-0.0427645
-0.0652014
0.107966
1.49282
-0.361373
-0.612505
0.478562
0.133942
-0.236612
0.579491
-0.342879
0.360517
-0.0886973
-0.271819
0.255578
-2.01006
0.289101
-1.76462
-2.37047
1.18004
1.19042
-0.879674
-0.49728
-2.42252
2.09865
0.32387
2.21132
0.106296
-2.31761
0.237555
-0.309192
0.884073
-0.687016
-0.197056
-0.261184
-0.0572407
0.318425
-0.061566
-2.36095
-1.89318
0.0160195
0.0552565
0.00190825
0.0819538
-0.166727
0.0847735
0.33527
-0.390389
0.0449026
0.611775
-0.189054
0.15706
-0.0072959
-0.00173013
0.00902603
0.868725
-0.448148
-0.420577
-0.563186
-2.09634
-0.109437
-0.151748
0.0499672
-0.647901
0.597934
0.0836589
0.0101646
-0.0938235
-1.37897
0.754369
0.624599
1.01959
-1.35051
-0.254985
0.645214
-0.390229
0.0456537
-0.0767965
0.606709
-0.287641
-0.319069
0.195858
-0.418321
0.280087
-0.371729
0.862487
0.252124
-1.11461
0.35026
-0.408723
-0.323739
-1.35112
1.67486
1.27913
0.665318
0.79119
-0.516032
-1.18214
0.972031
-0.74451
1.01102
-0.266514
-0.0452972
-0.0133266
0.0586239
0.21074
-0.245604
0.034864
-0.0329408
0.607554
-0.305766
-0.191174
0.49694
0.0711876
0.0124713
-0.929994
0.979961
0.521101
-0.949269
0.428169
-0.479304
-0.114237
0.775622
-0.500454
0.177871
-0.0140255
0.0362235
-0.0238785
-0.012345
0.0666452
-0.154977
-0.766866
0.238224
0.528642
0.145815
0.267719
-1.36202
-0.45672
-0.776682
-0.602286
-0.0204219
0.110366
-0.0899444
0.397573
0.0450237
-0.442597
-1.65296
-0.261891
-1.26387
2.32008
-1.05621
0.41664
0.190069
-0.0665963
0.0922378
-0.0256415
-0.737686
0.637099
0.540441
-1.018
1.71015
-0.0471939
-1.66296
-1.49205
1.97044
-0.478383
-0.0354219
0.117376
0.323123
1.54116
-1.86428
0.0418793
-0.205285
0.163405
-0.177452
1.86232
-1.68487
-0.00434147
0.163734
-0.159393
-0.9705
1.34124
-0.37074
-0.0248156
-0.71287
-0.349669
-0.417197
0.301129
-0.266059
-2.17144
2.4375
0.019613
-0.0101759
-2.0676
0.705578
-0.337731
-0.0726819
0.410413
0.0941107
-0.0365625
0.151516
1.56782
-1.71933
-0.38166
-0.702325
1.08399
-0.588474
0.474297
0.114177
3.06558
-1.96704
-1.09854
0.599265
-0.980925
0.135149
-0.135043
-0.000105907
0.0742864
0.814883
-0.88917
0.094133
-0.0940214
-0.000111582
0.864036
0.784558
-1.64859
-0.322956
-0.539248
-0.143182
0.336993
-0.193811
-0.924209
0.630955
0.293253
-0.113926
0.05611
0.0578158
0.643539
-0.245965
0.970233
-1.77895
0.808722
-2.59805
1.11101
1.48704
-1.0888
-1.50925
-0.328399
0.348417
-0.0200186
0.00639227
0.0828097
-0.089202
1.1612
-1.65712
0.495919
-0.00775086
1.14815
-1.1404
-0.0808993
-0.451587
1.03897
-0.176486
1.36267
1.24833
-2.611
-0.244843
0.132979
0.111864
-0.0580654
-0.866143
1.83127
-0.378416
-1.45286
0.169672
-0.127793
0.071253
-0.0297368
0.0331012
0.963925
0.86735
0.203853
0.572239
-0.776092
0.436819
-0.0425117
-0.032387
-0.0484642
0.0808512
0.00221505
0.015632
-0.017847
-1.8904
0.928699
0.961701
0.0977332
-0.0913409
0.215101
-0.17426
0.432071
-0.406989
-0.0250818
0.163561
0.169959
-1.58955
1.5432
0.0463545
1.05498
-0.533875
0.0237282
-0.0692955
0.0455673
-0.0056262
0.0687905
-0.0631643
0.159104
-0.262726
1.90151
-0.620362
0.0920739
-0.114971
0.0228974
0.000746795
-0.0080427
0.801403
-0.644284
0.310362
-0.0965302
-0.737653
0.729903
0.0604668
-0.0242434
2.0491
0.00414644
-0.0109709
0.00682443
0.0822001
0.228162
-0.252438
0.166087
0.0863516
-0.0732329
0.731127
0.463633
-0.534682
0.531849
0.352224
0.58173
-0.421417
-0.160313
0.31996
-1.29046
-0.0170826
-0.162862
-2.30225
2.03619
0.103811
0.0313387
-2.36493
0.276172
-0.512784
0.123508
-0.099838
-0.0236696
-0.66061
-1.22979
1.26295
1.32825
1.5221
-0.767729
-1.42014
0.0227168
0.486559
0.242837
-0.183466
-0.0593715
0.18466
-0.310606
0.125946
-1.15867
0.574289
-0.277386
-0.280628
0.558014
0.402718
-0.236825
-0.0958026
-1.94697
2.04278
0.805033
0.274327
-1.54568
1.27135
0.987522
1.09416
-1.10752
1.50483
-1.1817
-0.0571123
0.450538
-0.393426
-0.81528
0.774482
0.0407984
0.120671
-0.028597
-0.111489
0.393906
-0.282417
-0.210666
-0.187498
0.398164
-0.537918
1.81704
-0.340783
-0.408853
0.749636
-0.00779269
-0.0344623
0.130234
-1.25126
-0.130467
0.0980801
0.0119236
-2.10146
1.04909
1.05236
0.555618
-0.28727
0.00995928
-0.0430955
0.299216
1.30475
1.76083
1.66073
-0.460813
-1.19992
0.155734
-0.0525763
-0.103157
0.479571
0.74646
0.16221
0.0806272
0.320967
-2.0297
1.70873
-0.0452513
0.0178528
0.0273986
1.06907
0.57251
-0.266186
-0.110587
0.67486
-0.471007
-0.534067
1.44765
0.198535
0.0118862
1.57332
-0.830654
0.181956
-0.174383
1.84051
-0.179777
0.126908
0.495607
0.0861224
0.0256496
0.352996
-1.70676
-0.930743
0.86552
0.0652237
0.00789449
-0.15084
1.89232
0.00190299
-1.89423
-0.822479
0.481696
0.285906
0.0746105
-0.366345
0.0857632
-0.0286971
-0.870466
1.54296
-1.61649
0.0735299
0.00383594
-0.223172
0.219336
-0.572573
1.64164
-0.886976
1.60968
0.0229888
-0.0191529
0.639605
-0.244158
1.91328
-0.51791
-0.0112059
0.234134
-0.222928
-0.154901
-0.0235309
0.178432
0.153487
0.00224711
-0.0836789
-0.767308
0.00191153
-0.068655
0.0667435
1.52452
1.08489
-1.4281
1.10436
0.166308
-0.52813
-1.32764
0.615129
-1.10745
1.35694
-0.249487
0.545769
-1.65328
1.47582
1.83502
-0.521888
1.27047
0.435816
-0.0888776
0.218026
1.32494
-1.33893
0.335404
1.00353
0.335903
-0.404495
0.0359881
0.061745
-0.262701
0.186383
-0.254342
-1.15196
0.293362
-1.10308
0.809718
-1.59731
1.21229
0.385023
0.427804
-0.533595
0.110457
-0.16672
0.110874
-0.636947
0.431818
0.205129
-0.691199
0.436214
1.22271
0.612313
-1.49205
0.116674
0.153834
1.69095
-1.45661
-0.234333
-0.333196
1.87435
-1.60203
2.28989
-0.687854
-0.605426
0.878288
-0.272862
0.0809102
-1.28088
0.0748054
0.00800434
-0.317401
0.49276
-0.175358
0.378551
-0.496525
1.36373
0.452393
-0.941172
0.48878
-0.0468916
-1.5413
1.58819
-0.0670106
-0.138003
0.0619012
-0.416013
0.354112
-0.252389
0.694404
-0.442015
0.243921
-0.169297
-0.0746233
0.352278
-0.217934
-0.134344
-1.95667
1.72964
2.88283
-0.712399
-2.17043
0.0971427
0.019648
-0.116791
-0.0338755
0.218536
0.194151
-0.673455
-0.818548
1.68258
0.0420585
-0.00737001
1.71015
-1.06926
1.14354
-0.101554
0.101554
-0.398723
0.506423
-2.42901
2.24254
-0.919673
-1.32286
-1.2357
0.558209
0.677491
-0.0539894
0.122068
-0.0680787
0.967236
-1.11738
0.150141
-0.486344
-0.169924
0.656268
1.52171
-1.95085
0.429136
0.00528484
-0.820565
-0.255044
0.100143
-0.153261
-0.476148
0.629409
0.580748
0.543932
-1.12468
-1.44568
-0.438832
0.759218
-0.320387
-0.875888
0.835746
0.0401429
1.46034
-1.30883
0.132624
-0.130713
0.0558491
0.403769
-0.425049
-2.06321
2.17671
-0.113499
-0.796833
1.40426
-0.607425
-0.0253099
0.180117
-0.154807
-1.88853
-0.867379
-0.0173718
0.0171367
-1.74314
0.479277
-0.442602
0.331113
-0.138788
-0.466638
-0.0756805
0.0304292
-0.745245
2.10792
0.080584
-0.457893
-1.54356
0.166492
1.37707
-0.0777327
-0.082329
0.160062
-0.963573
0.219062
0.266541
-0.657739
0.391197
1.61758
-0.192003
-1.42558
0.0470304
-0.204442
0.157412
-0.266498
0.153044
1.33359
-1.48663
-0.867575
1.96998
0.120853
0.737628
0.755195
-0.0375295
1.55957
0.280935
-1.42399
1.3771
-0.210196
0.0792903
0.130906
0.226685
0.0547361
-0.281421
-1.77951
0.177477
0.058044
-0.509393
-0.501863
-0.428881
0.327474
0.651005
-0.141838
-0.509167
0.225702
0.116877
-0.651548
1.56713
-0.915579
0.219832
-0.243363
-0.053898
0.264638
0.286392
-0.603794
-0.02622
0.332043
-0.305823
-0.124471
-0.0383418
0.162813
0.181373
0.395103
-0.576476
-0.0126149
0.131459
-0.118844
-0.343978
0.379685
-0.0357078
-0.00435158
-0.208534
0.212886
0.445175
-0.109272
-0.509497
-0.434713
0.94421
1.48217
-1.06684
-0.936152
-0.200421
0.253265
-0.0528448
0.0479853
-0.0581612
-0.329414
-0.259059
0.94419
-0.293185
0.0307513
-1.23785
1.2071
-0.261602
0.020112
-0.0326908
-0.467092
0.184625
0.167654
0.222712
-0.227053
-1.05118
-0.0479723
-0.105904
0.153876
1.20075
-0.948627
1.50216
1.38067
0.0484687
0.383603
-0.154896
-1.76917
1.92407
0.769368
0.259212
-1.02858
0.0354325
-0.930391
0.601057
0.329334
-0.0597585
-0.0179742
-0.0292573
0.0711838
-0.0419265
1.96276
-1.01758
-0.945179
0.158672
-0.359422
0.20075
0.697731
0.180386
-0.878117
0.0837385
0.120795
-0.204534
1.74063
0.0268785
-1.76751
-0.267237
0.0662166
-0.313292
0.393876
0.0273233
0.0405589
-0.0678823
-0.52292
0.0503328
0.0191019
0.0132389
-0.0323408
-0.192129
-0.586507
0.778636
1.07616
0.541419
0.994104
-0.963353
0.641521
-0.89391
-1.83311
1.73731
-0.117774
0.0317743
0.310704
-0.558126
0.247422
0.673253
0.848845
1.1341
-1.27867
0.144571
1.29978
-0.562152
-0.175923
0.123347
-0.0128965
0.0658249
-0.0529284
-2.03404
-0.479077
2.51311
-0.368117
0.491305
-0.123188
-0.0133755
-0.0881788
0.680645
2.2844
-0.168535
-0.0763078
1.17076
-1.74505
0.574287
-0.520907
-0.376624
0.897531
1.38647
-0.416241
0.610598
0.48333
-0.540571
-0.326747
0.0124156
0.314331
0.0392568
-0.297821
-0.491341
0.943734
0.0339629
0.0601701
-0.242333
-0.0631689
0.305502
0.0272253
0.940011
-0.25201
0.438795
-0.38995
-0.343644
0.362448
0.661142
-0.79993
0.147512
-0.0931103
0.0596149
-0.0265137
-1.94359
0.876749
0.907127
-0.701822
-0.205305
0.0409905
-0.0312642
-0.0097263
0.260882
0.887264
-0.14779
0.0376343
0.0421999
-1.59198
1.54978
0.00961051
0.691521
-0.701131
-0.0939728
0.0921565
0.00181634
-0.764814
1.05818
-0.103952
-0.282672
0.386624
-0.310253
0.576794
-1.05681
1.40117
-0.34436
-0.327153
0.369566
-0.0424132
2.19484
0.016474
0.49234
0.188455
-0.680796
-0.332503
0.238897
-0.210025
0.189156
1.58282
0.934904
0.274699
-2.60827
2.33357
-0.871108
-0.20355
1.07466
-0.117905
0.179741
-0.0618359
-0.864795
0.0224364
0.842359
-0.10689
0.0425509
0.0643389
-0.0527679
-0.0776992
-0.539929
0.0848355
0.00337554
-0.00368977
0.10177
-0.214375
0.515439
-0.301064
-0.301311
0.396412
-0.095101
-0.108748
0.145684
-0.0369364
0.716417
-0.43763
0.000902094
-0.0440834
0.522369
-0.606697
0.0843283
1.27171
-1.01082
-0.0696753
-0.338843
0.408518
0.113194
-0.345445
-1.30672
1.4568
-0.243993
-0.443023
-1.24241
0.82611
0.416305
0.530672
-0.035699
-0.494973
1.69856
-1.69856
-1.73459
0.0101225
-0.522338
-0.140653
-0.63756
0.778213
0.464286
-0.482852
0.0185659
0.028094
0.0655415
-0.182332
0.116791
-0.0692241
0.264586
-0.195362
-0.301492
1.10827
-0.806777
0.220251
0.00981117
-0.230063
0.732115
-0.651205
-1.14689
0.275779
-0.0690169
-0.280514
0.349531
-0.0724229
-1.26651
-0.333712
-1.07958
0.745863
0.921775
-0.070022
0.213669
-0.143647
-0.331504
0.456548
-0.125044
-0.387968
0.244786
-0.0966141
-0.0244153
0.147923
0.0465268
-0.00299556
-0.0148227
0.0178182
0.0466349
0.01919
0.337864
-0.847361
0.222248
-0.12947
-0.0927776
0.0179695
0.0113308
-0.0293003
0.0511861
0.0707562
-0.121942
-0.078881
0.20863
-0.129749
-0.406493
1.21621
0.374444
-0.980646
0.606201
-0.191692
-0.088751
0.280443
0.0515741
-2.70127
2.64969
0.779831
-0.521066
-0.258766
0.39448
-0.117267
-0.193339
0.0789029
-0.0612907
-0.0662194
0.224891
0.289366
-0.852659
0.563294
-0.401596
-1.18796
-0.513395
0.657604
-0.144209
-0.0694669
-0.0159164
0.495856
-0.351815
-0.144041
0.270175
0.252194
-1.01405
0.353947
-0.353268
-0.000678652
-0.635089
0.357703
-0.0714702
0.550033
0.0622024
-0.0678286
-1.61833
-0.115971
-0.340142
0.626534
-0.0518689
-0.203175
-0.0761198
0.0231914
0.212166
-0.282188
-0.0930707
-1.15441
0.747918
1.96904
-0.106716
-2.17144
2.25133
-1.1
-1.15133
-0.182653
0.538143
-0.183043
-0.738188
0.38277
-0.316125
-0.295884
-0.0308623
-0.290571
-0.55263
0.843201
-0.0570025
-0.0300121
0.0870146
0.100584
-0.980257
-1.90477
-0.352876
-0.383489
0.736365
-0.652044
0.661655
-0.29471
-0.0526358
0.347346
0.599185
-0.153701
0.105351
0.425321
2.17693
-0.655222
-0.801047
0.510476
-0.296011
-0.0706955
0.366706
-0.0559007
-0.0915077
-1.02587
0.54914
0.073238
-0.622378
-0.108314
-0.0428037
0.973285
-1.27178
0.298492
-0.625828
-0.0479002
1.74646
-0.497782
-0.108915
0.715356
-1.98335
1.268
-1.7533
0.935339
0.817966
0.196935
0.118347
-0.315281
0.150608
0.956943
0.116996
0.8002
-0.917196
-0.0698678
-0.0451034
0.209338
-0.112195
0.414666
-0.618598
0.203932
1.34221
-1.4971
0.0436337
0.0434034
0.0187854
-0.0621888
-1.75227
0.01768
-0.669229
-0.176606
-0.0238141
0.146636
0.00224765
-0.148884
-0.704812
0.354306
0.350507
-0.45125
0.394137
-0.95762
-0.427184
1.3848
-0.152553
-0.106647
0.0526576
-0.8468
1.09085
-0.244053
-0.256893
1.46918
-0.20029
-0.671429
-0.56427
0.406885
-0.191784
1.00654
-1.30803
0.0129839
-0.0406017
0.0276178
1.08346
-0.344109
-2.29001
-0.38481
-0.164088
0.548897
-0.0615608
0.247943
-0.036003
-0.0942506
0.130254
0.345892
0.0616493
0.994705
-0.462856
-0.0876812
0.360911
-0.0808238
-0.332875
0.289779
-0.168283
-2.73314e-05
0.16831
0.299121
-0.102767
-0.196354
-0.176795
-0.0483536
0.225148
0.0574348
0.000635891
-0.0580707
0.112146
-0.0836947
-0.172189
-0.0509825
-0.0176022
1.10924
0.0249303
0.226715
-0.251645
0.0897886
-0.151536
0.0617469
0.0130845
-0.0133065
0.000221975
0.230416
0.311366
-0.750198
-0.0985282
0.428019
-0.092749
0.0526757
-0.00702202
-0.161043
-0.0442418
1.78906
-1.0045
-0.048658
-0.179503
0.228161
-1.53007
0.223345
-0.0760428
-0.0253786
0.101421
-0.0557366
-0.0581892
-0.826928
-0.926377
0.439704
-0.0894438
-0.527927
-1.50177
-0.355704
0.11337
0.233018
-1.07982
0.663716
-0.808871
-2.06327
2.33797
-2.39803
0.363996
-0.094948
-0.0482431
0.143191
-0.0153827
-0.311948
-0.381336
0.693283
0.108258
-0.0853607
-0.155238
-1.6614
1.81663
-0.953344
-0.412086
1.36543
0.239758
0.543606
-0.783364
0.0115952
0.177848
0.176099
-0.304111
-0.299683
-0.215663
-0.111963
0.327626
-0.0298346
0.34826
0.309498
0.186358
0.0544392
-0.693018
-0.0184521
0.0225985
-0.376482
0.481227
-0.104746
-0.219211
-0.0135991
-1.3137
0.123952
-0.0135856
-1.16921
0.260237
0.0133141
-0.429911
0.25565
-0.173602
-1.02819
-0.254058
1.28224
-0.0821748
0.464945
-0.687442
1.24565
-0.382309
-1.02237
-0.921221
-1.19578
1.34592
0.143863
-0.154655
0.0576848
-0.124913
0.0672278
-0.764664
0.640919
0.123745
0.747
-0.771816
0.325077
0.58205
-1.12479
-0.117625
0.0528853
-0.0926786
0.0397934
-0.552825
0.734198
-1.36988
-0.160633
1.53051
-0.00842696
0.0550619
-0.322591
-0.648513
0.971105
-0.288306
0.485259
0.0812623
0.0922821
0.0730687
-0.165351
-1.2595
0.881084
0.0495941
0.0586639
-0.208929
-0.150493
-0.440776
0.0930715
0.0544404
-0.0829189
-0.010794
-0.0232384
-0.0446439
0.311755
1.23144
-0.446711
1.71718
1.03034
0.535442
-0.705366
0.0297943
-1.39967
-0.224794
-0.378494
0.471892
-0.093398
-0.204191
-0.0383068
-0.0522325
0.0230471
-0.0684968
0.157429
-0.233358
2.16208
-1.92872
0.103145
-0.816015
-0.146027
-0.30501
-0.0853793
0.297969
-0.329956
0.426121
-0.0961647
-0.180092
-1.625
1.80509
0.272888
0.188594
0.275692
-0.294281
-0.468576
1.00987
-0.54129
0.0829604
0.0232345
-0.0544987
0.341735
-0.741615
0.39988
-0.0632574
0.442639
-0.379382
-0.182645
-0.550638
0.733283
-0.32321
-0.0855129
-2.00387
0.0426791
0.276118
-0.287324
0.0788298
0.127019
-0.0774252
0.381487
-0.764976
2.51245
-1.04004
-1.4724
-0.161515
0.4583
-0.811037
0.488446
-0.204445
-0.148823
-0.222243
-0.00592708
1.08471
-0.603809
-0.114267
0.777429
-0.960074
0.177173
-0.115645
-0.0615281
-0.440992
-1.86211
1.06688
0.795231
-2.13005
2.18162
-0.994951
0.244196
0.750755
0.019247
0.157884
-0.177131
0.654135
0.290055
-0.157402
0.235868
-0.00610709
0.035331
0.0547296
-0.304172
-0.0476429
1.28248
1.22997
-0.0648124
0.0163481
1.58508
-1.47878
-0.0533583
-1.38353
1.43689
1.13144
-0.0221994
-0.340195
-0.102407
-0.385008
0.141994
-0.304413
-0.0408783
0.0768664
0.74689
-1.27101
0.524123
0.142804
2.13815
-1.25657
-0.881573
0.0308416
0.0498312
0.072237
-0.187025
0.794579
0.901228
-0.891106
0.57821
-1.53155
-1.20191
-0.0551392
1.25705
-0.952044
1.16392
-0.211879
0.116484
-0.0147146
2.3816
0.0589299
-2.44053
-0.453021
1.22375
-0.770729
0.111849
0.284563
-0.701284
-0.174605
-0.0189749
0.122786
-1.36183
0.254375
-0.0232095
0.0401871
-0.0169776
-0.175084
0.207811
-0.0327275
0.054433
-0.409796
0.355363
0.648169
0.21735
-0.566122
-0.138691
0.004773
0.871259
-0.865974
-0.0820621
-0.0846653
-0.301313
0.0646514
0.848419
-0.537141
-0.311278
0.314442
-0.970811
0.656369
0.465747
-0.649275
0.183527
0.656177
-1.48681
0.779525
0.707287
-0.0145941
0.853962
0.32027
-1.17423
-0.171004
0.264812
-0.292332
0.02752
0.205979
-0.0425741
-0.30402
0.00931052
-0.348647
-0.661394
1.01362
-0.576423
0.835915
-0.259493
-0.471912
-0.710226
1.82569
-0.776594
-0.107479
0.205119
-1.33167
0.0467907
-1.31342
1.26663
0.0734127
0.0857735
-0.159186
0.147071
0.356548
-0.503619
0.528277
0.0512134
0.0404417
-1.28941
0.817503
-0.552467
1.15352
0.106343
0.69506
0.361447
0.27735
0.0217713
0.931392
-0.449696
0.0856056
0.661395
-0.927451
0.335315
-1.47322
1.06114
1.06658
-1.24667
-1.95842
1.72507
0.0478562
-1.43194
0.238447
1.19349
0.160449
0.497155
0.0612095
-0.8555
0.714847
-0.176032
-0.125859
0.30189
-2.24273
1.39496
0.847763
0.433881
0.787905
-1.22179
0.0416999
-1.23748
0.824306
-0.00511546
-0.81919
-0.221806
-0.668947
-0.658698
-0.0049243
-0.0200343
0.0761443
1.54291
-1.51603
-0.00515153
-0.903011
-0.583801
-0.0891913
0.0613291
-1.26324
1.19135
-0.337388
-1.47582
0.05568
-0.227265
-0.887347
0.390396
0.0527766
1.83311
0.215992
0.11758
-1.14345
0.170058
-0.130982
0.147204
-0.35787
0.336379
-0.621332
0.284952
-0.0469215
-0.0219188
0.0688404
-0.650355
0.83881
0.0519177
-0.0497027
-1.07527
1.17438
-0.0991057
-0.723266
0.790778
-2.09239
1.30161
-1.23549
-0.0736867
0.131503
-1.41868
0.10536
1.31332
-0.464304
1.01007
-0.699955
0.800539
0.147319
0.861604
0.512653
-0.902603
-0.86172
-0.226364
1.08808
-1.04801
-1.84293
1.68769
-0.152027
0.156157
-0.00413044
0.109655
-0.107839
0.723996
-1.21534
0.302104
0.737794
-1.0399
0.099125
0.607734
-0.706859
-1.00989
0.459254
0.0514614
0.0316677
-0.274055
0.430938
2.26016
0.121435
-0.767253
0.884249
-0.314285
0.105356
-1.03724
2.36908
-1.33184
-0.0911498
0.0793147
0.0985566
0.462378
-0.00184414
1.07388
1.2462
0.539086
-0.783245
0.300404
-2.26744
-0.210891
0.162918
0.100155
-1.04878
-0.264071
-1.00771
-0.254688
0.0656333
0.890681
-0.459743
0.0426607
-0.882308
0.419452
0.22302
-1.73717
0.269676
1.4675
-0.0327993
0.518058
0.761819
-1.187
-0.305057
0.847193
-0.367193
-0.48
0.98815
-0.421699
-0.566451
-0.217315
0.0480179
0.724369
-0.691278
-0.0330912
-1.47096
0.977805
0.493154
0.434014
0.967155
0.00182944
0.144807
0.86399
-0.552624
-2.22733
1.19896
1.02837
-2.4375
1.95842
1.03369
0.550522
-1.58421
0.877415
-0.736877
1.45073
-0.535696
-0.915037
-1.12579
0.221128
-0.0977807
0.037853
-0.105536
0.238515
-0.0679411
0.162953
-0.0950119
0.621318
-0.0746061
-1.87776
-0.455477
0.672735
-0.258069
-0.0416565
-0.0523649
0.759067
-0.430373
-0.328694
0.882001
-0.527695
-0.182353
0.148478
-0.0823097
1.21641
0.130957
-0.0575447
-0.242742
-0.76715
-1.54332
0.515133
-0.0423821
-0.130809
0.16772
0.155149
0.159002
-0.101317
-0.55077
-0.293838
0.141628
-0.0998833
-0.0417445
0.218882
-0.932485
-0.15795
1.09043
0.0739033
0.0531159
0.0131399
1.36934
1.03434
-2.40368
-0.537327
0.777086
0.26142
-0.104361
0.588063
-0.845049
-1.06583
1.91088
-0.880302
-0.86796
0.315329
0.283554
-0.0851823
-0.198372
0.841229
-0.796205
-0.220152
2.00077
-1.20999
-0.228057
0.13936
-0.391975
-0.58867
-0.0120607
2.01289
-1.73731
-0.275582
-0.991506
-0.551814
-0.0510824
0.19959
0.0859257
-0.98972
-0.291265
1.28099
0.264002
-0.545345
0.482087
-1.56218
-1.24386
0.587665
0.656191
-0.24076
-0.00395651
0.244716
1.01005
-0.727125
-0.282929
0.132082
-0.200579
0.0962094
0.107271
0.67523
-1.63285
0.785389
0.202762
-0.486835
-0.314212
-0.0734957
0.0434836
0.180906
0.0519884
-0.984473
0.0302335
0.420305
0.730274
-0.326505
-0.62252
0.684432
-0.0619118
0.819441
0.631291
0.416246
0.042504
0.272645
0.241421
-0.514066
1.65328
-1.3836
-0.156439
0.439511
0.174872
0.0311075
0.10847
0.0165343
0.00128396
0.00446906
-0.156496
0.550165
0.0364301
-1.75466
-0.0381237
-0.202636
-0.0877393
-0.0371733
1.09954
-1.78698
0.702024
-0.326301
-0.375723
0.00539964
0.136894
-0.0260517
0.00284222
0.365137
0.034965
0.127848
0.578905
-0.183802
-2.61964
1.26854
1.35109
-0.0757556
0.0186799
-0.0428475
0.143461
0.208222
-0.327512
-0.330226
0.897719
-1.74277
-0.0365292
-0.940661
2.31
0.516218
-0.0928767
-0.423341
-0.473374
-0.378578
-0.104274
0.109657
-1.13041
0.392244
-0.675769
0.283525
0.414156
-0.253497
-0.160659
0.19235
0.951132
1.33875
-1.3817
1.3836
-2.90521
1.93738
0.96783
1.4003
-2.34096
2.6675
-1.36275
-1.08889
-1.14472
0.530768
-0.0989502
-0.11369
-0.302323
-1.47964
0.0477048
0.0218218
-1.30049
1.19494
-1.9805
0.785555
-0.0810832
0.318638
-0.333809
0.0565069
-0.0989201
0.907557
1.23059
-2.33286
1.29562
-0.0870723
-0.79323
-1.33507
-0.508404
0.254907
2.13005
-2.11357
-0.059006
-1.16988
0.0648066
1.09937
-0.946327
-2.06497
1.98192
0.0830493
0.294939
2.35475
0.394838
0.113146
-0.507983
1.45251
-0.874299
0.278901
0.0793767
0.60082
-0.633511
0.125621
0.151729
0.740374
0.629492
-1.36987
-0.408548
-0.21979
1.0878
-1.03783
-0.049972
0.671021
-0.597783
-1.48615
0.623505
0.862647
-0.441672
0.588743
-1.03694
0.192503
0.850484
-1.04227
0.324651
-0.628762
-0.0211031
0.0140811
-0.737781
0.425834
-0.924823
-1.42363
2.34845
-0.167247
0.167883
-0.51769
0.568023
1.26964
-1.83391
0.16478
1.28786
-1.73457
0.108056
-0.0541848
0.250908
-1.26173
0.074582
0.603058
0.537269
0.00685143
-0.483
-2.61802
0.554753
-0.0980347
0.0231824
0.0748524
0.0883205
-0.370737
1.15579
1.09554
1.33095
-1.03246
0.0650399
0.0238864
-0.0082544
0.502687
-0.444403
0.506052
-0.533814
-0.870023
2.27033
0.0113247
-0.0259188
-0.919452
-0.684937
1.60439
-1.21381
0.760791
-0.0809432
0.0358172
-0.0355952
-1.44694
-0.0966162
-0.21226
0.604504
-1.46671
-1.15293
2.01289
0.584143
-1.18643
0.941275
-0.723925
-0.15285
0.443363
-0.267264
-0.303962
0.234287
-1.37903
0.401971
-0.870546
1.40724
-2.27726
-0.814702
-0.14097
0.379866
-0.246421
-1.81855
1.10599
-0.850343
1.36143
0.638826
-1.74928
1.11046
1.47335
-0.495543
1.63268
-0.659055
-1.35857
2.01763
0.509473
1.34068
-1.07668
-0.643718
-0.600139
-1.85671
-1.04849
0.470104
-1.01505
1.60001
-0.584956
-0.16445
1.37201
-1.20756
-1.0185
-0.945221
1.96372
0.882637
0.205164
0.297868
0.406201
-0.296231
0.0867785
0.209453
0.0777296
-0.321093
0.461733
-1.45324
-0.541496
-0.42311
-0.341554
-0.0676661
0.327903
0.388122
0.430185
-1.96469
1.11611
0.848583
-0.0516275
-1.6119
1.66353
0.0491259
-0.308353
0.112991
0.305874
-1.59087
1.59087
-0.492578
-0.0542228
0.546801
-0.454418
0.99835
-0.324714
-0.18369
-0.706626
-0.0772089
0.425468
-1.3817
0.197832
-1.35974
0.290479
1.21603
-1.28845
-1.25371
0.263993
-0.0380451
0.185495
-0.14745
0.180546
0.543823
-0.0635642
0.0166426
-1.03978
-1.20862
0.117979
1.09064
-1.37098
0.436199
-1.11939
-0.973003
-0.0772711
0.169553
0.19441
0.268393
-0.472839
-0.0468487
0.0236104
0.423996
-0.421459
-0.316322
-1.20191
1.57652
-0.374611
0.365969
0.192148
-0.218453
0.452175
-0.233722
-0.316749
0.129251
0.296294
-0.663487
0.367193
-0.925714
1.80704
-0.773351
-1.56165
-2.2139
0.588893
-2.20082
0.0616915
0.885604
1.07715
0.0903797
-0.977726
1.79795
0.378761
0.78713
-0.680787
0.628568
0.612285
0.26513
2.19052
-0.783282
-0.63995
-0.773645
1.41359
1.19236
-0.0911469
-1.10121
-0.0523971
-0.0991384
-0.245733
0.220423
0.180004
1.35395
-1.53395
-1.47864
1.24667
0.231974
1.47864
-1.72507
0.259632
-0.340716
-1.67548
1.00653
0.105483
-0.091775
0.00808029
-1.6623
0.116623
1.7395
-1.10068
-0.264489
-0.136532
0.136505
-0.501426
0.704055
0.298793
-0.0980431
-0.0537868
0.453667
0.209403
-0.284027
-0.643386
-0.070987
0.58398
-2.07652
0.535218
-0.114116
0.524438
-0.410322
-1.05842
-0.922079
0.154532
0.633865
0.421111
-0.936018
0.168765
-0.437012
-0.212263
0.161314
-2.34423
1.25534
0.0535243
-0.101363
-0.180825
0.0547109
-0.13763
-0.0658198
-1.35288
0.603516
-1.91938
1.31586
0.0864803
0.297713
-0.384193
0.0669104
-0.250376
-1.09939
1.38987
0.270101
0.506985
1.29589
-1.187
0.225089
0.0608171
1.66262
-1.90045
0.237832
0.526572
0.564281
-0.854586
0.0353957
0.406395
-0.570483
-0.0667062
0.0898976
-1.13391
-0.162921
0.139581
0.0233399
-1.52722
0.224439
1.30278
-0.0892631
0.0808362
0.000853005
-0.0665344
0.0656814
1.21556
-1.15423
0.0652451
-0.087164
0.603073
0.17514
0.0971337
-0.0573403
-0.101217
0.085301
0.238527
0.681974
-0.920502
-0.436795
0.0269988
-0.917432
-1.02322
1.94066
0.167343
-0.0447886
0.27295
-0.812899
2.18162
-0.11905
0.103667
0.0808909
0.12748
0.100374
2.38989
-1.10741
-1.28919
0.908493
-0.506522
-1.3062
2.33457
-0.0992962
0.134261
0.106806
-0.120182
-0.00738239
-0.244263
-0.342298
0.230335
-0.312336
0.571424
-0.303031
1.33368
0.153946
-0.0992348
0.205289
0.00838025
0.0468373
0.0714112
0.00545525
0.47349
-0.89495
0.248976
-0.2896
0.0406243
0.175413
-0.0896391
0.295799
0.631193
-0.926992
-0.296493
0.170635
0.3942
-0.476374
2.52725
-1.00272
1.02701
0.886029
0.01018
0.433443
-1.3099
0.387483
-0.541184
-0.344474
0.678254
1.49868
-1.55893
1.55893
1.44295
-0.944623
1.07486
-0.0798394
1.55132
-1.47148
0.910478
1.03397
1.26905
-2.19387
0.0888334
-1.04891
-1.34721
-0.155529
-1.46355
1.61907
-0.452247
-0.182842
0.0919585
1.27912
0.219924
-0.322691
-0.676876
1.66091
-0.984036
-0.192362
0.317983
0.0219158
8.35184e-05
-0.0598421
2.53744
-1.07785
-1.4596
1.55595
-1.45059
1.09777
0.259163
0.0287269
-0.00573814
0.00130212
1.56651
0.468765
0.597263
0.969864
0.0289344
0.234356
-0.26329
-0.402669
0.252176
0.216184
-0.233646
0.0174627
0.192701
-0.2627
0.0699984
0.377451
-0.372678
0.373909
-0.593121
0.546032
-0.523316
0.0591183
0.0301726
-0.00207865
0.00806188
-0.262145
0.254083
0.152587
-0.148717
-0.00387009
2.11357
-1.67969
0.084031
-0.111914
0.0278829
-1.54291
-0.397935
0.305186
-0.999224
1.9097
0.297498
-0.382878
2.47817
-1.20913
0.284179
-0.365003
-0.194271
0.586953
-1.27172
-0.602697
1.3486
1.37748
-1.12657
-0.101621
0.190733
-0.142305
-1.47419
-0.340783
0.332654
0.281409
-0.427435
-0.426687
0.330523
-0.126031
-1.34203
1.28867
-1.44359
1.51712
-1.1199
-0.614597
0.454284
0.76523
0.438927
-0.486569
-0.0974811
0.188008
0.379281
-0.567289
-0.416812
1.38074
-0.751781
-1.20982
-2.07885
-0.109644
0.105424
0.00421978
-0.0373863
1.44949
-1.4121