/*--------------------------------*- C++ -*----------------------------------*\
| =========                 |                                                 |
| \\      /  F ield         | OpenFOAM: The Open Source CFD Toolbox           |
|  \\    /   O peration     | Version:  2306                                  |
|   \\  /    A nd           | Website:  www.openfoam.com                      |
|    \\/     M anipulation  |                                                 |
\*---------------------------------------------------------------------------*/
FoamFile
{
    version     2.0;
    format      ascii;
    arch        "LSB;label=32;scalar=64";
    class       volVectorField;
    location    "10";
    object      U;
}
// * * * * * * * * * * * * * * * * * * * * * * * * * * * * * * * * * * * * * //

dimensions      [0 1 -1 0 0 0 0];

internalField   nonuniform List<vector> 
5098
(
(2.20441 0.870185 0)
(2.04332 0.0453218 -9.20509e-20)
(2.41636 -0.0460855 -2.60792e-21)
(1.83746 -0.809529 3.23963e-19)
(4.07997 -0.774264 0)
(1.15204 -0.551043 0)
(2.44524 0.0195934 2.17698e-19)
(3.14831 -0.0445876 1.67525e-21)
(2.6279 -0.0727261 -5.6015e-20)
(1.37961 0.277398 2.85871e-19)
(-2.50151 0.951838 0)
(1.89737 -0.00201558 6.34524e-20)
(2.39392 0.6945 2.89999e-20)
(1.17956 -0.576059 0)
(2.90274 -0.550171 2.18665e-19)
(1.76992 0.0645514 -2.35353e-21)
(0.988849 -0.32228 -1.89689e-18)
(-1.69883 0.236556 0)
(-0.20406 0.113196 8.15209e-20)
(1.49244 -0.752016 2.14503e-18)
(1.77963 0.34028 -9.70573e-20)
(1.69884 0.0582197 -9.70368e-21)
(2.75195 -0.778065 0)
(1.04382 -0.20042 2.58277e-20)
(0.602813 -0.4026 0)
(1.75141 -0.703472 0)
(1.98864 -0.0178596 1.28843e-19)
(2.27161 -0.879692 -2.8306e-20)
(-0.313243 0.121444 -2.57697e-19)
(2.75499 -1.05638 0)
(2.20472 0.0512816 -4.25235e-20)
(0.937702 -0.460473 0)
(2.1249 0.0411632 -1.04636e-19)
(-1.63533 2.98422 0)
(2.37905 0.37807 5.30111e-20)
(3.48263 0.737 3.68008e-19)
(2.18315 -0.413645 4.33429e-20)
(2.14895 -0.0202646 -9.43604e-22)
(1.59137 -0.548369 3.68091e-19)
(2.02833 -0.871008 0)
(1.86098 -0.831225 -1.34375e-19)
(-0.477902 2.18152 -5.10089e-19)
(1.77913 -0.706795 0)
(2.22564 -0.412513 1.40129e-19)
(2.23116 0.567724 -1.25259e-19)
(2.01418 0.0373596 1.22494e-20)
(0.309779 -0.452167 5.92546e-19)
(1.34234 -0.503715 0)
(2.20188 0.0517314 0)
(1.83068 -0.769499 3.54978e-20)
(2.13973 0.107982 1.90176e-19)
(1.67948 0.25164 -4.8299e-19)
(0.327156 -0.121732 1.14802e-21)
(2.19058 -0.0476548 8.66157e-20)
(1.21137 -0.59969 -1.92438e-19)
(1.71183 -0.0384387 0)
(1.89303 0.135238 -2.56395e-19)
(1.9494 -0.76176 0)
(1.09655 -0.540881 0)
(2.19594 -0.0957205 -5.23958e-20)
(1.64056 -0.704472 -2.04216e-20)
(1.47348 -0.877192 -1.48469e-18)
(2.36664 0.371169 0)
(2.24328 0.699905 0)
(0.449456 -0.130006 8.3e-19)
(1.0461 -0.525197 2.94216e-19)
(2.74024 0.0534432 -6.31329e-21)
(2.20726 0.156225 4.96257e-20)
(2.30251 -0.122571 2.74651e-20)
(2.01065 -0.815011 6.26199e-20)
(1.91462 0.0726807 5.05482e-21)
(0.6502 -1.35281 -6.36676e-20)
(2.41159 -0.8742 0)
(-0.398248 1.67616 0)
(1.96401 -0.456029 2.87329e-20)
(1.42938 -0.693091 -1.74362e-19)
(1.7586 -0.302316 0)
(1.6429 0.0255556 3.74903e-19)
(1.85396 -0.172342 1.48057e-19)
(1.73741 0.00435819 0)
(1.86105 -0.160493 0)
(0.250913 1.26515 5.63252e-20)
(1.94084 -0.348043 2.97197e-19)
(-2.04133 3.50207 -3.53311e-19)
(-2.13306 0.711172 5.17447e-19)
(2.55182 -0.980428 -1.06675e-18)
(0.451773 -0.0225487 -2.65484e-19)
(1.7823 -0.296901 2.33493e-21)
(3.06452 0.114617 5.33774e-20)
(1.53413 -0.683578 -1.88539e-20)
(2.31503 0.0694341 2.16461e-22)
(0.747677 -0.548049 2.24283e-19)
(2.48385 -0.0122632 -8.46551e-20)
(1.85262 -0.788333 -1.72402e-19)
(1.5725 -0.571598 6.47155e-20)
(0.314872 -0.584814 -3.06834e-20)
(1.38181 -0.676725 -7.3797e-20)
(1.592 0.0902681 2.87402e-19)
(1.92485 -0.426189 1.13516e-20)
(2.40284 -0.35739 2.47986e-20)
(1.13787 1.16327 -8.58164e-19)
(1.28204 -0.628568 -2.12754e-19)
(2.74186 2.84143 -1.78025e-18)
(2.38193 -0.103501 -4.2017e-22)
(1.66079 0.00759434 -4.2615e-19)
(2.1101 0.896335 0)
(1.93674 0.120965 2.78008e-19)
(2.2858 0.0926 1.32197e-19)
(1.28436 -0.544624 5.82292e-20)
(-2.21391 0.799793 0)
(1.36409 -0.647468 -2.76083e-19)
(0.769543 0.276053 1.07571e-19)
(1.99079 -0.00749315 -1.66016e-19)
(0.911527 -0.611702 7.18562e-20)
(1.7384 0.407456 1.42986e-19)
(-0.430632 0.287242 0)
(0.720294 1.33255 2.64939e-19)
(2.18234 1.1749 0)
(1.56399 -0.203962 -2.18887e-20)
(1.08438 -0.239997 -3.88608e-19)
(1.72058 0.237338 3.96804e-19)
(1.30007 1.31457 -6.52856e-19)
(1.28698 0.171597 -1.86974e-19)
(-0.743296 1.73018 -2.83588e-19)
(0.151344 -0.645184 -3.03682e-19)
(1.88473 -0.936152 2.27042e-19)
(2.33044 -0.038888 7.03632e-20)
(2.68299 -0.754407 3.36207e-19)
(1.56536 -0.284774 -8.7466e-20)
(0.812361 -0.568617 -1.23662e-19)
(-0.754224 1.162 -3.75839e-19)
(1.37953 -0.62071 -4.05215e-19)
(1.40447 -0.616279 3.36492e-19)
(2.10802 1.16911 5.89591e-20)
(-0.195437 0.0708462 -3.39862e-18)
(3.53271 0.528433 3.97555e-19)
(1.5109 1.64987 -4.76592e-19)
(1.92414 0.118587 1.97309e-19)
(1.1092 -0.544708 0)
(2.19346 -0.0494595 -2.9197e-19)
(1.64147 0.307055 -3.27698e-19)
(4.53901 0.720961 1.2333e-18)
(2.23616 -0.954988 -1.48336e-19)
(2.38307 -0.0404175 -1.23492e-20)
(2.0413 0.0417736 -8.71222e-20)
(2.41572 -0.0986421 0)
(2.27911 -0.143589 4.90457e-20)
(3.36005 -1.26123 0)
(2.83934 0.0745145 1.67658e-19)
(2.26844 -0.966406 -1.46524e-19)
(0.481454 1.87486 -4.56397e-19)
(1.17602 0.864407 0)
(3.83473 -1.08374 5.62287e-19)
(2.09071 0.0281928 0)
(0.463292 -0.0847189 -3.15422e-19)
(1.08142 -0.467623 -1.53283e-19)
(1.94919 -0.763199 -1.3793e-19)
(0.97833 0.442393 -7.08916e-19)
(1.82009 -0.834791 -1.17112e-19)
(-0.103327 0.0456217 2.81372e-19)
(2.25403 -0.386438 -6.84087e-20)
(2.92837 -0.600249 -2.65284e-19)
(0.464078 0.728866 -1.30483e-19)
(1.99967 -0.191299 -1.79617e-19)
(-0.669299 0.0845034 -3.52541e-19)
(2.13819 -0.0145815 -8.05026e-20)
(4.12614 -0.839779 -1.93559e-18)
(2.94449 0.092595 0)
(0.493131 -0.340399 3.43461e-19)
(1.98432 -0.612089 -1.79913e-19)
(0.130924 -0.642662 2.19406e-20)
(1.8319 -0.7352 -1.24139e-19)
(2.07322 0.46138 2.85883e-19)
(2.25187 -0.833711 -6.75435e-20)
(2.5179 -0.0308376 0)
(1.94602 0.00438277 0)
(1.95946 -0.334266 -1.05259e-19)
(2.98984 0.72462 -2.71245e-20)
(1.93991 -0.200716 2.83818e-19)
(0.606591 -0.186673 0)
(1.44 1.75222 0)
(0.985564 1.1815 -8.82409e-20)
(2.0646 -0.576702 1.68786e-19)
(-0.549723 0.109831 0)
(2.03103 -0.202875 0)
(2.41238 0.757057 -2.74053e-19)
(1.62619 0.10628 0)
(2.2049 -0.410995 1.22769e-19)
(1.26887 -0.613609 3.15223e-19)
(0.109754 -0.167749 -1.77897e-19)
(0.873184 0.548729 0)
(1.60992 1.1444 -1.95775e-19)
(2.44575 -0.903068 0)
(2.00022 -0.492471 3.13682e-20)
(2.16591 0.00952241 8.37591e-21)
(0.988527 -0.557911 -2.89166e-19)
(1.60592 0.434421 -2.33371e-21)
(3.91124 0.595165 0)
(2.15724 0.0449062 8.37633e-21)
(2.02406 -0.586878 -2.4451e-20)
(-0.207124 0.524164 -6.45339e-19)
(1.74089 0.191679 5.92344e-21)
(2.22905 0.583299 -8.88556e-20)
(2.33457 0.0143837 1.02021e-20)
(1.5786 0.00309618 1.09891e-19)
(1.04699 -0.461076 -1.08442e-19)
(2.62668 0.143476 4.0444e-21)
(1.45511 -0.670633 0)
(2.43216 -0.0218456 0)
(1.82291 -0.845211 2.76485e-19)
(2.11453 -0.136728 -8.56717e-20)
(1.77803 0.16393 3.10835e-19)
(1.75046 1.22832 1.90183e-19)
(2.04375 0.045472 -3.32974e-19)
(2.60729 -0.057301 -2.56828e-19)
(-0.117935 0.139441 -6.34098e-20)
(2.066 -0.522212 0)
(-1.94578 0.264738 -1.59103e-18)
(0.334198 -0.561902 3.96371e-20)
(1.99649 0.0321077 1.94042e-19)
(2.27956 0.10611 6.39498e-22)
(1.82549 -0.396603 0)
(2.69163 0.0574815 -7.02092e-21)
(2.33341 0.0429542 -2.93668e-20)
(1.03151 -0.391183 9.09879e-20)
(2.19182 -0.108481 0)
(0.704838 -0.280901 0)
(1.99317 0.00992854 0)
(2.34838 -0.39823 0)
(3.10149 -0.909347 -1.02485e-19)
(1.78033 0.263955 0)
(0.86849 -0.410857 -4.15785e-19)
(1.13144 0.528401 -3.41628e-21)
(1.82599 0.0452508 8.87861e-21)
(2.49135 -0.0710168 -6.01233e-20)
(2.1996 -0.059751 0)
(1.34666 0.992026 -3.87572e-19)
(0.469929 0.273809 -7.10431e-19)
(3.0205 0.507434 0)
(1.9511 -0.067249 2.36236e-19)
(0.00251738 1.33812 -2.33276e-19)
(2.09065 0.488088 0)
(2.7233 -0.0383574 0)
(1.3 -0.409285 6.6024e-19)
(1.77641 0.290726 -4.66528e-19)
(2.27648 0.0173415 -5.99599e-20)
(1.31633 -0.626969 6.00688e-20)
(-2.05948 0.487102 -1.3388e-18)
(0.392972 -0.17461 0)
(2.34638 0.00742065 2.00153e-20)
(1.99118 0.626998 -2.91824e-19)
(2.29936 -0.867133 -1.17079e-19)
(-0.657723 0.257112 1.30897e-19)
(0.163743 0.113338 3.32147e-19)
(2.04392 -0.00549155 -1.7735e-19)
(0.363334 0.348003 6.6806e-19)
(0.187232 0.148996 2.98149e-18)
(0.819549 0.860684 -1.0718e-19)
(1.37671 -0.52058 -2.57647e-19)
(1.66101 0.0258829 1.95316e-20)
(2.42322 0.750692 -5.42947e-20)
(0.656484 -0.170285 3.79427e-19)
(0.606533 -0.384241 4.7881e-19)
(2.35784 -0.922433 0)
(2.2589 0.0881243 2.45719e-21)
(0.600476 -0.711202 4.18838e-19)
(-0.0689866 0.0386797 -3.31463e-19)
(-3.08471 1.32487 0)
(0.266716 -0.25032 0)
(1.95775 -0.0571327 -2.17517e-20)
(0.3002 -0.113963 2.19131e-19)
(1.73682 0.0664567 -2.10943e-19)
(-0.180916 0.0726705 -1.48632e-19)
(0.425868 -0.349929 0)
(1.38322 -0.57474 2.78747e-21)
(2.5782 3.0124 -1.16848e-18)
(-0.705118 2.05842 -7.11888e-19)
(1.17031 1.89487 0)
(2.96923 -0.392806 0)
(2.11048 -0.116076 0)
(-0.679028 0.88645 -2.24901e-19)
(3.06681 -0.133678 1.73436e-19)
(1.15647 -0.362063 -3.93422e-19)
(2.94178 -0.0691161 -1.92695e-19)
(4.50001 0.456129 -1.15874e-18)
(0.444939 0.758509 0)
(2.03002 -0.0124898 0)
(2.6201 -0.0697231 1.8189e-20)
(2.20102 -0.0382197 6.53093e-20)
(1.48628 0.0034171 -1.06007e-19)
(-0.502386 1.87647 0)
(-1.17677 -0.40043 2.45514e-19)
(1.29614 -0.232971 -2.00607e-19)
(2.25176 0.459012 -1.35305e-19)
(2.38479 -0.598214 -7.60107e-20)
(1.13431 0.237044 -1.37225e-19)
(2.43394 0.127685 0)
(2.18327 0.0179961 -5.19456e-20)
(2.04188 -0.0231037 0)
(2.10366 0.0120513 -1.05196e-19)
(2.25182 -0.151025 -1.54523e-20)
(2.67684 0.138272 -1.68729e-20)
(1.83164 -0.487314 3.10498e-19)
(1.8437 0.271883 2.68333e-19)
(0.644256 -0.806824 -6.68818e-19)
(2.15054 -0.809629 -1.13169e-20)
(1.99321 1.4483 4.52884e-20)
(2.06602 -0.00662246 0)
(2.09881 -0.415592 0)
(0.260161 -0.416045 0)
(2.32824 -0.00160247 1.66413e-21)
(-0.814342 0.191482 1.47797e-20)
(1.0693 -0.526885 2.36407e-19)
(2.14546 -0.087837 -1.05125e-19)
(2.47077 0.783182 1.79147e-19)
(0.507285 -0.172129 6.25983e-19)
(1.51958 1.64313 1.31341e-19)
(2.65497 0.0372223 7.92193e-21)
(2.29268 -0.0167243 1.65213e-19)
(1.12127 -0.502425 0)
(1.90507 -0.202283 -1.9088e-19)
(-1.07389 -0.369577 -4.36807e-19)
(3.08884 0.377436 -2.23011e-19)
(-0.156574 -0.349963 -1.26234e-20)
(1.89616 -0.413972 9.81431e-21)
(1.56964 -0.521061 2.61015e-19)
(1.9741 0.692184 0)
(2.00025 0.0309749 -9.09209e-20)
(1.29687 -0.545474 -6.10026e-19)
(1.69996 -0.214644 2.15824e-20)
(1.62577 -0.768898 0)
(2.34724 -0.0357842 -5.03812e-20)
(1.28181 -0.616506 1.63996e-19)
(3.10759 -0.446133 4.65807e-19)
(2.04633 -0.811307 -6.51415e-20)
(2.2286 0.0717337 -1.8679e-19)
(2.33906 0.251146 -2.11029e-20)
(1.21731 -0.599743 2.2361e-19)
(2.2304 -0.0231432 8.92237e-20)
(2.11363 -0.372096 0)
(2.25668 -0.960803 1.44327e-19)
(1.98738 -0.814679 -2.66925e-19)
(1.90019 -0.0982926 3.90103e-20)
(2.00945 0.00651571 3.45042e-20)
(1.40986 0.959209 0)
(1.84002 -0.358142 0)
(2.18957 -0.0159633 -8.69868e-20)
(0.350675 0.258669 6.57964e-20)
(2.23543 1.1419 0)
(2.22574 0.00247456 6.23543e-20)
(2.76308 -1.13196 -1.68507e-20)
(1.11887 0.0880107 -5.57296e-19)
(1.11204 -0.497874 -3.44425e-19)
(-0.330211 0.667861 2.39089e-19)
(2.03221 -0.119476 6.56552e-20)
(-0.451046 0.627099 9.42307e-19)
(4.11896 0.392235 -6.13185e-19)
(1.85325 -0.0124878 0)
(1.59357 -0.24523 -7.75346e-20)
(0.862475 -1.60419 0)
(1.98173 0.0247632 -4.28825e-19)
(2.29915 -0.326657 0)
(1.96048 0.0115636 -5.67385e-20)
(1.75315 -0.237585 1.44406e-20)
(2.21086 -0.385984 -1.2075e-19)
(1.36033 -0.552874 3.39863e-19)
(1.99457 0.00294276 -3.20302e-19)
(1.98635 0.126481 -5.46698e-19)
(2.88978 -1.03649 0)
(0.182075 0.424061 0)
(1.43389 -0.585727 -3.21225e-19)
(2.09722 -0.400089 0)
(3.02732 0.977601 -2.82747e-19)
(1.59998 -0.549828 0)
(0.228287 -1.09751 8.53007e-20)
(1.30001 -0.936218 1.31363e-18)
(2.04404 -0.616949 2.10816e-19)
(1.28964 1.42207 3.79799e-20)
(2.85857 0.0572214 0)
(1.72281 -0.231642 -1.69147e-20)
(1.795 0.0204722 -1.36193e-19)
(2.15387 -0.974624 -2.60017e-19)
(2.00838 -0.0159423 -1.6126e-19)
(2.71433 0.14066 3.21262e-21)
(2.42318 -0.234071 -4.81996e-20)
(2.54919 1.03763 -7.78498e-22)
(2.31875 0.415717 1.55828e-19)
(0.370389 0.207341 -1.42157e-19)
(1.9545 -0.550711 0)
(3.1556 2.98655 1.82539e-18)
(1.99469 0.0445063 -1.63363e-19)
(1.94256 0.0176311 0)
(2.00021 -0.0030181 1.22103e-19)
(1.44692 -0.688019 -1.10777e-19)
(1.49957 0.872345 3.00995e-19)
(2.05229 0.375301 0)
(1.66946 -0.782729 5.88768e-20)
(-0.787154 -0.993543 0)
(2.14173 0.0382229 7.91758e-20)
(3.0773 -0.290123 -2.41118e-19)
(0.227195 0.830954 4.2293e-19)
(1.26759 -0.25341 0)
(1.65146 0.102039 2.05997e-19)
(1.98539 0.0158199 1.3613e-19)
(-0.350302 0.22805 0)
(1.56076 0.0235617 0)
(2.16082 -0.112734 0)
(0.752416 -0.436674 1.16158e-18)
(1.38512 1.50567 6.10676e-20)
(2.94137 0.171899 0)
(1.99679 0.00594835 0)
(1.08659 -1.70968 1.10583e-18)
(0.951803 -0.0584963 0)
(2.22761 0.403554 1.10728e-19)
(2.36012 1.10447 -5.61713e-20)
(1.8814 -0.683157 -5.16321e-20)
(1.80816 0.23908 -6.3126e-21)
(1.10352 0.158961 6.39851e-19)
(2.32657 1.23451 8.88642e-21)
(2.23439 0.0649469 8.30261e-22)
(2.21782 -0.0349185 7.79864e-20)
(1.77956 -0.248075 -1.75412e-19)
(1.28238 -0.745991 6.79739e-21)
(2.01224 -0.00333367 0)
(-0.687715 0.727798 -9.11611e-19)
(0.61216 -0.573522 0)
(-0.379507 1.5189 -2.06403e-19)
(2.9258 -1.76133 0)
(1.64946 -0.493788 0)
(1.71748 -0.7954 4.24374e-20)
(2.42336 0.104827 1.04136e-20)
(-0.233252 0.0450852 -2.91489e-19)
(2.17967 0.0153365 -1.07396e-20)
(2.15324 -0.775643 2.26193e-20)
(2.49483 1.06854 -3.55704e-20)
(-0.328434 -0.357156 2.64302e-19)
(2.65793 -0.00508956 1.18068e-20)
(2.66584 -0.871903 -2.20637e-19)
(1.96898 0.00710557 -2.8838e-19)
(-0.0530031 -0.568079 0)
(1.97028 -0.163305 -2.92993e-19)
(2.11157 -0.474863 1.11157e-19)
(1.99434 0.05783 -6.81602e-19)
(1.89949 -0.522416 -1.58387e-18)
(1.44566 0.847296 -2.04939e-19)
(2.30165 1.14221 -5.35978e-20)
(3.21702 0.69562 0)
(2.78456 -0.558599 0)
(0.0824515 0.0691676 -9.47346e-20)
(2.21719 -0.0601386 4.68949e-20)
(-0.317426 -0.178183 0)
(2.29175 -0.00237231 -4.1483e-20)
(2.00602 -0.00945212 -2.75422e-19)
(1.28668 -0.119861 -1.04245e-18)
(-1.34714 0.542103 4.12085e-18)
(2.36486 -0.265339 -2.03158e-21)
(-0.858174 2.05019 -1.7132e-20)
(2.38968 0.154867 1.90756e-19)
(2.23992 -0.383089 3.06373e-20)
(2.77498 1.14896 1.04623e-19)
(1.7924 -0.727618 1.7079e-19)
(1.67622 -0.220097 3.61325e-21)
(1.19327 0.0481452 4.54567e-19)
(1.59502 1.68624 0)
(1.955 -0.521871 1.02418e-19)
(-1.84428 0.136095 0)
(1.05574 -0.461616 -9.82752e-19)
(-0.111622 2.0864 0)
(1.329 -0.809504 -2.80623e-18)
(1.91453 -0.793758 -1.70289e-19)
(0.543152 0.39868 -4.1381e-20)
(2.91756 -0.989533 0)
(-1.58335 1.76547 0)
(3.10059 0.597523 0)
(2.00039 0.0579485 1.19889e-19)
(-0.0529227 -0.91773 -4.55504e-19)
(-0.0834455 0.301404 1.96938e-19)
(1.79845 -0.382181 -7.42812e-21)
(2.70653 1.19454 -1.67612e-19)
(2.01999 0.16844 0)
(1.13373 1.25219 5.84232e-19)
(2.05582 1.08606 -1.2093e-19)
(-0.650725 -1.07373 -1.67451e-19)
(2.10113 -0.924425 -2.14225e-19)
(1.97967 -0.476162 1.50878e-20)
(1.50732 -0.712402 7.54558e-20)
(2.1353 0.415716 0)
(3.07698 -0.265731 2.30573e-19)
(0.724139 0.643313 1.69062e-19)
(2.05411 -0.0208094 8.76739e-21)
(2.97888 1.09542 -1.20777e-19)
(3.5076 -1.61135 0)
(2.27287 0.697841 0)
(-0.155854 -0.0371932 0)
(0.451643 -0.462636 0)
(1.69428 0.0452852 0)
(1.65544 -0.631212 9.33116e-20)
(2.97894 1.27171 2.24978e-19)
(1.70266 -0.705804 2.28754e-19)
(2.09292 0.048214 1.96922e-19)
(-1.54789 0.129306 0)
(2.66818 -0.93583 1.2622e-21)
(-0.248799 0.349533 0)
(-2.35719 0.723099 -1.09112e-18)
(-0.193488 0.147344 1.21124e-19)
(2.74178 0.965129 -1.74648e-19)
(1.97563 0.0427611 3.42733e-19)
(1.99424 0.173376 -1.28663e-19)
(2.61799 0.478097 -6.10424e-20)
(2.48831 0.0201482 0)
(-0.216719 -0.663479 2.91379e-19)
(2.00058 0.00500349 0)
(1.51958 0.550563 1.7086e-20)
(2.18491 -0.0541143 0)
(2.03495 0.137377 -1.83424e-19)
(2.1631 -0.0463819 0)
(1.15817 -0.482276 -2.44191e-19)
(0.404921 -0.273524 7.06809e-19)
(2.83544 -0.215943 -1.65426e-19)
(1.4878 0.147364 4.19665e-19)
(1.02307 -0.599352 -2.34538e-18)
(4.03587 -0.834324 0)
(1.26909 -0.384241 -9.35244e-19)
(1.62465 -0.238581 -7.11917e-21)
(2.89395 0.660676 -4.71188e-19)
(1.60509 0.0297698 -1.09772e-20)
(1.37275 0.595012 6.70405e-20)
(1.65354 0.852278 0)
(2.18685 -0.92224 1.26145e-20)
(2.35904 -0.985148 0)
(2.02317 -0.0107227 1.62162e-20)
(0.761645 -0.321192 6.63704e-20)
(-1.44115 0.754849 0)
(2.26048 0.394288 0)
(-0.622928 0.991042 -1.75611e-18)
(2.23383 0.637951 0)
(1.44609 1.23517 5.89453e-19)
(2.45538 0.975516 2.52581e-20)
(1.06361 -0.468355 -3.06142e-19)
(-0.0396045 0.165306 -1.81167e-18)
(1.98368 0.0028316 -1.64967e-21)
(1.33287 3.24824 -3.12867e-19)
(0.284108 -0.149651 -4.45495e-19)
(1.97524 -0.046688 3.47332e-19)
(1.38869 -0.348641 1.18399e-18)
(1.61391 -0.90182 0)
(2.32113 0.195109 1.38104e-19)
(-1.86172 0.989645 2.24558e-18)
(0.711501 -0.0698373 7.53658e-20)
(3.00756 0.873849 3.00788e-19)
(2.18391 1.37165 0)
(2.09697 -0.523933 -1.13637e-19)
(1.62692 -0.411277 9.24584e-22)
(1.0477 0.646461 -1.78456e-20)
(2.93414 0.0658066 -1.91343e-19)
(-2.52009 1.70753 9.83381e-19)
(-1.0826 1.26196 5.01767e-19)
(1.71765 -0.689668 -5.64034e-20)
(-1.29182 0.498947 -9.09114e-20)
(3.06478 0.127128 -2.85035e-19)
(-2.4561 1.38486 -1.10613e-18)
(3.5542 -1.33927 0)
(2.05871 -0.164661 -2.56429e-19)
(-0.901135 0.114448 0)
(-0.448621 3.66785 -1.77461e-18)
(-0.54181 0.346189 1.10847e-19)
(-0.823422 0.151689 2.36214e-19)
(1.79467 -0.262497 4.37331e-21)
(0.675986 -0.425505 7.32898e-20)
(-0.773554 0.405146 0)
(2.86999 -0.738666 -8.14733e-19)
(3.08456 -0.957517 -4.31721e-19)
(-0.886876 0.284233 -2.27816e-19)
(1.75371 0.33561 0)
(1.68664 0.287949 0)
(0.522057 0.050448 0)
(-0.067988 -1.18703 -6.94999e-19)
(2.00569 -0.0798912 -3.07992e-19)
(1.47808 -0.0227888 0)
(1.46098 0.814604 0)
(2.19117 0.15483 -5.76831e-20)
(0.30633 1.97133 -6.21098e-21)
(2.04371 0.21322 -5.71393e-19)
(4.32282 1.36505 -1.85396e-18)
(1.577 0.0268023 1.47308e-19)
(2.1426 -0.148694 -8.11976e-20)
(1.75512 -0.243576 2.05537e-20)
(1.88876 0.378291 -3.67644e-20)
(1.66827 0.888872 0)
(0.281009 -0.175415 -1.13148e-21)
(-0.746993 -0.76351 0)
(1.23609 -0.0647374 0)
(2.72104 0.507095 -2.75417e-20)
(-1.41326 0.303299 0)
(2.33266 0.402463 0)
(2.06935 -0.130593 3.99675e-19)
(2.51803 -0.970838 0)
(1.9923 0.119814 5.5406e-19)
(2.96765 0.975388 1.21036e-19)
(2.79311 0.904237 3.35132e-20)
(1.61788 -0.19974 -2.78162e-21)
(1.15472 0.769819 3.32672e-19)
(2.96965 -0.850598 -1.67412e-20)
(3.41616 -0.92082 7.6929e-20)
(1.40782 -0.567002 3.21204e-19)
(0.514965 0.556488 0)
(1.18716 -0.586081 0)
(0.0598001 -0.0881372 -9.42159e-19)
(0.391356 -0.296889 -9.40886e-19)
(-1.42854 2.61011 0)
(1.09057 0.496312 2.45247e-18)
(0.283206 -0.114944 0)
(-0.524259 -0.559748 2.76614e-19)
(1.36719 -0.636679 -3.97786e-19)
(3.11136 0.856683 -6.04977e-21)
(2.70987 0.980344 5.02909e-20)
(1.45507 -0.525918 6.34988e-20)
(2.99888 0.0647019 1.04833e-19)
(2.07302 0.779742 0)
(2.13643 0.787121 0)
(1.28472 -0.175649 0)
(-0.53332 0.350611 -1.31843e-19)
(1.65774 -0.629985 0)
(2.07536 0.573876 0)
(1.60421 0.0301155 0)
(2.01665 0.816109 7.91009e-20)
(0.568242 -0.589649 1.24217e-19)
(2.53065 -0.782143 1.79243e-19)
(-0.0959101 -0.946865 1.97249e-18)
(1.77376 -0.599351 0)
(-1.36778 1.08366 0)
(2.38649 -0.5173 6.98126e-20)
(1.61145 0.304388 6.97068e-19)
(0.575696 -0.361616 -4.21481e-19)
(2.46123 -0.088885 1.27973e-21)
(1.99083 -0.493407 1.7418e-19)
(1.16177 0.196577 -1.03559e-18)
(0.475037 -0.27235 0)
(1.19259 0.87602 -8.02055e-19)
(0.666162 0.0218829 -6.41868e-19)
(2.84854 0.830339 0)
(2.22355 0.00667018 0)
(2.43105 -0.0141354 0)
(2.03794 0.0176858 -3.81679e-19)
(1.55087 0.0866772 -4.202e-19)
(1.75046 -0.00968005 0)
(1.9466 1.14445 2.65102e-19)
(2.19167 -0.919869 -4.67819e-20)
(2.11941 0.393453 -2.27149e-20)
(0.316344 -0.461567 6.50828e-19)
(2.26242 -0.171821 0)
(2.43325 0.111042 -1.27574e-19)
(2.02642 -0.436019 0)
(-2.15813 1.49526 -2.18994e-18)
(2.11214 -0.910831 0)
(2.70446 -0.681058 -6.16511e-19)
(4.07914 1.37492 1.748e-20)
(2.16343 -0.635223 5.40584e-20)
(2.19956 0.41192 0)
(2.19062 -0.870147 0)
(1.88089 -0.789707 -2.08556e-19)
(2.21014 0.373243 -1.22332e-19)
(-2.70903 0.949172 6.20763e-19)
(1.08676 -0.525968 3.35745e-19)
(2.04995 -0.0940697 0)
(1.6669 0.048619 -6.16412e-19)
(2.36267 0.0109925 -1.48933e-19)
(0.691655 -1.4688 -8.77465e-19)
(1.99505 -0.480386 2.93375e-20)
(1.83722 -0.140663 0)
(1.42852 -0.484126 4.64056e-19)
(1.1883 -0.0337505 -6.14439e-19)
(2.84842 1.11215 3.56901e-21)
(1.84631 0.0925002 -7.59181e-19)
(0.317776 -0.599013 6.65206e-19)
(0.057502 0.751087 -7.09848e-19)
(3.04487 1.86182 1.60206e-18)
(2.17349 -0.027625 -2.3478e-20)
(0.243281 0.258003 2.01539e-19)
(-0.163014 0.0823908 -1.98419e-21)
(-0.339908 -0.308997 1.16747e-18)
(-2.52924 0.808772 1.14586e-18)
(1.97162 -0.238452 9.80124e-20)
(2.21956 0.0617754 0)
(0.199085 -0.543493 3.42784e-19)
(1.5248 -0.723892 1.8594e-20)
(1.88878 -0.288836 1.51701e-19)
(-0.205629 0.227604 0)
(1.86164 -0.446009 -3.68307e-20)
(1.66929 0.0788763 -3.18593e-21)
(2.12882 0.0227108 0)
(0.878694 -0.144499 3.04758e-19)
(-2.85764 1.9464 4.42911e-19)
(1.76155 -0.475968 0)
(1.29137 -0.520066 0)
(1.18175 -1.98348 -1.07017e-18)
(0.648977 -1.17736 -3.10747e-19)
(2.67658 0.486875 5.4016e-21)
(-0.33872 0.262668 0)
(1.98823 0.0114184 -2.06163e-19)
(4.18056 -0.430139 -3.90691e-19)
(2.83371 -0.544401 -5.93504e-20)
(1.45966 -0.583865 3.90098e-19)
(-0.89651 0.0169369 -7.53665e-19)
(-2.07155 0.742964 4.82822e-19)
(3.17894 1.15088 -3.09037e-21)
(1.2181 1.71277 0)
(1.49556 0.744656 -2.07569e-19)
(1.86139 -0.72026 1.15461e-19)
(1.63405 1.42709 -5.82043e-20)
(1.03854 0.286677 0)
(1.38542 -0.387923 -4.34654e-19)
(1.46808 -0.628847 -4.65988e-19)
(-0.524655 0.168454 6.88056e-19)
(0.222028 -0.663444 -3.72601e-19)
(1.79977 1.27694 0)
(-0.124947 0.397755 -1.24826e-19)
(2.15358 0.477402 0)
(-1.18825 -0.817908 -2.78487e-19)
(-0.0494569 0.772048 3.41342e-19)
(-0.0638758 0.0528548 0)
(-1.14824 0.319766 2.76736e-19)
(1.81015 -0.188859 -7.19981e-20)
(0.855589 -0.584552 1.61562e-19)
(1.98529 -0.746285 1.49073e-19)
(0.337369 -0.233259 -1.44545e-18)
(1.44104 -0.660751 0)
(2.00102 -0.0047948 1.36346e-19)
(0.566062 0.600839 0)
(2.16736 0.18784 -1.11593e-20)
(-0.552141 0.480901 -2.97424e-19)
(0.820025 -0.37484 2.51248e-19)
(1.71048 -0.056067 0)
(2.29888 -0.810438 6.38192e-20)
(3.00854 0.561566 5.56049e-20)
(-1.72859 0.736464 1.04766e-18)
(-2.90344 1.79812 0)
(-1.79765 0.730993 -9.3508e-19)
(2.34894 1.036 -3.33792e-19)
(1.71524 0.0462776 7.91401e-19)
(3.3772 -1.25031 0)
(3.04352 -0.198358 4.1926e-19)
(-0.412336 0.608848 3.2117e-19)
(0.922136 -0.504811 -7.45264e-20)
(2.66265 -0.279802 -1.45057e-19)
(0.195875 -0.679319 0)
(2.51437 -1.12643 -1.4361e-19)
(1.47407 -0.317207 -2.78122e-21)
(2.02614 0.503988 -1.44177e-20)
(2.33735 0.0156433 0)
(-1.36692 1.20449 3.17463e-19)
(1.91309 -0.508596 4.12736e-21)
(1.50924 -0.487459 4.82294e-20)
(0.95524 0.664717 0)
(2.57923 -0.808977 1.98768e-19)
(-0.335671 0.137953 1.07238e-18)
(2.00508 -0.446755 -2.23102e-19)
(-0.198047 0.0759776 0)
(0.884728 -0.289273 -1.81174e-19)
(2.61594 -0.741165 -1.34533e-19)
(-0.0902774 -0.343125 -1.09247e-18)
(1.60914 -0.526254 0)
(0.954582 -0.526575 5.41269e-19)
(1.37735 -1.54189 0)
(-0.711756 1.12735 4.28562e-19)
(0.902632 -0.254833 0)
(2.04043 -0.138072 -1.52954e-19)
(2.28263 -0.0534098 -6.05781e-20)
(2.15602 1.14855 -1.32784e-19)
(1.02004 -1.91134 0)
(2.62859 -0.97086 3.6186e-19)
(2.00725 0.0036083 0)
(2.23612 0.385932 0)
(3.1032 -0.966705 -3.77955e-19)
(-1.11129 1.199 3.14027e-19)
(0.869324 -0.277967 1.61981e-19)
(2.56899 -0.378703 5.96409e-20)
(1.76322 0.144912 2.7922e-19)
(1.01849 3.79965 -1.04602e-18)
(2.02734 0.225367 2.59602e-19)
(0.65705 -0.176854 -6.96013e-20)
(-0.048512 2.01493 0)
(2.35958 0.295862 0)
(0.408958 -0.371242 0)
(-2.9217 2.12004 4.0534e-18)
(1.42608 -0.530967 -2.8495e-19)
(1.62601 -0.0448314 0)
(1.4866 -0.917415 3.61171e-18)
(2.2679 0.00528521 -4.91756e-20)
(0.643795 -0.776755 -1.04793e-18)
(1.63832 -0.598385 -7.75394e-20)
(3.00386 -0.854003 0)
(1.13493 -0.520448 5.28346e-19)
(0.906545 -0.152469 -6.91708e-19)
(-0.0374304 -0.137303 0)
(-0.272236 0.385587 -1.86209e-19)
(1.61332 0.0227047 -2.1358e-20)
(2.53465 -0.367686 1.87994e-19)
(2.01895 0.00423223 2.06552e-19)
(2.32886 1.00393 8.66325e-20)
(2.31082 0.220504 -2.63569e-20)
(-0.908501 -0.169316 0)
(2.39334 -0.795271 0)
(1.99845 -1.02734 3.92623e-18)
(-0.386105 -0.712838 0)
(1.85834 -0.414454 -3.81183e-20)
(2.81318 -0.695267 4.90772e-19)
(1.23166 -0.581935 3.44812e-19)
(2.74126 -0.265663 -1.5813e-19)
(1.79806 0.184704 -2.85316e-19)
(1.81737 -0.712783 -1.23406e-19)
(1.92117 -0.736464 -1.84928e-19)
(0.0101109 -0.461332 0)
(2.05489 -0.74796 1.07886e-19)
(2.27105 -0.294362 0)
(2.18432 0.623705 -1.60464e-20)
(1.73684 0.946308 7.35501e-20)
(0.446545 -0.174239 2.16551e-19)
(2.42292 0.0167779 6.21971e-20)
(-0.182937 -0.543796 -2.1041e-19)
(0.388379 -0.17541 0)
(-1.23734 1.36471 -5.06353e-19)
(-1.10235 2.00291 -5.2248e-19)
(1.99556 0.394715 -2.9992e-19)
(2.21477 -0.806867 -2.00012e-20)
(2.10391 -0.000667043 -9.45999e-21)
(0.401377 -0.682229 1.22373e-19)
(3.04671 -1.01168 6.39223e-19)
(0.67739 -0.126695 0)
(0.407012 -0.704785 3.25164e-18)
(2.03921 -0.392027 1.23726e-19)
(2.282 0.100552 1.28076e-22)
(1.44168 -0.637475 6.86971e-19)
(-0.997199 0.0209428 3.12316e-20)
(1.69469 0.37638 0)
(-2.42752 2.59329 -1.74747e-18)
(-1.49967 1.07252 -5.45981e-20)
(1.34169 -0.472291 -5.70585e-19)
(-2.48472 2.29082 1.7946e-18)
(1.73905 0.884229 -5.43438e-20)
(2.02203 0.379154 5.27985e-21)
(1.20992 -0.519096 2.62022e-19)
(2.06622 -0.382523 0)
(2.42106 0.229412 1.10321e-19)
(2.71425 -0.0118546 -3.52393e-21)
(2.58741 0.957438 -1.79099e-20)
(-0.836923 -0.43373 0)
(2.92596 1.2179 -8.274e-21)
(-0.904723 -0.796183 2.66652e-19)
(1.93365 -0.817015 3.47168e-19)
(0.135562 0.335529 7.66436e-21)
(-0.675625 -1.13424 -2.41807e-19)
(1.20132 -0.46162 1.05191e-18)
(2.48933 -0.751386 -2.57331e-19)
(2.4619 0.0594214 3.1115e-21)
(-0.578269 0.164213 -8.24745e-21)
(2.8631 0.141152 1.8685e-20)
(0.353635 0.800226 0)
(2.00117 0.0175219 0)
(2.19775 0.441054 0)
(2.12427 -0.756127 -5.49578e-20)
(0.789851 0.796725 1.6207e-18)
(-0.810121 0.350478 0)
(1.47255 -0.493308 -1.1726e-19)
(0.0157932 0.31971 0)
(2.93309 0.547473 0)
(-0.838005 0.202502 0)
(1.74818 -0.0259605 0)
(1.08994 -0.518069 -1.72154e-19)
(0.904892 -0.0865892 0)
(1.48802 1.21174 3.35702e-19)
(1.11226 -0.0285976 0)
(1.58502 -0.255754 0)
(1.94636 0.0979505 2.47327e-21)
(0.523847 -0.198382 0)
(2.19066 1.35361 0)
(-0.699839 0.406391 0)
(2.50098 -0.0252773 1.77155e-20)
(1.58683 -0.395358 0)
(3.31225 -0.81148 5.87667e-20)
(1.13323 -0.810667 9.49307e-21)
(0.945661 -0.293869 -1.92765e-19)
(1.98393 -0.00702048 6.09499e-19)
(0.0296417 -0.0567217 -1.59972e-18)
(1.16103 0.470244 -6.0095e-19)
(1.47282 0.423231 0)
(2.29371 0.205321 -1.77744e-20)
(1.87367 -0.242901 -1.48121e-19)
(1.44721 1.10661 2.30844e-19)
(1.81432 0.216535 4.58742e-19)
(1.04345 -0.43225 -5.8989e-19)
(1.80646 -0.781744 -1.81045e-19)
(0.790265 1.76792 4.17748e-20)
(-1.95436 1.6806 0)
(3.26616 1.26109 -5.59259e-19)
(-0.990749 1.61501 5.974e-19)
(2.50268 0.387596 4.56149e-20)
(0.474393 -0.328065 0)
(1.95646 -0.0367865 -2.30693e-19)
(1.96183 0.998834 -2.73041e-19)
(1.62208 -0.655197 3.16414e-19)
(1.50383 -0.682343 -4.03508e-19)
(2.05662 -0.912291 0)
(2.14838 -0.894151 0)
(1.65014 1.7131 6.70943e-19)
(2.46423 0.0826745 9.80756e-20)
(3.11557 0.71749 -1.43823e-19)
(1.85906 -0.0259075 5.34965e-20)
(1.45354 -0.467591 -1.11789e-19)
(1.99001 -0.547874 1.63704e-19)
(2.36006 0.297592 0)
(2.28317 0.274232 -9.94274e-20)
(1.24555 -0.289411 -8.88223e-19)
(0.164903 1.84653 2.05193e-18)
(4.35891 0.627512 -1.37937e-18)
(-0.644325 0.52148 1.89103e-19)
(2.87928 0.764282 1.20077e-19)
(2.31324 0.671412 -1.27136e-19)
(2.2084 0.501767 0)
(-2.92233 1.13488 0)
(3.14825 -0.742196 4.43835e-20)
(1.40493 -0.407295 0)
(2.13799 -0.393393 5.42932e-20)
(1.71829 0.104207 4.70524e-19)
(1.72244 0.276267 -1.55601e-19)
(1.88317 -0.747509 4.06062e-19)
(1.49665 -0.39636 1.20713e-21)
(1.46218 -0.102692 0)
(2.23543 -0.110708 -8.57044e-21)
(-0.682541 0.476623 -3.66332e-19)
(2.07366 0.214364 0)
(1.96516 0.689299 0)
(2.35069 -0.840829 -6.19286e-20)
(1.88851 0.363075 3.02685e-19)
(1.32174 -0.347609 0)
(3.87365 0.803766 1.4213e-19)
(2.81785 0.0561801 3.31229e-20)
(2.23817 0.28622 1.4205e-19)
(1.79759 0.26844 4.58537e-19)
(-1.23934 1.038 -2.31785e-18)
(0.882986 -1.74994 0)
(-0.477322 -0.423024 -4.88989e-19)
(0.759213 -0.358609 8.98657e-19)
(2.03341 0.0155625 1.301e-20)
(-0.703812 -0.62594 -2.38002e-19)
(2.17639 -0.834519 5.17242e-22)
(2.44251 0.418106 -1.55913e-19)
(-0.0855573 2.03656 0)
(1.99158 0.0569812 2.48914e-21)
(1.93723 -0.0482336 6.93229e-20)
(1.91166 0.0110947 -5.89454e-20)
(2.05897 0.415941 -3.16909e-19)
(2.99032 -0.679257 0)
(0.360264 0.454708 0)
(2.50219 0.0228921 0)
(2.16755 0.36568 -2.34311e-19)
(1.31216 -0.617468 5.28989e-19)
(1.93443 1.35727 6.06065e-20)
(1.6697 -0.21338 0)
(0.446229 -0.394383 -1.71812e-19)
(-3.13226 1.76999 1.62063e-18)
(0.238523 0.0999845 0)
(1.91153 0.155089 -1.43397e-19)
(1.73695 0.0867681 -1.51747e-19)
(3.24556 0.297549 -5.16057e-20)
(2.01007 -0.608983 2.45783e-20)
(0.948171 -0.399567 0)
(2.09177 0.145706 -3.36422e-19)
(2.31094 -0.314705 0)
(2.2833 -0.159904 1.33918e-20)
(1.22732 -0.133842 0)
(2.03536 0.671758 3.25781e-19)
(2.0131 -0.771491 -1.13614e-19)
(2.17381 0.694291 0)
(1.97229 -0.150507 -2.96273e-19)
(1.87842 -0.295568 -2.62671e-20)
(2.52865 -1.39412 0)
(1.41196 -0.664376 0)
(0.810774 -0.0762991 -8.36575e-20)
(2.03563 -0.00581587 -1.01044e-20)
(-2.28595 1.73639 -8.35926e-19)
(1.80937 2.78421 5.0015e-19)
(2.84765 0.0446275 -1.29099e-20)
(0.700624 0.839094 2.99349e-19)
(1.78273 0.221086 -1.89404e-21)
(1.96777 0.3983 0)
(2.81491 1.10354 1.08075e-19)
(2.12867 -0.922956 0)