/*--------------------------------*- C++ -*----------------------------------*\
| =========                 |                                                 |
| \\      /  F ield         | OpenFOAM: The Open Source CFD Toolbox           |
|  \\    /   O peration     | Version:  2306                                  |
|   \\  /    A nd           | Website:  www.openfoam.com                      |
|    \\/     M anipulation  |                                                 |
\*---------------------------------------------------------------------------*/
FoamFile
{
    version     2.0;
    format      ascii;
    arch        "LSB;label=32;scalar=64";
    class       surfaceScalarField;
    location    "0.3";
    object      phi;
}
// * * * * * * * * * * * * * * * * * * * * * * * * * * * * * * * * * * * * * //

dimensions      [0 3 -1 0 0 0 0];

oriented        oriented;

internalField   nonuniform List<scalar> 
20045
(
1.33978
-1.49959
0.159805
-2.75398
1.08596
1.66802
0.617355
4.14264
-4.76
0.724081
-0.923709
0.199629
-2.27442
2.15889
0.115528
-1.2209
5.03152
-3.81062
-2.75589
1.02739
1.72851
0.163638
1.16549
-1.32913
1.24299
1.09684
-2.33983
-1.80781
-0.559651
2.36747
-0.383538
1.53898
-1.15544
4.96271
-2.62852
-2.33419
1.01262
-1.0081
-0.0045201
-3.16976
2.36156
0.808207
-0.711235
2.71152
-2.00028
-2.69597
0.888161
-0.378461
0.207789
0.170673
1.77436
0.441714
-2.21607
-3.98208
5.85076
-1.86868
-1.90658
0.0193773
1.8872
1.04475
-1.00248
-0.0422702
0.352531
0.660084
-0.507269
-2.24671
1.46253
1.36589
-2.82843
2.23365
0.217898
-2.45155
-1.48943
2.95197
0.865459
-0.901386
0.0359269
-2.39434
4.63974
-2.2454
4.40641
0.493978
-4.90039
-4.68404
2.92964
1.7544
-0.350797
-0.88119
1.23199
3.57533
-2.89034
-0.68499
-1.64917
2.91874
-1.26957
5.31447
-3.16214
-2.15233
-1.49407
1.65771
5.68352
-2.87218
-2.81135
3.55593
0.744354
-4.30029
-0.171432
1.06158
-0.890146
-5.32743
2.14754
3.17989
1.53789
1.31766
-2.85555
0.129229
1.13584
-1.26507
0.520509
-0.711361
0.190852
5.32457
-5.38921
0.0646385
3.65719
-1.20271
-2.45448
1.49628
2.16091
2.435
2.52772
1.92224
-2.06941
0.147177
3.08168
1.49372
-4.5754
4.69864
-1.14271
0.23068
3.97956
-4.21024
3.12442
-5.41233
2.28792
4.8107
-3.53421
-1.27649
-2.02321
-2.37316
4.39637
-0.244179
-0.811778
1.05596
0.358641
0.683274
-1.04192
-1.83534
-0.439076
0.308888
3.45965
-3.76854
4.31103
0.212444
-4.52348
1.59728
-3.24645
5.2474
-3.67839
-1.56901
-0.189591
1.34926
-1.15967
1.91545
3.33195
2.14849
-3.46782
1.31934
0.922975
0.121779
1.10271
0.971899
-2.07461
4.03435
0.780395
-4.81474
-0.250579
0.866203
-0.615624
-1.74492
0.285719
1.45921
2.22069
-0.977708
4.82214
-4.81537
-0.00677385
-0.684777
0.434198
-1.5347
1.89334
-0.72961
-2.54072
3.27033
-0.0062183
0.727656
-0.721438
4.49494
-0.627432
-3.86751
3.3569
-3.04801
-0.23375
4.72869
1.30962
-2.02086
-1.3056
1.91757
-0.611968
1.91903
-3.41583
1.4968
2.55991
2.97287
-5.53277
2.24071
-1.91475
-0.325962
2.85069
-0.702205
-5.16108
0.868686
4.2924
0.0169908
1.32279
-1.21351
1.58005
-0.366547
2.75443
-3.98776
1.23333
-3.91463
-0.0105113
3.92514
2.47844
0.492376
-2.97081
-2.33871
1.88847
0.450239
-3.92229
0.225198
3.69709
1.93945
-0.368635
-1.57081
1.08182
-1.60146
0.51964
-0.538079
-1.96133
2.49941
1.56714
-1.66615
0.0990112
3.6678
1.01784
-4.68564
0.782807
0.0826518
0.0720316
-0.855286
0.783254
3.05523
-1.51734
-0.387251
-0.0052021
0.392453
3.97374
1.70978
-1.41995
-1.74981
-0.940744
1.01278
-0.820486
5.13152
0.0795619
-1.29307
0.311904
-0.699154
1.07428
3.03912
-4.1134
3.21615
-4.84655
1.6304
0.616631
-1.2725
1.09238
0.180118
-0.823684
1.01903
-0.195349
3.2646
-2.69223
-0.57237
-1.33253
1.08835
3.33077
-5.22164
1.89087
-0.565242
0.938907
-0.373665
0.150616
-0.983735
0.833119
2.8011
-0.567448
4.07
1.24447
-3.01592
2.28631
3.44525
-5.11239
1.66714
-0.551438
2.32579
1.1027
-1.29229
-2.06206
1.67888
0.383188
-2.11128
0.262992
-1.56355
1.30056
3.43497
1.37573
2.82538
-3.69979
0.874415
3.957
0.460699
-4.4177
-5.16997
4.11279
1.05718
-1.48902
-1.04007
2.52908
5.08741
-1.65244
-2.14501
0.075602
3.34974
-2.77533
-0.574417
-0.479494
0.51056
-0.0310658
2.8302
1.93895
-4.76914
3.15826
-2.82623
-0.332025
-0.890577
0.226265
0.664312
-0.888906
-0.38359
5.71069
-2.26544
-1.73952
1.84342
-0.103894
2.63052
-4.34101
1.71049
1.37493
-3.39814
2.13804
1.61128
-3.74932
3.67461
-1.75558
4.92773
-0.710348
-4.21738
0.563198
-2.4222
1.859
4.65894
-3.29644
-1.3625
-0.666423
0.959582
-0.293159
0.161002
4.28526
-4.44626
5.32851
-0.922095
-4.11265
0.0867405
4.02591
-2.59488
2.17001
0.424869
4.93941
-2.37951
0.644691
1.59602
-3.21523
3.7743
-0.559068
-3.376
3.99336
0.0658055
-1.16574
1.09993
0.882112
-1.05779
0.175673
-0.0989909
-0.990791
1.08978
4.20372
0.0320873
-4.2358
5.66642
-2.73306
-2.93335
-1.18192
1.08293
3.34338
-4.07472
0.731338
0.646035
-0.125526
-4.3547
-2.55394
3.12212
-0.568182
-3.13373
2.5992
0.534539
-0.0697166
-0.233822
0.303538
1.72594
2.933
-0.12154
-0.357954
2.57533
0.774418
-3.44609
0.230853
-3.82365
4.61594
-0.792294
-3.40407
3.77266
-0.36859
-3.08928
-2.02974
5.11902
0.305327
-1.38615
1.08083
1.85197
-2.41863
0.566663
3.06793
0.642249
-3.71018
0.027854
-3.71192
3.68406
-2.12782
4.26586
1.02281
-2.842
1.81919
-1.85497
5.18574
-3.98377
2.89401
1.08975
-0.669635
0.780787
-0.111153
1.89393
-4.94655
3.05262
-4.00278
1.60844
-3.08733
-1.93217
4.5161
-2.97217
-1.54393
-1.47113
1.60036
0.967912
-1.0355
0.0675838
-3.78602
-1.06884
4.85486
-3.78938
5.2845
-1.49512
4.89735
-3.36148
-1.53588
0.212505
-1.2558
1.0433
-1.1147
-2.67103
3.78573
-1.26231
0.878775
-2.08803
0.599015
-2.84429
-1.17634
4.02063
0.684345
0.158527
-0.842873
0.152291
-2.70623
0.733931
-1.08473
4.23369
-0.276693
-0.899917
0.728485
-1.04391
1.242
-0.198086
-0.779328
4.98304
-3.99516
2.88046
0.419307
-0.0185566
-0.400751
-3.55407
0.786395
2.76768
1.70198
3.19537
5.20641
-3.31247
3.12349
-4.97801
1.85452
1.53804
-3.15229
1.61425
0.254368
-2.16094
-2.4096
3.48387
3.15205
-4.37296
0.5818
-3.11819
2.53639
-5.05747
2.57216
2.48531
-0.420522
-1.91819
0.94899
0.783399
-1.73239
2.72807
-0.378395
-2.34967
-0.383664
-2.95086
3.11187
-1.34911
-0.39041
2.82212
4.02526
-3.79827
-0.226991
-0.0517379
-0.745837
0.797575
3.27851
0.216855
-3.49537
0.742474
0.698918
-1.44139
0.0602509
2.83125
-2.8915
-1.49215
4.24658
2.95231
-1.92949
-0.618576
1.5198
-0.901229
3.60171
-0.971191
0.676899
-0.0630641
-0.613835
0.855605
0.282257
-1.13786
-0.785108
0.819534
-0.034426
4.49301
-3.06913
-1.42388
1.08296
-4.87234
-0.875503
0.0903952
-4.12691
1.09957
3.02734
4.12861
-1.20987
1.07114
-4.89479
6.05482
-2.90324
-3.15158
-0.106687
0.791032
4.75235
-2.02452
-2.72783
-3.0196
0.534444
2.48515
-4.69728
4.56092
0.136359
1.53347
-3.28223
1.74875
0.825176
0.263146
-1.08832
-2.48321
3.07039
-0.587181
0.175485
-1.04047
0.864985
-0.861056
0.295814
-0.999715
0.176031
-3.3457
-1.50085
2.72319
-3.90447
1.18128
0.842352
-1.47096
0.628608
2.48503
1.0903
2.61263
-2.03083
0.165399
0.716713
2.42032
1.7083
-2.58295
0.23329
2.34966
1.56722
3.18513
2.08599
0.625529
1.34773
-0.50538
-1.5226
-0.120198
1.6428
0.112632
-0.782267
-3.06549
3.12574
-1.02387
1.39547
-0.371601
-4.4552
4.29129
0.163915
-0.632559
3.2475
-2.61494
-0.804489
-0.763536
1.56803
3.78689
-4.14022
0.353334
-2.85205
-2.20542
5.44656
-3.82089
-1.62568
-0.603001
0.551264
3.68142
-2.14794
-1.39797
4.12116
0.372727
-1.48383
1.1111
4.48082
-0.562963
-3.91786
4.7628
-1.01845
-3.74435
-1.40808
1.78081
4.22706
-2.51505
-1.71201
-0.834711
3.92393
-3.08922
1.58439
-2.60598
1.02158
-1.2651
0.215537
1.04956
-0.932104
0.300118
0.631985
4.9534
-3.81771
-1.13568
-2.82838
-2.34158
3.28641
0.738854
-4.0242
-0.431006
-0.27489
1.1305
1.25475
-4.25182
2.99707
0.0187956
0.949116
-2.65666
5.48686
1.5052
2.98781
4.9341
-3.2142
-1.7199
-4.93507
3.75873
3.32069
-5.03365
1.71295
-3.08108
-0.276639
3.35772
-1.33406
-0.927319
2.26138
3.6212
-0.277817
0.473078
-0.0537711
1.46636
-0.545141
-2.3452
-3.50195
5.02744
-1.52549
-1.22522
0.181308
-0.37964
-0.238936
0.616088
-5.31336
3.02113
-4.51327
0.912622
-1.30918
1.92242
-0.613246
-0.0444342
0.768515
-2.58319
1.58108
1.00211
2.18374
1.08086
-0.326369
1.57739
-1.25102
2.45127
0.706991
-3.03854
4.29329
2.9381
-0.459661
-1.10663
-2.44744
4.96212
-3.26445
-1.69768
4.7787
-4.87325
1.80467
3.06857
3.91055
-4.28929
0.378734
-2.27846
1.74038
-0.740698
-0.149878
-1.17027
-2.75202
1.54626
-2.80086
1.25461
2.11674
2.11032
3.10488
-4.58588
1.481
1.25527
-2.81501
1.55973
-4.74349
0.828866
0.075218
1.86423
-3.40701
4.03674
-0.629732
-1.17894
1.64506
-0.466115
-2.33546
-0.420433
-0.677822
-1.18781
1.86564
0.609934
0.00643927
-0.616373
-1.70968
-0.885197
1.91419
2.28469
-4.19887
4.5264
-2.95918
1.89663
-2.24256
-0.0358955
2.44791
-1.19264
-3.39063
-0.593142
-0.761463
1.057
-0.29554
4.80542
-1.72374
-2.3415
3.72786
-1.38635
-0.683635
0.792663
-0.109029
3.36788
-0.639813
-1.5414
-2.71042
-2.44225
4.51838
-2.07613
2.87988
-4.63944
1.75956
2.08175
3.36482
-0.823888
0.749236
0.0746516
0.495806
-3.57688
3.40843
-5.15865
1.75022
-1.05987
1.05365
-0.426284
3.25166
-1.0386
4.05973
-1.50291
3.04095
0.919411
-4.90149
-4.03077
2.87754
1.15323
3.26957
-0.61805
-2.65152
4.67083
-0.883944
-2.11188
-2.63193
-2.44575
1.86497
2.45396
-2.34283
-0.111131
1.65349
-1.63412
-3.61509
3.18881
4.26848
1.05609
-3.9601
1.6186
4.0909
-0.80449
0.772909
-1.07092
0.298009
-0.232602
-2.75265
2.98525
-4.59227
0.757205
3.83507
4.34694
-4.34694
-1.65376
4.57142
-2.91765
1.4543
-1.78067
2.93641
-2.2031
-0.733308
-4.70888
4.7951
-0.0862275
1.77436
-0.216177
-1.55818
1.41317
-0.50569
-0.907484
0.724259
-1.52875
0.308946
2.82617
-4.22414
-4.01557
4.71478
-0.699217
-1.39425
3.30844
-0.940578
0.0865847
0.853993
-0.656326
0.990515
-0.334189
-1.85654
2.11091
4.5305
-3.46727
-1.06323
-0.488177
-2.59401
3.08219
-1.25937
1.34397
-0.0846065
0.808245
-1.48986
0.681616
-5.29825
2.28072
3.01753
-0.647234
-0.276476
1.07606
-0.303147
-0.353002
0.732502
-0.3795
2.02069
2.93271
-0.576528
-0.36405
-0.632852
-1.11694
1.74979
-2.45379
3.95235
-1.49856
-0.203168
0.816991
-0.613823
2.33859
-1.3112
4.01787
-0.403259
-3.61461
0.204195
-2.16552
0.0214397
3.04649
2.20316
1.44644
-3.6496
2.4709
-2.0077
-0.463196
-5.0167
0.904048
-2.05627
1.15345
0.902827
1.5518
2.47714
-4.02894
-3.16457
2.88793
0.307326
-4.37949
4.07216
-0.841829
1.05433
-0.696932
0.807814
-0.110883
0.117529
-1.64013
-3.21188
0.769825
2.44205
-3.31348
-0.813429
3.06697
1.60927
0.0793403
-1.68861
-0.720992
0.0373572
0.795287
-3.43462
2.63933
0.633569
2.63916
-3.27273
1.3019
-3.5217
4.12922
-0.60752
-3.56984
2.73513
-0.4178
-0.483586
-2.09898
-1.03475
-1.39674
0.348186
1.04855
-4.25202
1.79822
3.24029
-3.72847
1.17575
2.91515
-1.60765
1.62427
-0.0166266
0.993372
-3.43636
2.44299
0.849729
-1.40767
0.557944
2.62792
-4.16932
-3.1965
-0.207569
-1.74545
0.00052583
-1.00178
-0.800862
1.80264
1.67845
-0.170908
0.28909
-0.118182
3.71874
-2.16693
-3.75962
4.85094
-1.09132
1.32635
0.972695
-2.29905
-1.88637
1.04454
-1.19428
-0.202458
1.13627
1.80014
-1.40744
-3.70495
-1.10218
0.340716
3.07997
2.20609
0.732005
-3.781
4.01168
-0.0609616
-1.79726
1.85822
-0.415289
-4.04614
4.46143
0.755896
-0.787534
0.0316388
1.54119
-1.23587
-0.960197
2.54459
2.70139
-2.1382
-1.8908
-0.692391
0.0177559
-2.11323
2.09547
1.98446
-5.07375
-0.217786
-2.41707
2.63486
0.172874
-0.978447
0.805573
-3.20515
0.170171
3.03498
4.78785
-3.29413
-0.0651863
0.518274
-0.453088
-1.14985
-0.109515
0.986245
1.77365
-2.7599
0.810452
-0.985108
0.174656
3.45765
1.77393
-5.23157
-1.98925
5.65704
0.594903
0.0150304
-1.32605
-2.86242
4.18847
2.10078
3.60991
3.91981
-3.28624
-1.8444
1.16658
-0.543801
-0.388303
-1.49519
4.81588
0.562978
-3.85489
3.29191
4.75348
-0.681853
-4.07163
-1.71816
3.27375
-1.55559
1.96363
-1.07307
-2.42003
3.49311
-0.146837
0.52122
-0.374384
-1.52511
-2.44605
3.97116
0.351216
-1.00754
0.262738
-0.332455
2.52315
-4.04826
-3.40742
-1.32637
4.73379
-0.167792
-2.51046
2.67825
-0.0384228
5.19475
-5.37795
0.183199
1.1755
-0.676486
-0.49901
0.0259119
-1.63356
1.26815
1.23126
-1.71937
0.385305
-3.71308
4.81548
-1.1024
0.158796
-1.18266
2.52926
1.14535
-4.18567
-1.20354
0.404319
-1.00215
0.597832
2.70878
-0.502691
-1.09116
1.19966
-0.1085
-0.888825
1.06431
-5.73362
2.6463
4.31802
0.713509
-0.534995
1.34324
-1.06917
2.39552
4.16809
-1.34192
-1.11673
0.0255718
-0.561964
-3.05313
1.40396
1.23985
-1.17405
-4.66365
0.0713753
-0.63655
1.10795
-0.258223
-5.02765
3.08665
1.94101
4.01141
0.810734
1.04884
-0.369105
-0.679737
1.48286
-1.36798
-0.114886
-4.52991
1.65773
-4.98453
2.54228
-1.35474
1.07794
0.276803
0.100565
-0.728502
0.627937
5.00263
-0.119146
-4.88348
1.07852
0.0784478
-1.15697
-0.697405
-1.36466
1.22062
-0.138802
-0.656461
0.676026
-0.0195649
2.06412
-0.304535
-1.75958
0.0652608
-0.721721
4.15455
-3.13671
-0.148578
-0.767536
0.916114
-4.77671
1.06363
0.0838556
0.224627
-1.16537
-0.928726
2.53799
0.2535
-0.0881013
1.2677
0.845392
-2.11309
1.89455
-0.791841
1.78069
-1.84165
1.17995
-1.02934
0.479041
-1.65798
3.88538
-1.08292
-2.80246
2.75573
-0.310804
-2.44493
-1.98351
-0.438685
0.856988
0.163333
-1.02032
1.51967
-2.1575
0.637833
5.16012
-0.0265584
-5.13356
0.915865
0.200418
-1.11628
-2.43733
3.37826
-0.940927
2.24435
2.53633
-4.78068
0.228196
1.12106
-1.396
2.22835
-0.83235
1.13996
0.468413
-1.60837
-3.65694
1.97663
1.68031
0.619239
0.0567865
-3.99159
0.58417
1.62777
-0.97614
-0.651632
2.20353
-3.0454
0.841869
-0.502629
-0.996959
0.700867
4.49388
4.16572
-0.737646
-3.42807
-4.1013
0.579601
1.64202
-2.74865
3.20999
-5.22292
2.01293
-0.547045
1.49603
-0.0410804
-2.00086
1.36801
-0.838001
1.10099
-0.499677
-3.82789
4.32757
1.96211
1.7193
-3.55896
3.72595
-0.166998
0.609748
-1.61153
-2.9519
-1.16211
-0.64718
0.720065
-0.072885
0.523531
-1.47912
0.955587
0.514793
0.486084
-1.00088
-0.619252
2.82279
-2.80049
-1.11435
3.91484
-3.94476
-1.05894
5.00371
2.35942
-1.91692
-0.4425
-1.31223
0.149158
1.16307
0.787565
0.284924
-1.07249
-4.69817
0.124228
4.57394
0.126363
1.0051
-1.13146
3.89602
-4.34442
0.448405
-2.31677
1.44389
1.04437
-2.48826
0.0496127
-0.696793
-1.58715
-1.34561
2.93276
3.12851
-4.98349
-4.7192
4.2423
0.476896
0.985211
-0.174759
3.69737
-1.16811
-0.503103
-1.12169
1.6248
-0.0611611
0.983615
-0.922454
-1.14789
3.76183
-2.61394
4.35452
-3.24145
-1.11306
4.62241
-4.52263
-0.0997831
3.74007
-1.95705
-1.78302
0.217848
-1.19779
0.979946
-1.50409
-0.0594661
-4.6085
4.13579
0.472706
0.263277
-4.87177
-1.04883
3.40356
-2.35473
-2.5576
-1.26011
1.06106
-0.888732
-0.172325
-3.73626
-1.04045
-1.00701
0.677441
0.329566
1.26608
-0.523609
-4.49362
4.23026
0.263364
-1.07226
0.825177
-0.0975215
1.1532
-0.0746791
-2.92305
0.439847
0.783314
-0.905307
0.121993
-1.55219
1.75825
-0.206058
1.88944
-0.115076
-1.26875
2.36143
1.00645
1.86768
1.28951
-0.612884
-0.676629
-0.915542
2.76751
-3.15887
1.9951
1.16377
0.647313
-0.0280743
3.67428
-1.71216
2.7198
-1.72643
-0.831537
-1.08699
1.91853
1.16833
-3.65336
2.48503
2.90163
-3.06942
4.86501
-2.10739
-2.75762
-0.0344615
-2.63122
-0.52765
-3.53071
4.91962
-1.38891
-0.21393
-1.14558
4.26907
-4.90742
1.17116
-1.15802
-0.107077
-0.83755
0.716222
0.848033
-0.028499
-2.47325
-2.53633
5.50571
-2.14882
0.872139
-1.33999
0.467847
0.281958
1.13122
-3.27887
-1.6949
4.97377
2.8163
0.804899
-0.0133286
-0.763611
0.77694
3.88162
0.784311
0.0577696
-0.84208
2.92279
0.962592
-1.75694
-4.84837
0.832804
-1.13661
0.0578624
1.07874
2.77123
3.28359
0.88859
0.685743
-1.57433
4.4807
0.141711
2.94125
-4.18281
1.24156
-4.09272
0.00938644
4.08333
-3.90801
4.90112
-0.993108
0.738258
-0.0187801
-0.719478
-1.79906
4.92758
0.336469
1.2382
-1.57467
0.238867
-3.79782
2.90306
-0.760228
-2.14283
-4.32291
5.53228
-1.20936
-1.19926
2.7627
-1.56344
5.75126
-2.54447
-3.20679
0.106959
-3.03138
2.92442
0.724762
0.083052
-2.00464
4.24898
2.75109
-4.40485
4.48924
-1.60936
-0.949542
0.800964
-4.28686
0.19414
4.80856
-1.70369
-0.0736708
-5.08741
1.26531
-0.129463
1.28609
2.92081
-4.2069
2.79757
-0.766767
-2.03081
3.0374
-4.78174
1.74434
-0.984139
0.0582346
0.925904
-1.04661
-2.34511
3.39172
1.86878
-1.38974
-2.29955
2.58854
-0.288986
0.956634
1.06275
-2.01938
0.415657
0.645399
-4.15879
4.86355
-0.704759
0.696975
0.0589209
2.16505
0.999655
-3.1647
1.73174
1.90149
-3.63323
0.87366
2.39591
-0.0917072
5.01943
-0.126627
4.1216
-3.99498
-0.24047
0.0373021
0.262264
-0.767152
0.504889
3.13715
-2.51553
-0.621624
2.14343
2.72158
0.320199
0.0352335
-0.355432
-1.29166
3.95941
-2.66775
0.0292379
0.888513
-0.917751
1.1488
-3.30332
2.15452
-1.91944
-0.835303
2.75474
3.64583
-0.367319
1.38485
1.41272
-1.19024
-2.04072
3.23096
1.45962
-4.05363
0.357095
1.01486
-1.37195
1.00791
-0.311281
-0.696633
0.0279619
0.6968
-0.392442
4.57137
-4.17893
-0.544407
4.52397
3.81425
-3.20878
-0.605473
3.19023
-2.69786
-2.67179
1.09045
1.58134
-0.439302
-1.7638
-0.981975
0.827786
0.15419
0.335584
0.713258
0.737496
3.61189
-4.34939
1.11429
0.949827
0.5269
-4.47166
-2.34758
0.922536
1.42504
-1.65752
-1.20078
2.8583
2.47917
-1.21147
-4.17059
2.77634
1.60324
-1.68574
0.0825003
-2.82625
4.0547
-1.22845
-2.15676
2.36096
-2.48766
2.97574
-0.488086
-3.50149
4.84394
-1.34245
-0.109806
1.08624
-0.976438
0.86938
-0.768815
-1.96939
-3.20338
4.91097
-1.70759
-2.66289
3.44929
2.51314
-2.67379
0.160651
-0.29903
-1.01344
1.31247
-4.90152
3.402
1.49953
0.0310449
-0.680057
0.649012
-0.0590008
2.62829
-3.77618
3.34892
-2.18059
-1.01156
-3.01921
-3.39797
3.27134
2.3316
0.2676
1.41967
1.03306
-2.45273
-1.67563
1.56451
0.111123
1.33869
-1.27008
-0.0686089
1.08142
-2.106
1.02458
-1.90713
2.39067
-0.483538
-3.69717
-0.669424
4.36659
0.94015
-1.23918
2.08759
1.04956
-4.85904
3.52224
1.3368
1.11083
0.376803
-1.48764
0.0348945
0.950118
-1.21279
0.262669
-3.19747
-1.0918
2.17322
0.72493
1.0472
-0.829353
1.27654
-0.753007
1.33374
-2.37381
0.169207
1.39793
0.780957
-2.67546
1.89451
-2.70531
-2.10048
4.80579
1.05856
-2.2488
-2.57474
-0.185283
2.76002
0.640528
0.953408
-1.59394
0.173362
5.59251
-3.5998
-1.99272
0.817323
3.34839
-0.0513383
2.27948
-1.60655
-0.672934
-1.34682
2.99544
-1.64862
-2.86744
-0.952903
3.82034
-2.27413
0.878127
-1.82067
-0.851121
6.18434
-2.32753
-3.85681
-1.19396
0.15994
1.03402
1.68561
0.452135
-2.13774
-0.877228
1.00359
0.081919
1.39366
-1.47558
-0.360126
-0.122874
-1.05905
-0.0702323
3.63309
2.55125
-2.47911
4.62665
-1.18647
4.11611
-1.1848
-0.00915387
-4.09488
1.22744
3.51077
-3.01496
-0.59135
-3.1257
0.688366
2.19173
-3.24056
3.19497
-3.42757
4.05422
-0.143663
-0.984486
-0.616975
-1.0379
-0.721446
1.75935
-1.50281
-0.163338
3.42888
0.683004
-4.11189
-0.00338862
-1.24192
1.24531
-0.14907
1.92303
-4.93194
3.00891
4.10924
-0.213218
-4.36276
4.47545
-0.112693
1.03126
-0.745536
-4.33778
-0.563743
-1.54101
4.32224
-0.186445
1.34184
4.88902
-2.00561
-2.88341
-2.70909
-0.436418
3.14551
0.264683
2.33456
-2.59924
-3.4532
0.248053
-0.922006
-0.474991
1.397
-2.44625
3.00922
0.760949
2.46247
-3.22342
-2.00933
0.059133
1.95019
-4.18626
0.313224
3.87303
0.610786
2.73813
-1.19482
2.22235
1.51772
-1.13025
-0.926018
3.44659
-4.15694
0.590798
-1.79639
1.20559
-1.24226
1.47045
3.33351
0.181476
-3.51499
2.97051
-4.15697
-0.250727
1.0759
-1.05243
2.67647
-1.62404
-2.82496
1.23781
-0.0866076
1.40254
-1.31593
0.963844
0.205594
-1.16944
1.13359
0.4076
-1.3148
2.95682
-0.261121
-1.09362
-0.794341
0.843954
1.64098
-0.942062
0.867583
-0.604438
-0.998148
0.953636
0.0445126
1.03431
-1.15036
0.116055
-3.55379
2.92636
0.315594
-2.89033
-0.0775721
-1.39355
-0.0132126
2.76941
-2.7562
1.6193
-1.7395
1.54867
-3.13496
1.58629
-2.32564
3.75683
-1.43119
1.33397
-4.83592
0.871403
-0.129758
-4.58944
2.08973
3.41599
-3.63336
-0.537229
-3.26027
-1.61297
-2.07723
0.889415
-0.678467
-0.200396
0.878863
5.42307
-2.65184
4.61316
-1.20473
-1.14365
-0.797863
1.94151
-4.39894
1.79161
2.60733
1.3469
0.192079
-0.900588
2.34448
0.821482
-0.468951
-2.67328
1.41875
-1.08228
-0.0404309
1.29552
-1.25509
-0.606876
4.03576
0.850516
-1.17447
0.323953
4.43259
-5.53243
2.57845
2.95398
1.02754
1.15699
-2.18453
3.27535
-2.55851
-0.71684
-2.60632
1.40705
-1.11613
-0.198842
1.88445
4.44962
-4.86491
2.00907
-0.869108
-1.87614
3.33576
-5.10819
3.67152
1.43667
1.33916
-3.49426
2.15509
-3.46482
3.6438
-0.178973
1.66306
-2.5786
0.0634296
0.934653
1.42477
-0.265266
-3.15057
1.13512
-4.63937
1.73986
2.89951
1.27913
-3.98822
3.62001
-0.13158
-2.88802
0.637492
2.9824
5.01084
-1.67816
-3.33269
-1.09298
1.29647
-2.95399
0.812552
-4.50919
4.07277
-2.90562
1.83255
2.1697
-4.05579
2.91667
1.13912
-4.67358
3.05423
1.61935
-1.80812
-0.625171
0.798046
-4.75574
3.43778
1.31796
3.04091
-4.83997
-4.106
-0.052788
5.22925
-2.01926
3.42622
-1.01435
-2.41187
-0.129295
-0.780471
0.909766
0.815356
2.30748
2.60124
-3.28842
-0.76737
0.76692
1.10186
1.01074
1.82788
-2.83862
1.88085
-1.09745
-0.203871
-4.4817
4.68557
-1.76132
1.52484
-3.65266
-2.85422
-1.83317
4.68739
1.21636
-1.58499
-3.32378
1.08384
2.23994
0.0158624
0.280391
-0.296254
4.2919
-4.79158
1.53299
-2.58542
2.51812
0.754209
-3.27233
1.28448
-0.412338
-3.92933
1.12885
2.80049
-2.86242
0.942976
1.65668
-3.0035
1.94925
-1.35845
0.152052
-0.13619
-0.136831
4.89031
-2.9307
3.65673
-0.726024
4.77417
-0.0214922
-4.75268
-3.18181
0.637005
-1.94618
0.234719
4.11222
0.625418
0.167245
0.729456
0.0762288
1.37807
2.52259
0.153241
1.18545
-4.15283
-0.340797
-4.31004
2.12581
-4.15033
0.848314
0.907944
-1.75626
4.35972
0.235022
-4.59474
-0.561318
0.542538
-1.5673
-3.41723
-3.7021
-0.587184
-1.33805
4.30855
-1.5611
2.25106
-0.689963
-3.97804
1.27273
-1.40426
2.415
-2.07575
-2.9519
-1.23662
-1.21555
1.78221
-2.17378
0.621586
5.06548
-0.743243
3.22991
-2.49657
-0.733334
0.777992
0.741813
1.2983
4.67318
-4.36585
-0.0698075
-1.09402
1.61366
-2.31992
2.55321
-2.21282
-2.65366
1.04404
0.856086
-1.90013
-4.39904
0.0520935
-0.59884
3.60165
-3.00281
-0.5825
-3.78026
-3.241
3.45786
5.26451
-2.27546
-2.98904
-0.347411
1.50086
3.83415
-1.69107
-2.14308
1.28431
-1.40718
-0.59599
0.858254
-0.629319
-0.0977237
0.727042
-0.93702
2.35669
-1.86822
4.90913
-0.103653
-0.785078
-1.29285
-0.428446
1.72129
0.0653242
4.22658
1.232
0.412832
-1.64483
-1.79019
2.77643
1.90535
2.05406
-1.79625
-0.551324
2.51484
-0.911114
-1.60373
0.0402248
0.787283
-0.827508
0.183921
-3.35314
3.16922
-4.34931
0.647208
1.08073
-2.11644
4.24224
-0.0361306
1.32044
0.6683
-2.2294
-5.02007
2.57433
-4.24557
1.51251
-2.14144
0.284902
-1.68459
-2.75869
4.44328
-4.77379
-0.0451671
-0.875578
0.920745
3.75352
-2.88483
2.87914
-2.61445
0.65344
2.5861
-3.23954
0.800581
-1.72259
-3.29935
-1.33118
4.63053
-0.420935
1.20989
-0.788958
-2.07639
3.70821
-1.63183
3.87559
-2.88967
-0.985919
4.13683
0.0462175
-4.18304
-2.21478
-3.31765
-1.53222
-0.213228
1.8891
3.19831
-0.0703903
0.489849
-0.419459
-3.08612
-0.843213
3.13713
2.71363
-2.54287
3.09318
-0.55031
0.927544
-0.869774
1.42703
1.49074
-2.91777
-0.279004
1.12952
-0.45688
-4.29886
-4.59554
2.13402
-0.53078
-0.612496
1.34643
0.339105
3.45191
-3.79101
-2.50444
-0.418615
3.0699
1.4565
0.353882
-1.24279
2.51241
-2.64294
0.13053
0.37725
-1.73327
1.35602
2.82955
0.41795
1.31114
3.9612
-1.84446
3.95003
-2.4252
-0.550978
-1.19938
1.75036
3.49879
0.425136
0.0349929
-3.22542
2.17881
4.0443
-3.97897
-1.90676
-1.78258
3.68934
-2.52038
-1.87856
-4.35269
4.47563
-0.122939
-0.590528
-1.86903
1.14758
2.66727
1.29392
0.367915
-1.301
0.933084
-1.58359
-3.23178
-0.97473
-3.43736
4.41209
3.59627
-0.779967
-1.14916
1.50626
2.66772
-4.23502
2.03181
-1.81391
-2.09004
4.66492
-2.57488
1.59789
2.19068
1.54766
-3.73833
4.4382
-2.78292
-1.65528
-1.70462
-3.11342
4.52821
-1.41479
2.58183
0.648076
-1.37614
1.34
1.99476
3.75651
-1.05464
0.925341
0.108392
-0.2793
4.52784
-2.58889
2.11403
3.30904
-1.9462
1.02999
0.916207
1.27677
-2.10831
3.52895
-0.195438
3.03545
0.390773
-3.17508
-0.231002
3.40608
0.902693
-0.132154
-0.770539
0.799232
0.376263
0.875399
-4.78341
-1.35407
1.4716
3.18619
-2.79582
-0.390376
0.753197
1.76164
-0.741045
0.37194
1.19782
1.11798
-2.3158
-1.8814
3.47868
-0.325131
-2.02497
4.69607
-2.6711
-1.08812
2.04476
-0.216704
-1.79262
4.9079
-2.47772
-1.54648
2.65889
0.616454
1.43835
-1.51592
-0.87132
0.761515
-1.31077
-0.704546
-0.0164455
1.86609
-0.768402
3.85963
-3.09123
-0.368312
0.0153107
-1.7925
0.670807
-1.5987
0.0664817
-4.42298
3.09693
1.11712
1.11123
0.595708
-1.50323
0.907522
1.06532
0.514736
3.53795
2.13225
-5.6702
-0.511573
-0.0885603
0.600134
0.0515733
-3.81119
3.55602
1.70849
3.62233
-3.28323
-4.60861
-0.186314
-0.555765
-2.85099
2.13768
2.83189
1.58236
-4.41425
1.78003
-0.160724
-0.149241
-1.48985
-0.456356
-2.70907
-2.32913
1.88983
1.74326
3.10768
2.71952
-2.54156
-0.177962
0.92211
0.0315256
-0.417591
1.18762
-0.153311
3.57645
1.04627
-4.62272
-1.58392
1.54349
-1.09389
0.665811
0.428082
-1.61977
0.00940474
1.61037
1.90931
1.42125
-3.33057
1.09305
1.38612
3.17702
-0.0802317
-1.2523
1.65808
-1.58186
-0.65063
0.877846
-0.227216
-4.41789
2.48572
3.82055
-3.01347
-0.807074
0.0859402
-0.732676
0.646736
4.005
-4.39744
3.05875
0.537516
0.832145
2.04699
-0.645563
-0.0589832
1.30561
-1.406
0.100392
-2.32033
-0.624382
4.92838
-2.52847
-2.39991
3.90269
-1.48647
-2.41622
1.92248
-3.25759
1.33511
0.218969
2.41447
0.033441
-0.168976
2.16434
-1.99536
-0.00975793
1.31537
-1.78914
-0.991655
-0.182814
4.48411
0.0782186
-4.56233
-1.96415
2.24226
-1.4613
-0.153761
0.188995
0.533838
2.14263
-1.33857
1.85336
0.155974
0.0355862
-0.597604
0.677166
-1.82791
2.48135
0.0794107
1.16044
0.169584
-1.02008
3.5051
0.0411635
2.67836
-0.678792
-0.581964
-1.10092
2.29874
-0.817303
3.40434
-2.58704
-3.54236
-0.449231
-1.50099
3.50944
-2.00845
0.271898
-1.26355
1.45818
-0.292693
-0.0912213
-1.1148
1.20602
-3.77135
1.29363
0.588577
-0.653763
2.17872
-5.45759
1.47838
-4.34079
-1.27428
2.64017
-1.54455
2.35922
-1.24124
0.0630509
-2.84283
3.02676
-0.00959581
-0.736242
0.42303
-2.33996
-0.541654
-2.6712
3.21285
1.23674
1.37173
5.27247
-3.46335
-1.80912
-1.03319
0.3423
1.08988
0.0966881
-1.18657
-3.65094
0.720236
0.941452
0.0664619
-0.0454763
-0.617807
0.663283
2.12672
-3.62771
0.33926
1.96931
0.250269
-2.21958
-3.74085
2.92355
0.72314
0.174293
-0.897433
1.67041
-4.87379
-0.674234
-0.0177258
0.69196
0.947488
-0.224348
0.0166112
3.28326
-2.4096
2.6663
2.29529
-1.20224
-4.08374
1.22952
-3.00636
2.52041
0.485946
1.81839
-3.72515
-2.23657
-1.33257
3.56914
0.274738
1.89527
-1.36597
1.14979
4.59934
-0.520937
-4.0784
0.0310647
-4.18389
3.69711
0.439714
2.25665
1.5775
-0.744434
-0.0191775
0.73339
-1.2451
-1.55576
0.114429
0.293768
-0.408197
0.0538242
-4.68179
4.62797
-0.212568
1.34338
-1.13081
1.33953
-4.18484
2.84531
-0.304459
-2.52177
-0.144753
0.403519
2.91193
-1.52173
-0.906419
2.42815
-1.69948
-1.614
2.03003
-1.17394
-1.16382
0.151308
1.01252
-0.875634
1.47134
-4.27408
-0.584056
-0.239263
0.823319
0.789011
1.25765
-2.04666
2.88902
-4.42179
1.53277
0.253051
-2.49976
0.709187
-5.0321
-2.24356
-2.69295
4.93651
-4.16871
0.151099
4.01761
-4.97687
-3.52843
0.0636117
-1.27682
1.32177
-0.0449486
-4.31022
-1.49463
5.07108
1.72561
-0.880217
0.401378
-1.5023
-0.772408
2.15852
0.716188
0.458021
-1.75087
0.0831737
-0.795746
0.712573
-0.72875
0.0623269
-0.53291
0.618851
-1.30991
2.33745
-4.87582
3.09529
1.78054
-0.237393
0.710471
2.55273
0.940614
-0.037921
-0.966593
1.33451
-2.11904
-1.20474
-2.44193
0.87409
1.56783
-0.129913
-0.873877
1.00379
-1.87554
2.25279
-0.406964
3.17464
2.56611
-1.33411
2.12521
-3.82469
2.05543
-2.47645
0.421027
0.532591
-0.0143172
0.794523
-0.0452869
-4.35813
2.67355
1.62616
2.27653
0.0652162
-0.926081
0.860864
-5.53048
2.15447
-0.847922
1.13018
-0.877203
-0.0860185
-0.99401
1.08003
-2.50545
0.983721
-4.56064
4.10376
3.76721
-1.24909
-1.16309
1.04718
0.11591
-0.500795
-0.501356
-0.71971
-4.88828
1.97814
2.91014
-0.683477
0.594917
-0.491487
1.63438
-1.14289
3.04582
0.0129309
-0.386525
-0.229659
0.616184
-1.19644
1.27585
-0.208435
-0.851431
3.02518
-4.06446
4.20422
0.276482
-2.50244
-1.48532
4.18586
-0.144004
-4.04186
0.267404
0.845264
-1.11267
2.53591
-5.00915
1.61806
0.412846
-2.03091
0.537231
-0.076167
-0.461064
-3.86053
3.96956
-0.109034
-0.932506
2.48117
2.10709
2.24743
4.44063
-1.47292
-2.96771
-0.0546583
-0.76479
0.819449
1.31824
-1.4193
-0.0847886
-1.38197
-0.0373255
0.273934
-1.58522
1.31129
-0.496617
4.15104
-3.65442
-3.80337
1.19254
2.61083
1.23093
3.7717
0.17789
0.215444
-0.393334
2.45498
1.08736
-3.54234
0.00318563
-0.681652
-1.71691
4.39509
-2.67818
-3.35737
0.182296
2.87539
1.25936
-3.49593
-0.0144422
-0.597743
0.612186
3.58051
-0.653062
-2.92745
1.0229
0.995022
-5.11629
2.57996
4.33374
-4.53761
-2.24058
0.441327
1.79925
-0.261997
-0.0160703
-0.918728
0.934798
1.02146
-0.585784
-0.435675
-0.0518618
0.625991
-0.574129
-0.898923
0.940178
-0.0412555
-2.49113
5.15886
-1.34064
1.35839
0.665857
-1.15734
1.59727
-2.44094
0.843669
-2.91571
-2.19248
1.04325
-0.255682
-0.688383
-0.0346078
0.72299
4.85219
-1.75476
-3.09742
0.429525
2.75667
-1.08204
-0.593594
-2.5489
0.435669
0.735556
2.09737
-2.83292
0.400338
-0.113842
-0.286496
-0.097103
1.57997
-1.53155
-0.100978
1.63253
3.80831
-2.10427
-1.70404
-4.28969
0.461804
0.677882
-2.79395
1.37626
1.41769
2.88462
-3.92322
1.03899
-0.814366
0.706853
0.0876703
-1.65001
2.68764
-1.03762
0.691645
0.129837
-0.541303
-0.46118
-1.09688
0.993222
1.11549
-0.915071
-1.43772
3.13858
-1.70085
3.06571
-2.0109
-1.05481
3.38876
-0.559207
1.10766
0.236318
-1.07145
0.876103
-0.278733
-1.63602
0.775714
-4.01717
-2.21177
2.04279
1.24033
-0.955402
0.645839
0.301649
0.982768
-0.445538
3.90976
-3.91859
0.00882758
4.67412
-2.1269
0.983669
1.14323
0.483611
-1.57763
-1.40971
-3.87764
-1.10212
0.969966
-0.757159
-1.2132
1.97036
-3.49461
0.831718
1.66971
0.891975
-2.56169
0.417013
-0.837948
-0.909354
-1.79334
3.69483
-0.900002
-3.01785
1.14829
-2.30713
1.15884
-1.15987
1.51375
-2.13084
-3.39964
-0.138588
1.10243
2.67424
-4.54091
2.79988
1.74102
-0.0810354
-1.41304
0.0896844
-1.55253
1.46285
-3.1143
-1.86371
-0.751936
0.73421
3.50139
1.70502
1.16672
3.6387
-3.11773
-1.5217
4.10493
-0.254711
-3.85021
2.51306
-1.17932
5.45984
-3.53958
-1.92026
1.36831
0.875806
-2.24412
-1.7519
3.21019
-1.45829
-5.54871
2.91787
2.63084
0.131757
1.10867
3.60831
-2.53405
-2.93752
5.47157
3.98489
-1.10027
-3.22367
-0.229531
2.36232
-0.729447
2.25091
-1.52146
-1.55154
3.67826
-4.77146
0.1813
-2.92066
2.73936
1.86012
-3.10119
1.24107
2.76264
-1.9305
0.339101
2.32274
-2.66184
0.423155