# Force       
# CofR        : (0.000000e+00 0.000000e+00 0.000000e+00)
#
# Time        	total_x total_y total_z	pressure_x pressure_y pressure_z	viscous_x viscous_y viscous_z
9.90005        1.612481e+02 3.685310e+02 -1.203404e-17 1.609009e+02 3.676087e+02 -1.198926e-17 3.471973e-01 9.222642e-01 -4.478008e-20
9.9001         1.719024e+02 3.864507e+02 -1.423269e-17 1.715516e+02 3.855289e+02 -1.418962e-17 3.508197e-01 9.217784e-01 -4.307067e-20
9.90015        1.770117e+02 3.931400e+02 -1.629598e-17 1.766580e+02 3.922181e+02 -1.625381e-17 3.536541e-01 9.218371e-01 -4.216619e-20
9.9002         1.794363e+02 3.952751e+02 -1.767997e-17 1.790803e+02 3.943529e+02 -1.763823e-17 3.560012e-01 9.222363e-01 -4.173519e-20
9.90025        1.806110e+02 3.954816e+02 -1.877472e-17 1.802530e+02 3.945587e+02 -1.873314e-17 3.580107e-01 9.228547e-01 -4.157740e-20
9.9003         1.811994e+02 3.948185e+02 -1.976640e-17 1.808396e+02 3.938949e+02 -1.972482e-17 3.597639e-01 9.236048e-01 -4.158192e-20
9.90035        1.815379e+02 3.939827e+02 -2.068400e-17 1.811766e+02 3.930582e+02 -2.064231e-17 3.613103e-01 9.244263e-01 -4.169528e-20
9.9004         1.818025e+02 3.932461e+02 -2.160878e-17 1.814398e+02 3.923208e+02 -2.156690e-17 3.626835e-01 9.252795e-01 -4.188080e-20
9.90045        1.819076e+02 3.924805e+02 -2.241740e-17 1.815437e+02 3.915543e+02 -2.237528e-17 3.639095e-01 9.261400e-01 -4.211884e-20
9.9005         1.820345e+02 3.919765e+02 -2.252107e-17 1.816695e+02 3.910495e+02 -2.247867e-17 3.650099e-01 9.269932e-01 -4.239394e-20
9.90055        1.822195e+02 3.917752e+02 -2.239940e-17 1.818535e+02 3.908474e+02 -2.235670e-17 3.660010e-01 9.278319e-01 -4.269542e-20
9.9006         1.822788e+02 3.914516e+02 -2.291853e-17 1.819119e+02 3.905230e+02 -2.287552e-17 3.668966e-01 9.286498e-01 -4.301096e-20
9.90065        1.824473e+02 3.914276e+02 -2.324915e-17 1.820796e+02 3.904981e+02 -2.320582e-17 3.677075e-01 9.294436e-01 -4.333557e-20
9.9007         1.825305e+02 3.913456e+02 -2.347811e-17 1.821621e+02 3.904154e+02 -2.343445e-17 3.684431e-01 9.302115e-01 -4.366295e-20
9.90075        1.826618e+02 3.914212e+02 -2.362526e-17 1.822927e+02 3.904903e+02 -2.358127e-17 3.691114e-01 9.309529e-01 -4.399110e-20
9.9008         1.827837e+02 3.915131e+02 -2.377930e-17 1.824139e+02 3.905814e+02 -2.373498e-17 3.697194e-01 9.316678e-01 -4.431423e-20
9.90085        1.828687e+02 3.915383e+02 -2.397396e-17 1.824984e+02 3.906059e+02 -2.392933e-17 3.702732e-01 9.323564e-01 -4.463156e-20
9.9009         1.829126e+02 3.915628e+02 -2.406322e-17 1.825418e+02 3.906298e+02 -2.401828e-17 3.707785e-01 9.330194e-01 -4.494191e-20
9.90095        1.830483e+02 3.917098e+02 -2.425868e-17 1.826771e+02 3.907762e+02 -2.421343e-17 3.712406e-01 9.336576e-01 -4.524421e-20
9.901          1.831473e+02 3.918275e+02 -2.437090e-17 1.827757e+02 3.908933e+02 -2.432537e-17 3.716636e-01 9.342721e-01 -4.553725e-20
9.90105        1.832718e+02 3.919657e+02 -2.453473e-17 1.828998e+02 3.910308e+02 -2.448891e-17 3.720520e-01 9.348635e-01 -4.582121e-20
9.9011         1.833083e+02 3.919575e+02 -2.469233e-17 1.829359e+02 3.910221e+02 -2.464623e-17 3.724095e-01 9.354330e-01 -4.609621e-20
9.90115        1.833464e+02 3.919690e+02 -2.482771e-17 1.829736e+02 3.910330e+02 -2.478134e-17 3.727387e-01 9.359817e-01 -4.636243e-20
9.9012         1.833848e+02 3.919652e+02 -2.499160e-17 1.830118e+02 3.910286e+02 -2.494498e-17 3.730434e-01 9.365103e-01 -4.661865e-20
9.90125        1.834544e+02 3.920275e+02 -2.513313e-17 1.830810e+02 3.910904e+02 -2.508627e-17 3.733262e-01 9.370198e-01 -4.686631e-20
9.9013         1.835549e+02 3.921459e+02 -2.524731e-17 1.831813e+02 3.912084e+02 -2.520021e-17 3.735894e-01 9.375113e-01 -4.710542e-20
9.90135        1.835521e+02 3.920840e+02 -2.540977e-17 1.831783e+02 3.911461e+02 -2.536243e-17 3.738347e-01 9.379857e-01 -4.733632e-20
9.9014         1.835847e+02 3.920983e+02 -2.552853e-17 1.832107e+02 3.911599e+02 -2.548097e-17 3.740641e-01 9.384438e-01 -4.755989e-20
9.90145        1.836325e+02 3.921305e+02 -2.567427e-17 1.832582e+02 3.911916e+02 -2.562649e-17 3.742790e-01 9.388866e-01 -4.777605e-20
9.9015         1.836768e+02 3.921514e+02 -2.583745e-17 1.833023e+02 3.912121e+02 -2.578947e-17 3.744806e-01 9.393148e-01 -4.798460e-20
9.90155        1.836736e+02 3.920934e+02 -2.607625e-17 1.832989e+02 3.911536e+02 -2.602806e-17 3.746703e-01 9.397292e-01 -4.818698e-20
9.9016         1.837005e+02 3.921117e+02 -2.582505e-17 1.833257e+02 3.911715e+02 -2.577667e-17 3.748487e-01 9.401305e-01 -4.838407e-20
9.90165        1.837919e+02 3.922787e+02 -2.597780e-17 1.834169e+02 3.913382e+02 -2.592922e-17 3.750166e-01 9.405197e-01 -4.857643e-20
9.9017         1.838112e+02 3.922607e+02 -2.615710e-17 1.834360e+02 3.913198e+02 -2.610833e-17 3.751752e-01 9.408968e-01 -4.876121e-20
9.90175        1.838432e+02 3.922926e+02 -2.629306e-17 1.834679e+02 3.913514e+02 -2.624412e-17 3.753247e-01 9.412628e-01 -4.894095e-20
9.9018         1.838695e+02 3.922974e+02 -2.645257e-17 1.834941e+02 3.913557e+02 -2.640346e-17 3.754659e-01 9.416179e-01 -4.911589e-20
9.90185        1.838463e+02 3.922300e+02 -2.660274e-17 1.834707e+02 3.912880e+02 -2.655345e-17 3.755996e-01 9.419627e-01 -4.928649e-20
9.9019         1.838444e+02 3.921938e+02 -2.675273e-17 1.834687e+02 3.912515e+02 -2.670328e-17 3.757261e-01 9.422975e-01 -4.945246e-20
9.90195        1.839229e+02 3.923218e+02 -2.689225e-17 1.835470e+02 3.913791e+02 -2.684263e-17 3.758460e-01 9.426229e-01 -4.961555e-20
9.902          1.839689e+02 3.924327e+02 -2.697738e-17 1.835929e+02 3.914898e+02 -2.692761e-17 3.759593e-01 9.429397e-01 -4.977507e-20
9.90205        1.839650e+02 3.923569e+02 -2.720260e-17 1.835889e+02 3.914137e+02 -2.715267e-17 3.760664e-01 9.432480e-01 -4.992826e-20
9.9021         1.839662e+02 3.923327e+02 -2.732901e-17 1.835901e+02 3.913891e+02 -2.727893e-17 3.761680e-01 9.435478e-01 -5.007928e-20
9.90215        1.839225e+02 3.922285e+02 -2.746965e-17 1.835462e+02 3.912846e+02 -2.741943e-17 3.762642e-01 9.438397e-01 -5.022666e-20
9.9022         1.839113e+02 3.921834e+02 -2.763214e-17 1.835350e+02 3.912392e+02 -2.758177e-17 3.763554e-01 9.441237e-01 -5.037106e-20
9.90225        1.839193e+02 3.921704e+02 -2.779322e-17 1.835429e+02 3.912260e+02 -2.774271e-17 3.764418e-01 9.444003e-01 -5.051228e-20
9.9023         1.839005e+02 3.921143e+02 -2.795425e-17 1.835239e+02 3.911696e+02 -2.790360e-17 3.765235e-01 9.446697e-01 -5.065091e-20
9.90235        1.838953e+02 3.920821e+02 -2.804657e-17 1.835187e+02 3.911372e+02 -2.799579e-17 3.766011e-01 9.449321e-01 -5.078683e-20
9.9024         1.838879e+02 3.920325e+02 -2.826019e-17 1.835112e+02 3.910874e+02 -2.820927e-17 3.766744e-01 9.451880e-01 -5.091957e-20
9.90245        1.838845e+02 3.920263e+02 -2.838809e-17 1.835078e+02 3.910808e+02 -2.833704e-17 3.767437e-01 9.454375e-01 -5.105080e-20
9.9025         1.838645e+02 3.919712e+02 -2.854566e-17 1.834877e+02 3.910255e+02 -2.849448e-17 3.768091e-01 9.456808e-01 -5.117895e-20
9.90255        1.838576e+02 3.919351e+02 -2.871639e-17 1.834808e+02 3.909892e+02 -2.866508e-17 3.768710e-01 9.459182e-01 -5.130478e-20
9.9026         1.838443e+02 3.918903e+02 -2.888173e-17 1.834674e+02 3.909441e+02 -2.883030e-17 3.769293e-01 9.461500e-01 -5.142810e-20
9.90265        1.838284e+02 3.918497e+02 -2.903474e-17 1.834514e+02 3.909033e+02 -2.898319e-17 3.769842e-01 9.463762e-01 -5.154970e-20
9.9027         1.838211e+02 3.918143e+02 -2.920567e-17 1.834441e+02 3.908677e+02 -2.915400e-17 3.770360e-01 9.465971e-01 -5.166890e-20
9.90275        1.838122e+02 3.917626e+02 -2.932202e-17 1.834351e+02 3.908158e+02 -2.927023e-17 3.770847e-01 9.468128e-01 -5.178554e-20
9.9028         1.837754e+02 3.916990e+02 -2.958088e-17 1.833983e+02 3.907520e+02 -2.952898e-17 3.771304e-01 9.470236e-01 -5.190117e-20
9.90285        1.837783e+02 3.916956e+02 -2.974291e-17 1.834012e+02 3.907484e+02 -2.969090e-17 3.771732e-01 9.472296e-01 -5.201428e-20
9.9029         1.837474e+02 3.915925e+02 -2.991887e-17 1.833702e+02 3.906451e+02 -2.986675e-17 3.772141e-01 9.474307e-01 -5.212585e-20
9.90295        1.837440e+02 3.915697e+02 -3.010511e-17 1.833667e+02 3.906221e+02 -3.005287e-17 3.772525e-01 9.476272e-01 -5.223528e-20
9.903          1.837297e+02 3.915290e+02 -3.028256e-17 1.833524e+02 3.905811e+02 -3.023022e-17 3.772884e-01 9.478195e-01 -5.234292e-20
9.90305        1.837202e+02 3.914798e+02 -3.049081e-17 1.833429e+02 3.905318e+02 -3.043836e-17 3.773220e-01 9.480075e-01 -5.244819e-20
9.9031         1.836939e+02 3.914177e+02 -3.067124e-17 1.833166e+02 3.904695e+02 -3.061868e-17 3.773533e-01 9.481915e-01 -5.255227e-20
9.90315        1.836796e+02 3.913871e+02 -3.082899e-17 1.833022e+02 3.904388e+02 -3.077633e-17 3.773825e-01 9.483714e-01 -5.265480e-20
9.9032         1.836606e+02 3.913423e+02 -3.100924e-17 1.832832e+02 3.903938e+02 -3.095648e-17 3.774097e-01 9.485476e-01 -5.275572e-20
9.90325        1.836259e+02 3.912684e+02 -3.118019e-17 1.832484e+02 3.903196e+02 -3.112734e-17 3.774349e-01 9.487200e-01 -5.285431e-20
9.9033         1.836271e+02 3.912507e+02 -3.137698e-17 1.832497e+02 3.903018e+02 -3.132403e-17 3.774583e-01 9.488888e-01 -5.295208e-20
9.90335        1.835812e+02 3.911626e+02 -3.154936e-17 1.832037e+02 3.902135e+02 -3.149631e-17 3.774800e-01 9.490541e-01 -5.304733e-20
9.9034         1.835737e+02 3.911296e+02 -3.174027e-17 1.831962e+02 3.901803e+02 -3.168713e-17 3.775000e-01 9.492159e-01 -5.314196e-20
9.90345        1.835832e+02 3.911072e+02 -3.197314e-17 1.832057e+02 3.901578e+02 -3.191990e-17 3.775184e-01 9.493744e-01 -5.323400e-20
9.9035         1.835366e+02 3.910274e+02 -3.213635e-17 1.831591e+02 3.900778e+02 -3.208303e-17 3.775353e-01 9.495296e-01 -5.332553e-20
9.90355        1.835153e+02 3.909749e+02 -3.232100e-17 1.831378e+02 3.900253e+02 -3.226759e-17 3.775506e-01 9.496816e-01 -5.341510e-20
9.9036         1.834942e+02 3.909204e+02 -3.251116e-17 1.831166e+02 3.899705e+02 -3.245765e-17 3.775646e-01 9.498305e-01 -5.350309e-20
9.90365        1.834566e+02 3.908323e+02 -3.269455e-17 1.830790e+02 3.898823e+02 -3.264096e-17 3.775773e-01 9.499763e-01 -5.358941e-20
9.9037         1.834631e+02 3.908284e+02 -3.296737e-17 1.830855e+02 3.898782e+02 -3.291370e-17 3.775886e-01 9.501192e-01 -5.367381e-20
9.90375        1.834410e+02 3.907704e+02 -3.315358e-17 1.830634e+02 3.898201e+02 -3.309982e-17 3.775986e-01 9.502593e-01 -5.375725e-20
9.9038         1.833964e+02 3.906800e+02 -3.333259e-17 1.830188e+02 3.897296e+02 -3.327875e-17 3.776073e-01 9.503965e-01 -5.383920e-20
9.90385        1.833913e+02 3.906498e+02 -3.354591e-17 1.830137e+02 3.896993e+02 -3.349199e-17 3.776150e-01 9.505309e-01 -5.391985e-20
9.9039         1.833512e+02 3.905677e+02 -3.373157e-17 1.829736e+02 3.896170e+02 -3.367757e-17 3.776217e-01 9.506627e-01 -5.399890e-20
9.90395        1.833430e+02 3.905331e+02 -3.395100e-17 1.829654e+02 3.895823e+02 -3.389693e-17 3.776273e-01 9.507917e-01 -5.407670e-20
9.904          1.833233e+02 3.904978e+02 -3.409635e-17 1.829456e+02 3.895469e+02 -3.404219e-17 3.776319e-01 9.509182e-01 -5.415375e-20
9.90405        1.832771e+02 3.903846e+02 -3.433338e-17 1.828995e+02 3.894335e+02 -3.427916e-17 3.776357e-01 9.510421e-01 -5.422770e-20
9.9041         1.832616e+02 3.903431e+02 -3.453942e-17 1.828840e+02 3.893920e+02 -3.448512e-17 3.776386e-01 9.511636e-01 -5.430125e-20
9.90415        1.832388e+02 3.902863e+02 -3.474991e-17 1.828612e+02 3.893351e+02 -3.469553e-17 3.776407e-01 9.512826e-01 -5.437336e-20
9.9042         1.832120e+02 3.902237e+02 -3.495844e-17 1.828343e+02 3.892723e+02 -3.490399e-17 3.776420e-01 9.513992e-01 -5.444410e-20
9.90425        1.831861e+02 3.901614e+02 -3.517196e-17 1.828085e+02 3.892098e+02 -3.511744e-17 3.776425e-01 9.515135e-01 -5.451350e-20
9.9043         1.831686e+02 3.901176e+02 -3.538161e-17 1.827910e+02 3.891660e+02 -3.532703e-17 3.776423e-01 9.516256e-01 -5.458174e-20
9.90435        1.831389e+02 3.900500e+02 -3.559382e-17 1.827613e+02 3.890983e+02 -3.553917e-17 3.776415e-01 9.517354e-01 -5.464849e-20
9.9044         1.831145e+02 3.899907e+02 -3.581218e-17 1.827368e+02 3.890389e+02 -3.575747e-17 3.776400e-01 9.518430e-01 -5.471399e-20
9.90445        1.830853e+02 3.899239e+02 -3.602770e-17 1.827076e+02 3.889719e+02 -3.597292e-17 3.776380e-01 9.519485e-01 -5.477817e-20
9.9045         1.830603e+02 3.898631e+02 -3.624884e-17 1.826826e+02 3.889111e+02 -3.619400e-17 3.776354e-01 9.520518e-01 -5.484112e-20
9.90455        1.830312e+02 3.897963e+02 -3.646826e-17 1.826536e+02 3.888441e+02 -3.641336e-17 3.776322e-01 9.521532e-01 -5.490284e-20
9.9046         1.830053e+02 3.897336e+02 -3.669269e-17 1.826277e+02 3.887813e+02 -3.663772e-17 3.776284e-01 9.522525e-01 -5.496339e-20
9.90465        1.829767e+02 3.896673e+02 -3.691595e-17 1.825991e+02 3.887150e+02 -3.686093e-17 3.776241e-01 9.523499e-01 -5.502281e-20
9.9047         1.829444e+02 3.895915e+02 -3.714371e-17 1.825668e+02 3.886391e+02 -3.708863e-17 3.776192e-01 9.524455e-01 -5.508121e-20
9.90475        1.829084e+02 3.895090e+02 -3.737601e-17 1.825308e+02 3.885565e+02 -3.732088e-17 3.776139e-01 9.525391e-01 -5.513846e-20
9.9048         1.828760e+02 3.894367e+02 -3.760896e-17 1.824984e+02 3.884841e+02 -3.755377e-17 3.776080e-01 9.526310e-01 -5.519475e-20
9.90485        1.828483e+02 3.893695e+02 -3.783862e-17 1.824707e+02 3.884168e+02 -3.778337e-17 3.776015e-01 9.527212e-01 -5.524990e-20
9.9049         1.828169e+02 3.892957e+02 -3.807185e-17 1.824393e+02 3.883429e+02 -3.801655e-17 3.775945e-01 9.528096e-01 -5.530416e-20
9.90495        1.827843e+02 3.892184e+02 -3.830754e-17 1.824067e+02 3.882655e+02 -3.825218e-17 3.775870e-01 9.528965e-01 -5.535743e-20
9.905          1.827502e+02 3.891393e+02 -3.854509e-17 1.823727e+02 3.881864e+02 -3.848968e-17 3.775789e-01 9.529818e-01 -5.540991e-20
9.90505        1.827109e+02 3.890467e+02 -3.878686e-17 1.823333e+02 3.880936e+02 -3.873140e-17 3.775702e-01 9.530655e-01 -5.546135e-20
9.9051         1.827041e+02 3.890319e+02 -3.901304e-17 1.823266e+02 3.880787e+02 -3.895753e-17 3.775611e-01 9.531477e-01 -5.551284e-20
9.90515        1.826829e+02 3.889877e+02 -3.923734e-17 1.823054e+02 3.880344e+02 -3.918177e-17 3.775510e-01 9.532289e-01 -5.556322e-20
9.9052         1.826559e+02 3.889126e+02 -3.949531e-17 1.822783e+02 3.879593e+02 -3.943970e-17 3.775404e-01 9.533086e-01 -5.561238e-20
9.90525        1.826094e+02 3.888119e+02 -3.973422e-17 1.822319e+02 3.878585e+02 -3.967856e-17 3.775293e-01 9.533869e-01 -5.566086e-20
9.9053         1.825797e+02 3.887368e+02 -3.998772e-17 1.822022e+02 3.877834e+02 -3.993201e-17 3.775176e-01 9.534640e-01 -5.570875e-20
9.90535        1.825395e+02 3.886464e+02 -4.023283e-17 1.821620e+02 3.876928e+02 -4.017708e-17 3.775054e-01 9.535398e-01 -5.575592e-20
9.9054         1.825078e+02 3.885681e+02 -4.048738e-17 1.821303e+02 3.876145e+02 -4.043158e-17 3.774926e-01 9.536143e-01 -5.580247e-20
9.90545        1.824694e+02 3.884801e+02 -4.073778e-17 1.820919e+02 3.875264e+02 -4.068193e-17 3.774792e-01 9.536877e-01 -5.584840e-20
9.9055         1.824358e+02 3.883987e+02 -4.099477e-17 1.820583e+02 3.874450e+02 -4.093888e-17 3.774653e-01 9.537600e-01 -5.589374e-20
9.90555        1.823977e+02 3.883104e+02 -4.125114e-17 1.820203e+02 3.873565e+02 -4.119520e-17 3.774508e-01 9.538312e-01 -5.593850e-20
9.9056         1.823625e+02 3.882230e+02 -4.152444e-17 1.819851e+02 3.872691e+02 -4.146846e-17 3.774357e-01 9.539012e-01 -5.598281e-20
9.90565        1.823451e+02 3.881797e+02 -4.174087e-17 1.819677e+02 3.872257e+02 -4.168485e-17 3.774201e-01 9.539703e-01 -5.602682e-20
9.9057         1.823039e+02 3.880844e+02 -4.200532e-17 1.819265e+02 3.871303e+02 -4.194925e-17 3.774039e-01 9.540384e-01 -5.606990e-20
9.90575        1.822758e+02 3.880143e+02 -4.226596e-17 1.818984e+02 3.870602e+02 -4.220985e-17 3.773871e-01 9.541055e-01 -5.611265e-20
9.9058         1.822379e+02 3.879248e+02 -4.253177e-17 1.818605e+02 3.869706e+02 -4.247561e-17 3.773699e-01 9.541717e-01 -5.615478e-20
9.90585        1.821998e+02 3.878348e+02 -4.279919e-17 1.818225e+02 3.868806e+02 -4.274299e-17 3.773520e-01 9.542370e-01 -5.619644e-20
9.9059         1.821607e+02 3.877423e+02 -4.307115e-17 1.817833e+02 3.867880e+02 -4.301491e-17 3.773337e-01 9.543013e-01 -5.623762e-20
9.90595        1.821646e+02 3.877380e+02 -4.322776e-17 1.817873e+02 3.867836e+02 -4.317148e-17 3.773147e-01 9.543649e-01 -5.627906e-20
9.906          1.820949e+02 3.875814e+02 -4.373121e-17 1.817176e+02 3.866270e+02 -4.367489e-17 3.772953e-01 9.544277e-01 -5.631877e-20
9.90605        1.820592e+02 3.874947e+02 -4.395125e-17 1.816820e+02 3.865402e+02 -4.389489e-17 3.772754e-01 9.544895e-01 -5.635884e-20
9.9061         1.819854e+02 3.873294e+02 -4.424020e-17 1.816081e+02 3.863748e+02 -4.418380e-17 3.772550e-01 9.545505e-01 -5.639749e-20
9.90615        1.819382e+02 3.872277e+02 -4.450951e-17 1.815609e+02 3.862731e+02 -4.445308e-17 3.772341e-01 9.546108e-01 -5.643664e-20
9.9062         1.819039e+02 3.871417e+02 -4.479625e-17 1.815267e+02 3.861870e+02 -4.473978e-17 3.772127e-01 9.546703e-01 -5.647532e-20
9.90625        1.818571e+02 3.870348e+02 -4.507777e-17 1.814799e+02 3.860801e+02 -4.502125e-17 3.771909e-01 9.547291e-01 -5.651348e-20
9.9063         1.818189e+02 3.869571e+02 -4.534457e-17 1.814417e+02 3.860023e+02 -4.528802e-17 3.771686e-01 9.547871e-01 -5.655176e-20
9.90635        1.818082e+02 3.869123e+02 -4.562941e-17 1.814311e+02 3.859575e+02 -4.557282e-17 3.771458e-01 9.548446e-01 -5.658953e-20
9.9064         1.817668e+02 3.868151e+02 -4.591871e-17 1.813897e+02 3.858602e+02 -4.586209e-17 3.771225e-01 9.549013e-01 -5.662664e-20
9.90645        1.817246e+02 3.867167e+02 -4.622534e-17 1.813475e+02 3.857617e+02 -4.616867e-17 3.770988e-01 9.549574e-01 -5.666342e-20
9.9065         1.816775e+02 3.866064e+02 -4.653857e-17 1.813004e+02 3.856514e+02 -4.648187e-17 3.770747e-01 9.550127e-01 -5.669969e-20
9.90655        1.816340e+02 3.865047e+02 -4.683823e-17 1.812569e+02 3.855497e+02 -4.678150e-17 3.770502e-01 9.550673e-01 -5.673572e-20
9.9066         1.815871e+02 3.863939e+02 -4.715160e-17 1.812101e+02 3.854387e+02 -4.709483e-17 3.770254e-01 9.551213e-01 -5.677139e-20
9.90665        1.815273e+02 3.862712e+02 -4.740026e-17 1.811503e+02 3.853160e+02 -4.734345e-17 3.769998e-01 9.551747e-01 -5.680661e-20
9.9067         1.814901e+02 3.861858e+02 -4.772898e-17 1.811131e+02 3.852306e+02 -4.767214e-17 3.769734e-01 9.552275e-01 -5.684134e-20
9.90675        1.814406e+02 3.860753e+02 -4.804223e-17 1.810636e+02 3.851200e+02 -4.798536e-17 3.769467e-01 9.552797e-01 -5.687597e-20
9.9068         1.813984e+02 3.859707e+02 -4.835717e-17 1.810215e+02 3.850154e+02 -4.830026e-17 3.769196e-01 9.553312e-01 -5.691020e-20
9.90685        1.813467e+02 3.858548e+02 -4.865115e-17 1.809698e+02 3.848994e+02 -4.859421e-17 3.768926e-01 9.553819e-01 -5.694412e-20
9.9069         1.813347e+02 3.858125e+02 -4.896570e-17 1.809578e+02 3.848571e+02 -4.890872e-17 3.768651e-01 9.554320e-01 -5.697829e-20
9.90695        1.812700e+02 3.856695e+02 -4.928741e-17 1.808932e+02 3.847140e+02 -4.923039e-17 3.768372e-01 9.554815e-01 -5.701189e-20
9.907          1.812262e+02 3.855692e+02 -4.961123e-17 1.808494e+02 3.846137e+02 -4.955419e-17 3.768089e-01 9.555304e-01 -5.704492e-20
9.90705        1.811784e+02 3.854604e+02 -4.993921e-17 1.808017e+02 3.845049e+02 -4.988213e-17 3.767803e-01 9.555787e-01 -5.707768e-20
9.9071         1.811308e+02 3.853524e+02 -5.026289e-17 1.807541e+02 3.843967e+02 -5.020578e-17 3.767513e-01 9.556264e-01 -5.711021e-20
9.90715        1.810821e+02 3.852417e+02 -5.059240e-17 1.807054e+02 3.842860e+02 -5.053526e-17 3.767220e-01 9.556734e-01 -5.714242e-20
9.9072         1.810319e+02 3.851278e+02 -5.092823e-17 1.806552e+02 3.841720e+02 -5.087105e-17 3.766923e-01 9.557199e-01 -5.717433e-20
9.90725        1.809805e+02 3.850112e+02 -5.126746e-17 1.806038e+02 3.840554e+02 -5.121026e-17 3.766623e-01 9.557658e-01 -5.720595e-20
9.9073         1.809229e+02 3.848799e+02 -5.161532e-17 1.805463e+02 3.839241e+02 -5.155809e-17 3.766320e-01 9.558111e-01 -5.723720e-20
9.90735        1.808886e+02 3.848047e+02 -5.194357e-17 1.805120e+02 3.838489e+02 -5.188630e-17 3.766013e-01 9.558559e-01 -5.726866e-20
9.9074         1.808341e+02 3.846807e+02 -5.229323e-17 1.804575e+02 3.837248e+02 -5.223593e-17 3.765703e-01 9.559002e-01 -5.729938e-20
9.90745        1.807815e+02 3.845619e+02 -5.264498e-17 1.804050e+02 3.836060e+02 -5.258765e-17 3.765390e-01 9.559438e-01 -5.732995e-20
9.9075         1.807252e+02 3.844329e+02 -5.300270e-17 1.803487e+02 3.834769e+02 -5.294534e-17 3.765075e-01 9.559869e-01 -5.736013e-20
9.90755        1.806785e+02 3.843306e+02 -5.335841e-17 1.803021e+02 3.833746e+02 -5.330102e-17 3.764756e-01 9.560296e-01 -5.739036e-20
9.9076         1.806188e+02 3.841960e+02 -5.373163e-17 1.802423e+02 3.832399e+02 -5.367421e-17 3.764434e-01 9.560716e-01 -5.742002e-20
9.90765        1.805733e+02 3.840879e+02 -5.401341e-17 1.801969e+02 3.831318e+02 -5.395596e-17 3.764109e-01 9.561132e-01 -5.744970e-20
9.9077         1.805200e+02 3.839731e+02 -5.440490e-17 1.801437e+02 3.830169e+02 -5.434742e-17 3.763782e-01 9.561542e-01 -5.747904e-20
9.90775        1.804644e+02 3.838476e+02 -5.478130e-17 1.800881e+02 3.828914e+02 -5.472379e-17 3.763452e-01 9.561948e-01 -5.750807e-20
9.9078         1.804082e+02 3.837205e+02 -5.515772e-17 1.800318e+02 3.827642e+02 -5.510018e-17 3.763119e-01 9.562348e-01 -5.753685e-20
9.90785        1.803512e+02 3.835916e+02 -5.553626e-17 1.799749e+02 3.826353e+02 -5.547870e-17 3.762785e-01 9.562743e-01 -5.756536e-20
9.9079         1.802944e+02 3.834630e+02 -5.591731e-17 1.799182e+02 3.825067e+02 -5.585972e-17 3.762448e-01 9.563133e-01 -5.759367e-20
9.90795        1.802373e+02 3.833336e+02 -5.630136e-17 1.798611e+02 3.823772e+02 -5.624373e-17 3.762108e-01 9.563518e-01 -5.762174e-20
9.908          1.801797e+02 3.832030e+02 -5.668859e-17 1.798035e+02 3.822466e+02 -5.663095e-17 3.761767e-01 9.563898e-01 -5.764959e-20
9.90805        1.801218e+02 3.830715e+02 -5.707914e-17 1.797456e+02 3.821151e+02 -5.702146e-17 3.761423e-01 9.564272e-01 -5.767722e-20
9.9081         1.800634e+02 3.829388e+02 -5.747306e-17 1.796873e+02 3.819824e+02 -5.741535e-17 3.761078e-01 9.564642e-01 -5.770462e-20
9.90815        1.800045e+02 3.828051e+02 -5.787026e-17 1.796285e+02 3.818486e+02 -5.781252e-17 3.760730e-01 9.565006e-01 -5.773181e-20
9.9082         1.799453e+02 3.826704e+02 -5.827059e-17 1.795693e+02 3.817138e+02 -5.821283e-17 3.760381e-01 9.565366e-01 -5.775878e-20
9.90825        1.798862e+02 3.825359e+02 -5.867224e-17 1.795102e+02 3.815793e+02 -5.861446e-17 3.760030e-01 9.565720e-01 -5.778555e-20
9.9083         1.798223e+02 3.823897e+02 -5.909925e-17 1.794464e+02 3.814331e+02 -5.904144e-17 3.759677e-01 9.566070e-01 -5.781199e-20
9.90835        1.797618e+02 3.822520e+02 -5.950549e-17 1.793858e+02 3.812954e+02 -5.944766e-17 3.759322e-01 9.566414e-01 -5.783836e-20
9.9084         1.796999e+02 3.821110e+02 -5.991979e-17 1.793240e+02 3.811543e+02 -5.986193e-17 3.758966e-01 9.566753e-01 -5.786448e-20
9.90845        1.796388e+02 3.819713e+02 -6.033820e-17 1.792630e+02 3.810146e+02 -6.028031e-17 3.758608e-01 9.567087e-01 -5.789047e-20
9.9085         1.795765e+02 3.818291e+02 -6.076113e-17 1.792007e+02 3.808724e+02 -6.070321e-17 3.758248e-01 9.567416e-01 -5.791618e-20
9.90855        1.795128e+02 3.816835e+02 -6.118796e-17 1.791370e+02 3.807268e+02 -6.113002e-17 3.757887e-01 9.567741e-01 -5.794171e-20
9.9086         1.794501e+02 3.815399e+02 -6.161831e-17 1.790743e+02 3.805831e+02 -6.156035e-17 3.757525e-01 9.568060e-01 -5.796706e-20
9.90865        1.793857e+02 3.813926e+02 -6.205238e-17 1.790100e+02 3.804358e+02 -6.199438e-17 3.757161e-01 9.568374e-01 -5.799221e-20
9.9087         1.793213e+02 3.812450e+02 -6.248920e-17 1.789456e+02 3.802881e+02 -6.243118e-17 3.756797e-01 9.568683e-01 -5.801717e-20
9.90875        1.792590e+02 3.811020e+02 -6.291702e-17 1.788834e+02 3.801451e+02 -6.285898e-17 3.756431e-01 9.568987e-01 -5.804201e-20
9.9088         1.791870e+02 3.809370e+02 -6.339747e-17 1.788114e+02 3.799801e+02 -6.333940e-17 3.756064e-01 9.569286e-01 -5.806646e-20
9.90885        1.791205e+02 3.807838e+02 -6.384547e-17 1.787449e+02 3.798268e+02 -6.378738e-17 3.755696e-01 9.569580e-01 -5.809086e-20
9.9089         1.790525e+02 3.806264e+02 -6.429954e-17 1.786770e+02 3.796694e+02 -6.424143e-17 3.755328e-01 9.569868e-01 -5.811506e-20
9.90895        1.789844e+02 3.804743e+02 -6.475924e-17 1.786089e+02 3.795173e+02 -6.470110e-17 3.754959e-01 9.570151e-01 -5.813905e-20
9.909          1.789233e+02 3.803403e+02 -6.522043e-17 1.785479e+02 3.793833e+02 -6.516227e-17 3.754585e-01 9.570431e-01 -5.816309e-20
9.90905        1.788596e+02 3.801975e+02 -6.567467e-17 1.784842e+02 3.792404e+02 -6.561648e-17 3.754209e-01 9.570707e-01 -5.818700e-20
9.9091         1.787892e+02 3.800348e+02 -6.614622e-17 1.784138e+02 3.790777e+02 -6.608801e-17 3.753832e-01 9.570977e-01 -5.821046e-20
9.90915        1.787193e+02 3.798776e+02 -6.661879e-17 1.783440e+02 3.789205e+02 -6.656056e-17 3.753455e-01 9.571242e-01 -5.823381e-20
9.9092         1.786455e+02 3.797011e+02 -6.710330e-17 1.782702e+02 3.787439e+02 -6.704504e-17 3.753079e-01 9.571501e-01 -5.825685e-20
9.90925        1.785742e+02 3.795378e+02 -6.758522e-17 1.781989e+02 3.785806e+02 -6.752694e-17 3.752702e-01 9.571756e-01 -5.827984e-20
9.9093         1.785025e+02 3.793734e+02 -6.806942e-17 1.781273e+02 3.784162e+02 -6.801112e-17 3.752325e-01 9.572005e-01 -5.830267e-20
9.90935        1.784317e+02 3.792110e+02 -6.855078e-17 1.780565e+02 3.782538e+02 -6.849245e-17 3.751948e-01 9.572248e-01 -5.832536e-20
9.9094         1.783420e+02 3.790104e+02 -6.904704e-17 1.779669e+02 3.780531e+02 -6.898869e-17 3.751570e-01 9.572487e-01 -5.834759e-20
9.90945        1.782643e+02 3.788275e+02 -6.967328e-17 1.778892e+02 3.778702e+02 -6.961491e-17 3.751193e-01 9.572720e-01 -5.836967e-20
9.9095         1.781890e+02 3.786549e+02 -7.016618e-17 1.778139e+02 3.776976e+02 -7.010779e-17 3.750816e-01 9.572947e-01 -5.839180e-20
9.90955        1.781042e+02 3.784606e+02 -7.072377e-17 1.777291e+02 3.775032e+02 -7.066535e-17 3.750439e-01 9.573169e-01 -5.841357e-20
9.9096         1.780532e+02 3.783435e+02 -7.113255e-17 1.776782e+02 3.773862e+02 -7.107412e-17 3.750061e-01 9.573387e-01 -5.843593e-20
9.90965        1.779745e+02 3.781628e+02 -7.166313e-17 1.775995e+02 3.772055e+02 -7.160467e-17 3.749683e-01 9.573599e-01 -5.845751e-20
9.9097         1.779231e+02 3.780406e+02 -7.218399e-17 1.775481e+02 3.770832e+02 -7.212551e-17 3.749306e-01 9.573806e-01 -5.847945e-20
9.90975        1.778303e+02 3.778340e+02 -7.271953e-17 1.774554e+02 3.768766e+02 -7.266103e-17 3.748928e-01 9.574009e-01 -5.850061e-20
9.9098         1.777479e+02 3.776462e+02 -7.325867e-17 1.773731e+02 3.766887e+02 -7.320015e-17 3.748551e-01 9.574207e-01 -5.852169e-20
9.90985        1.776662e+02 3.774604e+02 -7.380213e-17 1.772914e+02 3.765029e+02 -7.374359e-17 3.748173e-01 9.574399e-01 -5.854266e-20
9.9099         1.775798e+02 3.772710e+02 -7.435246e-17 1.772050e+02 3.763135e+02 -7.429389e-17 3.747796e-01 9.574586e-01 -5.856351e-20
9.90995        1.775069e+02 3.770817e+02 -7.489628e-17 1.771321e+02 3.761242e+02 -7.483769e-17 3.747422e-01 9.574767e-01 -5.858389e-20
9.91           1.774261e+02 3.768985e+02 -7.545963e-17 1.770514e+02 3.759410e+02 -7.540103e-17 3.747051e-01 9.574941e-01 -5.860446e-20
9.91005        1.773390e+02 3.767013e+02 -7.602244e-17 1.769643e+02 3.757438e+02 -7.596381e-17 3.746680e-01 9.575111e-01 -5.862475e-20
9.9101         1.772549e+02 3.765093e+02 -7.658918e-17 1.768803e+02 3.755518e+02 -7.653054e-17 3.746310e-01 9.575275e-01 -5.864492e-20
9.91015        1.771689e+02 3.763129e+02 -7.716093e-17 1.767943e+02 3.753554e+02 -7.710226e-17 3.745941e-01 9.575433e-01 -5.866490e-20
9.9102         1.770816e+02 3.761134e+02 -7.773693e-17 1.767070e+02 3.751558e+02 -7.767825e-17 3.745574e-01 9.575586e-01 -5.868472e-20
9.91025        1.769921e+02 3.759085e+02 -7.831753e-17 1.766176e+02 3.749509e+02 -7.825883e-17 3.745208e-01 9.575733e-01 -5.870434e-20
9.9103         1.769315e+02 3.757710e+02 -7.887978e-17 1.765570e+02 3.748134e+02 -7.882105e-17 3.744843e-01 9.575875e-01 -5.872451e-20
9.91035        1.768409e+02 3.755662e+02 -7.944253e-17 1.764664e+02 3.746086e+02 -7.938378e-17 3.744478e-01 9.576013e-01 -5.874385e-20
9.9104         1.767435e+02 3.753417e+02 -8.017722e-17 1.763691e+02 3.743841e+02 -8.011846e-17 3.744114e-01 9.576146e-01 -5.876273e-20
9.91045        1.765921e+02 3.749979e+02 -8.099851e-17 1.762177e+02 3.740403e+02 -8.093973e-17 3.743756e-01 9.576269e-01 -5.878053e-20
9.9105         1.765372e+02 3.748724e+02 -8.144135e-17 1.761629e+02 3.739147e+02 -8.138255e-17 3.743398e-01 9.576388e-01 -5.880025e-20
9.91055        1.764440e+02 3.746601e+02 -8.207135e-17 1.760697e+02 3.737024e+02 -8.201253e-17 3.743042e-01 9.576501e-01 -5.881896e-20
9.9106         1.763498e+02 3.744443e+02 -8.268183e-17 1.759755e+02 3.734866e+02 -8.262299e-17 3.742689e-01 9.576609e-01 -5.883756e-20
9.91065        1.762553e+02 3.742287e+02 -8.331156e-17 1.758810e+02 3.732710e+02 -8.325270e-17 3.742338e-01 9.576712e-01 -5.885604e-20
9.9107         1.761629e+02 3.740176e+02 -8.393246e-17 1.757887e+02 3.730599e+02 -8.387358e-17 3.741988e-01 9.576806e-01 -5.887436e-20
9.91075        1.760486e+02 3.737572e+02 -8.468300e-17 1.756745e+02 3.727995e+02 -8.462410e-17 3.741641e-01 9.576893e-01 -5.889178e-20
9.9108         1.759543e+02 3.735417e+02 -8.531624e-17 1.755802e+02 3.725840e+02 -8.525733e-17 3.741296e-01 9.576973e-01 -5.890957e-20
9.91085        1.758558e+02 3.733170e+02 -8.597270e-17 1.754817e+02 3.723593e+02 -8.591377e-17 3.740955e-01 9.577048e-01 -5.892715e-20
9.9109         1.757591e+02 3.730956e+02 -8.664270e-17 1.753850e+02 3.721378e+02 -8.658376e-17 3.740616e-01 9.577116e-01 -5.894461e-20
9.91095        1.756524e+02 3.728539e+02 -8.732766e-17 1.752784e+02 3.718962e+02 -8.726870e-17 3.740280e-01 9.577179e-01 -5.896180e-20
9.911          1.755537e+02 3.726284e+02 -8.798300e-17 1.751797e+02 3.716707e+02 -8.792402e-17 3.739947e-01 9.577235e-01 -5.897896e-20