# Moment      
# CofR        : (0.000000e+00 0.000000e+00 0.000000e+00)
#
# Time        	total_x total_y total_z	pressure_x pressure_y pressure_z	viscous_x viscous_y viscous_z
9.9001         -1.913978e+02 8.706520e+01 1.922695e+03 -1.909366e+02 8.689178e+01 1.918597e+03 -4.611778e-01 1.734232e-01 4.098422e+00
9.9002         -1.955813e+02 8.958013e+01 1.957233e+03 -1.951204e+02 8.940504e+01 1.953153e+03 -4.609568e-01 1.750862e-01 4.079887e+00
9.9003         -1.971046e+02 9.078168e+01 1.967206e+03 -1.966436e+02 9.060532e+01 1.963139e+03 -4.609943e-01 1.763663e-01 4.067441e+00
9.9004         -1.975483e+02 9.134511e+01 1.968257e+03 -1.970872e+02 9.116770e+01 1.964198e+03 -4.611920e-01 1.774082e-01 4.058797e+00
9.9005         -1.976077e+02 9.163903e+01 1.966380e+03 -1.971462e+02 9.146074e+01 1.962327e+03 -4.614925e-01 1.782847e-01 4.052731e+00
9.9006         -1.974291e+02 9.176279e+01 1.962674e+03 -1.969673e+02 9.158375e+01 1.958626e+03 -4.618551e-01 1.790358e-01 4.048492e+00
9.9007         -1.973277e+02 9.188855e+01 1.960337e+03 -1.968655e+02 9.170886e+01 1.956292e+03 -4.622512e-01 1.796863e-01 4.045576e+00
9.9008         -1.971313e+02 9.193657e+01 1.957107e+03 -1.966687e+02 9.175632e+01 1.953064e+03 -4.626624e-01 1.802528e-01 4.043656e+00
9.9009         -1.968728e+02 9.193132e+01 1.953306e+03 -1.964098e+02 9.175057e+01 1.949263e+03 -4.630756e-01 1.807490e-01 4.042468e+00
9.901          -1.966587e+02 9.192345e+01 1.950124e+03 -1.961952e+02 9.174227e+01 1.946082e+03 -4.634837e-01 1.811850e-01 4.041845e+00
9.9011         -1.964979e+02 9.192509e+01 1.947612e+03 -1.960341e+02 9.174352e+01 1.943570e+03 -4.638824e-01 1.815693e-01 4.041660e+00
9.9012         -1.963460e+02 9.191222e+01 1.945485e+03 -1.958818e+02 9.173031e+01 1.941443e+03 -4.642691e-01 1.819093e-01 4.041817e+00
9.9013         -1.962296e+02 9.189529e+01 1.943426e+03 -1.957650e+02 9.171308e+01 1.939384e+03 -4.646431e-01 1.822099e-01 4.042257e+00
9.9014         -1.961816e+02 9.191342e+01 1.942303e+03 -1.957166e+02 9.173095e+01 1.938260e+03 -4.650033e-01 1.824761e-01 4.042921e+00
9.9015         -1.961392e+02 9.191247e+01 1.941346e+03 -1.956739e+02 9.172976e+01 1.937303e+03 -4.653494e-01 1.827117e-01 4.043767e+00
9.9016         -1.961432e+02 9.193697e+01 1.940964e+03 -1.956776e+02 9.175405e+01 1.936920e+03 -4.656818e-01 1.829200e-01 4.044767e+00
9.9017         -1.961061e+02 9.193651e+01 1.940141e+03 -1.956401e+02 9.175341e+01 1.936095e+03 -4.660002e-01 1.831041e-01 4.045885e+00
9.9018         -1.960716e+02 9.193329e+01 1.939302e+03 -1.956053e+02 9.175002e+01 1.935255e+03 -4.663052e-01 1.832667e-01 4.047100e+00
9.9019         -1.960427e+02 9.193041e+01 1.938589e+03 -1.955761e+02 9.174700e+01 1.934540e+03 -4.665973e-01 1.834098e-01 4.048396e+00
9.902          -1.960016e+02 9.192131e+01 1.937840e+03 -1.955347e+02 9.173778e+01 1.933790e+03 -4.668767e-01 1.835357e-01 4.049751e+00
9.9021         -1.960446e+02 9.195194e+01 1.938117e+03 -1.955775e+02 9.176830e+01 1.934066e+03 -4.671442e-01 1.836464e-01 4.051154e+00
9.9022         -1.960833e+02 9.197225e+01 1.938383e+03 -1.956159e+02 9.178851e+01 1.934331e+03 -4.674009e-01 1.837428e-01 4.052606e+00
9.9023         -1.959909e+02 9.193790e+01 1.937069e+03 -1.955232e+02 9.175407e+01 1.933015e+03 -4.676466e-01 1.838271e-01 4.054082e+00
9.9024         -1.959787e+02 9.193850e+01 1.936735e+03 -1.955108e+02 9.175459e+01 1.932680e+03 -4.678819e-01 1.839002e-01 4.055576e+00
9.9025         -1.959468e+02 9.192974e+01 1.936198e+03 -1.954787e+02 9.174578e+01 1.932141e+03 -4.681075e-01 1.839634e-01 4.057083e+00
9.9026         -1.959055e+02 9.191724e+01 1.935551e+03 -1.954372e+02 9.173322e+01 1.931493e+03 -4.683238e-01 1.840177e-01 4.058596e+00
9.9027         -1.958690e+02 9.190699e+01 1.935010e+03 -1.954005e+02 9.172293e+01 1.930950e+03 -4.685313e-01 1.840639e-01 4.060109e+00
9.9028         -1.958178e+02 9.188836e+01 1.934251e+03 -1.953491e+02 9.170426e+01 1.930190e+03 -4.687305e-01 1.841029e-01 4.061617e+00
9.9029         -1.957728e+02 9.187288e+01 1.933606e+03 -1.953039e+02 9.168875e+01 1.929543e+03 -4.689218e-01 1.841354e-01 4.063119e+00
9.903          -1.957309e+02 9.185815e+01 1.933009e+03 -1.952618e+02 9.167398e+01 1.928944e+03 -4.691057e-01 1.841620e-01 4.064613e+00
9.9031         -1.956885e+02 9.184119e+01 1.932426e+03 -1.952192e+02 9.165701e+01 1.928360e+03 -4.692827e-01 1.841831e-01 4.066096e+00
9.9032         -1.956361e+02 9.182866e+01 1.931673e+03 -1.951666e+02 9.164446e+01 1.927606e+03 -4.694528e-01 1.841998e-01 4.067561e+00
9.9033         -1.955912e+02 9.181109e+01 1.931071e+03 -1.951216e+02 9.162687e+01 1.927002e+03 -4.696167e-01 1.842122e-01 4.069009e+00
9.9034         -1.955430e+02 9.179236e+01 1.930430e+03 -1.950732e+02 9.160813e+01 1.926360e+03 -4.697746e-01 1.842206e-01 4.070443e+00
9.9035         -1.954921e+02 9.177235e+01 1.929761e+03 -1.950222e+02 9.158813e+01 1.925689e+03 -4.699270e-01 1.842252e-01 4.071861e+00
9.9036         -1.954119e+02 9.173943e+01 1.928738e+03 -1.949418e+02 9.155521e+01 1.924665e+03 -4.700740e-01 1.842266e-01 4.073261e+00
9.9037         -1.954069e+02 9.173900e+01 1.928644e+03 -1.949367e+02 9.155478e+01 1.924569e+03 -4.702160e-01 1.842245e-01 4.074647e+00
9.9038         -1.953492e+02 9.171551e+01 1.927903e+03 -1.948789e+02 9.153129e+01 1.923827e+03 -4.703533e-01 1.842195e-01 4.076016e+00
9.9039         -1.952962e+02 9.169384e+01 1.927225e+03 -1.948257e+02 9.150963e+01 1.923148e+03 -4.704861e-01 1.842119e-01 4.077367e+00
9.904          -1.952519e+02 9.167625e+01 1.926643e+03 -1.947813e+02 9.149205e+01 1.922564e+03 -4.706145e-01 1.842019e-01 4.078700e+00
9.9041         -1.951849e+02 9.164779e+01 1.925817e+03 -1.947141e+02 9.146360e+01 1.921737e+03 -4.707389e-01 1.841896e-01 4.080016e+00
9.9042         -1.951275e+02 9.162374e+01 1.925100e+03 -1.946567e+02 9.143957e+01 1.921019e+03 -4.708593e-01 1.841752e-01 4.081314e+00
9.9043         -1.950675e+02 9.159836e+01 1.924357e+03 -1.945966e+02 9.141420e+01 1.920275e+03 -4.709760e-01 1.841588e-01 4.082594e+00
9.9044         -1.950042e+02 9.157136e+01 1.923578e+03 -1.945331e+02 9.138722e+01 1.919494e+03 -4.710892e-01 1.841406e-01 4.083857e+00
9.9045         -1.949394e+02 9.154363e+01 1.922784e+03 -1.944682e+02 9.135951e+01 1.918699e+03 -4.711989e-01 1.841206e-01 4.085103e+00
9.9046         -1.948756e+02 9.151628e+01 1.921996e+03 -1.944043e+02 9.133218e+01 1.917910e+03 -4.713053e-01 1.840990e-01 4.086331e+00
9.9047         -1.947899e+02 9.147870e+01 1.920999e+03 -1.943185e+02 9.129462e+01 1.916911e+03 -4.714086e-01 1.840760e-01 4.087541e+00
9.9048         -1.947756e+02 9.147111e+01 1.920831e+03 -1.943041e+02 9.128706e+01 1.916742e+03 -4.715088e-01 1.840516e-01 4.088734e+00
9.9049         -1.947014e+02 9.144053e+01 1.919929e+03 -1.942298e+02 9.125650e+01 1.915839e+03 -4.716064e-01 1.840255e-01 4.089918e+00
9.905          -1.946248e+02 9.140759e+01 1.919011e+03 -1.941531e+02 9.122359e+01 1.914920e+03 -4.717012e-01 1.839983e-01 4.091083e+00
9.9051         -1.945486e+02 9.137428e+01 1.918096e+03 -1.940768e+02 9.119031e+01 1.914004e+03 -4.717933e-01 1.839699e-01 4.092232e+00
9.9052         -1.944732e+02 9.134120e+01 1.917190e+03 -1.940013e+02 9.115726e+01 1.913097e+03 -4.718827e-01 1.839403e-01 4.093364e+00
9.9053         -1.943988e+02 9.130938e+01 1.916304e+03 -1.939269e+02 9.112547e+01 1.912210e+03 -4.719697e-01 1.839097e-01 4.094480e+00
9.9054         -1.943195e+02 9.127391e+01 1.915351e+03 -1.938475e+02 9.109004e+01 1.911255e+03 -4.720542e-01 1.838780e-01 4.095582e+00
9.9055         -1.942392e+02 9.123914e+01 1.914389e+03 -1.937670e+02 9.105530e+01 1.910292e+03 -4.721364e-01 1.838454e-01 4.096668e+00
9.9056         -1.941669e+02 9.120695e+01 1.913526e+03 -1.936947e+02 9.102314e+01 1.909428e+03 -4.722164e-01 1.838118e-01 4.097738e+00
9.9057         -1.940837e+02 9.116983e+01 1.912547e+03 -1.936114e+02 9.098605e+01 1.908448e+03 -4.722943e-01 1.837769e-01 4.098798e+00
9.9058         -1.939999e+02 9.113351e+01 1.911548e+03 -1.935275e+02 9.094977e+01 1.907448e+03 -4.723701e-01 1.837412e-01 4.099843e+00
9.9059         -1.939108e+02 9.109475e+01 1.910480e+03 -1.934383e+02 9.091104e+01 1.906379e+03 -4.724439e-01 1.837048e-01 4.100873e+00
9.906          -1.938175e+02 9.105394e+01 1.909346e+03 -1.933450e+02 9.087027e+01 1.905245e+03 -4.725157e-01 1.836676e-01 4.101889e+00
9.9061         -1.937390e+02 9.102074e+01 1.908429e+03 -1.932665e+02 9.083711e+01 1.904326e+03 -4.725854e-01 1.836298e-01 4.102887e+00
9.9062         -1.936432e+02 9.097865e+01 1.907286e+03 -1.931706e+02 9.079506e+01 1.903182e+03 -4.726534e-01 1.835915e-01 4.103872e+00
9.9063         -1.935278e+02 9.092856e+01 1.905907e+03 -1.930550e+02 9.074501e+01 1.901802e+03 -4.727195e-01 1.835526e-01 4.104840e+00
9.9064         -1.934688e+02 9.090279e+01 1.905204e+03 -1.929960e+02 9.071927e+01 1.901098e+03 -4.727839e-01 1.835129e-01 4.105798e+00
9.9065         -1.933705e+02 9.085981e+01 1.904008e+03 -1.928977e+02 9.067633e+01 1.899901e+03 -4.728467e-01 1.834728e-01 4.106741e+00
9.9066         -1.932644e+02 9.081432e+01 1.902759e+03 -1.927915e+02 9.063088e+01 1.898651e+03 -4.729077e-01 1.834322e-01 4.107669e+00
9.9067         -1.931793e+02 9.077722e+01 1.901746e+03 -1.927064e+02 9.059383e+01 1.897638e+03 -4.729672e-01 1.833912e-01 4.108583e+00
9.9068         -1.930818e+02 9.073500e+01 1.900570e+03 -1.926088e+02 9.055166e+01 1.896460e+03 -4.730252e-01 1.833497e-01 4.109484e+00
9.9069         -1.929724e+02 9.068745e+01 1.899273e+03 -1.924993e+02 9.050414e+01 1.895162e+03 -4.730816e-01 1.833078e-01 4.110371e+00
9.907          -1.928783e+02 9.064792e+01 1.898121e+03 -1.924052e+02 9.046466e+01 1.894009e+03 -4.731365e-01 1.832656e-01 4.111243e+00
9.9071         -1.927585e+02 9.059751e+01 1.896755e+03 -1.922853e+02 9.041429e+01 1.892643e+03 -4.731898e-01 1.832235e-01 4.112097e+00
9.9072         -1.926446e+02 9.054718e+01 1.895422e+03 -1.921714e+02 9.036400e+01 1.891309e+03 -4.732416e-01 1.831811e-01 4.112935e+00
9.9073         -1.925390e+02 9.050076e+01 1.894150e+03 -1.920657e+02 9.031762e+01 1.890036e+03 -4.732922e-01 1.831383e-01 4.113761e+00
9.9074         -1.924296e+02 9.045264e+01 1.892827e+03 -1.919562e+02 9.026954e+01 1.888712e+03 -4.733413e-01 1.830953e-01 4.114573e+00
9.9075         -1.923133e+02 9.040136e+01 1.891436e+03 -1.918399e+02 9.021831e+01 1.887320e+03 -4.733891e-01 1.830521e-01 4.115369e+00
9.9076         -1.922083e+02 9.035486e+01 1.890149e+03 -1.917349e+02 9.017185e+01 1.886033e+03 -4.734356e-01 1.830088e-01 4.116151e+00
9.9077         -1.920706e+02 9.029424e+01 1.888541e+03 -1.915971e+02 9.011128e+01 1.884424e+03 -4.734807e-01 1.829654e-01 4.116917e+00
9.9078         -1.919638e+02 9.024690e+01 1.887272e+03 -1.914903e+02 9.006398e+01 1.883154e+03 -4.735246e-01 1.829219e-01 4.117668e+00
9.9079         -1.918371e+02 9.019088e+01 1.885763e+03 -1.913635e+02 9.000800e+01 1.881645e+03 -4.735672e-01 1.828783e-01 4.118405e+00
9.908          -1.917102e+02 9.013474e+01 1.884253e+03 -1.912366e+02 8.995191e+01 1.880134e+03 -4.736086e-01 1.828346e-01 4.119126e+00
9.9081         -1.915805e+02 9.007740e+01 1.882710e+03 -1.911069e+02 8.989461e+01 1.878590e+03 -4.736486e-01 1.827910e-01 4.119831e+00
9.9082         -1.914420e+02 9.001635e+01 1.881067e+03 -1.909683e+02 8.983360e+01 1.876946e+03 -4.736875e-01 1.827474e-01 4.120519e+00
9.9083         -1.913239e+02 8.996382e+01 1.879663e+03 -1.908502e+02 8.978112e+01 1.875542e+03 -4.737252e-01 1.827038e-01 4.121193e+00
9.9084         -1.911874e+02 8.990355e+01 1.878027e+03 -1.907136e+02 8.972089e+01 1.873905e+03 -4.737616e-01 1.826603e-01 4.121849e+00
9.9085         -1.910521e+02 8.984294e+01 1.876414e+03 -1.905783e+02 8.966033e+01 1.872291e+03 -4.737969e-01 1.826169e-01 4.122489e+00
9.9086         -1.909205e+02 8.978388e+01 1.874847e+03 -1.904466e+02 8.960131e+01 1.870724e+03 -4.738310e-01 1.825734e-01 4.123115e+00
9.9087         -1.907754e+02 8.972035e+01 1.873116e+03 -1.903016e+02 8.953782e+01 1.868992e+03 -4.738640e-01 1.825301e-01 4.123724e+00
9.9088         -1.906256e+02 8.965411e+01 1.871305e+03 -1.901517e+02 8.947162e+01 1.867181e+03 -4.738957e-01 1.824871e-01 4.124315e+00
9.9089         -1.904765e+02 8.958889e+01 1.869528e+03 -1.900025e+02 8.940645e+01 1.865403e+03 -4.739263e-01 1.824443e-01 4.124886e+00
9.909          -1.903261e+02 8.952211e+01 1.867791e+03 -1.898521e+02 8.933971e+01 1.863665e+03 -4.739556e-01 1.824018e-01 4.125439e+00
9.9091         -1.901695e+02 8.945333e+01 1.865907e+03 -1.896955e+02 8.927097e+01 1.861781e+03 -4.739837e-01 1.823594e-01 4.125974e+00
9.9092         -1.900193e+02 8.938754e+01 1.864109e+03 -1.895453e+02 8.920522e+01 1.859983e+03 -4.740107e-01 1.823173e-01 4.126490e+00
9.9093         -1.898628e+02 8.931898e+01 1.862235e+03 -1.893888e+02 8.913670e+01 1.858108e+03 -4.740364e-01 1.822756e-01 4.126986e+00
9.9094         -1.896996e+02 8.924712e+01 1.860278e+03 -1.892255e+02 8.906489e+01 1.856151e+03 -4.740610e-01 1.822342e-01 4.127463e+00
9.9095         -1.895132e+02 8.916471e+01 1.858060e+03 -1.890391e+02 8.898252e+01 1.853933e+03 -4.740843e-01 1.821932e-01 4.127920e+00
9.9096         -1.893538e+02 8.909835e+01 1.856145e+03 -1.888797e+02 8.891619e+01 1.852017e+03 -4.741064e-01 1.821527e-01 4.128354e+00
9.9097         -1.891910e+02 8.902568e+01 1.854192e+03 -1.887169e+02 8.884357e+01 1.850064e+03 -4.741271e-01 1.821130e-01 4.128764e+00
9.9098         -1.890130e+02 8.894777e+01 1.852061e+03 -1.885388e+02 8.876569e+01 1.847932e+03 -4.741467e-01 1.820736e-01 4.129155e+00
9.9099         -1.888316e+02 8.886845e+01 1.849888e+03 -1.883575e+02 8.868641e+01 1.845758e+03 -4.741651e-01 1.820347e-01 4.129523e+00
9.91           -1.886436e+02 8.878607e+01 1.847638e+03 -1.881694e+02 8.860407e+01 1.843508e+03 -4.741822e-01 1.819963e-01 4.129869e+00
9.9101         -1.884539e+02 8.870317e+01 1.845358e+03 -1.879797e+02 8.852121e+01 1.841228e+03 -4.741980e-01 1.819586e-01 4.130192e+00
9.9102         -1.882815e+02 8.862673e+01 1.843293e+03 -1.878073e+02 8.844480e+01 1.839162e+03 -4.742126e-01 1.819214e-01 4.130491e+00
9.9103         -1.880832e+02 8.854051e+01 1.840928e+03 -1.876090e+02 8.835862e+01 1.836797e+03 -4.742260e-01 1.818847e-01 4.130769e+00
9.9104         -1.878860e+02 8.845431e+01 1.838556e+03 -1.874117e+02 8.827246e+01 1.834425e+03 -4.742381e-01 1.818487e-01 4.131023e+00
9.9105         -1.876827e+02 8.836545e+01 1.836116e+03 -1.872084e+02 8.818364e+01 1.831985e+03 -4.742488e-01 1.818133e-01 4.131251e+00
9.9106         -1.874321e+02 8.825568e+01 1.833109e+03 -1.869578e+02 8.807390e+01 1.828978e+03 -4.742584e-01 1.817786e-01 4.131456e+00
9.9107         -1.872310e+02 8.816801e+01 1.830702e+03 -1.867567e+02 8.798626e+01 1.826570e+03 -4.742664e-01 1.817450e-01 4.131629e+00
9.9108         -1.870247e+02 8.807788e+01 1.828228e+03 -1.865504e+02 8.789617e+01 1.824096e+03 -4.742731e-01 1.817121e-01 4.131776e+00
9.9109         -1.867854e+02 8.797323e+01 1.825354e+03 -1.863111e+02 8.779155e+01 1.821222e+03 -4.742783e-01 1.816800e-01 4.131894e+00
9.911          -1.865729e+02 8.788098e+01 1.822834e+03 -1.860987e+02 8.769933e+01 1.818702e+03 -4.742821e-01 1.816488e-01 4.131984e+00
9.9111         -1.863380e+02 8.777811e+01 1.820029e+03 -1.858637e+02 8.759649e+01 1.815897e+03 -4.742844e-01 1.816184e-01 4.132046e+00
9.9112         -1.861194e+02 8.768219e+01 1.817339e+03 -1.856451e+02 8.750060e+01 1.813207e+03 -4.742854e-01 1.815888e-01 4.132081e+00
9.9113         -1.858777e+02 8.757651e+01 1.814462e+03 -1.854034e+02 8.739494e+01 1.810330e+03 -4.742849e-01 1.815602e-01 4.132086e+00
9.9114         -1.856311e+02 8.746870e+01 1.811499e+03 -1.851568e+02 8.728717e+01 1.807367e+03 -4.742829e-01 1.815325e-01 4.132060e+00
9.9115         -1.853801e+02 8.735904e+01 1.808488e+03 -1.849058e+02 8.717753e+01 1.804356e+03 -4.742794e-01 1.815059e-01 4.132002e+00
9.9116         -1.851449e+02 8.725627e+01 1.805665e+03 -1.846706e+02 8.707479e+01 1.801533e+03 -4.742743e-01 1.814802e-01 4.131914e+00
9.9117         -1.848466e+02 8.712575e+01 1.802089e+03 -1.843723e+02 8.694430e+01 1.797957e+03 -4.742675e-01 1.814557e-01 4.131789e+00
9.9118         -1.845825e+02 8.701045e+01 1.798914e+03 -1.841082e+02 8.682902e+01 1.794783e+03 -4.742591e-01 1.814324e-01 4.131631e+00
9.9119         -1.843083e+02 8.689056e+01 1.795622e+03 -1.838341e+02 8.670915e+01 1.791491e+03 -4.742490e-01 1.814101e-01 4.131439e+00
9.912          -1.840332e+02 8.677095e+01 1.792320e+03 -1.835590e+02 8.658956e+01 1.788189e+03 -4.742372e-01 1.813891e-01 4.131211e+00
9.9121         -1.837468e+02 8.664567e+01 1.788876e+03 -1.832726e+02 8.646430e+01 1.784745e+03 -4.742237e-01 1.813693e-01 4.130947e+00
9.9122         -1.834528e+02 8.651712e+01 1.785347e+03 -1.829786e+02 8.633576e+01 1.781216e+03 -4.742084e-01 1.813508e-01 4.130645e+00
9.9123         -1.831488e+02 8.638418e+01 1.781707e+03 -1.826746e+02 8.620284e+01 1.777576e+03 -4.741913e-01 1.813336e-01 4.130305e+00
9.9124         -1.828225e+02 8.624072e+01 1.777808e+03 -1.823483e+02 8.605941e+01 1.773679e+03 -4.741724e-01 1.813177e-01 4.129927e+00
9.9125         -1.824809e+02 8.609149e+01 1.773783e+03 -1.820067e+02 8.591019e+01 1.769654e+03 -4.741513e-01 1.813035e-01 4.129502e+00
9.9126         -1.821593e+02 8.595059e+01 1.769914e+03 -1.816852e+02 8.576930e+01 1.765785e+03 -4.741283e-01 1.812907e-01 4.129037e+00
9.9127         -1.818303e+02 8.580703e+01 1.765942e+03 -1.813562e+02 8.562575e+01 1.761814e+03 -4.741033e-01 1.812793e-01 4.128530e+00
9.9128         -1.815737e+02 8.569309e+01 1.762921e+03 -1.810996e+02 8.551182e+01 1.758793e+03 -4.740764e-01 1.812695e-01 4.127980e+00
9.9129         -1.812083e+02 8.553371e+01 1.758506e+03 -1.807342e+02 8.535245e+01 1.754379e+03 -4.740477e-01 1.812610e-01 4.127394e+00
9.913          -1.808560e+02 8.537911e+01 1.754280e+03 -1.803819e+02 8.519786e+01 1.750153e+03 -4.740168e-01 1.812541e-01 4.126760e+00
9.9131         -1.804972e+02 8.522297e+01 1.749976e+03 -1.800232e+02 8.504172e+01 1.745850e+03 -4.739839e-01 1.812489e-01 4.126081e+00
9.9132         -1.801381e+02 8.506466e+01 1.745649e+03 -1.796641e+02 8.488341e+01 1.741524e+03 -4.739487e-01 1.812454e-01 4.125354e+00
9.9133         -1.797445e+02 8.489226e+01 1.740933e+03 -1.792706e+02 8.471102e+01 1.736808e+03 -4.739112e-01 1.812436e-01 4.124580e+00
9.9134         -1.793211e+02 8.470602e+01 1.735856e+03 -1.788472e+02 8.452478e+01 1.731732e+03 -4.738714e-01 1.812437e-01 4.123753e+00
9.9135         -1.789064e+02 8.452370e+01 1.730894e+03 -1.784326e+02 8.434246e+01 1.726771e+03 -4.738291e-01 1.812457e-01 4.122874e+00
9.9136         -1.785376e+02 8.436336e+01 1.726461e+03 -1.780639e+02 8.418211e+01 1.722339e+03 -4.737846e-01 1.812496e-01 4.121944e+00
9.9137         -1.781299e+02 8.418452e+01 1.721570e+03 -1.776561e+02 8.400327e+01 1.717449e+03 -4.737375e-01 1.812554e-01 4.120960e+00
9.9138         -1.776982e+02 8.399521e+01 1.716392e+03 -1.772245e+02 8.381395e+01 1.712272e+03 -4.736880e-01 1.812633e-01 4.119922e+00
9.9139         -1.772557e+02 8.380063e+01 1.711092e+03 -1.767821e+02 8.361936e+01 1.706974e+03 -4.736357e-01 1.812733e-01 4.118827e+00
9.914          -1.768222e+02 8.361182e+01 1.705876e+03 -1.763486e+02 8.343053e+01 1.701759e+03 -4.735809e-01 1.812854e-01 4.117674e+00
9.9141         -1.763598e+02 8.340891e+01 1.700326e+03 -1.758862e+02 8.322761e+01 1.696210e+03 -4.735234e-01 1.812998e-01 4.116462e+00
9.9142         -1.758585e+02 8.318874e+01 1.694307e+03 -1.753850e+02 8.300742e+01 1.690192e+03 -4.734629e-01 1.813165e-01 4.115187e+00
9.9143         -1.753910e+02 8.298443e+01 1.688706e+03 -1.749176e+02 8.280310e+01 1.684593e+03 -4.733996e-01 1.813355e-01 4.113850e+00
9.9144         -1.749066e+02 8.277224e+01 1.682902e+03 -1.744333e+02 8.259088e+01 1.678790e+03 -4.733334e-01 1.813570e-01 4.112448e+00
9.9145         -1.743684e+02 8.253628e+01 1.676434e+03 -1.738951e+02 8.235490e+01 1.672323e+03 -4.732640e-01 1.813809e-01 4.110979e+00
9.9146         -1.738677e+02 8.231696e+01 1.670427e+03 -1.733945e+02 8.213555e+01 1.666318e+03 -4.731916e-01 1.814074e-01 4.109443e+00
9.9147         -1.733276e+02 8.208057e+01 1.663948e+03 -1.728545e+02 8.189913e+01 1.659840e+03 -4.731160e-01 1.814366e-01 4.107837e+00
9.9148         -1.727552e+02 8.182983e+01 1.657077e+03 -1.722822e+02 8.164837e+01 1.652971e+03 -4.730370e-01 1.814685e-01 4.106158e+00
9.9149         -1.722417e+02 8.160470e+01 1.650910e+03 -1.717687e+02 8.142319e+01 1.646806e+03 -4.729549e-01 1.815031e-01 4.104409e+00
9.915          -1.716567e+02 8.134861e+01 1.643890e+03 -1.711838e+02 8.116707e+01 1.639788e+03 -4.728693e-01 1.815405e-01 4.102586e+00
9.9151         -1.710864e+02 8.109899e+01 1.637047e+03 -1.706136e+02 8.091741e+01 1.632946e+03 -4.727803e-01 1.815808e-01 4.100686e+00
9.9152         -1.704643e+02 8.082588e+01 1.629564e+03 -1.699916e+02 8.064426e+01 1.625465e+03 -4.726876e-01 1.816241e-01 4.098708e+00
9.9153         -1.698904e+02 8.057460e+01 1.622688e+03 -1.694178e+02 8.039293e+01 1.618591e+03 -4.725915e-01 1.816702e-01 4.096654e+00
9.9154         -1.692976e+02 8.031557e+01 1.615574e+03 -1.688251e+02 8.013385e+01 1.611479e+03 -4.724915e-01 1.817195e-01 4.094517e+00
9.9155         -1.685314e+02 7.997945e+01 1.606365e+03 -1.680591e+02 7.979768e+01 1.602273e+03 -4.723885e-01 1.817714e-01 4.092312e+00
9.9156         -1.675059e+02 7.953189e+01 1.594028e+03 -1.670336e+02 7.935006e+01 1.589938e+03 -4.722778e-01 1.818293e-01 4.089944e+00
9.9157         -1.668404e+02 7.924052e+01 1.586070e+03 -1.663682e+02 7.905863e+01 1.581982e+03 -4.721631e-01 1.818906e-01 4.087486e+00
9.9158         -1.661528e+02 7.893761e+01 1.577805e+03 -1.656807e+02 7.875565e+01 1.573720e+03 -4.720441e-01 1.819554e-01 4.084936e+00
9.9159         -1.654233e+02 7.861554e+01 1.569017e+03 -1.649514e+02 7.843352e+01 1.564935e+03 -4.719211e-01 1.820231e-01 4.082300e+00
9.916          -1.646651e+02 7.828402e+01 1.559925e+03 -1.641933e+02 7.810192e+01 1.555845e+03 -4.717933e-01 1.820951e-01 4.079558e+00
9.9161         -1.638955e+02 7.794852e+01 1.550697e+03 -1.634239e+02 7.776635e+01 1.546621e+03 -4.716610e-01 1.821710e-01 4.076716e+00
9.9162         -1.630956e+02 7.759865e+01 1.541095e+03 -1.626241e+02 7.741640e+01 1.537021e+03 -4.715238e-01 1.822510e-01 4.073768e+00
9.9163         -1.622551e+02 7.723045e+01 1.531002e+03 -1.617837e+02 7.704812e+01 1.526932e+03 -4.713816e-01 1.823351e-01 4.070713e+00
9.9164         -1.614157e+02 7.686397e+01 1.520918e+03 -1.609444e+02 7.668155e+01 1.516850e+03 -4.712344e-01 1.824234e-01 4.067546e+00
9.9165         -1.605174e+02 7.647033e+01 1.510129e+03 -1.600463e+02 7.628782e+01 1.506065e+03 -4.710816e-01 1.825162e-01 4.064261e+00
9.9166         -1.596206e+02 7.607825e+01 1.499353e+03 -1.591497e+02 7.589563e+01 1.495292e+03 -4.709234e-01 1.826136e-01 4.060857e+00
9.9167         -1.586460e+02 7.565182e+01 1.487703e+03 -1.581752e+02 7.546911e+01 1.483645e+03 -4.707594e-01 1.827157e-01 4.057327e+00
9.9168         -1.577090e+02 7.524230e+01 1.476402e+03 -1.572384e+02 7.505948e+01 1.472349e+03 -4.705898e-01 1.828225e-01 4.053676e+00
9.9169         -1.567010e+02 7.479759e+01 1.464272e+03 -1.562306e+02 7.461466e+01 1.460222e+03 -4.704143e-01 1.829341e-01 4.049895e+00
9.917          -1.558489e+02 7.442593e+01 1.454052e+03 -1.553787e+02 7.424288e+01 1.450006e+03 -4.702329e-01 1.830500e-01 4.045993e+00
9.9171         -1.544342e+02 7.381203e+01 1.437022e+03 -1.539641e+02 7.362886e+01 1.432980e+03 -4.700444e-01 1.831720e-01 4.041933e+00
9.9172         -1.531986e+02 7.326969e+01 1.422186e+03 -1.527288e+02 7.308639e+01 1.418148e+03 -4.698480e-01 1.833008e-01 4.037702e+00
9.9173         -1.521990e+02 7.283262e+01 1.410186e+03 -1.517294e+02 7.264919e+01 1.406153e+03 -4.696448e-01 1.834350e-01 4.033324e+00
9.9174         -1.508649e+02 7.224825e+01 1.394155e+03 -1.503954e+02 7.206468e+01 1.390126e+03 -4.694345e-01 1.835750e-01 4.028793e+00
9.9175         -1.496972e+02 7.173763e+01 1.380106e+03 -1.492280e+02 7.155390e+01 1.376082e+03 -4.692161e-01 1.837215e-01 4.024088e+00
9.9176         -1.485186e+02 7.122208e+01 1.365966e+03 -1.480496e+02 7.103821e+01 1.361947e+03 -4.689909e-01 1.838736e-01 4.019234e+00
9.9177         -1.471027e+02 7.060360e+01 1.348964e+03 -1.466340e+02 7.041957e+01 1.344950e+03 -4.687585e-01 1.840316e-01 4.014226e+00
9.9178         -1.453531e+02 6.983918e+01 1.327915e+03 -1.448846e+02 6.965498e+01 1.323906e+03 -4.685135e-01 1.841996e-01 4.008947e+00
9.9179         -1.439855e+02 6.923949e+01 1.311468e+03 -1.435172e+02 6.905512e+01 1.307465e+03 -4.682605e-01 1.843740e-01 4.003496e+00
9.918          -1.425966e+02 6.863276e+01 1.294780e+03 -1.421286e+02 6.844821e+01 1.290782e+03 -4.679993e-01 1.845552e-01 3.997867e+00
9.9181         -1.411012e+02 6.797893e+01 1.276793e+03 -1.406334e+02 6.779419e+01 1.272801e+03 -4.677288e-01 1.847439e-01 3.992040e+00
9.9182         -1.395138e+02 6.728555e+01 1.257803e+03 -1.390464e+02 6.710061e+01 1.253817e+03 -4.674489e-01 1.849401e-01 3.986010e+00
9.9183         -1.378953e+02 6.657778e+01 1.238336e+03 -1.374281e+02 6.639264e+01 1.234357e+03 -4.671592e-01 1.851443e-01 3.979768e+00
9.9184         -1.363422e+02 6.589917e+01 1.219664e+03 -1.358754e+02 6.571382e+01 1.215690e+03 -4.668596e-01 1.853565e-01 3.973313e+00
9.9185         -1.340708e+02 6.491137e+01 1.192408e+03 -1.336043e+02 6.472579e+01 1.188442e+03 -4.665481e-01 1.855785e-01 3.966602e+00
9.9186         -1.322662e+02 6.411414e+01 1.170628e+03 -1.318000e+02 6.392833e+01 1.166669e+03 -4.662235e-01 1.858102e-01 3.959615e+00
9.9187         -1.303131e+02 6.326033e+01 1.147134e+03 -1.298472e+02 6.307428e+01 1.143182e+03 -4.658879e-01 1.860510e-01 3.952390e+00
9.9188         -1.283588e+02 6.240630e+01 1.123658e+03 -1.278932e+02 6.221999e+01 1.119713e+03 -4.655404e-01 1.863012e-01 3.944910e+00
9.9189         -1.262963e+02 6.150500e+01 1.098905e+03 -1.258311e+02 6.131844e+01 1.094968e+03 -4.651803e-01 1.865620e-01 3.937156e+00
9.919          -1.241127e+02 6.055050e+01 1.072655e+03 -1.236479e+02 6.036367e+01 1.068726e+03 -4.648072e-01 1.868331e-01 3.929124e+00
9.9191         -1.218851e+02 5.957779e+01 1.045874e+03 -1.214207e+02 5.939067e+01 1.041953e+03 -4.644204e-01 1.871153e-01 3.920797e+00
9.9192         -1.194325e+02 5.850190e+01 1.016380e+03 -1.189685e+02 5.831449e+01 1.012468e+03 -4.640194e-01 1.874089e-01 3.912166e+00
9.9193         -1.170728e+02 5.747416e+01 9.880080e+02 -1.166092e+02 5.728644e+01 9.841048e+02 -4.636036e-01 1.877144e-01 3.903217e+00
9.9194         -1.145460e+02 5.636926e+01 9.576202e+02 -1.140828e+02 5.618123e+01 9.537263e+02 -4.631724e-01 1.880322e-01 3.893938e+00
9.9195         -1.118677e+02 5.520039e+01 9.254193e+02 -1.114049e+02 5.501203e+01 9.215350e+02 -4.627249e-01 1.883631e-01 3.884309e+00
9.9196         -1.092269e+02 5.404834e+01 8.936530e+02 -1.087647e+02 5.385963e+01 8.897786e+02 -4.622611e-01 1.887073e-01 3.874331e+00
9.9197         -1.057630e+02 5.253233e+01 8.519954e+02 -1.053013e+02 5.234326e+01 8.481314e+02 -4.617793e-01 1.890660e-01 3.863966e+00
9.9198         -1.028596e+02 5.126547e+01 8.171139e+02 -1.023984e+02 5.107603e+01 8.132607e+02 -4.612775e-01 1.894408e-01 3.853172e+00
9.9199         -9.963587e+01 4.985632e+01 7.783404e+02 -9.917512e+01 4.966649e+01 7.744984e+02 -4.607570e-01 1.898312e-01 3.841974e+00
9.92           -9.628546e+01 4.839104e+01 7.380280e+02 -9.582524e+01 4.820080e+01 7.341977e+02 -4.602168e-01 1.902386e-01 3.830352e+00
9.9201         -9.269789e+01 4.682465e+01 6.948500e+02 -9.223824e+01 4.663399e+01 6.910318e+02 -4.596556e-01 1.906632e-01 3.818280e+00
9.9202         -8.900574e+01 4.520929e+01 6.504495e+02 -8.854667e+01 4.501819e+01 6.466439e+02 -4.590681e-01 1.911040e-01 3.805654e+00
9.9203         -8.513012e+01 4.351500e+01 6.038612e+02 -8.467167e+01 4.332344e+01 6.000686e+02 -4.584570e-01 1.915631e-01 3.792527e+00
9.9204         -8.099491e+01 4.170981e+01 5.541289e+02 -8.053709e+01 4.151777e+01 5.503500e+02 -4.578212e-01 1.920421e-01 3.778869e+00
9.9205         -7.679298e+01 3.987340e+01 5.035932e+02 -7.633582e+01 3.968086e+01 4.998286e+02 -4.571593e-01 1.925418e-01 3.764653e+00
9.9206         -7.221448e+01 3.786928e+01 4.485760e+02 -7.175801e+01 3.767621e+01 4.448261e+02 -4.564704e-01 1.930622e-01 3.749863e+00
9.9207         -6.749032e+01 3.580802e+01 3.917274e+02 -6.703457e+01 3.561442e+01 3.879929e+02 -4.557526e-01 1.936058e-01 3.734453e+00
9.9208         -6.242679e+01 3.359484e+01 3.308128e+02 -6.197178e+01 3.340066e+01 3.270944e+02 -4.550044e-01 1.941742e-01 3.718390e+00
9.9209         -5.713751e+01 3.128336e+01 2.671931e+02 -5.668328e+01 3.108859e+01 2.634915e+02 -4.542238e-01 1.947681e-01 3.701634e+00
9.921          -5.152586e+01 2.883098e+01 1.997200e+02 -5.107245e+01 2.863559e+01 1.960359e+02 -4.534090e-01 1.953891e-01 3.684146e+00
9.9211         -4.562571e+01 2.625264e+01 1.287570e+02 -4.517315e+01 2.605660e+01 1.250911e+02 -4.525580e-01 1.960386e-01 3.665882e+00
9.9212         -3.932928e+01 2.349916e+01 5.301285e+01 -3.887761e+01 2.330244e+01 4.936606e+01 -4.516683e-01 1.967187e-01 3.646790e+00
9.9213         -3.270938e+01 2.060697e+01 -2.662906e+01 -3.225864e+01 2.040954e+01 -3.025588e+01 -4.507375e-01 1.974312e-01 3.626817e+00
9.9214         -2.564161e+01 1.751196e+01 -1.115744e+02 -2.519184e+01 1.731379e+01 -1.151803e+02 -4.497631e-01 1.981774e-01 3.605912e+00
9.9215         -1.818599e+01 1.425314e+01 -2.012390e+02 -1.773725e+01 1.405418e+01 -2.048230e+02 -4.487413e-01 1.989612e-01 3.583987e+00
9.9216         -1.026398e+01 1.078681e+01 -2.964825e+02 -9.816316e+00 1.058702e+01 -3.000434e+02 -4.476660e-01 1.997888e-01 3.560892e+00
9.9217         -1.707346e+00 7.064013e+00 -3.995672e+02 -1.260797e+00 6.863367e+00 -4.031042e+02 -4.465485e-01 2.006456e-01 3.536948e+00
9.9218         7.294716e+00 3.129106e+00 -5.078747e+02 7.740092e+00 2.927561e+00 -5.113865e+02 -4.453756e-01 2.015451e-01 3.511823e+00
9.9219         1.712057e+01 -1.166941e+00 -6.260635e+02 1.756472e+01 -1.369430e+00 -6.295489e+02 -4.441439e-01 2.024897e-01 3.485446e+00
9.922          2.749055e+01 -5.703351e+00 -7.508336e+02 2.793339e+01 -5.906835e+00 -7.542913e+02 -4.428488e-01 2.034830e-01 3.457719e+00