/*--------------------------------*- C++ -*----------------------------------*\
| =========                 |                                                 |
| \\      /  F ield         | OpenFOAM: The Open Source CFD Toolbox           |
|  \\    /   O peration     | Version:  2306                                  |
|   \\  /    A nd           | Website:  www.openfoam.com                      |
|    \\/     M anipulation  |                                                 |
\*---------------------------------------------------------------------------*/
FoamFile
{
    version     2.0;
    format      ascii;
    arch        "LSB;label=32;scalar=64";
    class       surfaceScalarField;
    location    "8.25";
    object      phi;
}
// * * * * * * * * * * * * * * * * * * * * * * * * * * * * * * * * * * * * * //

dimensions      [0 3 -1 0 0 0 0];

oriented        oriented;

internalField   nonuniform List<scalar> 
20045
(
0.252983
-0.278668
0.0256851
-0.538171
0.197988
0.340183
0.197502
1.01898
-1.21648
-0.225663
0.302015
-0.0763523
-0.450578
0.409882
0.0406959
-0.313615
1.13292
-0.819304
-0.478736
0.150228
0.328508
0.0287116
0.228686
-0.257397
0.249192
0.210232
-0.459424
-0.402873
-0.0536032
0.456476
-0.236872
-0.159253
0.396125
1.11196
-0.531508
-0.580448
0.184645
-0.184839
0.000193581
-0.621848
0.544023
0.0778249
-0.118905
0.498169
-0.379264
-0.532025
0.129152
0.0241571
-0.107148
0.0829909
0.174934
-0.254604
0.0796699
-0.808536
1.19373
-0.385199
-0.379281
0.0191249
0.360156
-0.347037
0.28159
0.0654472
0.0635648
0.121081
-0.0748522
-0.463319
0.675612
0.506097
-1.18171
0.40652
0.103018
-0.509537
-0.545342
1.22095
0.0461808
-0.0513274
0.00514658
-0.740106
1.39064
-0.650532
0.823285
0.164862
-0.988147
-1.42318
0.772576
0.650608
-0.182389
0.346027
-0.163638
0.668506
-0.497419
-0.171087
-0.298922
0.845224
-0.546301
1.29667
-0.747154
-0.549516
-0.292184
0.320896
0.99409
-0.478141
-0.515948
0.592656
0.0820525
-0.674708
-0.0304194
0.190005
-0.159585
-1.02888
0.504546
0.524332
0.304437
0.269175
-0.573612
0.00566574
0.23974
-0.245406
0.0669388
-0.0962724
0.0293336
1.06514
-1.06617
0.00103096
0.734338
-0.271629
-0.462709
0.341023
0.393315
0.500188
0.611769
-0.0821145
-0.045276
0.12739
0.659889
0.227055
-0.886944
0.746472
-0.153816
0.110125
0.990628
-1.10075
0.654997
-1.09959
0.444593
0.928267
-0.657847
-0.27042
-0.584619
-0.403465
0.988084
-0.0476991
-0.155348
0.203047
0.345387
-0.268511
-0.0768766
-0.350068
-0.100511
-0.291796
1.12967
-0.837871
0.78833
0.111397
-0.899728
0.686804
-0.985727
0.698023
-0.537924
-0.160099
-0.277443
-0.144831
0.422273
0.262888
0.435135
0.189959
-0.847497
0.657538
-0.219116
-0.127921
0.791692
-0.155837
-0.635855
0.65419
0.0770444
-0.731234
0.0941843
-0.290086
0.195901
-0.336314
0.0722815
0.264033
0.438097
-0.188905
0.766014
-0.779535
0.0135211
0.229944
-0.13576
0.15491
0.190477
-0.129821
-0.533839
0.66366
0.0609251
-0.0967223
0.0357972
0.697083
-0.160278
-0.536805
0.733004
-1.0248
0.0272206
0.669862
0.253817
-0.372722
0.137692
-0.0705224
-0.0671701
0.121922
-0.62601
0.504089
0.515606
0.573872
-1.08948
0.446688
-0.355197
-0.0914904
0.629758
-0.439799
-1.33928
0.225579
1.1137
0.00640154
0.246581
-0.251448
0.29218
-0.0407322
0.286191
-0.649636
0.363446
-0.800286
0.0305486
0.769737
0.510837
0.0877825
-0.598619
-0.414266
0.376119
0.0381465
-0.674745
-0.0912012
0.765947
0.383548
-0.0801536
-0.303394
0.206171
-0.298388
0.092217
-0.0899011
-0.405152
0.495054
0.302028
-0.323868
0.0218405
0.766994
0.149875
-0.916869
0.0469573
-0.000776458
-0.0415499
0.302186
-0.260636
0.625496
-0.321059
0.0531262
-0.133274
0.0801482
0.673764
0.320326
-0.217175
-0.404673
0.320838
-0.362387
-0.194139
0.982469
0.00555513
-0.257003
0.141307
-0.0881808
0.224087
0.610402
-0.834489
0.532232
-0.951938
0.419705
0.055578
-0.223735
0.1933
0.0304344
-0.105457
0.135065
-0.0296084
0.559289
-0.450572
-0.108718
-0.255108
0.207409
0.626029
-1.26643
0.6404
-0.0931304
0.163463
-0.0703331
0.0232473
-0.130175
0.106928
0.568008
-0.161488
0.902879
0.393791
-0.598934
0.469113
0.611588
-0.840875
0.229286
0.23298
-0.0580459
-0.410152
0.132709
-0.399998
0.323124
0.076874
-0.496646
0.0534681
-0.303911
0.250443
0.634216
0.294051
0.551408
-0.728007
0.176599
0.809769
0.0927279
-0.902497
-0.996349
0.719233
0.277116
0.0842264
-0.878746
0.79452
0.962834
-0.328618
0.158814
-0.20409
0.0852827
-0.0294699
-0.0558128
-0.0348343
0.0264379
0.00839634
0.57243
0.399423
-0.971852
0.598068
-0.570084
-0.0279846
-0.166987
0.0909087
0.0760787
-0.161367
-0.0623679
0.956984
-0.345395
-0.339907
0.355051
-0.0151445
0.613546
-1.18869
0.575145
0.158338
-0.742957
0.52905
0.227963
-0.757013
0.717185
-0.595263
0.958396
-0.134473
-0.823923
0.571142
-0.794453
0.223311
0.981172
-0.64713
-0.334042
-0.127786
0.21614
-0.0883538
-0.0586019
1.13457
-1.07597
1.07062
-0.247331
-0.824021
0.0245368
0.799485
-0.493452
0.391926
0.101527
0.977336
-0.461731
0.158591
0.288097
-0.627984
0.773107
-0.145123
-0.887927
1.08543
0.00873114
-0.170194
0.161463
-0.105534
0.108377
-0.00284297
-0.0186189
-0.191711
0.21033
0.612468
0.221315
-0.833782
1.40493
-0.706542
-0.698392
-0.228939
0.21032
0.335543
-0.639205
0.303662
0.0789565
-0.0120177
-0.851986
-0.449064
0.673628
-0.224564
-0.659591
0.474244
0.185348
-0.0110456
-0.0301043
0.0411499
0.445994
0.535178
-0.0165102
-0.018324
-0.0101099
0.0953926
-0.704251
0.0762665
-0.737252
0.930426
-0.193175
-0.67243
0.747243
-0.0748132
-0.556371
-0.436965
0.993336
-0.0280284
0.397428
-0.3694
0.44338
-0.451212
0.00783234
1.045
-0.0214455
-1.02355
0.00978393
-0.76055
0.750766
-0.360994
0.890044
0.194297
-0.557984
0.363687
-0.59557
1.2216
-0.803647
0.547427
0.25622
0.0601469
-0.053298
-0.0068489
0.524279
-1.26044
0.736159
-1.08946
0.349357
-0.583108
-0.467593
1.30815
-0.767929
-0.540225
-0.302763
0.308429
0.130434
-0.138093
0.00765911
-0.65131
-0.130845
0.782156
-0.955141
1.33691
-0.381772
0.967179
-0.735382
-0.231797
0.0680189
-0.236625
0.168606
-0.330779
-0.479158
0.809937
0.164062
-0.400934
-0.703444
0.78767
-0.723045
-0.228867
0.951912
0.0927143
0.0252368
-0.117951
0.151144
-0.600208
-0.320202
0.137813
0.869557
-0.0597876
-0.143929
0.11351
-0.147649
0.184139
-0.0364903
-0.400007
1.01247
-0.875881
0.545103
-0.0937779
0.135311
-0.0415329
-0.715497
0.140511
0.574986
0.283598
0.68358
1.32936
-0.805081
0.829217
-1.45963
0.630416
0.45646
-1.35114
0.894677
0.0369292
-0.41621
-0.493765
0.717851
0.652479
-0.966093
0.552888
-0.940991
0.388103
-1.52865
0.876608
0.652045
-0.0218618
-0.392404
0.183635
0.146284
-0.329919
0.728652
-0.261365
-0.467288
-0.109117
-0.790292
0.73169
-0.258819
-0.0810882
0.681889
1.05234
-0.83411
-0.218226
-0.0106606
-0.129579
0.14024
0.660394
0.137694
-0.798088
0.0182663
-0.372398
0.354132
-0.294946
0.839514
-0.544568
-0.441961
0.728151
0.579769
-0.385471
-0.0828
0.278712
-0.195912
1.01217
-0.398624
0.0925138
-0.00804238
-0.0844714
-0.211132
-0.18168
0.392813
-0.107133
0.111285
-0.00415268
1.29458
-0.787893
-0.506691
0.249102
-1.20424
-0.117183
0.0100505
-0.857522
0.262408
0.595115
1.3728
-0.527573
0.24169
-0.978942
1.46767
-0.612226
-0.855443
-0.0122937
0.105008
0.897372
-0.508701
-0.388671
-0.613294
0.132826
0.480468
-0.923007
0.921605
0.00140184
0.472463
-1.17541
0.702949
0.0312677
-0.0281836
-0.00308405
-0.463989
0.621907
-0.157918
-0.00435744
0.339051
-0.334694
-0.148968
0.0558373
-0.123078
0.0176209
-0.56347
-0.388468
0.407824
-0.896553
0.488729
-0.375854
0.424612
-0.0487574
0.402846
0.265661
0.875927
-0.323039
-0.112962
0.00742766
0.69005
0.682747
-0.498552
0.0232674
0.475284
0.413577
0.483795
0.389214
0.108955
-0.445295
0.0694404
-0.289424
-0.0360361
0.325461
0.0209289
0.039218
-0.890007
0.595061
0.123072
-0.339522
0.216451
-0.940218
0.909427
0.0307909
-0.341822
0.444695
-0.102873
-0.202639
-0.112292
0.314932
0.763494
-0.834269
0.0707747
-0.921997
-0.606657
1.2624
-0.797926
-0.464475
-0.095405
0.0847444
1.26281
-0.790349
-0.508956
0.916779
-0.602987
0.141464
0.461523
0.916359
-0.248779
-0.667581
1.09032
-0.287708
-0.802608
-0.512194
-0.0907933
0.84552
-0.502939
-0.342582
-0.168364
0.791769
-0.623405
0.202815
-0.892597
0.689782
0.178108
0.226865
-0.404974
-0.0753263
-0.0133175
0.0886439
1.30253
-1.11471
-0.187825
-0.519172
-0.477177
0.688157
0.364179
-0.862134
-0.0780843
0.143425
-0.354557
0.354261
-0.754212
0.399951
0.0035612
0.126872
-0.537955
1.11038
0.537106
0.757478
1.4284
-0.839696
-0.588708
-0.807627
0.578759
0.69988
-1.18276
0.482882
-0.628857
-0.0460545
0.674912
-0.28276
-0.14563
0.42839
0.556514
-0.220971
-0.206226
0.112448
0.443186
-0.0546627
-0.442757
-0.599724
0.831904
-0.23218
-0.172095
0.0244463
-0.143443
0.0606434
0.108444
-1.03145
0.353095
-0.795056
0.0951618
-0.178848
0.242216
-0.0633683
0.0156933
-0.241356
-0.484491
0.366933
0.117558
0.34524
0.21405
0.58407
-0.232667
-0.351403
0.484868
0.1132
-0.383395
0.737656
0.573243
-0.062406
-0.21232
-0.503178
1.15827
-0.951805
-0.206464
0.736242
-0.846983
0.423434
0.423549
0.800331
-0.870876
0.0705441
-0.443039
0.353138
-0.11706
-0.0499272
-0.120309
-0.554436
0.307116
-0.548198
0.241082
0.421323
0.424198
0.675057
-1.11952
0.444459
0.253278
-0.543495
0.290217
-0.97323
0.172945
0.0218661
0.361682
-0.527979
0.799774
-0.271795
-0.246169
0.306797
-0.0606287
-0.441582
-0.0371541
-0.126492
-0.234327
0.360819
0.0865009
0.000786514
-0.0872875
-0.305876
-0.187576
0.368498
0.447413
-0.815911
0.836906
-0.423329
0.268262
-0.449583
0.00654351
0.477352
-0.224074
-0.662498
-0.141149
0.323424
-0.325802
0.00237726
0.964531
-0.304642
-0.477656
0.757946
-0.28029
-0.118178
0.138537
-0.0203595
0.705348
0.0233045
-0.410862
-0.34335
-0.520695
0.937775
-0.417079
0.609533
-1.11536
0.505826
0.585375
0.677026
-0.0466443
0.0445279
0.00211644
0.094453
-0.72331
0.63273
-0.95035
0.31762
0.0629404
-0.00201529
-0.0890395
0.640448
-0.363134
0.716229
-0.802983
1.25944
0.183266
-0.991802
-0.823428
0.444862
0.378566
0.646124
-0.110348
-0.535777
0.940409
-0.176915
-0.546575
-0.520899
-0.451213
0.640511
0.0284754
0.201602
-0.230077
0.320887
-0.301763
-0.731094
0.642055
0.836385
0.228759
-0.794329
0.316673
1.0417
-0.353539
-0.340965
0.372295
-0.0313305
0.0284244
-0.626001
0.597577
-0.900629
0.165985
0.734644
0.728409
-0.728409
-0.415095
0.817107
-0.402012
0.365878
0.218192
0.638396
-0.337107
-0.301289
-0.971283
1.01099
-0.0397061
0.343607
-0.0357985
-0.307808
0.264706
-0.10469
-0.160016
0.111433
-0.314072
0.187289
0.460527
-0.969482
-0.857445
1.00795
-0.150507
-0.28689
0.655388
0.0988885
0.0116782
-0.110567
0.0177727
-0.205216
0.187443
-0.378804
0.415733
1.3485
-1.08065
-0.267855
-0.0864436
-0.52174
0.608183
-0.235707
0.255044
-0.0193369
0.129818
-0.276257
0.146439
-0.88676
0.319798
0.566961
0.204865
0.0971505
-0.394421
0.0534559
-0.00456657
-0.119145
0.123712
0.656629
0.645903
0.118782
-0.0198931
-0.0465695
-0.27712
0.323689
-0.515278
0.818761
-0.303483
0.0113019
0.110796
-0.122098
0.405537
-0.255309
0.642202
-0.218348
-0.423855
0.0176513
-0.422804
0.203431
0.841565
0.442929
0.292286
-0.735215
0.467852
-0.40621
-0.0616419
-1.01279
0.188771
-0.398704
0.163047
0.235657
0.499956
0.696899
-1.19686
-0.635109
0.589055
0.0460828
-0.916285
0.870202
-0.127688
0.195707
0.0743043
-0.0731419
-0.0011624
0.0338016
-0.323226
0.0117646
0.0238002
-0.0355648
-0.67415
-0.183373
0.620186
0.089805
-0.0563921
-0.0334129
-0.126205
0.00802736
0.162819
-0.70294
0.540121
0.262312
0.531266
-0.793578
0.468458
-0.708158
0.864848
-0.15669
-0.723532
0.555168
-0.0300298
-0.0212976
-0.382239
-0.277352
-0.259455
0.065011
0.194444
-0.892342
0.377064
0.663573
-0.750017
0.43505
0.606645
-0.320624
0.309335
0.0112892
0.365757
-1.16495
0.799196
0.155691
-0.269534
0.113844
0.338743
-0.749605
-0.631953
-0.0404771
-0.316298
-0.0200163
0.0932828
-0.109119
0.0158361
0.426506
0.00576
-0.0242627
0.0185027
1.1372
-0.637243
-0.532857
0.865148
-0.332291
0.266711
0.184062
-0.450773
-0.355547
0.227859
-0.219812
-0.0396438
0.430354
0.208042
-0.196074
-0.644801
0.294089
0.0293357
0.610232
0.414313
0.15893
-0.960627
1.07075
0.126563
-0.455522
0.328959
-0.087278
-0.827243
0.914521
-0.211931
0.232176
-0.0202451
-0.415329
0.3873
-0.558733
0.761548
0.878924
-0.307782
-0.418304
-0.0661867
0.00574108
-0.415811
0.41007
0.410765
-0.967136
-0.127574
-0.458332
0.585905
-0.098742
0.299537
-0.200795
-0.647614
0.0441371
0.603477
0.930017
-0.702962
-0.0134753
0.0852547
-0.0717794
-0.216469
-0.0192376
0.181031
0.367138
-0.548169
0.10536
-0.131597
0.0262366
0.577898
0.331182
-0.90908
-0.350439
1.11743
0.0832758
0.0032251
-0.278783
-0.600471
0.879254
0.303072
0.653912
0.957737
-0.695425
-0.356186
0.229695
-0.111702
0.0363755
-0.446045
1.14592
0.129461
-0.762721
0.633261
0.855999
-0.142156
-0.713843
-0.484005
0.694695
-0.21069
0.392999
-0.461018
-0.396181
0.857199
0.126993
-0.132967
0.00597419
-0.280363
-0.48773
0.768093
-0.195736
0.213509
0.036745
-0.0477906
0.508092
-0.788455
-0.701853
-0.213223
0.915076
-0.058613
-0.486968
0.545581
-0.0478667
1.20494
-1.22625
0.0213047
0.207023
-0.13753
-0.0694933
-0.00914186
-0.311482
0.257106
0.237947
-0.325419
0.0426593
-0.815191
1.02305
-0.207862
-0.233876
0.356948
0.266041
0.451143
-0.81065
-0.255524
-0.0724875
-0.0608508
0.133338
0.533462
-0.119149
-0.201529
0.221314
-0.0197853
0.367726
-0.372083
-1.18999
0.606878
0.935007
0.197912
-0.119253
0.249071
-0.204085
0.470796
0.948306
-0.48778
-0.207918
0.00638945
-0.113462
-0.617633
0.189624
0.221466
-0.212735
-0.919857
0.019228
0.00165477
0.211436
-0.0557451
-0.816014
0.606562
0.209452
0.646135
0.11988
0.190268
-0.0637969
-0.126471
0.29114
-0.264837
-0.0263028
-0.741815
0.263674
-1.04677
0.526072
0.396114
-0.130229
-0.265885
-0.01433
0.219821
-0.205491
0.99232
-0.00316347
-0.989156
0.155336
0.00946201
-0.164798
-0.139217
-0.260781
0.229126
-0.0229555
-0.0237971
0.0255592
-0.00176215
0.395747
-0.0433782
-0.352369
0.00997869
-0.0337758
0.809624
-0.659749
-0.0289271
-0.143668
0.172595
-1.01915
0.203956
0.0210064
-0.102939
0.423776
0.051479
0.0383259
-0.0280486
-0.0849133
0.240207
0.170279
-0.410486
0.584418
0.207274
0.430259
-0.303696
0.19715
-0.173903
0.0722754
-0.318444
0.593153
0.0688027
-0.661955
0.539955
-0.043566
-0.496389
-0.463052
-0.331401
-0.362133
0.0365528
0.32558
0.388134
-0.41022
0.0220858
1.1122
-0.0413544
-1.07084
-0.357475
0.107353
0.250122
-0.501339
0.67048
-0.169142
0.590751
0.650472
-1.24122
0.311441
-0.456272
-0.280505
0.438497
-0.157991
0.216361
0.0972491
-0.31361
-1.19677
0.746141
0.450629
0.0239582
0.001601
-0.845683
0.14383
0.306327
-0.187037
-0.119289
0.478979
-0.606056
0.127077
-0.0874833
-0.191185
0.182661
1.02228
0.821648
-0.141497
-0.680151
-0.84206
0.133902
0.340333
-0.552653
0.831585
-1.26701
0.435425
-0.101653
0.285288
0.000312961
-0.373392
0.326823
-0.161287
0.214755
-0.146546
-0.816182
0.962728
0.570268
0.692544
-0.746287
0.775793
-0.0295059
0.103369
-0.0100859
-0.597387
-0.244114
-0.113102
0.126469
-0.013367
0.462914
-0.066786
-0.396128
-0.0279455
0.191276
-0.16333
-0.0674834
0.546462
-0.767454
-0.0819917
0.849446
-0.719677
-0.25241
0.972087
0.463203
-0.347128
-0.116075
-0.190474
0.0159021
0.174572
-0.0869119
0.0673384
0.0195735
-1.01282
0.0484454
0.964379
0.02503
0.187602
-0.212632
0.802712
-0.903444
0.100732
-0.509813
0.564184
0.432476
-0.99666
0.0116343
-0.124736
-0.0464291
-0.790252
0.836681
0.60527
-1.20084
-0.947836
0.824583
0.123253
0.122454
-0.0170935
0.747687
-0.481646
-0.0490731
-0.224762
0.273835
-0.00967013
0.13233
-0.12266
-0.181858
0.889083
-0.707225
0.703521
-0.381084
-0.322437
1.03517
-0.978916
-0.056249
0.756808
-0.267831
-0.488977
0.0423454
-0.22407
0.181725
-0.291229
-0.0126822
-0.926933
0.812802
0.114132
0.0526777
-0.979611
-0.277539
0.449141
-0.171601
-0.578815
-0.535892
0.187891
-0.160981
-0.0269098
-0.797193
-0.221953
-0.178015
0.119882
0.0581323
-0.241663
0.259929
-0.884035
0.856509
0.0275258
-0.163917
-0.0783325
-0.0183899
0.169773
-0.0144376
-0.592545
0.128556
0.133809
-0.157741
0.0239322
-0.565715
0.394572
0.171144
0.372829
-0.0292217
-0.236379
0.682036
0.0233122
0.350278
-0.137885
0.167938
-0.0300531
-0.0791497
0.522529
-0.618951
0.401936
0.217015
0.00978947
0.0141687
1.2345
-0.664233
0.996755
-0.630999
-0.233206
-0.148205
0.381412
0.542773
-1.00966
0.466884
0.55696
-0.615573
0.953541
-0.430994
-0.522546
-0.00375855
-0.523608
-0.0953432
-0.438857
0.91408
-0.475222
0.0101628
-0.377345
1.20656
-1.06534
0.268144
0.371646
-0.193537
-0.0842791
0.0688196
0.1143
-0.00301452
-0.49239
-0.490043
1.53116
-0.798156
-0.472179
0.341875
0.130304
0.0594641
0.205242
-0.658108
-0.421846
1.07995
0.218802
0.337712
-0.00439643
-0.137148
0.141544
0.820982
-0.216161
0.0511122
0.165049
0.668455
-0.0753022
-0.3514
-1.02563
0.168185
-0.210168
0.0106895
0.199478
0.601159
0.866511
0.403158
-0.431079
0.0279203
0.980145
0.0550199
0.616051
-0.872843
0.256791
-0.827437
-0.0105128
0.83795
-0.754032
0.984611
-0.23058
0.132387
-0.00556221
-0.126824
-0.559114
1.16438
-0.159074
-0.365011
0.524085
0.0208774
-0.767164
0.287694
-0.115571
-0.172123
-0.956383
1.24888
-0.292499
-0.226804
0.541068
-0.314264
1.16207
-0.512324
-0.649744
-0.00460179
-0.590234
0.594836
-0.0648531
-0.00828886
-0.5201
1.11085
0.381919
-0.797014
1.09189
-0.482357
-0.179897
0.15097
-0.864259
0.0368214
1.17823
-0.503176
-0.0124791
-1.3268
0.251051
-0.0113107
0.37436
0.552229
-0.926589
0.544451
-0.127497
-0.416953
0.288724
-1.01862
0.729898
-0.131255
0.00894997
0.122305
-0.198025
-0.484712
0.682737
0.34505
-0.272775
-0.225463
0.00696514
0.218498
0.111502
0.276363
-0.387865
0.0752933
0.112597
-0.899838
1.05101
-0.151175
-0.221812
0.00988119
0.453952
0.203806
-0.657758
0.560459
0.630935
-1.19139
0.160078
0.486046
-0.0164881
0.974884
-0.00119388
0.786167
-0.784973
0.0261474
-0.0148455
0.0642878
-0.00892979
-0.055358
1.3512
-1.11305
-0.238149
0.44599
0.507551
-0.136923
0.0892242
0.0476983
-0.281086
0.797254
-0.516168
0.00927351
0.153023
-0.162296
0.670047
-1.00199
0.331945
-0.307034
-0.646794
0.953828
0.840055
-0.179661
0.290104
0.254347
-0.42258
-0.00135034
0.42393
0.283519
-0.805259
0.206893
-0.479936
0.273042
0.179893
-0.0681074
-0.111785
0.0393159
-0.104169
-0.0644189
0.585295
-0.520876
-0.174608
1.16524
0.76258
-0.616613
-0.145967
0.626599
-0.538817
-0.503061
0.152904
0.350157
0.129656
-0.466763
0.298416
-0.168478
-0.129938
0.0588581
0.13141
0.138622
0.734779
-0.873401
0.225977
0.16977
0.119685
-0.839362
-0.44202
0.130482
0.311538
-0.331737
-0.228887
0.560624
0.481055
-0.240848
-0.83865
0.551759
0.238516
-0.191315
-0.047201
-0.470146
0.914037
-0.44389
-0.429109
0.446761
-0.453711
0.508373
-0.0546621
-0.573149
0.949087
-0.375937
-0.0195606
0.200397
-0.180837
-0.294441
0.280111
-0.270944
-0.560938
0.895912
-0.334974
-0.54848
0.688992
0.497297
-0.510594
0.0132965
0.179637
0.254298
-0.433936
-1.24635
0.815648
0.430704
0.0297753
0.094418
-0.124193
0.0792998
0.6878
-0.869658
0.954009
-0.411236
-0.335364
-0.488063
-0.699299
0.698105
0.48783
-0.0135868
0.376433
0.110652
-0.487084
-0.32548
0.299905
0.0255754
-0.259391
0.0817439
0.177647
-0.331502
-0.405782
0.737284
0.00225348
0.465642
-0.467896
-0.731629
-0.271904
1.00353
-0.264341
0.443978
1.00597
0.345229
-0.887153
0.539143
0.34801
-0.471144
0.0992409
0.371903
0.00381091
0.173271
-0.222786
0.049515
-0.583688
-0.915214
0.583711
0.12799
0.193167
-0.150822
0.144062
0.318851
-0.020484
-0.858262
0.0272038
0.274824
0.182548
-0.0042248
-0.178323
-0.645732
-0.505061
1.15079
-0.159224
-0.263356
-0.495856
-0.10122
0.597076
0.108848
0.197253
-0.306101
-0.00992957
1.13027
-0.738982
-0.391284
0.175049
0.646599
0.108426
0.0822981
-0.552777
0.470479
-0.622862
1.07432
-0.451458
-0.557392
-0.258189
0.815581
-0.451689
0.171184
-0.393967
-0.109094
0.854301
-0.423128
-0.431174
0.436639
-0.108307
-0.328333
0.371904
0.0531018
-0.425005
-0.161337
0.186367
0.172663
-0.270283
0.0976196
-0.0465325
-0.0249348
-0.204004
-0.00633475
0.452657
0.401644
-0.366589
0.871135
-0.464383
1.23696
0.409277
0.0273617
-0.852569
0.295176
0.722179
-0.627726
-0.102721
-0.628929
0.12759
0.150338
-0.427877
0.717317
-0.688892
0.822373
-0.0220411
-0.189724
-0.108664
-0.259928
-0.0668182
0.326746
-0.289602
-0.0342664
0.708197
0.152638
-0.860835
0.0180088
-0.243158
0.225149
-0.0481737
0.443551
-0.887712
0.444162
0.869465
-0.0667534
-1.02359
1.10199
-0.0784058
0.205689
-0.133407
-1.0555
-0.190856
-0.309001
0.840082
-0.0272805
0.47816
1.10644
-0.403941
-0.702495
-0.635882
-0.0350352
0.670917
0.249672
0.482056
-0.731728
-0.687687
0.0400732
-0.161468
-0.13199
0.293457
-0.466746
0.596207
0.131069
0.506785
-0.637854
0.123024
-0.0155896
-0.107434
-0.96553
0.120202
0.845327
0.42334
0.530669
-0.241219
0.551131
0.205677
-0.281721
-0.116983
0.818396
-0.95287
0.344592
-0.243883
-0.100709
0.47374
-0.162299
0.665449
0.0416178
-0.707067
0.778324
-1.24271
0.00547143
0.0257963
-0.241619
0.33381
-0.0921907
-0.853391
0.806962
-0.0218766
0.275757
-0.25388
-0.301062
0.189389
0.111673
-0.319451
-0.0958778
-0.250172
0.590505
0.219042
0.177071
-0.143375
0.155009
-0.34614
-0.0262575
0.0196653
-0.0478489
-0.177482
0.17053
0.0069525
0.193649
-0.218083
0.0244334
-0.487336
0.327058
0.134431
-0.630286
-0.0324056
-0.270357
0.0144749
0.544181
-0.558656
0.309794
-0.34583
0.105574
-0.769487
0.663914
-0.261282
0.764327
-0.503044
0.191082
-0.790806
-0.429896
-0.0245228
-0.923313
0.793988
0.737172
-0.732148
-0.106502
-0.46315
-0.383833
-0.402344
0.168017
-0.0502226
-0.00745039
0.057673
1.31603
-0.71487
0.82105
-0.18832
-0.227725
-0.146544
0.374269
-1.19795
0.541742
0.656205
-0.442887
0.283634
-0.364925
0.929108
0.151025
-0.0874606
-0.343172
-0.427213
0.26814
0.387456
-0.39732
0.0098641
-0.116001
0.824199
-0.317786
0.410959
-0.093173
0.762177
-1.27231
0.572387
0.699919
0.190765
0.221237
-0.412002
0.550363
-0.206346
-0.344017
-0.50872
0.281916
-0.859281
0.00667702
0.365227
0.885078
-0.972356
0.392381
-0.176021
-0.388369
0.671888
-0.814231
0.578529
0.235702
0.713548
-1.05136
0.337816
-0.681136
0.723532
-0.042396
0.410692
-0.489842
0.0125225
0.222873
0.24033
0.174139
-0.800149
0.352889
-1.0583
0.601562
0.456733
0.227486
-0.863368
0.63583
-0.0380837
-0.575211
0.133281
0.231302
1.0202
-0.34122
-0.678981
-0.0996932
0.245252
-0.576989
0.143082
-0.951621
0.916586
-0.772194
0.311177
0.46368
-0.646737
0.354494
0.292243
-0.847873
0.5144
0.333473
-0.218781
0.137976
-0.236718
-1.00567
0.701586
0.30408
0.614893
-1.17401
-0.887394
-0.0124438
1.23967
-0.408085
0.163591
0.10104
-0.264631
-0.0206367
-0.126662
0.147299
-0.186386
0.456437
0.526437
-0.387565
-0.259173
0.159639
0.185411
0.215575
0.3426
-0.558175
0.36189
-0.215607
-0.0356091
-1.04553
1.08114
-0.309152
0.38342
-0.744414
-0.581672
-0.423772
1.00544
0.232863
-0.313017
-0.662521
0.203611
0.458911
-0.0265885
-0.0574735
0.084062
0.697666
-0.844213
0.0378481
-0.279467
0.546348
0.557025
-1.10337
-0.438305
-0.0338735
-0.805478
0.224562
0.580916
-0.966512
0.659478
0.440966
-1.06383
0.357204
-0.0126123
-0.0316746
0.00508612
-0.0245679
0.880567
-0.585056
0.73272
-0.147664
0.818818
0.00242118
-0.821239
-0.61918
-0.011606
-0.167242
0.0634169
0.664992
0.110868
0.0276691
0.254638
0.562444
-0.196566
0.481494
-0.238003
-0.0213877
-0.833574
-0.0504609
-0.838864
0.277804
-0.786504
0.161901
0.181753
-0.343654
0.772662
0.0486339
-0.821296
-0.0947053
0.0891431
-0.334571
-0.712196
-0.757843
-0.113033
-0.491005
1.26933
-0.319418
0.438675
-0.119258
-0.922548
0.276815
-0.268739
0.484314
-0.242658
-0.573355
-0.506721
-0.295939
0.303771
-0.562324
-0.00339109
0.961684
-0.121602
0.578363
-0.246489
-0.331874
0.0718871
0.206825
0.238282
0.987459
-0.941376
-0.00125433
-0.211052
0.303269
-0.468184
0.491452
-0.43181
-0.528466
0.206912
0.162283
-0.369196
-0.765181
0.0367713
-0.115215
0.739589
-0.624374
-0.0550345
-0.968555
-0.665309
0.803004
1.43674
-0.63626
-0.800483
-0.12696
0.290007
0.744086
-0.388176
-0.35591
0.246116
-0.27105
0.0309932
0.0332946
-0.182841
0.0375294
0.145312
-0.102282
0.478715
-0.55949
1.17438
-0.0252431
-0.135738
-0.258357
-0.0765306
0.334888
-0.0192922
0.716959
0.354313
0.270567
-0.62488
-0.366747
0.547778
0.4031
0.394154
-0.374048
-0.0679712
0.497736
-0.185407
-0.312329
-0.0505707
0.0360283
0.0145424
0.150154
-0.771902
0.621748
-0.88527
0.127427
0.204673
-0.507304
0.785108
-0.00766914
0.253785
0.116076
-0.435493
-0.91
0.458787
-1.02987
0.323325
-0.424187
0.0453836
-0.381107
-0.554088
0.935194
-0.775646
0.123795
0.0239583
-0.147753
1.0003
-0.774724
0.780376
-0.530704
0.14079
0.501596
-0.642386
0.188712
-0.350179
-0.442345
-0.270152
0.712496
0.302377
-0.226338
-0.076039
-0.561322
1.20089
-0.639571
0.728683
-0.480404
-0.24828
0.627502
0.0221903
-0.649692
-0.52643
-0.745877
-0.29924
-0.0170582
0.371203
0.591631
-0.0116496
0.0812825
-0.0696329
-0.650694
-0.154784
0.638379
0.555356
-0.509625
0.611376
-0.101751
-0.241791
0.292903
-0.0286349
0.253778
-0.225143
0.0870568
-0.404842
-0.116019
-0.889646
-0.873894
0.223797
0.0147194
-0.09227
-0.227932
0.0713685
0.692363
-0.763732
-0.473935
-0.11861
0.453664
0.383242
0.0628982
-0.224265
0.0247987
0.182501
-0.2073
0.0622397
-0.331895
0.269655
0.180815
0.26388
0.353957
0.791458
-0.370136
0.817694
-0.434274
-0.102632
-0.234645
0.337277
0.712324
0.0794456
0.022868
-0.639791
0.441765
0.251622
-0.270914
-0.475986
-0.676959
1.15294
-0.614796
-0.583151
-1.07006
1.10907
-0.0390045
0.336373
-0.333617
0.266799
0.528136
0.263322
-0.314676
0.342136
-0.0274602
-0.267967
-0.511568
-0.232773
-0.438026
0.670799
0.451739
-0.232937
0.48276
-0.275866
0.557293
-0.891864
0.434222
-0.331204
-0.488775
0.93056
-0.441785
0.673179
0.445735
0.293579
-0.739314
1.09099
-0.617813
-0.473177
-0.604494
-0.635809
1.07403
-0.438222
0.279492
0.298871
-0.265144
0.257474
0.401994
0.760073
-0.189178
0.168541
0.0211658
-0.0154058
0.900985
-0.501563
0.449594
0.866435
-0.377803
0.197224
0.180578
0.195053
-0.428259
0.707227
-0.0417777
0.357165
-0.193574
-0.637353
-0.122125
0.759478
0.168503
-0.0286112
-0.139892
0.125113
0.0819098
0.128868
-0.882899
-0.259936
0.293738
0.649082
-0.572716
-0.0763658
0.154327
0.343408
-0.132718
0.0689213
0.241845
0.207402
-0.449247
-0.41697
1.10377
-0.138061
-0.532846
1.08801
-0.555165
-0.261721
0.373223
0.0916689
0.0313552
1.05088
-0.530683
-0.331452
0.248439
0.301924
0.276037
-0.308443
-0.145704
0.126143
-0.276291
-0.121993
-0.00421168
0.23213
-0.140902
0.761218
-0.620317
0.110122
-0.114688
-0.301174
0.0764122
-0.295991
-0.003249
-0.846541
0.567758
0.227886
0.210611
-0.447744
0.192457
0.255287
0.247817
0.0443625
0.766398
0.424532
-1.19093
-0.0860433
-0.0166008
0.102644
0.159056
-0.691913
0.953648
0.483096
0.733436
-0.662067
-1.08185
-0.0633862
-0.0195775
0.0075161
0.429608
0.385212
0.389723
-0.774935
0.354739
-0.0449453
-0.0296259
-0.295139
-0.0826642
-0.501522
-0.386839
0.516496
0.452975
0.412172
0.521972
-0.539195
0.0172229
0.163872
0.00665804
-0.0618557
0.225756
-0.0321068
0.670572
0.164277
-0.834849
0.455013
-0.0675566
-0.202946
0.123736
0.0792096
-0.312739
-0.00404619
0.316785
0.241862
0.581946
-0.823809
0.201515
0.27954
0.641074
-0.0170505
-0.238058
0.393024
0.16942
0.117863
-0.191921
0.0740579
-0.966046
0.498453
0.781445
-0.619388
-0.162057
0.0117259
-0.11647
0.104745
0.749184
-0.813603
0.527979
-0.0762401
0.386827
0.393549
-0.111295
-0.0106982
-0.335819
0.129582
0.206237
-0.532062
-0.102748
0.998945
-0.511417
-0.487529
0.457249
-0.0463479
-0.410901
0.387504
-0.648579
0.261075
-0.0852209
0.46414
0.0132113
-0.45263
0.942196
-0.489566
-0.199677
-0.136142
-0.433489
0.389344
0.0216148
0.683559
0.002751
-0.68631
-0.288444
-0.0140212
0.196569
0.113528
-0.0243039
0.241689
0.0921205
-0.318632
0.290686
-0.000363509
-0.0553694
-0.118834
0.12439
-0.358307
0.499097
0.0086063
0.21286
0.2264
-0.246093
0.648939
-0.0488703
0.570842
-0.12498
-0.0976928
-0.204844
0.446689
-0.155794
0.865536
-0.709742
-0.739838
-0.105845
-0.708163
1.06435
-0.35619
-0.0440933
0.433437
0.28347
-0.0547842
-0.0170785
-0.214514
0.231592
-0.774578
0.243895
0.0956524
-0.109128
0.503521
-1.16163
0.369625
-0.970096
-0.648411
1.15451
-0.44479
0.460187
-0.252785
0.0111468
-0.568346
0.7185
0.00068709
-0.130266
0.129401
-0.476528
-0.0905256
-0.551175
0.6417
-0.364105
0.486405
1.30413
-0.855757
-0.448376
-0.195432
0.0618223
0.185606
0.0189949
-0.204601
-0.725803
0.140748
0.159031
0.0208617
-0.00536728
-0.104325
0.109692
0.425481
-1.13364
0.0811438
0.401847
0.0316745
-0.433521
-0.959959
0.804166
0.12037
0.0325214
-0.152892
0.335171
-0.896109
-0.119641
-0.00138701
0.121028
0.154152
-0.0337813
-0.00487286
0.651394
-0.491316
0.534169
0.448243
-0.246728
-0.816099
0.234427
-0.603326
0.48783
0.115496
0.632749
-1.10873
-0.453893
-0.268917
0.72281
0.0353047
0.356621
-0.265462
0.229664
1.05068
-0.154053
-0.89663
-0.0118466
-0.821728
0.574582
0.0529198
0.361327
0.382759
-0.134271
-0.00287729
0.118477
-0.236871
-0.311327
0.0383546
-0.0335789
-0.00477561
0.0167174
-0.631377
0.61466
-0.0753518
0.282336
-0.206984
0.40813
-0.974483
0.566353
-0.0914447
-0.478639
-0.0288675
0.0140919
0.606965
-0.307118
-0.168721
0.475839
-0.328286
-0.345864
0.394506
-0.232222
0.31524
0.114397
-0.429638
-0.425572
-0.0221716
-0.675118
-0.112251
-0.0287808
0.141032
0.144313
0.218726
-0.363039
0.377319
-0.774679
0.397359
0.0251231
-0.488442
0.152562
-1.10895
-0.359787
-0.89244
1.25223
-0.845779
0.0351282
0.810651
-1.13023
-0.704635
0.0234983
-0.252365
0.25253
-0.000165956
-1.25893
-0.30338
0.973952
0.337888
-0.167609
0.0846565
-0.2895
-0.138915
0.418455
0.126113
0.0783362
-0.336694
0.0128577
-0.102616
0.0897581
-0.187567
0.0597803
-0.0682198
0.0799457
-0.251565
0.44233
-0.90479
0.545578
0.359212
-0.247403
0.0411774
0.498785
0.171831
-0.00332812
-0.0291063
-0.28557
-0.432796
-0.229726
-0.481541
0.165013
0.316528
-0.0451469
0.34242
-0.297273
-0.367225
0.429464
-0.0695831
0.644569
1.05748
-0.703169
0.467831
-0.796117
0.374955
-0.505956
0.131001
0.087386
-0.00213123
0.0455415
-0.00101361
-0.926263
0.545156
0.0749101
0.382338
0.0127294
-0.165293
0.152563
-1.47486
0.586936
0.218735
-0.400415
-0.163928
-0.0172058
-0.188079
0.205285
-0.494121
0.187003
-0.972996
0.856976
1.17893
-0.632577
-0.166726
0.152464
0.0142613
-0.117885
0.0570345
-0.125009
-0.793428
0.177415
0.616013
-0.117061
0.100461
-0.0422049
0.269992
-0.227788
0.32457
0.203409
0.132049
-0.128324
-0.00372547
-0.233953
0.242559
0.0677135
-0.00477308
0.464409
-0.821928
0.936578
0.0435671
-0.535133
-0.114503
0.849029
-0.0337761
-0.815253