/*--------------------------------*- C++ -*----------------------------------*\
| =========                 |                                                 |
| \\      /  F ield         | OpenFOAM: The Open Source CFD Toolbox           |
|  \\    /   O peration     | Version:  2306                                  |
|   \\  /    A nd           | Website:  www.openfoam.com                      |
|    \\/     M anipulation  |                                                 |
\*---------------------------------------------------------------------------*/
FoamFile
{
    version     2.0;
    format      ascii;
    arch        "LSB;label=32;scalar=64";
    class       surfaceScalarField;
    location    "7.5";
    object      phi;
}
// * * * * * * * * * * * * * * * * * * * * * * * * * * * * * * * * * * * * * //

dimensions      [0 3 -1 0 0 0 0];

oriented        oriented;

internalField   nonuniform List<scalar> 
20045
(
0.533541
-0.621776
0.0882351
-1.13711
0.471177
0.66593
0.218439
1.83048
-2.04892
-0.144244
0.248736
-0.104492
-0.900642
0.885307
0.0153347
-0.494014
2.05364
-1.55963
-1.10434
0.508813
0.595525
0.0771086
0.462347
-0.539455
0.490369
0.476487
-0.966856
-0.699584
-0.208482
0.908066
-0.269905
0.262035
0.0078704
2.24386
-1.22329
-1.02058
0.42051
-0.411354
-0.00915579
-1.22912
0.957841
0.271275
-0.36696
1.168
-0.801036
-1.04852
0.348938
-0.0416284
0.0546513
-0.0130228
1.9406
-1.82865
-0.111953
-1.70359
2.42127
-0.717675
-0.759461
-0.028419
0.78788
-0.149698
-0.0130413
0.16274
0.152894
0.267616
-0.22531
-0.911797
0.693088
0.779338
-1.47243
0.875662
0.0982762
-0.973938
-0.855947
1.54904
0.0313514
-0.0475358
0.0161844
-1.03805
2.07249
-1.03444
1.69182
-0.0270705
-1.66475
-1.95845
1.21826
0.740189
-0.940266
0.255632
0.684634
1.62967
-1.18865
-0.441019
-0.696997
1.3513
-0.654298
2.36615
-1.45495
-0.911204
-0.597441
0.67455
1.80068
-0.871103
-0.929576
1.14429
0.776949
-1.92124
-0.0711756
0.425925
-0.354749
-4.6754
3.26186
1.41354
0.685449
0.518165
-1.20361
0.0631025
0.428377
-0.49148
0.175274
-0.248686
0.0734118
2.58594
-2.56323
-0.0227089
1.43245
-0.455904
-0.97655
0.605112
0.827342
1.1655
1.07837
0.260171
-0.245536
-0.014635
0.900798
0.694953
-1.59575
2.05365
-0.909357
0.128124
1.68044
-1.80856
1.30259
-2.20176
0.899175
3.94134
-2.10157
-1.83977
-0.856014
-1.19682
2.05284
-0.0903068
-0.340324
0.43063
2.20858
-1.15351
-1.05507
-0.749602
-0.15104
0.511557
1.0124
-1.52396
2.78893
1.37992
-4.16884
0.808945
-1.50594
1.84377
-1.73422
-0.109553
-0.361151
0.312266
0.0488853
0.231939
1.61183
0.768879
-1.57333
0.804449
0.12702
-0.276719
1.59343
-0.397984
-1.19544
1.17288
0.851961
-2.02484
0.132808
-0.260046
0.127238
-0.688234
0.0857016
0.602533
0.912148
-0.421779
1.21689
-1.28601
0.0691206
0.262053
-0.129244
0.377612
1.83097
-0.315468
-1.05956
1.37503
0.0953824
-0.0967301
0.00134775
1.38441
0.241599
-1.62601
1.29688
-0.785326
-0.598884
1.98329
0.464956
-0.831916
-0.133639
0.312143
-0.178504
2.32403
-1.11377
-1.21026
0.903475
1.04777
-1.95124
0.894022
-0.780176
-0.113845
1.30259
-0.533712
-2.19335
0.29689
1.89646
-0.0184287
0.55197
-0.408953
0.569216
-0.160263
1.39699
-0.486366
-0.910623
-1.60449
0.0683434
1.53615
0.994986
0.235316
-1.2303
-0.875686
0.709762
0.165924
-1.80097
-0.0805249
1.88149
0.775732
-0.128469
-0.647263
0.429621
-0.655756
0.226135
-0.247292
-0.793984
1.04128
0.646804
-0.677898
0.0310941
1.13794
0.498521
-1.63646
0.0609595
-0.0296081
-0.123308
0.313515
-0.190208
1.31525
-0.629799
-0.0815547
0.0894798
-0.00792512
1.22271
0.577972
-0.521784
-0.707332
0.212044
-0.335352
-1.59849
4.38741
0.102698
-0.511651
-0.130111
0.0485563
0.419529
1.22562
-1.64515
1.78677
-4.22121
2.43443
0.126531
-0.485591
0.421746
0.0638452
-0.256297
0.324227
-0.0679292
1.42655
-1.01893
-0.407617
-0.541005
0.450698
1.54493
-2.01315
0.46822
-0.249393
0.380066
-0.130673
0.0548716
-0.315101
0.26023
1.10038
-0.224719
1.90174
0.46441
-1.25447
0.939004
1.24742
-2.25376
1.00634
1.39241
0.54819
-0.106819
-0.254333
-0.840883
0.6945
0.146383
-2.88862
0.10108
-0.631948
0.530868
1.92642
2.01492
1.20847
-1.53505
0.326577
1.58791
0.159445
-1.74735
-2.31565
1.9586
0.357046
0.381785
-1.46297
1.08118
3.98632
-2.0599
-0.420346
0.17481
0.586447
-0.445541
-0.140906
-0.0603068
0.0339262
0.0263806
1.14004
0.803339
-1.94338
1.24676
-1.10972
-0.137042
-0.309364
0.100446
0.208918
-0.344533
-0.141058
2.45553
-1.20811
-0.696425
0.750405
-0.05398
1.11767
-1.8966
0.778931
0.758153
-1.61417
1.06401
0.680214
-1.74423
1.11573
1.2083
2.25573
-0.298615
-1.95712
0.443809
-1.25816
0.814354
1.46982
-1.28233
-0.187482
-0.290409
0.37956
-0.0891507
0.0223782
1.84128
-1.86366
1.74579
-0.0539697
-1.65109
0.0540306
1.59706
-1.02421
0.907298
0.116913
1.73535
-0.831872
0.244709
0.649313
-1.27841
1.49508
-0.216674
-1.55931
1.77775
0.0268008
-0.383271
0.356471
0.250119
-0.219391
-0.030728
-0.0323441
-0.409554
0.441898
0.821285
0.429712
-1.251
2.48813
-1.19601
-1.29212
-0.480903
0.448559
1.04078
-1.82999
0.789204
0.209823
-0.0345488
-3.70006
-0.972834
1.25759
-0.284759
-1.24719
0.997399
0.249788
-0.0201289
-0.106746
0.126875
0.35638
1.11344
-0.042628
-0.0176788
0.259375
0.327072
-1.35473
0.0763218
-1.4715
1.86361
-0.392118
-1.43917
1.63107
-0.191903
-1.0971
-0.691717
1.78882
0.0578604
-0.0319814
-0.025879
0.768015
-0.917006
0.148991
1.46859
0.209174
-1.67776
-0.00828099
-1.49025
1.49853
-0.945186
2.0092
0.446549
-1.17951
0.732958
-0.595513
2.14044
-1.7859
1.22161
0.564287
0.136093
-0.117539
-0.0185539
0.790463
-2.00368
1.21322
-1.67021
0.632158
-1.5871
-0.416589
1.89828
-1.28856
-0.609723
-0.564885
0.627987
0.315266
-0.334261
0.018995
-1.26895
-0.822508
2.09146
-1.72779
2.52628
-0.79849
4.46547
-3.23887
-1.22659
0.0214695
-0.416412
0.394942
-0.584638
-2.70315
3.28779
-0.12839
-0.141515
-1.24079
1.62257
-1.27858
-0.42936
1.70794
0.226685
0.0607731
-0.287458
0.126071
-1.09891
-0.267054
-0.673212
1.67506
-0.0871559
-0.33837
0.267195
-0.330853
0.398149
-0.0672957
-0.712784
1.53407
-3.16609
2.58145
0.656343
0.621605
-1.27795
-1.46652
0.334655
1.13187
1.14433
3.32114
2.14477
-1.35431
1.38988
-2.19676
0.806882
0.443989
-1.62919
1.1852
0.134663
-0.894124
-0.999349
1.41888
1.27341
-1.76742
-0.0555922
-0.435409
0.491002
-2.16963
1.11803
1.0516
-0.152371
-0.723314
0.371452
0.342738
-0.714191
1.21261
-0.282241
-0.930373
0.0478514
-1.26438
1.28675
-0.549897
-0.146527
1.20955
1.81693
-1.90646
0.0895313
-0.0261552
-0.29746
0.323615
1.2949
0.132522
-1.42742
0.841954
-0.601869
-0.240085
1.2422
0.12421
-1.36641
1.32014
0.0768448
1.22567
-0.779118
-0.107672
0.360176
-0.252504
1.57716
-0.459499
0.237708
-0.0181265
-0.219582
0.129683
-0.395637
0.265954
-0.266337
0.275223
-0.00888624
1.95014
-1.41049
-0.539643
0.56642
-2.29421
-0.292594
0.0262573
-1.8371
0.529435
1.30766
1.9659
-0.614607
0.489829
-1.96133
3.17526
-1.61968
-1.55558
-0.0326003
0.259286
2.57
-2.82903
0.259032
-1.21487
0.210101
1.00477
-2.00026
1.95531
0.0449508
0.565585
-1.50437
0.938789
0.0396065
0.00779978
-0.0474062
-0.973759
1.20744
-0.233682
0.0186104
0.301021
-0.319632
-0.350953
0.10156
-0.303753
0.047456
-2.3483
-1.87291
2.17624
-1.08667
-1.08957
-0.202867
-0.0471076
0.249975
0.997049
0.632624
0.167327
-0.222919
0.0716287
0.17849
1.13893
0.826976
-1.05788
0.116801
0.941076
2.59037
-0.020368
0.832303
0.335693
-0.0540469
-0.14882
-0.607203
-0.0386466
0.645849
0.0414783
0.0946146
-0.48573
1.72793
-0.623798
0.279384
0.344414
-1.86342
1.79027
0.0731557
0.453989
1.82735
-2.28134
-0.312999
-0.304843
0.617842
1.51231
-1.66508
0.152777
-1.24434
-0.925287
2.43001
-1.79985
-0.630151
-0.230462
0.204307
1.63056
-1.06497
0.711929
1.46431
-2.15946
0.735447
1.42402
3.59608
-0.296853
-3.29922
1.52584
-0.0298592
-1.49598
-1.22355
-0.935919
1.7618
-1.01741
-0.744392
-0.367749
1.59521
-1.22746
0.715142
-1.37307
0.657933
-0.14107
0.308128
-0.167059
-0.0640043
0.0147469
0.0492574
2.12821
-1.68582
-0.44239
-1.16734
-1.14831
1.68904
0.127881
-1.69622
-0.167202
0.262823
-0.133141
1.60732
-1.72529
0.117966
0.00896197
0.306304
-1.07557
2.21561
0.524713
1.42542
2.09668
-1.43275
-0.663935
-1.58164
1.15228
1.60734
-2.25842
0.651078
-1.23565
-0.129076
1.36473
-0.478876
-0.381755
0.860631
1.76171
-0.720927
-0.737892
1.39424
0.243504
-0.114212
-1.07444
-1.31945
2.31178
-0.99233
-0.384127
0.0532741
-0.115577
0.00790471
0.195331
-2.19559
1.1238
0.196347
0.784699
-0.523348
0.718799
-0.195451
0.0337093
-0.177953
-0.977194
0.634916
0.342278
0.79893
0.627619
0.17997
0.475045
-0.655015
0.947637
0.299121
-0.00420513
1.61153
1.1703
-0.175312
-0.480003
-0.986519
1.7751
-0.698279
-1.07682
1.94983
-2.16244
2.14383
0.0186138
1.57321
-1.73204
0.158832
-0.9475
0.700208
-0.285673
-0.0236909
-0.419446
-1.38152
0.604032
-1.16885
0.564821
0.900604
0.861196
1.42103
-1.94179
0.520752
0.478546
-1.1549
0.676353
-1.94577
0.341278
0.0166675
0.759065
-1.52807
2.08383
-0.555764
-0.446485
0.654268
-0.207783
-0.848754
-0.255584
-0.290922
-0.472235
0.763157
0.233143
0.000548346
-0.233692
-0.719056
-0.305155
0.709386
0.912466
-1.62185
1.97759
0.612776
1.28937
-0.901149
-0.0463508
0.995469
-0.516923
-1.46097
-0.324928
0.29539
-0.259591
-0.0357996
1.60878
-0.707982
-0.970749
1.59753
-0.626778
-0.275176
0.328847
-0.0536705
1.36331
-0.150695
-2.03079
0.305504
-1.08154
1.96621
-0.884669
1.36407
-2.02171
0.657636
0.830321
1.59968
-0.0464534
0.0713691
-0.0249157
0.222255
-1.45791
1.18965
-1.80091
0.611253
0.0851876
0.0101947
-0.151803
1.36028
1.44112
-0.317324
-1.02647
1.47046
0.317082
-2.02067
-2.04875
1.38684
0.661911
1.34638
-0.286403
-1.05998
1.87774
-0.365434
-0.840421
-0.917916
-0.798445
0.68619
0.282279
-0.52267
0.240391
0.650383
-0.678802
-1.52157
1.36977
2.00459
0.581351
-1.67871
0.707962
1.79025
-0.101201
-0.333914
0.316542
0.017372
-0.0749512
-1.11602
1.19097
-1.80353
0.337128
1.4664
1.5968
-1.5968
-2.60466
1.91528
0.689383
0.795284
-0.615315
1.19179
-0.778397
-0.41339
-1.92164
1.99973
-0.0780997
0.722958
-0.101909
-0.621049
0.578146
-0.1907
-0.387446
0.287038
-0.600037
-0.138067
2.2156
-1.50367
-1.59802
1.91149
-0.313476
-0.592631
1.30202
-0.124728
-0.0137028
0.138431
-0.581368
0.380821
0.200548
-0.759279
0.893942
1.96531
-1.53315
-0.432154
-0.220159
-1.00666
1.22682
-0.526488
0.552208
-0.0257202
0.3383
-0.588344
0.250045
-2.23251
1.16514
1.06737
0.131054
0.117683
-0.364882
0.0309678
-0.0202155
0.126898
-0.106683
0.910267
1.21794
-0.123296
-0.00143222
-0.206539
-0.463398
0.669937
-1.03182
1.6664
-0.634583
-0.0274028
0.197314
-0.169911
0.941483
-0.43267
0.853532
0.820193
-1.67373
0.10171
-0.895695
0.0844211
1.38417
0.909114
0.64488
-1.55399
1.00094
-0.798677
-0.202267
-2.02792
0.376827
-0.760658
0.383594
0.377063
0.716721
1.04598
-1.7627
-1.28571
1.15664
0.120438
-1.81148
1.69104
-0.312642
0.334111
0.159944
-0.152026
-0.0079183
0.0417587
-0.648961
-0.399863
0.3132
0.0866633
-1.45896
-0.378137
1.21734
0.29215
0.377119
-0.669269
-0.306018
0.0308414
0.291828
-1.3892
1.09737
0.332642
1.04176
-1.3744
0.465531
-1.4123
1.66172
-0.249423
-1.45529
1.08754
-0.0390761
-0.00845966
-0.802137
-0.44505
-0.571447
0.12678
0.444668
-1.80631
0.774494
1.29147
-1.51163
0.232905
1.55734
-0.629072
0.642592
-0.0135195
0.577935
-1.5876
1.00967
0.38277
-0.59476
0.21199
-0.302005
-1.72879
-1.37874
-0.0604344
-0.703959
0.0157251
0.152691
0.0356942
-0.188385
0.720967
0.046443
-0.0942391
0.0477961
1.64962
-0.932894
-0.426342
0.332591
0.0937506
0.524463
0.433607
-0.958071
-0.713197
0.400556
-0.505821
-0.0656264
0.60714
0.584647
-0.929698
-1.32406
0.196507
0.0988837
1.20429
0.894563
0.275735
-1.63105
1.75917
0.0723025
-0.767488
0.695185
-0.176084
-1.6509
1.82699
-0.312574
0.345975
-0.0334011
0.164688
-0.106828
-0.674704
1.38985
1.35384
-0.910029
-0.73316
-0.244034
-0.0375172
-0.843939
0.881456
0.680478
-1.77758
-0.115975
-0.960511
1.07649
-0.168018
0.171093
-0.00307551
-1.28066
0.0501308
1.23053
1.68218
-0.987226
-0.00776987
0.210884
-0.203114
-0.469223
-0.0572645
0.421107
0.725284
-1.14639
0.24998
-0.31217
0.0621909
1.05786
0.603721
-1.66158
-0.789212
1.92715
0.221158
0.011985
-0.66941
-1.98787
2.65728
1.11035
1.34518
1.66002
-1.32737
-0.760435
0.469513
-0.00723686
-0.0567674
-0.537985
2.14533
0.258202
-1.52466
1.26646
1.71078
-0.287167
-1.42361
-0.750966
1.30464
-0.553671
0.775634
-0.573244
-0.926182
1.49943
-0.081714
0.117515
-0.0358013
-0.566201
-0.972851
1.53905
-0.283032
-0.298337
0.119863
-0.139992
1.01287
-1.57907
-1.41025
-0.420555
1.8308
-0.0659392
-1.0121
1.07804
-0.0860283
2.0806
-2.17504
0.0944304
0.452301
-0.228886
-0.223414
0.0217299
-0.650802
0.502412
0.538864
-0.666094
0.187218
-1.61674
2.02685
-0.410113
-0.619483
-0.00431459
2.63509
-1.51937
-1.97022
-0.593016
0.138424
0.0320592
-0.170484
1.0737
-0.179142
-0.434467
0.479671
-0.0452044
0.340423
-0.321812
-2.2222
0.6351
1.75893
0.294717
-0.193577
0.531877
-0.465596
0.99006
1.70051
0.515089
-0.450653
0.0161865
-0.202434
-1.31914
0.506627
0.476153
-0.449352
-1.837
0.0334765
-0.140488
0.462275
-0.0795053
-1.99519
0.980596
1.0146
1.06346
0.153428
0.437384
-0.1588
-0.278584
0.581032
-0.549663
-0.0313689
-1.35799
0.486885
-2.19082
1.10928
-0.0149864
0.663606
-0.64862
-0.022217
0.323298
-0.301081
2.09557
-0.0489235
-2.04665
0.353227
0.0201667
-0.373394
-0.277717
-0.563166
0.502245
-0.0726247
-0.0376771
0.0427393
-0.00506226
0.816804
-0.129576
-0.687228
0.025513
-0.06319
1.49644
-0.997918
-0.0553931
-0.319003
0.374396
-2.04235
0.42562
0.0424048
-0.18939
0.401434
-0.679725
0.971875
0.106012
-0.0343832
0.533265
0.322335
-0.8556
1.14897
0.44446
0.735071
-0.662769
0.447868
-0.392997
0.214024
-0.660509
1.09345
-1.55225
0.458803
1.12576
-0.150964
-0.9748
-0.935957
-0.322207
-0.339195
0.0952384
0.243957
0.646615
-0.815172
0.168556
2.19037
-0.0620634
-2.12831
-0.297746
0.158852
0.138895
-0.988554
1.37445
-0.385894
1.04233
1.06234
-2.10467
0.436044
-0.123778
-0.550424
0.921383
-0.370959
0.484799
0.180822
-0.66562
-1.71639
0.913681
0.802713
0.0415055
0.00123381
-1.68909
0.278845
0.666436
-0.384702
-0.281733
0.857889
-1.18162
0.323728
-0.224787
-0.396989
0.241315
1.83929
1.64787
-0.287441
-1.36043
-1.61894
0.206643
0.645843
-1.12585
1.67705
-2.80564
1.12859
-0.237642
0.609094
0.0145061
-0.769348
0.562808
-0.34576
0.44684
-0.0997565
-1.98637
2.08612
0.731985
0.898572
-1.47409
1.55928
-0.0851874
-0.0252333
0.177924
-1.4281
-0.42616
-0.259619
0.292314
-0.0326947
1.82389
-1.02224
-0.801658
0.154139
0.0195198
-0.173658
-0.239402
1.09729
-1.28232
-0.714796
1.99712
-1.59469
-0.502115
2.0968
0.895525
-0.759207
-0.136318
-0.416946
0.0461968
0.370749
-0.0541654
0.0673708
-0.0132054
-1.8847
0.0614495
1.82325
0.0404115
0.422617
-0.463029
1.55781
-1.72895
0.171141
-0.918112
1.07315
0.574372
-1.64752
0.0288961
-0.288516
0.4187
-0.916358
0.497658
1.59432
-2.18984
-1.89499
1.64717
0.247823
0.29538
-0.0454002
0.973432
1.66166
-0.168684
-0.351725
0.520408
-0.0199387
0.312887
-0.292948
-0.57484
1.61408
-1.03924
0.619406
-1.32098
0.701573
2.03822
-1.94334
-0.0948852
1.46791
-0.677063
-0.790847
0.0770189
-0.490581
0.413562
-0.618885
-0.013063
-2.07327
1.82244
0.250829
0.108646
-2.18192
0.28479
1.42344
-1.70823
-1.04961
-0.63621
0.441797
-0.357743
-0.0840547
-1.58815
-0.454201
-0.412626
0.291056
0.121569
0.473721
0.368233
-1.88754
1.80727
0.0802735
-0.300129
-0.0139718
-0.0827583
0.379368
-0.0261413
-1.148
0.174239
0.338385
-0.372149
0.033764
-1.4768
1.09448
0.382326
0.752476
-0.0295175
-0.550866
1.08027
0.283035
0.751537
-0.387985
1.70285
-1.31486
-0.278715
1.04673
-1.31635
0.816876
0.499474
0.000386785
0.0411187
1.57767
-0.845684
1.3463
-0.768369
-0.338883
-0.400785
0.739669
-0.0314954
-1.29689
1.32839
1.14698
-1.21292
1.71973
-0.743664
-0.97607
-0.0109773
-1.0807
-0.235646
-0.543927
1.45788
-0.913958
-0.0226526
-0.455252
1.84513
-2.10232
0.514169
0.0870056
-0.228075
-0.282089
0.00831331
0.283913
-0.0086901
-0.841662
-0.898024
1.75395
-0.457065
-0.342522
-0.0312206
0.373743
0.0982447
0.479901
-1.68132
-0.815594
2.49692
0.92897
0.832742
-0.0130044
-0.312165
0.32517
1.63971
-0.281309
0.0818942
0.199415
-0.543665
1.63711
-0.769596
-1.94264
0.344621
-0.453087
0.0218696
0.431218
1.55399
1.62127
1.70602
-0.973055
-0.732964
1.94402
0.0942028
1.22838
-1.75544
0.527063
-1.63807
0.00750049
1.63057
-1.66602
2.15193
-0.485919
0.309446
-0.0152934
-0.294153
-0.685559
2.27988
-0.251127
0.136692
0.114435
0.0701155
-1.54421
0.619439
0.0630842
-0.682523
-1.83082
2.33868
-0.507856
-0.52557
1.14894
-0.623366
2.32179
-1.02107
-1.30071
0.0697142
-1.2156
1.14589
-0.126767
-0.0252586
-0.835945
1.87828
-0.612108
-1.99255
1.90796
-0.543887
-0.390527
0.335134
-1.69235
0.0542816
2.02971
-0.60868
0.051701
-2.24505
0.48414
-0.0557628
0.525852
2.50373
-3.02958
1.11068
-0.316528
-0.794155
0.567554
-1.48917
0.92162
-0.314513
0.0215
0.293013
-0.449914
-0.973134
1.42305
0.741989
-0.527964
-2.22908
1.19945
1.02964
0.305992
0.451721
-0.757713
0.157727
0.284071
-2.20819
2.59877
-0.390576
-0.32325
0.010676
0.885791
0.463144
-1.34893
0.860823
0.794051
-1.65487
0.382312
0.964069
-0.0597466
2.31548
-0.00266149
1.56888
-1.56622
-0.0178841
-0.00951865
0.0649377
0.0229547
-0.0878924
1.61288
-1.41822
-0.194664
0.772503
0.947232
0.0929543
-0.0354142
-0.0575401
-0.503504
1.57108
-1.06757
-0.00390048
0.374332
-0.370432
0.232796
-0.717621
0.484825
-0.823903
-0.558742
1.38265
1.49602
-0.201124
0.531312
0.57937
0.448946
-2.09545
1.6465
0.61184
-1.6185
0.400195
-0.255062
-0.145132
0.397363
-0.100265
-0.297098
0.0685191
-0.195286
-0.117636
1.34679
-1.22916
-0.222155
1.90259
1.4961
-1.2607
-0.235402
1.29592
-1.0606
-1.01555
0.40275
0.612802
-0.00794528
-0.770451
0.0450342
0.190783
-0.235817
0.145086
0.292299
0.288387
1.4606
-1.74898
0.428553
0.38825
0.251518
-1.84621
-0.904164
0.3787
0.525464
-0.660149
-0.522767
1.18292
1.00342
-0.470155
-1.68124
1.08861
0.695256
-0.576809
-0.118447
-2.54107
1.89517
0.645903
-0.852379
0.954089
-0.899481
1.20681
-0.307325
-3.14979
4.39178
-1.24199
-0.0464441
0.433166
-0.386722
-0.341722
0.319505
-0.202613
-1.55269
3.46004
-1.90735
-1.07857
1.41322
0.989746
-1.07601
0.0862642
0.35267
-0.232259
-0.120411
-1.99553
1.3769
0.61863
0.0532215
0.167828
-0.221049
0.172054
1.03398
-1.60882
1.0132
-1.0447
-0.637404
-1.41135
-1.39543
1.39277
0.922321
0.0750777
0.613093
0.327574
-0.940667
-0.686841
0.649776
0.0370649
0.621986
-1.09963
0.477646
-0.935302
-0.575414
1.51072
-0.451994
-0.0156133
0.467608
-1.45117
-0.344023
1.79519
0.112501
0.240169
1.29512
0.31776
-2.52412
-0.0486135
2.57273
-0.214588
0.370542
-0.155955
0.00971398
0.406356
-0.504909
0.0985535
-1.12216
-1.67348
0.738176
0.296442
0.42547
-0.348451
1.252
0.571891
-0.272949
-1.19002
0.0750045
0.571799
-0.140651
-0.0808729
0.221524
-1.40054
-1.11258
2.51312
1.85463
-1.40568
-1.02128
-0.100547
1.12183
0.2832
0.363657
-0.646858
0.0112404
2.22675
-1.43605
-0.790698
0.358314
1.28956
0.0448509
-0.360966
-1.16308
1.52404
-0.671069
1.47455
-0.803477
-1.11615
-0.396247
1.5124
-0.9478
0.397376
-0.698598
-0.316953
1.98608
-0.96634
-1.01974
0.293902
-0.28254
-0.0113619
0.668057
0.189577
-0.857634
-0.367591
0.408002
-0.255225
0.346763
-0.0915381
-0.261695
-0.0436639
-0.43724
-0.0187966
1.09748
0.888605
-0.341833
3.60369
-0.481682
1.69994
0.153841
0.140061
-1.60496
0.488811
1.45362
-1.23136
-0.254899
-1.2976
0.309048
1.68733
-1.40254
1.29815
-1.3731
1.63381
-0.0605956
-0.39039
-0.265366
-0.417077
-0.213417
0.630494
-0.622536
-0.0553621
1.49737
0.275766
-1.77314
-0.0302362
-0.497496
0.527732
0.0420018
2.8388
-2.67648
-0.16232
1.65734
-0.0995297
-2.54142
2.33174
0.209687
0.418994
-0.333292
-1.78639
-0.209141
-0.585761
1.87684
-0.0543963
-0.840557
2.21804
-0.91601
-1.30203
-1.13931
-0.139302
1.27861
0.200947
0.955151
-1.1561
-1.39332
0.112664
-0.391274
-0.16866
0.559933
-0.93599
1.19419
0.339793
0.961549
-1.30134
-1.0522
0.13092
0.921277
-1.72536
0.144913
1.58045
-0.49147
1.50467
-0.466402
0.932162
0.535749
-0.453512
-0.307146
1.85439
-2.15301
0.624733
-1.15349
0.528759
0.0539533
0.382091
1.34871
0.0556198
-1.40433
1.27895
-1.76063
-0.00309882
0.0427053
-0.738613
1.37921
-0.640598
-0.595012
1.01371
-0.0265718
0.557484
-0.530912
-0.04826
0.137274
-0.0890144
0.197754
-0.0330658
-0.546408
1.19225
0.502767
-0.517754
-0.322785
0.351682
0.37085
-0.972719
0.0698257
-0.0620259
-0.396656
0.381616
0.0150398
0.430983
-0.474167
0.0431847
-1.24713
1.48873
0.16356
-1.18484
-0.0179004
-0.546984
-0.0291308
1.12729
-1.09816
0.654959
-0.693606
0.535871
-1.38756
0.851687
-2.64814
1.00448
1.64365
0.95948
-2.27893
-1.58451
-0.0495227
-1.84547
0.439777
1.31417
-1.44974
-0.231508
0.130259
-2.2927
-0.849568
0.377334
-0.0579958
0.00450031
0.0534954
2.89368
-1.33969
1.52198
-0.332331
-0.454406
-0.34325
0.797656
-1.91347
0.776417
1.13706
-0.049278
0.311313
-0.493006
1.56616
0.337579
-0.184684
-1.64146
0.0398878
-0.291015
0.103712
0.0987962
-0.202508
-0.239867
1.73724
-0.153282
0.221563
-0.0682808
1.84183
-2.51448
1.21459
1.29989
0.495909
0.404341
-0.900251
0.60285
-2.15362
1.55077
-1.07762
0.552045
-1.63877
-0.0773355
0.745393
1.76824
-1.94433
0.836623
-0.351824
-0.73531
1.34715
-1.36195
0.991917
0.370034
0.341821
-1.00359
0.661773
-1.35548
1.466
-0.110525
0.703344
-0.982058
0.0292689
0.353239
0.542286
-1.4558
0.34203
1.24778
-1.53646
-0.526038
2.06249
0.479344
-1.61865
1.38208
-0.0296491
-1.18523
0.247031
0.996558
2.03455
-0.694485
-1.34006
-1.45104
0.554703
-1.21485
0.334484
-1.81714
1.67784
-1.27923
0.705988
0.927624
-0.792646
1.17466
-0.382016
-3.44868
1.26629
2.18239
-1.41225
-0.0790906
-0.0889272
-1.94235
1.37394
0.568408
1.64502
-2.33058
-2.18087
-0.0273264
2.81099
-1.13394
2.40738
-0.408771
-1.99861
-0.0454259
-0.298766
0.344192
-0.228088
0.817431
1.0352
-1.49149
0.69884
0.276415
0.465573
0.379108
0.733454
-1.11256
0.783877
-0.441139
-0.133875
-2.01152
2.1454
-0.695283
0.738876
-1.68406
-1.16215
-0.856205
2.01836
0.508769
-0.637238
-1.38245
0.46201
0.920442
-0.0919035
0.0376099
0.0542936
2.06971
-2.16946
0.612032
-1.35065
0.701931
0.581688
-1.28362
-0.131868
-0.210654
-1.6186
0.477073
1.14153
-1.4176
0.593702
0.792882
-1.46395
1.28102
-0.656289
-0.0363238
-0.0555797
-0.0381927
1.74897
-1.15416
1.48183
-0.327671
1.50287
0.00928575
-1.51216
-1.60859
0.00492523
-0.528273
0.102862
1.49394
0.267398
0.0614488
-0.637953
0.372382
0.422903
0.992596
-0.472493
1.09448
-1.76928
-0.118266
-1.25671
-0.403204
-2.42583
0.375083
0.360079
-0.735162
3.01274
-0.542782
-2.46996
-0.230604
0.215311
-0.694754
-1.49606
-1.49297
-0.239077
-0.528637
1.80759
-0.634136
0.93027
-0.296134
-2.02711
0.626571
-0.596236
0.975345
-1.08781
-0.907379
-0.577467
-0.506558
0.655549
-1.4494
-0.0274001
2.15812
-0.28128
0.195348
-1.6491
1.45375
0.188956
0.17122
0.533135
1.95406
-1.83362
-0.0681312
-0.435295
0.66143
-0.920865
1.03767
-0.920002
-1.18975
0.41539
0.365803
-0.781193
-1.64321
0.0464082
-0.262926
1.48713
-1.2242
-0.616264
-1.92516
-1.29496
1.42748
2.24788
-0.984707
-1.26317
-0.174034
0.557629
1.81054
-0.873371
-0.937172
0.525618
-0.569282
0.107607
-0.0426692
-0.317206
-0.0109347
0.32814
-0.299229
0.912322
-0.822904
2.46793
-0.0207773
-0.336965
-0.525503
-0.206751
0.732255
0.0451683
2.02454
0.43135
0.527136
-0.958486
-0.728626
1.14973
0.745692
0.825384
-0.680061
-0.224103
1.02981
-0.357982
-0.671829
-0.0800884
0.0304908
0.0495976
0.133035
-1.37482
1.24179
-1.76071
0.267738
0.428794
-3.15213
2.74893
-0.00528934
0.530907
0.299446
-0.933582
-1.62242
0.823976
-1.80963
0.613622
-0.910545
0.151266
-0.773416
-1.21655
1.98997
-2.14657
0.130594
-0.00791251
-0.122681
1.63541
-1.33852
1.27433
-1.07339
0.243563
1.02925
-1.27281
0.285486
-0.67676
-0.614077
-1.31485
1.92892
0.528439
0.536844
-1.06528
-0.76167
1.52931
-0.767636
1.78295
-1.20934
-0.573616
0.801087
0.114921
-0.916008
-0.957594
-1.55689
-0.607807
-0.0961529
2.2234
1.76292
-0.0192612
0.203355
-0.184094
-1.27928
-0.339323
1.23275
1.18852
-1.01389
1.26888
-0.254985
-0.223553
0.305447
0.243367
0.731725
-0.975092
0.0879958
-0.241278
-0.201389
-1.74096
-3.49397
0.745353
-0.0500972
-0.920626
0.653572
0.149934
1.37716
-1.5271
-0.989041
-0.158957
-0.515739
2.49333
0.139397
-0.48393
0.261873
-0.603394
0.34152
0.204559
-0.736063
0.531504
2.45993
-0.63258
2.04554
1.64381
-0.743209
1.80941
-1.07054
-0.24829
-0.479806
0.728096
1.40337
0.191841
-0.00230576
-1.33805
0.888139
1.7109
-1.66573
-0.836369
-0.842495
1.67886
-1.07426
-0.839217
-1.83474
1.83418
0.000555303
0.683783
-0.65197
0.438553
1.11946
0.524353
-0.702062
-0.164455
0.866517
-0.535822
-0.75019
-1.1561
-0.638754
1.79486
1.84327
-0.914298
0.15698
0.243215
1.16643
-1.86119
0.804259
-0.705983
-0.846614
1.39933
-0.552713
0.815999
0.987704
0.636145
-1.62385
1.86193
-1.13642
-0.725512
-0.726778
-1.50334
1.96684
-0.463503
1.44286
-1.24751
-0.555163
0.549874
0.801465
1.52032
-0.421188
0.375762
0.0754286
-0.0289855
1.80347
-1.00013
1.20252
1.69116
-0.812818
0.452129
0.360689
0.460083
-0.798966
1.4006
-0.0518821
2.21902
0.188359
-1.26105
-0.116023
1.37708
0.372846
-0.0410401
-0.331806
0.325827
0.126474
0.252907
-1.91892
-0.540474
0.582233
1.28107
-1.1605
-0.120573
0.292189
0.737622
-0.307357
0.148557
0.463947
0.477833
-0.94178
-0.800024
1.60897
-0.286283
-0.816115
2.08194
-1.26582
-0.431899
0.737891
-0.232931
-0.819267
2.05692
-1.03527
-0.660948
1.89431
-1.29146
0.570476
-0.588376
-0.328232
0.281788
-0.577929
-0.287258
-0.0187601
0.795096
-0.311287
1.54336
-1.23208
-0.196219
0.176003
-0.566332
0.214607
-0.660647
0.0528401
-2.61538
1.94597
0.439577
0.481806
-1.1551
-0.255068
1.41017
0.385347
0.183869
1.51713
0.995046
-2.51218
-0.224087
-0.0256355
0.249722
-0.258649
-0.167692
1.47974
0.768134
1.46871
-1.31877
-2.04132
-0.10124
0.0275185
-0.836672
0.839362
0.357093
0.59943
-0.956524
0.705795
-0.0508358
-0.0459134
-0.598082
-0.214736
-2.64023
-0.852597
0.844652
0.186993
0.145598
1.07006
-1.01426
-0.0557964
0.36551
0.016106
-0.131367
0.4882
-0.057218
1.46265
0.351288
-1.81394
-0.251238
0.35495
-0.447496
0.279135
0.168361
-0.665354
0.0137368
0.651617
0.705096
0.746955
-1.45205
0.458701
0.544719
1.26679
-0.0227114
-0.518294
0.920497
-0.548115
-0.0274292
0.0138422
0.013587
-1.63341
1.21682
1.56271
-1.24142
-0.321289
0.0290983
-0.282487
0.253389
1.62336
-1.74099
2.03668
-0.193412
0.443255
0.83108
-0.275848
-0.0114101
0.26378
-0.0496299
-0.21415
-0.986329
-0.248731
1.99753
-1.02107
-0.976459
1.98734
-1.48877
-0.498571
0.7772
-1.36745
0.590251
-0.128992
1.01744
-0.0219748
-0.563399
0.968658
-0.405259
0.190547
0.0732335
-3.03986
0.235555
-0.0139926
1.48351
0.0217357
-1.50524
-0.3758
-0.0606046
-0.0800462
-0.0530871
0.0176729
0.436939
0.942272
-0.183587
0.337725
0.00360212
-0.0638608
-0.166659
0.269357
-0.753055
0.996617
0.0296429
0.44651
-0.260796
-0.609601
1.60665
0.00223394
1.06782
-0.210863
-0.243348
-0.469452
0.933398
-0.352561
1.45926
-1.1067
-1.48459
-0.204503
-0.592334
1.14417
-0.551831
0.0262786
0.209277
0.586319
-0.123972
-0.0411402
-0.4454
0.486541
-1.54212
0.506841
0.260143
-0.267913
0.916545
-2.59787
0.747882
-2.73575
-0.628946
1.40828
-0.626779
0.965661
-0.487828
0.0265839
-1.14931
1.28234
0.00330017
-0.30076
0.161927
-0.921134
-0.222209
-1.07979
1.302
0.044123
-1.67471
2.72989
-1.75481
-0.975075
-0.434178
0.143561
0.419362
0.0433106
-0.462673
-1.46293
0.308771
0.386646
0.0107167
-0.00988965
-0.256333
0.266223
0.696279
-1.28861
0.155127
0.806221
0.122808
-0.929029
-1.61912
1.26656
0.280213
0.0749264
-0.35514
2.07144
-3.62413
-0.283526
0.00156828
0.281958
0.361514
-0.0813003
0.0267904
1.34436
-0.962044
1.08548
0.939775
-0.481074
-1.68232
0.520172
-1.20321
1.0244
0.178815
0.821216
-1.65758
-0.914114
-0.595842
1.50996
0.17402
0.733278
-0.559036
0.457127
1.91037
-0.233276
-1.67709
-0.0105094
-1.75877
0.798672
0.00241485
0.989415
0.821128
-0.311289
-0.000876227
0.288723
-0.552365
-0.616489
0.0624548
-0.102903
0.0404484
0.0509081
-1.13677
1.08586
-0.0776851
0.5175
-0.439814
0.0193325
-2.35042
2.33109
-0.105741
-1.00397
-0.0466061
-0.0317843
1.19069
-0.615566
-0.38802
1.00359
-0.719694
-0.739267
0.833332
-0.467529
0.0425894
0.252852
-0.295442
-1.73757
0.58247
-1.77018
-0.20593
-0.130718
0.336648
0.206908
0.616336
-0.823244
0.186767
-0.530673
0.343906
0.130332
-1.04213
0.269834
-2.10066
-1.10836
-0.733798
1.84216
-1.69447
0.0760288
1.61845
-2.24421
-1.4226
0.0671151
-0.501528
0.519946
-0.0184185
-1.81719
-0.639866
2.10252
0.692228
-0.369893
0.144761
-0.614212
-0.326715
0.871433
0.290277
0.21183
-0.737333
0.0321448
-0.253878
0.221733
-0.319075
0.0286664
-0.178208
0.207307
-0.48897
0.984879
-3.73181
1.56194
2.16987
-1.91734
1.17944
0.974189
0.399607
-0.0267611
-1.01276
0.310702
-0.864593
-0.517858
-1.01396
0.38423
0.629729
-0.0822354
0.323493
-0.241258
-0.736529
0.941089
-0.196822
1.32869
1.65744
-1.22609
0.98943
-1.70912
0.808252
-0.975989
0.167738
0.228723
-0.0178394
0.0624564
0.00891272
-1.9793
1.20589
1.54929
0.438053
0.0292867
-0.369748
0.340462
-2.46018
0.900879
-0.136811
-0.258826
-0.359823
-0.0251079
-0.415946
0.441054
-1.04345
0.427882
-1.86742
1.66603
1.32438
-0.622449
-0.372122
0.333307
0.0388151
0.256099
-0.22404
-0.293416
-1.89646
1.00945
0.887009
-0.281539
0.255903
-0.159347
0.56022
-0.400873
1.65967
0.377011
0.0621206
0.163147
-0.225268
-0.474054
0.503697
0.0761152
0.00907243
1.44643
-3.44665
1.8375
0.106521
0.668698
-1.15506
1.68286
-0.080173
-1.60268
-0.310057
-0.00795155
0.318009
0.877369
-1.71903
-1.19599
1.92019
-0.724195
0.0263941
-0.0481572
0.0217632
-1.12344
1.14524
-0.0217966
-0.539766
1.07564
-0.385122
1.00453
3.24683
-1.38035
-1.86648
0.0584863
0.0297319
-0.0882182
0.20131
-0.574638
-0.0442466
-0.566817
-0.00782061
0.132053
-0.588927
0.456874
-0.148344
1.66452
-1.51617
-1.6904
0.588769
1.10163
0.541331
1.55424
0.0495728
0.118628
-0.168201
1.00987
0.484351
-1.49422
0.00238496
-0.0603807
-0.557679
1.56494
-1.00727
-1.38919
0.128141
1.15472
0.539103
-1.45322
-0.000740014
-0.19638
0.19712
1.55213
-0.33096
-1.22117
0.502523
0.392026
-1.82027
0.922245
1.6682
-1.80208
-0.895314
0.139262
0.756052
-0.0753847
0.189003
0.123364
-0.312367
-0.104066
-0.213514
0.31758
-0.0141961
0.22374
-0.209543
0.283103
-0.3279
0.0447963
-1.05056
2.21699
-0.570804
0.533287
0.194663
-0.354009
0.693935
-1.00973
0.315799
-0.583958
-0.777992
-0.0331788
-0.0209866
-0.068704
-0.000521419
0.0692255
1.49299
-0.966732
-0.526254
0.147254
1.13382
-0.451526
-0.235315
-1.05808
0.214137
0.508628
0.849135
-1.35776
-0.009516
-0.0416932
0.0512092
-0.0462797
0.627312
-0.09052
-0.187785