/*--------------------------------*- C++ -*----------------------------------*\
| =========                 |                                                 |
| \\      /  F ield         | OpenFOAM: The Open Source CFD Toolbox           |
|  \\    /   O peration     | Version:  2306                                  |
|   \\  /    A nd           | Website:  www.openfoam.com                      |
|    \\/     M anipulation  |                                                 |
\*---------------------------------------------------------------------------*/
FoamFile
{
    version     2.0;
    format      ascii;
    arch        "LSB;label=32;scalar=64";
    class       volScalarField;
    location    "4.9";
    object      p;
}
// * * * * * * * * * * * * * * * * * * * * * * * * * * * * * * * * * * * * * //

dimensions      [0 2 -2 0 0 0 0];

internalField   nonuniform List<scalar> 
13486
(
21.0496
21.5473
2.12303
-152.07
-21.8947
4.05749
-31.9378
-9.43624
3.19261
17.5439
-46.6184
2.94231
21.7992
7.56129
-16.7237
18.0152
-24.6363
-6.30251
1.70221
19.1875
-198.259
21.273
21.2084
-44.1642
15.1624
-38.5219
-22.7074
-8.43042
0.19175
-10.0147
-152.406
-5.27638
-18.6436
-3.78959
-9.04508
-3.59248
-29.5833
7.9432
4.37066
6.11003
-63.26
23.4375
3.40244
14.7943
14.7656
3.06284
-23.4001
-0.465321
-33.0216
-5.46145
15.1559
6.11775
5.7423
9.25842
-15.2775
-20.0319
2.77634
5.78697
-17.7905
-9.65757
-63.0943
-26.3814
-18.7624
-193.412
-25.15
-34.1516
-133.36
24.285
2.70027
14.4596
-126.319
-13.5249
9.26697
-23.2253
-33.4786
3.22584
-33.6722
-18.4857
-23.0363
-1.54929
-1.74211
22.8793
-18.9296
2.47518
20.9895
24.2729
-13.9789
15.026
17.6399
21.1
0.832342
-13.227
18.1143
20.1328
1.9066
-0.617647
-23.0541
-110.12
6.15195
-24.4932
-3.22417
8.10527
-117.763
7.82182
27.6465
-24.4525
14.7694
4.23201
-23.3605
-19.9032
-2.64596
-14.1851
9.24735
5.19987
29.9403
-1.86746
15.7571
-1.71661
9.45046
-65.4838
-4.99374
-57.7886
4.44436
4.56514
-2.58478
7.65734
-2.61915
9.32964
-0.0356981
-11.8495
8.10196
-23.5345
-20.889
-21.9025
15.1464
17.9585
37.5905
-18.911
-65.4097
-6.21276
-12.3404
4.06595
0.975237
-1.45469
4.57382
-22.5118
-12.0073
38.2537
-6.18232
0.00267727
13.1302
-24.9486
-1.74589
23.586
10.7278
2.01384
-29.3954
-95.338
3.2996
-70.0853
-2.26901
3.30269
-0.953488
22.82
7.01529
4.71148
9.12427
37.7
-14.1818
-21.7703
-26.47
10.6899
14.2268
-3.97172
-2.14164
-83.7321
8.06769
-13.7121
14.5341
0.429484
3.26669
5.24874
-2.98612
-25.3955
1.28805
-8.25558
0.200318
-7.1536
-74.7785
1.47502
-47.9179
3.58214
7.16747
29.7896
5.52082
-43.5815
-8.60185
-2.29901
13.143
5.48339
-147.565
9.18017
7.85581
-37.3677
-55.7894
5.79009
-17.8725
12.886
6.86962
2.12816
-7.55746
-47.4947
18.9425
14.8422
4.01749
-5.10328
-10.311
21.0536
15.4749
-9.52515
-24.5358
-6.15433
-5.2079
-2.57068
5.39333
17.1092
2.2304
-127.437
-2.55431
-11.2437
3.17196
-123.553
-13.2986
24.7663
-185.358
15.0247
-4.75861
4.18809
15.5744
-0.483278
-20.2603
14.1638
5.67359
12.6281
-2.11283
17.1297
0.732336
-22.6295
-22.9184
15.4882
-37.3914
30.6053
-4.04085
4.07689
0.584551
-81.0372
-4.15142
-5.9707
-80.7247
-20.6918
19.2726
-1.75074
-16.0285
-79.6952
-26.3215
-25.0508
-0.549119
-187.865
9.69113
-0.546785
25.6469
15.1126
-10.6956
3.37032
17.2494
-20.7589
1.38404
-11.6134
3.76496
-7.92462
-13.4812
1.94687
15.3846
-56.6651
-52.3963
-24.1774
-11.0947
-0.747331
6.16478
9.99359
-184.457
-15.2439
0.745042
15.0296
-4.05855
-6.09107
-2.55312
3.34864
15.1485
-45.0677
0.052471
-19.0593
-7.5213
-5.71187
-24.4358
-40.0556
-135.056
0.685953
-17.7443
-49.2123
-9.84788
-150.244
10.6068
-12.4677
-67.1541
18.2233
-21.556
17.8654
13.3605
-1.19685
-29.8702
-9.17484
14.5844
20.7171
37.3325
0.929793
-9.11228
1.56311
2.86374
-10.809
15.0869
-15.1141
1.10596
26.2411
-33.1228
0.0572425
30.0478
-24.1574
14.1138
-4.08088
-1.18712
20.6924
-12.2899
-3.39282
-30.3951
-0.234961
-1.78885
27.9572
-9.94303
-19.4399
0.313792
3.27862
3.39132
-23.1177
15.0385
-17.9506
-23.7283
-2.63927
-13.6594
-34.2006
1.91378
3.21327
18.3409
15.1713
-10.8626
-0.481766
-5.4262
-24.6721
19.5974
-2.24336
3.04204
-1.32018
5.28229
-33.963
6.18893
15.0082
14.5825
-9.9335
-65.653
-13.0057
8.94056
-18.179
24.3392
25.906
-23.8873
1.62895
6.99344
13.985
-25.4686
-146.981
18.1968
-10.9883
11.9241
16.7632
27.2551
-118.725
-151.8
-35.4789
-25.1907
-11.8878
-25.417
16.7424
5.78777
-85.4381
-30.1914
-5.12813
19.9115
-13.5484
-0.347133
21.2433
13.1742
9.4881
-11.5085
15.3564
14.5628
28.665
-23.993
-26.6398
-25.4
-0.711472
14.6357
-25.3389
28.2353
14.477
0.341202
-6.83714
9.34679
15.5641
-23.0007
9.70038
21.3912
6.02006
11.743
5.09857
-30.67
-20.8244
24.8398
-11.4754
-3.78904
23.8574
-25.2122
-10.6397
-21.2743
-11.9679
-36.6909
10.9614
28.5252
21.7233
-13.4155
-47.6457
-31.7195
14.3397
18.0952
-5.7885
1.84435
14.9308
-19.7075
-83.5205
-58.0034
-26.7821
11.0769
14.7696
-1.72887
9.68295
-177.173
16.7495
-0.495369
34.1574
17.5756
7.37145
-12.522
-5.7346
-0.0290255
29.7468
3.64937
-81.5019
-0.104023
0.190299
-24.4789
3.94786
14.4661
-8.98013
3.16718
21.3762
-9.35795
-24.9658
13.9276
-146.254
37.276
14.0028
15.2247
15.3608
-80.9504
4.29933
31.9424
-29.2022
20.1746
-41.5777
9.86685
-184.931
-0.0131206
3.52195
-24.3981
18.209
-2.34323
-37.5106
0.0376175
3.43096
27.1075
10.9469
1.39041
-1.45782
-1.80967
3.67788
-28.5528
15.0418
-25.8203
24.2035
-120.897
12.3142
23.8061
-18.4444
-4.84275
0.663842
-163.25
-26.5304
0.961361
-22.5126
4.98098
18.1268
-25.8901
-32.1705
-25.6595
-0.238226
15.1442
9.51696
-23.7832
-112.44
-25.4843
-84.3357
-7.79391
-20.8035
1.77205
-1.38445
25.6924
-8.78279
18.477
-24.454
-34.8983
-0.108486
11.2525
-34.7394
11.623
3.18798
-67.6296
-2.56283
8.35341
-23.1625
-26.1416
15.2254
16.689
12.1523
21.5904
4.01652
14.1925
9.34799
13.4556
5.14748
15.397
-22.4323
16.7671
-2.7725
-0.26423
-18.8631
14.0482
-25.5349
3.65283
27.8804
20.6207
-39.4536
-68.9157
11.7659
6.85071
6.84826
18.6967
-47.289
-26.1616
6.17668
18.9679
8.41084
9.92089
-106.917
20.8618
-9.10015
5.58875
14.9681
-14.625
0.0133678
20.9694
-9.44616
1.59238
-10.8336
10.9563
-3.50435
20.2545
-1.39182
1.55631
2.21424
7.35438
-10.8056
27.5039
10.1712
27.0312
-140.36
11.2095
-5.05841
-24.0508
-23.6349
15.2611
29.909
-76.6992
-19.1985
-10.2994
-10.8529
15.4191
-11.0921
6.93978
4.58623
-25.9186
-16.6393
-22.5871
12.1017
-2.76213
15.1508
-2.54202
24.2673
5.13671
-48.4266
-31.9741
-6.82273
10.3354
-48.9088
9.0779
-24.4736
14.705
-0.598061
4.19172
-68.8355
24.2833
0.409263
2.32506
23.1922
15.1036
-22.2679
-2.63783
-0.875053
7.26352
-3.91485
5.57164
-33.6308
10.8678
6.71697
10.1399
4.21199
23.8788
5.56603
-100.083
14.0419
-24.3815
3.14094
-8.57998
14.4678
12.7779
-22.2831
3.44572
-6.84857
3.26494
15.0829
10.2227
1.74437
2.72823
-80.4747
6.2794
20.2938
-18.8168
-5.55997
5.53871
25.5145
-0.780298
6.31521
27.0288
2.61838
-21.8624
10.1824
-20.1411
18.4599
4.86378
14.9413
-133.722
-22.2381
-44.9567
-1.49221
-24.773
13.8778
28.6279
-6.65459
-30.1377
1.64188
20.5535
-9.54956
12.1301
-70.0227
30.2746
-21.4516
0.855837
-6.18371
14.3193
17.5138
18.0745
-11.9412
-178.864
23.1917
14.9156
-31.5892
7.00871
-61.3579
-2.47637
-8.02943
13.809
-18.632
2.66992
19.2065
-26.7873
6.40997
-10.6473
-29.9213
-6.32733
6.65856
12.2559
18.7169
-133.479
2.03779
-19.7795
-181.811
3.48987
-3.43126
2.09746
14.9507
9.13445
1.49528
7.31346
-98.9876
3.77861
-30.0349
0.232106
-139.581
-44.4045
-3.53092
-80.9285
-4.10965
22.1599
-100.741
4.09552
23.2081
20.4094
-39.1551
-13.7678
1.2526
-24.811
4.87044
-13.5915
8.06977
-20.8321
-24.8865
11.7956
14.3061
0.913825
-4.05156
-28.7272
4.60201
-1.94954
18.2108
1.17287
-115.082
20.9047
18.9672
-25.9451
-79.7259
4.17139
-46.1306
1.98863
2.68766
-8.98454
-106.57
4.81127
14.8806
27.4105
11.6994
6.42833
5.90821
14.6026
18.8941
17.5839
2.68401
12.5437
26.3827
-26.8423
-3.31835
8.19075
1.42169
24.5555
2.15753
22.2027
1.79905
1.96216
2.73317
5.02662
-8.28172
16.5808
26.3214
14.4435
13.2817
-16.0319
2.33361
-1.96119
-21.0471
-4.30047
11.8323
5.00365
-93.8871
-73.0662
13.1305
-8.73957
-22.7386
-19.4637
-7.67533
-15.3678
-35.4209
-85.0297
13.6698
-170.689
20.9378
-114.795
-23.3062
6.32502
15.7074
-31.4198
8.33555
-57.0448
17.5699
-23.4305
-16.5933
1.37619
-27.2333
-4.7104
14.9661
4.24846
13.702
-10.0822
0.712878
-22.8186
5.49037
-17.5663
11.3227
-9.70602
-52.8426
-111.85
20.9569
-8.0785
-99.6082
-49.5167
12.3329
-80.4724
-13.2292
3.12503
-14.3831
-4.97078
-9.28463
-22.2561
20.6733
14.9437
7.98078
12.3195
12.7964
-7.23594
15.3283
7.05839
7.07897
19.0557
-1.95938
2.26358
-0.543475
5.41814
-37.5763
16.9987
11.2636
-24.8556
15.0222
-13.0357
-1.88667
29.2773
4.92992
-9.43625
14.1568
-9.07043
6.76676
0.0497802
-186.614
12.2353
5.66502
2.76287
5.17198
3.02804
10.5568
-20.4482
-0.733786
15
-4.24947
25.8687
17.6053
14.719
2.8652
18.5319
0.212265
3.55787
-11.9397
6.7623
-108.355
-0.62103
-16.063
-13.2358
-66.4795
10.5937
-27.5808
-29.9704
-96.1751
-108.833
-19.2121
16.1666
-11.047
1.1242
-21.4147
14.5114
27.4278
-4.87315
-76.5465
14.2319
-86.66
11.5732
-65.0819
1.55545
9.60899
8.56402
23.9469
0.894861
14.6637
-8.1125
16.3084
4.93519
17.8713
-116.784
-22.6621
8.32827
-78.7167
0.986081
-10.0727
-75.2625
21.5887
14.5499
19.1398
17.6337
19.118
11.6545
-2.89938
2.48241
14.6404
14.5431
1.69042
1.94459
-7.98133
9.10484
-0.156791
4.22083
-22.9016
37.5327
0.907934
5.65331
27.6096
20.3686
-0.444996
-96.8249
7.19628
13.8185
-59.1638
-0.169327
-22.6505
2.17707
14.6425
15.9954
0.594458
3.41693
16.1532
-0.744222
-1.72121
18.0022
0.286181
-45.6407
-28.067
2.61241
-8.03217
16.6807
23.9534
-11.9865
-89.5942
-14.4144
-2.08742
12.4686
3.06312
23.9759
8.20216
32.4864
10.9051
2.15207
13.0957
-23.2381
-26.3986
-80.438
12.4019
2.82404
-20.6513
-126.65
12.3626
15.3324
-4.658
-18.9014
-25.7093
-14.5517
-2.50428
-9.41668
1.43478
0.592457
13.3725
15.3296
18.6774
5.71128
0.212098
-17.0091
-9.20474
3.05974
-38.4739
17.2841
1.0419
-135.09
4.88847
-17.2351
1.65616
-74.6387
1.45954
15.045
-62.5021
-15.9344
-2.94393
-5.20984
-21.4156
4.51044
-7.94659
3.46045
14.5125
10.5637
-22.3139
15.0256
5.39837
18.7166
12.9272
13.156
5.42991
5.10604
24.0337
32.8214
4.26359
-27.7355
14.9103
-0.951468
24.2103
-12.9012
-16.6075
-66.9841
3.29854
4.91279
-16.5525
14.4605
10.3643
-1.613
-50.7746
-11.1977
6.4884
28.9678
-29.1407
15.6474
-25.1857
21.4587
23.4876
3.61395
-3.78621
-33.5797
24.0012
1.35492
31.5151
-42.1978
-8.24477
12.5093
4.24263
-32.2849
-21.9827
-3.11338
18.578
-158.07
-24.6609
20.6068
19.1296
5.0819
-11.8478
-53.1377
9.97608
5.7342
9.21847
15.0211
0.998166
-47.7245
17.4699
-4.5463
-13.9652
-9.48323
17.7696
9.92554
-74.8416
-118.003
0.0449865
15.249
22.3198
0.725138
3.64287
-8.80434
29.2696
-29.9694
-11.5644
24.5117
15.0833
2.32085
-1.05894
-149.561
-12.8368
-12.5998
-31.0858
-2.45223
-70.9502
6.55963
-7.41806
-25.7589
-24.7246
-14.6141
-61.8612
-25.2798
-31.1955
30.7806
16.7017
-29.2594
-24.9365
-3.9155
9.85008
-0.60419
32.239
-14.9018
-7.30613
15.1759
-9.7731
-72.6296
-10.6569
-11.8826
10.4928
33.7313
0.513848
3.61018
-50.1728
2.09631
-12.4374
-3.09663
2.14069
17.6701
18.3672
15.4659
-169.872
0.294341
4.7257
1.92507
14.5077
1.08818
16.0063
30.4916
26.285
-9.46157
15.1547
18.2277
-7.19785
14.4558
7.62865
25.5216
14.1031
6.55538
18.1154
13.5225
-8.78058
0.0172729
18.5223
-15.5035
2.5872
-22.9891
-18.8883
3.8014
11.5635
12.3481
0.563054
23.5945
23.1016
-8.58868
-21.8411
3.08921
-73.1036
3.6282
17.5458
18.1333
-22.54
14.744
1.68628
-0.837955
2.1569
-58.7498
-27.0601
-14.5263
33.7442
-17.4766
-77.056
20.7731
3.58626
4.94268
12.3321
3.45157
15.2301
-41.4861
-7.71617
1.097
-8.4204
-14.3822
-10.8428
28.0769
20.1965
8.69598
40.0522
22.6752
-13.5394
8.18269
-19.6782
0.146617
23.6985
-121.038
7.31889
-0.461122
-26.4393
-13.8146
12.8653
-88.4098
-0.590971
17.2909
34.0182
-22.6675
0.0247728
2.74075
4.36694
1.40957
-182.218
22.6764
13.6949
2.29573
12.3214
-11.9427
-40.1262
-24.4528
26.115
-78.2004
31.2323
-98.813
4.84101
-26.712
-29.1508
-22.4811
2.68705
4.60951
10.5275
-13.4244
10.5813
-160.593
-0.427949
4.15992
-22.9482
-7.71021
-15.7711
-16.7712
6.2064
-151.784
-57.0784
-0.248597
0.726897
28.0867
14.8084
-2.58942
1.19905
39.273
6.97086
-23.8552
-2.72273
5.51973
15.4211
3.09706
17.5593
-9.1712
-9.51985
-12.0051
-0.548936
2.97436
21.7597
-22.4078
-29.0884
-24.4784
26.7668
-99.8434
1.46188
15.1772
-67.0315
-4.92645
11.9691
-26.0881
-24.0913
-33.6275
14.8458
7.92787
14.8249
-17.5706
-23.0015
-20.4054
-23.3612
-12.1089
0.331196
1.81507
-7.95705
-11.4966
-121.549
-23.3882
-35.8242
20.2119
-197.778
26.9401
-37.6432
-7.85164
-6.10968
-3.18198
16.2458
-3.08798
22.8659
-11.4534
-12.6742
-28.7305
13.658
-22.5622
14.6338
-4.63664
24.5289
17.7177
-2.51969
12.3382
23.7195
5.09905
12.3181
-12.1842
-98.9458
-3.0563
-18.3488
5.00225
-15.9369
-16.9871
1.79982
-35.8949
2.99195
-15.7402
-7.62291
-14.7119
-7.74414
25.4269
1.46149
0.125506
3.60368
14.8769
-15.6241
-0.618691
5.96652
1.62778
2.29312
2.88288
0.277084
14.8391
15.0255
-8.31074
16.4489
17.4022
8.05943
-8.25627
5.73381
10.6626
0.879012
-8.66676
-25.7025
-104.72
-10.0186
-151.354
-1.96942
5.50061
5.02606
-22.5867
-5.87992
-81.1865
-17.5387
-12.3081
11.239
-28.4572
15.8121
38.0956
12.2291
5.89398
12.9668
8.85982
3.09133
2.18497
-11.3337
-97.5375
4.4172
13.9378
0.387453
22.595
1.92706
15.0029
-6.64033
-2.44522
-26.9529
-25.7163
32.7527
-144.199
14.9368
15.1562
17.5353
3.96133
13.6315
1.19101
-26.2942
4.30061
-22.3044
-24.6356
14.2391
15.1181
-15.1274
12.9378
18.4528
-72.0921
-69.9494
5.19729
5.30037
17.6278
13.0082
18.2604
-3.77039
4.06378
-15.0038
-7.91274
-8.24513
18.4634
30.8086
-13.3518
-25.951
-26.8075
-2.16525
3.3602
3.55915
-33.0351
-19.9061
-4.78109
-42.9268
-9.23785
36.1722
11.7224
-6.0695
-176.719
-45.9333
-22.3603
-25.0308
-33.2985
-34.6372
20.7377
12.8871
-10.7727
30.9909
-2.75497
-30.8199
2.8844
-25.7133
5.46943
-18.5752
10.6871
2.65966
-16.975
-8.55242
-20.5504
-23.2636
-145.713
18.6508
-77.6589
6.92763
-24.4274
15.2142
12.8219
-92.1401
15.5215
10.5185
19.7703
24.0628
5.3778
3.23989
34.2676
-24.4604
-0.941664
-40.7123
-92.1651
21.2623
-122.611
26.4906
12.7047
-8.42424
-26.3382
-23.5822
17.586
-102.073
-5.47268
-15.6137
5.41171
-8.82051
13.7376
8.62447
-7.21674
26.775
-22.2252
-35.4888
16.0681
-0.358816
17.2602
-26.8958
37.9624
5.32872
-15.0412
17.6568
-4.75346
14.9784
4.26656
9.59546
5.03044
-4.29889
-12.5503
5.97341
3.32156
-196.633
-11.2806
3.79017
13.2248
14.3843
-132.11
1.86676
-33.6759
13.4369
4.27414
-83.9019
16.065
-8.1066
15.1156
16.0649
-24.6095
21.4141
-83.9018
32.4511
7.09462
-79.773
0.544717
-24.4117
18.7567
17.5128
-81.3236
14.7951
16.7712
-27.5383
4.9162
3.5213
6.5962
-28.3837
-24.5499
-17.7827
-143.107
15.1292
-24.7928
-68.2825
-8.00548
18.9066
15.8004
19.9337
-24.6586
12.7848
3.54034
0.785782
13.1069
-106.736
-135.206
26.3507
2.12098
-31.7635
-14.7892
-26.4224
-94.04
14.9076
-24.6076
-2.57812
17.7183
-8.6327
14.1226
-19.3687
-0.270033
29.4751
-14.6468
18.3136
-2.78688
-102.015
10.5029
2.95191
16.3986
29.4897
8.49467
-3.92016
31.5193
13.5371
20.0944
-23.1636
-25.4851
-21.6627
-9.00179
-88.6581
-21.3617
-6.60108
-20.7442
-1.78187
1.30863
-15.2498
-9.21045
-111.015
-14.6288
19.6475
-37.2399
-0.1545
13.8241
14.7129
3.8174
-13.529
-98.9389
-25.0209
-21.4405
-4.03459
19.7579
-92.5968
19.8296
-23.3911
14.9752
-20.9269
-22.8051
-40.7342
9.4164
13.8498
9.55848
0.976987
13.2633
-11.2905
16.5376
23.9372
-34.4242
-42.6525
-67.8097
16.3158
7.31339
-38.4049
-17.3265
6.12351
4.89988
-74.014
2.97557
-10.5468
5.30598
13.8527
7.04894
8.28605
-92.962
21.2412
-46.985
11.6497
-0.538272
15.3141
10.32
13.5007
2.4441
-62.6036
-161.277
-22.9105
-23.0067
-113.463
-71.4109
-2.88196
-105.476
15.7185
5.39591
14.9008
-121.041
-20.9764
-13.1571
8.08829
10.2657
-24.007
6.55719
2.79301
-101.784
-84.3496
-53.0714
1.59532
15.1038
6.91666
3.4125
-16.3189
5.47211
-76.097
-3.38134
-28.8107
15.4995
0.128577
-45.8677
13.4716
4.84243
11.8031
24.1243
24.0243
-15.0529
-31.5756
-18.3887
-4.14382
13.8023
2.67613
-59.1648
-72.7047
-56.5206
-11.7488
1.83052
-72.814
34.4536
-13.9957
9.36879
-0.226307
-1.49729
9.70216
-105.127
1.50702
7.93187
3.26386
16.293
-15.5765
14.7346
-14.0305
-37.6801
-141.173
-14.5842
-76.5818
8.57034
28.8989
14.4387
-26.1448
-52.9319
17.3631
-23.232
-94.2879
-14.1244
3.3871
-43.4281
-83.1886
-81.1533
-10.1319
0.928655
-2.17231
-18.9435
2.95574
16.4855
-6.65278
-13.6087
17.383
6.85387
-49.2107
4.76232
2.64465
0.283134
31.8994
-16.6278
-0.96191
-5.83565
-2.64838
-6.73179
3.87707
-12.7815
-4.62523
-0.226607
-10.5793
-85.5462
-32.3388
18.2276
3.45682
9.13654
-11.8966
-4.27756
29.6856
-140.91
9.24619
8.64258
10.8378
7.65441
0.272451
-26.6025
20.7616
16.0701
15.0651
6.76045
-94.0715
17.2195
8.1289
23.5513
-28.9672
16.5478
17.6364
15.9965
4.42335
-21.7785
10.4724
-24.4601
-10.0594
12.7595
11.9515
7.36872
19.6028
3.2511
22.6991
-2.20131
9.95529
5.28742
0.00798211
-42.143
15.1058
-2.71427
13.581
31.8436
15.9627
2.54246
-7.75553
-0.188424
15.013
8.53637
-25.086
1.87731
-166.24
16.6947
-76.041
20.8557
9.71068
39.3033
25.6333
-15.5832
-20.7555
-51.3132
6.96618
26.0033
-13.484
5.40932
3.88158
35.8684
14.508
0.208085
31.688
-3.65742
12.7971
-2.08233
8.53717
4.64291
4.33292
9.1392
14.1976
9.5523
-21.8705
2.46458
-35.3543
-3.545
-57.1512
-57.1472
25.6891
18.9432
1.72455
-38.3757
0.657435
11.1166
2.93408
2.31268
13.5872
-25.1936
-23.5011
-204.593
16.0493
-13.3052
-53.7688
19.5986
-7.2431
0.0818599
-7.58489
30.1196
-101.962
19.8321
-44.1606
33.1593
-11.3495
-7.56052
-16.853
5.01699
4.05083
14.8516
8.23817
-34.3825
-3.4182
-77.2105
16.5262
4.42565
6.08358
-104.934
-19.0199
-47.5618
8.42587
-22.2136
-42.5463
-83.9643
15.1538
31.0869
-36.212
-94.7714
1.6462
-76.5465
12.41
-6.88035
-17.556
-26.9186
-28.7934
16.5234
-22.0923
-4.85271
-15.9819
-26.3439
-67.1261
8.51775
15.0272
10.8156
15.0395
29.0511
-62.4642
34.501
-19.9081
31.505
-82.9595
-5.40009
27.1204
12.2879
-14.9624
-2.81444
9.03175
2.48396
-106.188
-24.4813
3.36486
-9.88402
-16.4235
-1.87202
-1.33804
11.5175
8.52282
-93.5468
11.7976
-13.7285
-1.14573
-106.662
6.97278
-3.70586
-133.735
-10.1807
28.6633
13.6044
29.9735
1.30939
-23.2652
12.3969
-2.03298
-18.8081
15.0245
14.0471
33.238
15.1514
18.2509
-20.8598
-21.9867
32.0814
31.3752
17.4023
-1.36503
-93.3244
-24.1634
2.93693
-13.248
-5.36665
22.9086
-120.792
8.21383
-41.632
30.5743
8.0917
7.73655
-173.465
-1.49681
22.2875
36.7207
34.2987
5.36016
13.7771
-18.4443
-18.5302
15.3681
34.8802
-68.2919
-31.0622
-9.91547
0.625296
3.29064
3.5348
0.76702
3.23515
5.12985
1.14215
-147.203
11.0131
17.0216
-48.9119
10.9655
-162.652
-0.172883
25.0133
-42.965
-5.78719
-44.5412
12.6283
14.6924
-71.5486
-50.9045
-41.9101
5.62432
37.9105
-26.9403
-21.1688
-86.855
3.43952
-73.5396
-45.3263
-99.5528
-23.4131
-56.3975
-18.503
-1.24954
-17.0614
14.361
-36.0049
7.41689
36.6581
8.5847
2.47527
-5.54803
8.76354
-21.6946
-4.7514
24.609
12.7036
2.57992
-19.9739
9.33851
12.4215
-83.4882
-77.2293
-14.5139
24.8578
-7.98191
15.007
6.55238
21.4532
4.96602
-145.579
7.41638
14.8626
-6.27739
16.0513
-3.56262
32.8561
-134.718
2.31595
-38.5915
15.5002
-93.113
-7.85887
-134.129
3.2433
-36.8878
-91.4058
-112.751
6.38787
3.29166
-30.1347
-1.63198
3.75282
-24.9261
0.21335
-139.654
14.6527
30.8876
-2.71181
-22.9178
1.16897
4.19004
-4.76341
6.70003
-0.854008
-24.4139
-71.296
-10.4556
-35.1451
6.93992
6.11976
-87.4025
-42.9426
0.877008
14.637
8.47048
-62.1742
2.68484
-134.7
-18.6383
-6.31639
-10.4879
-67.7895
19.7375
-121.867
-26.7026
-15.4468
-50.3278
-28.308
-67.8197
39.4964
-5.14979
-12.0761
16.7157
30.9673
25.1601
-120.85
-2.43322
14.7122
8.1268
-54.289
30.7554
-0.892257
-8.50071
39.3689
4.99148
-42.0359
8.54506
23.4631
15.4654
1.1225
25.2295
14.5499
0.95628
4.53957
12.4451
3.06937
-25.3597
28.4383
13.7743
3.99273
-143.025
-26.0803
-6.20138
-171.562
-4.0089
3.00572
4.11429
16.9321
5.12178
-23.336
25.7616
27.1181
-24.1105
0.376772
-4.26634
-5.60587
-7.98744
14.1076
-93.9146
-6.81497
15.6945
31.5859
-23.024
8.0253
12.0132
11.8964
-10.8019
2.00577
-21.6134
-2.09333
-26.6248
7.67064
-27.1684
-13.7303
1.94296
-150.286
13.5892
-93.9611
-5.08296
10.2683
-21.504
-152.164
-24.5871
6.10661
-1.71664
-9.48617
11.7728
-88.8603
-3.66888
-18.2902
-2.46836
13.7515
-26.1969
31.235
-152.296
35.2063
-1.60345
-15.0146
3.93625
15.3417
-0.448759
-18.1921
2.85791
6.24487
4.1175
-6.81075
40.5551
11.9045
-18.0066
-7.68125
-11.5105
-9.00559
5.01796
-22.6275
14.2794
-209.6
-169.382
-25.2889
-43.9246
0.313501
-24.3142
13.9172
0.0799767
25.2546
32.4477
-24.9219
-24.3245
9.12419
-4.66734
26.6035
-57.7406
5.78406
11.7508
14.6179
-110.201
-83.5641
5.34901
9.86964
-5.48097
-110.972
-41.81
-2.80492
-3.10957
-16.4418
4.49206
-15.8365
-14.4072
5.60752
-104.289
-158.278
-6.48592
-10.5813
32.7371
-15.5696
15.2464
-9.24986
-5.11308
5.18957
-14.2308
10.3914
-108.955
-26.5971
26.2798
13.4184
6.49488
-25.0848
35.1641
-135.111
-25.5181
-206.74
-18.5644
-89.7462
-141.064
22.7925
6.04639
0.372102
11.5585
-160.867
-27.0225
-22.5953
0.823812
-16.6437
6.67669
11.9812
6.31971
-49.0278
-24.441
-52.8651
-10.3087
-5.55306
-6.03256
33.4877
14.4003
-75.5108
-20.8645
9.71617
24.0537
-10.6506
-26.018
-17.9369
19.0807
2.01851
-11.3803
16.1887
-25.2823
25.8447
-2.27508
17.2976
-31.044
-9.83024
-133.324
-200.539
-21.494
11.0185
-26.4287
-69.6988
10.3191
-73.0066
4.63991
19.4391
14.7681
18.6057
14.9898
-10.9178
1.74161
6.86321
3.14616
-0.369449
10.0188
-12.3985
26.3262
-138.678
17.8655
-32.504
30.648
-160.826
-2.43135
28.9329
-141.063
-15.1584
-23.3246
18.8036
28.7284
14.5798
-8.35341
14.7588
13.9177
-27.5807
14.138
-127.971
16.1386
-140.6
-155.921
-24.5089
-24.4955
13.4833
-28.3502
-25.1492
-3.73361
27.9672
4.74601
6.73004
-24.5145
-6.24921
-10.4406
-4.69561
15.1087
4.05569
-24.3122
34.3626
8.73628
24.5346
15.4427
-40.5336
-19.8219
-1.95088
-12.9233
-5.47579
-5.27091
-6.64827
2.69491
3.69433
-188.061
34.0052
17.9225
-5.8932
-62.7292
2.93424
-95.0939
15.7603
12.3059
3.27635
-122.964
12.244
5.48442
-6.61609
-21.8173
-12.8555
6.77994
25.8351
-25.8372
29.0917
36.9088
30.441
-23.8793
13.145
-33.4976
14.4729
12.6464
19.4465
6.84254
17.9419
36.2231
16.2451
-25.9945
-59.7562
-27.2986
36.3685
-2.81728
-42.1684
-69.8622
19.3658
26.1393
9.28072
-5.4987
3.59412
22.7558
-20.1451
3.76221
-76.2873
11.9578
7.884
-49.2638
-1.24676
-25.2199
-29.005
-92.8759
-9.43452
-25.3619
12.7336
5.71742
3.13625
4.45427
-38.6207
-21.7691
-128.14
-34.527
-27.6178
-26.4407
16.8205
23.4378
-140.392
23.0986
17.1012
26.1852
2.42814
-93.9044
6.86732
-25.7029
19.2802
-37.0418
18.4673
15.8537
8.39668
18.6362
1.50926
14.4666
-4.38551
12.435
-6.73075
-21.8334
-43.171
0.398081
14.04
-94.81
-112.378
-88.9169
29.2621
12.8454
13.1822
-5.59877
21.8243
-14.2059
3.83228
-7.12916
-8.20025
4.23185
-136.575
-23.3458
-5.25722
-24.8048
-3.34305
-82.3706
-2.25806
-25.3018
-22.9187
-0.402115
28.3546
32.5438
25.1118
-95.8653
3.86476
-34.9803
4.75116
25.1281
9.35685
13.7312
-85.7058
-3.13027
-8.37126
5.30767
16.2511
2.62298
7.13638
-24.1085
3.8097
-24.6188
15.1293
7.33381
14.6579
-24.9077
4.58858
-107.593
-24.753
-24.5197
-4.53375
26.9586
-17.4568
-9.38423
-76.7163
10.7643
15.1566
7.47328
13.6322
-24.9011
22.4881
28.7101
-117.762
4.25357
18.3703
-112.684
-72.1025
6.43173
17.729
19.8038
-28.4166
-15.797
7.59942
27.9588
-23.7515
-53.2329
4.90423
22.9381
6.10455
-5.81831
-73.0859
14.2186
14.7643
15.7016
4.55213
-15.8178
7.25346
35.2015
-23.4022
-7.32468
5.87941
-22.1872
6.32405
-2.03871
-38.1781
-17.5989
-175.504
13.9106
-116.051
-19.9791
13.2551
18.0086
4.92856
-11.8732
-53.504
5.08966
-24.0167
-25.6506
-7.34789
-3.31182
-30.2611
20.1006
5.95922
6.20529
1.98149
24.7662
0.679826
-10.3613
14.6287
-24.4138
14.7216
0.329883
-5.46203
-34.8589
15.4755
-0.427386
-2.45043
0.851953
-5.81029
14.8057
-32.2023
-1.93074
-89.8817
-4.9278
14.3811
-27.602
30.0913
-23.0603
-24.8136
-66.9711
18.5247
6.64904
12.5005
-25.8933
22.5305
-79.4123
-12.9864
1.52832
-24.3477
16.0298
-2.26037
0.460624
-7.43741
-25.5042
14.983
-24.7202
-114.355
-1.56592
-34.248
-32.9387
-4.30112
24.9552
-23.204
-35.5284
12.4778
-20.0116
19.3743
-36.2254
6.59944
19.3138
15.8569
-3.1919
-96.4318
-51.265
5.81089
11.1315
12.6588
-28.8262
-89.9195
5.14318
-23.5261
12.3414
37.4151
4.23751
13.964
19.1559
9.86994
16.3895
-75.3532
-24.746
-88.9644
14.4946
36.0273
5.18929
-2.88765
15.4781
-5.17633
-3.08568
-15.6171
6.41213
-0.378401
30.1376
-70.203
-18.1498
31.5891
15.9768
0.419053
7.47783
12.8974
1.65009
-116.78
-83.9301
7.30105
-22.9665
-21.8632
12.5959
-85.5998
-76.3496
-38.3835
2.55173
3.51741
6.70476
7.87488
12.9311
13.5572
-7.21328
7.55395
4.57349
26.2082
19.6923
-20.1425
-4.2223
7.7409
16.9745
6.48389
-2.49115
-4.13196
7.46856
-10.3696
24.8463
9.14662
0.944144
-36.8337
8.38681
9.95002
-12.3327
14.7413
6.76533
2.69458
-6.11328
3.43874
-25.2061
3.37049
-16.6267
-9.14311
-51.0924
-25.5519
20.3312
-37.109
-20.7522
-44.7814
26.1799
-16.0567
0.961444
10.5463
-24.3402
19.825
15.3029
-15.7555
17.0093
2.6588
6.41642
-26.2412
-35.6351
2.87104
20.4963
0.558345
-30.0624
-23.9725
1.05509
-28.1541
-46.7783
-19.3565
1.87146
11.2786
14.8214
11.0244
1.76885
-5.84221
17.6701
12.181
-27.5685
9.78702
-26.971
-9.14154
2.18102
-0.175905
14.9231
-61.0893
-12.241
-10.4319
11.4804
-86.4535
-26.0644
1.50259
-101.054
-25.1712
-24.8391
-41.9517
2.94731
-29.144
-2.95902
-27.8468
15.8313
15.3623
-13.2389
19.0442
-79.3644
24.2799
-16.1878
6.88941
-3.96959
7.84587
0.0697752
-21.8569
-26.3036
16.2089
20.3564
26.4492
-39.3925
-25.67
-84.317
3.14523
0.675606
-22.8049
-33.2609
-24.3405
0.00612033
-33.49
-14.1845
-45.7494
7.13602
22.5117
1.60539
5.31322
13.3527
-10.1202
-26.6362
24.9411
32.0164
-23.575
7.82815
8.52941
-0.344725
-103.609
18.2429
20.0302
-17.4085
-13.992
-88.91
-84.5171
-2.5731
-24.4314
0.366784
17.2042
-21.9882
18.0536
-30.8266
-24.3059
15.9977
-0.955377
-24.4232
7.93152
19.2662
-24.3855
1.08165
-24.1956
-23.066
-24.3314
27.1814
-24.5903
4.44884
-39.8353
11.84
-24.4942
-18.8345
-19.8214
-66.2824
-6.80056
8.47425
-5.69294
-22.3358
4.60649
-1.89324
-30.4793
-27.4977
-27.5083
-11.4357
-3.83754
14.2427
-23.1254
18.3578
-6.23415
0.406208
-53.2397
-10.481
-81.716
-24.4595
-67.4541
1.23593
11.54
-11.6933
5.21436
-14.7722
0.690054
-81.0329
15.0949
-51.7659
13.638
-4.08425
-121.195
-11.6867
41.8683
-165.288
-24.4568
-22.1652
-19.3767
14.6109
-17.0437
-5.42736
-1.86043
-20.9805
-36.3992
-22.4254
-23.471
2.07192
-30.5782
8.08531
-22.5921
5.18544
4.93387
-29.3333
-23.1751
-1.26347
11.7222
-24.7562
-84.513
15.0072
-6.61798
-24.5794
4.83412
-40.9741
-14.8253
2.53553
12.9713
-116.328
13.3903
-25.52
-39.5673
-46.5868
-36.6067
-26.9402
-23.1735
-3.8746
13.4167
13.281
-83.7324
38.1699
-82.9492
19.5658
17.4464
-24.6496
10.647
11.5322
14.9363
-11.8271
-78.2643
-46.7913
-38.8562
14.3701
10.3482
-23.1112
-35.52
-16.1571
20.2928
5.65121
-11.7164
7.82337
14.9308
-7.78968
-8.9132
-2.17926
15.0034
12.735
-17.2188
18.6508
17.7245
-11.3988
-97.3389
11.9955
13.4059
6.65208
-6.25048
-13.4632
-57.3165
-37.7654
-91.7883
19.534
1.65633
6.18709
-7.76279
-14.9383
-104.265
5.35304
-97.9992
-14.1713
12.2777
15.5005
-14.2296
12.0523
-4.43659
2.68287
5.80632
6.738
6.74935
-2.07961
15.7258
17.3046
14.3102
-24.5299
16.4145
12.3934
15.0302
16.129
-71.8693
-8.59923
-26.6639
-12.7224
13.0187
27.8552
-92.4124
33.4558
-85.3168
-23.2504
6.91979
11.8565
-21.1893
4.71293
-25.4248
-101.007
3.38808
-149.601
-24.6404
5.19211
2.8424
34.0362
9.35689
1.78547
-204.242
3.80262
12.6039
-168.2
-60.753
-48.4407
-7.59982
-22.8106
-19.7358
15.0675
-5.24775
12.1205
-5.29041
-5.74219
-19.8238
3.88426
1.31272
-17.1361
20.8413
-14.7205
-29.9365
16.2275
-83.0811
-0.516166
13.2278
6.22706
-63.1335
16.8507
9.44673
13.3617
-9.88165
13.4548
3.2245
22.302
14.2639
-86.6937
4.29007
-8.26368
-35.2521
6.57948
-8.55978
-5.85698
-100.103
34.7727
1.62215
-61.7053
18.0024
-55.1622
2.17056
-91.5719
-27.6163
-25.7215
-38.0651
-6.30517
-1.21554
-8.05307
-88.9179
0.142675
-28.857
-8.44318
-145.35
-12.8965
15.5281
-118.902
-137.22
-7.36602
-1.59595
-17.436
13.2215
19.1933
-30.9751
13.5005
-9.30517
14.527
25.9672
-29.7295
14.5351
0.106591
11.7525
15.8989
7.96474
2.96604
-114.315
11.632
19.2636
-94.2396
-7.11904
-29.2584
-18.1635
13.4346
-84.3464
-16.1376
-53.9126
13.2201
-25.7933
3.29932
-2.951
15.9143
3.46102
-25.5986
-7.77104
1.10028
-16.4624
22.7754
29.6376
13.0704
35.6956
18.294
34.3591
3.68987
-3.1946
22.1995
-36.7597
7.13229
3.74632
-22.1674
20.4856
0.607785
-13.7453
29.2209
7.26439
-73.873
13.11
11.9898
17.7789
-18.5327
16.1651
29.9388
-42.4086
-22.4264
-12.7341
1.04505
-29.6524
10.8899
4.41449
19.0973
14.5476
-118.222
10.8278
-4.56795
-25.9096
-26.1649
-87.5335
7.62391
-20.8449
14.8721
8.74029
-22.761
-13.5541
-20.0827
2.27453
-80.4465
-24.5088
9.98306
9.2802
-24.396
3.4748
16.7843
2.7888
-95.5282
14.0899
-13.0412
12.7482
-24.4423
17.0194
10.5254
-24.978
4.94465
8.67952
0.345502
11.0091
-24.7898
33.9631
-7.56215
-24.2686
9.03723
3.55397
-23.8927
-13.7844
-20.0164
-14.7942
-10.5037
-16.7718
4.60754
2.54966
36.5347
-3.34599
-76.0387
-15.777
-7.12018
-13.2162
-3.08596
5.02796
17.1739
-26.5749
0.603566
-25.8608
-13.5022
1.05619
3.35759
15.0546
-0.159584
0.713556
-11.6656
13.4482
-8.76769
-0.369925
-24.3707
4.12407
-2.00106
18.3097
-24.2165
-6.36706
-22.049
7.15295
-23.8888
3.97472
14.3239
11.5609
17.8184
-22.7066
-25.9352
13.882
-65.3366
16.7207
13.0952
6.15263
12.6767
-1.94713
10.8175
5.04664
-8.87442
-33.9666
16.5198
-116.851
15.8154
2.05447
36.8014
5.69652
10.0296
13.1503
8.02081
2.68963
13.185
-5.44233
-1.50698
-24.8814
3.12629
6.18651
-0.940898
-17.221
-93.6341
-3.43873
-38.6432
-23.7832
-12.0401
15.3281
-71.1553
15.0203
7.90344
29.9899
27.1327
11.904
-2.85502
11.6818
-24.5712
18.9505
1.58735
7.99817
-1.98273
14.8982
8.0798
3.4826
-89.5995
-12.7764
-0.395674
-12.3797
7.61155
14.2642
-83.9526
-2.27312
-18.3078
7.62146
12.6037
3.03321
12.1485
10.2937
5.39566
4.51234
11.523
3.49223
-10.451
16.9601
5.23274
21.7154
-31.5282
17.0969
8.49184
-26.0059
-48.9379
-157.498
-9.31117
-37.9149
-100.64
14.9478
20.4938
17.4941
18.389
14.8628
15.8459
12.5212
2.64911
12.9468
-55.8825
8.77346
4.46395
-13.9434
25.6546
1.63399
-20.3247
15.3839
19.7879
24.6673
-77.4555
-7.0861
-74.6232
-22.4944
12.904
-30.768
-113.347
17.0603
30.3375
-25.0839
-31.6504
-40.1958
12.0591
3.56493
8.78613
1.94864
0.942655
-113.738
-23.5012
-0.724734
-26.415
16.0835
15.0238
18.2025
-15.1252