/*--------------------------------*- C++ -*----------------------------------*\
| =========                 |                                                 |
| \\      /  F ield         | OpenFOAM: The Open Source CFD Toolbox           |
|  \\    /   O peration     | Version:  2306                                  |
|   \\  /    A nd           | Website:  www.openfoam.com                      |
|    \\/     M anipulation  |                                                 |
\*---------------------------------------------------------------------------*/
FoamFile
{
    version     2.0;
    format      ascii;
    arch        "LSB;label=32;scalar=64";
    class       surfaceScalarField;
    location    "4.9";
    object      phi;
}
// * * * * * * * * * * * * * * * * * * * * * * * * * * * * * * * * * * * * * //

dimensions      [0 3 -1 0 0 0 0];

oriented        oriented;

internalField   nonuniform List<scalar> 
20045
(
1.15696
-1.34744
0.190487
-2.30459
1.01327
1.29132
0.997975
3.98675
-4.98472
1.43139
-1.7894
0.35801
-2.20222
1.79956
0.402654
-1.10697
4.13435
-3.02738
-2.05628
0.18748
1.8688
0.0846292
1.12517
-1.2098
1.16333
0.903816
-2.06715
-1.2904
-0.428912
1.71932
-0.61438
-0.585075
1.19946
3.8507
-1.8526
-1.99811
0.93045
-0.915328
-0.015122
-2.26848
1.84954
0.418938
-0.13927
1.91975
-1.78048
-1.97906
0.688662
-0.00862616
-0.0584429
0.0670691
0.385154
1.22379
-1.60895
-3.1004
4.5146
-1.41421
-1.58896
-0.0744622
1.66343
1.16259
-0.765012
-0.397581
0.334734
0.595716
-0.522635
-1.78195
2.7143
1.43689
-4.15119
1.69042
0.154254
-1.84467
-1.72689
4.44118
-0.0411133
0.0610336
-0.0199203
-2.4705
4.93229
-2.46179
4.36106
-0.555061
-3.80599
-5.2334
2.99313
2.24027
1.74296
-0.395399
-1.34756
2.3608
-2.22993
-0.130876
-0.893234
2.90915
-2.01591
5.37582
-2.97072
-2.4051
-1.4122
1.49683
3.06245
-1.33899
-1.72346
6.25357
-4.04629
-2.20727
-0.151239
0.95657
-0.805331
-2.81693
1.25667
1.56026
1.29218
1.19858
-2.49076
-0.15574
1.40638
-1.25064
0.446987
-0.616013
0.169026
4.85922
-4.90285
0.0436299
2.7581
-0.845547
-1.91255
1.1318
1.6263
1.70719
2.14352
-0.235544
0.18886
0.0466832
1.63686
2.37284
-4.0097
2.78789
3.46568
0.477671
3.50146
-3.97913
2.6587
-4.38905
1.73035
3.22313
-2.53544
-0.687694
-1.71598
-1.37504
3.09101
-0.234955
-0.73028
0.965235
-1.43315
1.48489
-0.0517341
-1.56276
-0.639461
-1.21394
2.98301
-1.76907
2.97794
0.119648
-3.09758
2.55275
-3.44598
2.85969
-0.0844797
-2.77521
-0.444056
-0.651461
1.09552
4.02021
-1.16052
0.620217
-2.86111
2.24089
0.520845
0.641748
1.35652
-0.79505
-0.561474
6.35552
-4.24355
-2.11197
-0.308283
1.41605
-1.10776
-1.41716
0.124558
1.2926
1.98524
-0.821911
4.71682
-4.95924
0.242418
-1.24258
0.934298
-1.68141
0.248262
-0.570786
-2.2225
2.79329
-0.0109389
-0.20607
0.217009
4.36602
-3.93245
-0.43357
1.7194
-2.93334
4.42584
-0.0598212
1.44891
-1.58818
0.242234
-0.198411
-0.0438232
0.0749067
-2.77689
2.70198
1.98727
2.14942
-4.13669
1.74893
-1.60823
-0.140695
2.2519
-1.63168
-5.47864
0.982947
4.49569
-0.0399567
1.19691
-0.647759
1.01408
-0.366322
-0.714637
-2.86321
3.57784
-3.16638
0.0674402
3.09894
1.89616
0.610867
-2.50703
-1.63491
1.27346
0.361452
-2.57168
0.317766
2.25392
1.85946
-0.483403
-1.37605
0.94272
-1.42302
0.4803
-0.552987
-1.58936
2.14235
1.39938
-1.53245
0.13307
2.43185
2.00973
-4.44158
-0.104748
0.0636351
-0.674049
-0.306283
0.980332
2.68977
-1.39759
-0.000403137
-0.0640638
0.0644669
2.15194
0.910512
-0.90119
-1.36729
-1.01199
0.337941
-0.338349
3.31629
0.235265
-0.883024
0.0544106
-0.0548138
0.737836
2.55198
-3.28981
1.26198
-2.62112
1.35914
0.00669069
-1.22338
1.032
0.191383
-0.721039
0.904651
-0.183612
2.11326
-2.24408
0.130813
-1.21045
0.975498
2.22675
-3.70355
1.4768
-0.58484
0.842294
-0.257454
0.125315
-0.86479
0.739475
2.07908
-0.388659
3.82649
1.54933
-2.54561
1.97483
7.48132
-4.77176
-2.70956
-0.931289
1.31644
-1.07389
0.629835
-1.88087
1.49689
0.383981
-1.55495
0.28624
-1.44724
1.161
2.52026
0.702875
2.179
-3.10917
0.930171
3.09875
0.330152
-3.4289
-4.78211
3.56144
1.22067
-0.00230176
-1.9656
1.9679
3.43041
-0.910149
0.299789
-0.110929
-0.241249
0.152549
0.0886993
-0.0779007
0.0454504
0.0324503
2.31163
1.57238
-3.88401
2.47311
-2.12681
-0.3463
-0.526481
0.0263982
0.500083
-0.878731
-0.344653
7.00487
0.476447
-1.61956
1.63407
-0.0145109
2.08465
-4.22539
2.14074
0.657871
-2.37385
1.43375
1.19811
-2.63187
3.05361
-2.9787
4.11462
-0.66732
-3.4473
2.12363
-2.87711
0.753485
5.83932
-1.94617
-3.89316
-0.629818
0.656094
-0.0262755
-0.289677
4.13518
-3.8455
4.04806
0.312994
-3.27633
0.0762362
3.20009
-2.3357
1.56118
0.774518
3.45399
-1.46672
0.40159
1.34734
-2.48283
2.89641
-0.413584
-3.50994
4.50792
0.016888
-1.11094
1.09405
-0.266171
-1.33755
1.60372
-0.110367
-0.896352
1.00672
6.5246
-5.20446
-1.32014
5.24433
-2.56913
-2.6752
-1.09174
0.981373
2.11265
-2.16915
0.0565026
0.551629
-0.104641
-2.87379
-1.69748
2.36082
-0.663343
-2.36298
1.82233
0.540643
-0.0289856
-0.291742
0.320728
4.68723
1.1521
-0.0683096
-0.00959103
-0.310992
0.0697439
-2.62891
0.146085
-2.99941
3.70221
-0.702806
-2.90118
2.94808
-0.0469036
-3.17271
-1.47179
4.6445
-1.81309
2.02666
-0.213566
1.42704
-1.62138
0.194339
3.75534
-0.185651
-3.56969
-0.111826
-2.96582
3.07765
-1.59411
3.02786
0.797916
-2.4289
1.63099
-1.57676
3.80351
-2.98919
2.3231
0.666083
0.43508
-0.443089
0.00800819
2.56059
-5.08602
2.52543
-3.96201
1.49151
-2.89886
-0.742002
4.73975
-2.91445
-1.8253
-1.70734
1.5516
0.847591
-0.908291
0.0607003
-6.98151
3.84218
3.13933
-3.4791
4.89321
-1.41411
3.19098
-2.49038
-0.700595
-0.0711006
-0.773287
0.844388
-1.36289
-1.51243
2.87531
0.57238
-1.18676
-1.29963
1.29733
-2.79997
-0.854429
3.6544
0.587868
0.139553
-0.727421
0.397059
-2.09454
0.246646
1.49631
3.27866
-0.17991
-0.801313
0.650074
-0.993114
1.23276
-0.239651
4.41447
2.11014
-3.07376
1.71088
1.31957
-1.65462
0.335053
-3.02169
0.666015
2.35567
0.935546
2.25543
5.49515
-2.93456
3.19628
-5.27253
2.07625
1.63665
-4.92824
3.29159
0.291742
-1.88071
-2.09667
2.83451
2.43628
-3.54324
1.85456
-3.75282
1.89826
-5.62494
3.07243
2.55251
-0.338949
-1.29597
0.835463
0.713321
-1.54878
2.46932
-0.858284
-1.61103
-0.0726899
-2.87676
2.58708
-1.18845
-0.43111
2.44436
2.98801
-2.29265
-0.695358
-0.0488047
-0.666278
0.715083
2.42496
0.441369
-2.86633
-0.472471
-1.70784
2.18031
-1.27006
3.54586
-2.2758
-4.37675
3.66211
2.50872
-1.71081
-0.47079
2.10387
-1.63308
3.5923
-1.50764
0.586396
-0.0494126
-0.536983
0.816193
-0.751954
-0.0642388
-0.673814
0.70492
-0.0311062
4.67404
-2.93496
-1.73908
0.995286
-4.47438
-0.750541
0.0767273
-3.13622
0.782285
2.35394
4.89192
-1.98278
0.892708
-3.89212
4.89912
-2.21311
-2.68601
-0.0884346
0.676303
2.22514
-1.04547
-1.17967
-2.45831
0.369203
2.08911
-3.68456
3.62521
0.0593543
1.95663
-4.30374
2.34711
-0.0327435
-0.0789691
0.111713
-1.91062
2.30334
-0.392714
-0.675499
0.522311
0.153189
-0.777344
0.192505
-0.88085
0.159811
-1.32629
-1.29483
1.39254
-3.73688
2.34434
0.426593
1.08351
-1.5101
1.92426
0.436541
3.51442
-1.65986
-1.8235
1.55733
2.30207
2.58985
-2.18422
0.328162
1.85606
0.526609
1.69853
1.82897
0.0907806
-0.93034
1.35693
-1.35641
-0.267047
1.62345
0.000238569
0.434842
-3.56331
2.29325
1.05061
-0.589145
-0.461464
-3.74147
3.6054
0.136077
-1.06735
1.2956
-0.228251
-0.483965
-0.663457
1.14742
2.97728
-3.39109
0.413805
-3.26214
-2.3628
4.21161
-2.65069
-1.56092
-0.532591
0.483786
4.62828
-2.67165
-2.32768
3.72022
1.48674
-0.89755
-0.589187
2.85868
-1.24356
-1.61511
6.34889
-3.32639
-3.02251
0.0210702
1.46567
3.56093
-2.19289
-1.36804
-0.870659
3.30584
-2.43518
0.508885
-2.69865
2.18976
0.83053
0.213254
-1.04378
0.027191
-0.0298616
0.00267063
4.61668
-4.00867
-0.608017
-2.69232
-2.08979
1.8389
1.14911
-3.39848
-0.342995
0.242735
0.573458
-1.65719
-0.604897
2.26209
0.0102923
0.837299
-2.13399
4.44562
1.86897
2.80507
5.13845
-3.14823
-1.99022
-3.87399
3.01956
2.20911
-4.02025
1.81114
-2.47934
-0.351285
2.83062
-1.60668
-0.490026
2.09671
1.80483
0.307818
1.99123
-0.671656
4.40273
-0.697809
-1.53212
-6.77077
4.8243
1.94647
-1.22372
0.23061
-1.56477
1.09398
0.386002
-4.07056
-0.9093
-3.46745
-4.19362
-0.941139
1.15657
-0.215432
-0.143143
1.57453
-1.75665
1.16994
0.586706
1.82676
0.2865
1.78815
-0.496953
-1.2912
1.79491
0.678195
-2.50016
0.842969
2.34258
-0.446412
-0.976298
-2.04539
4.60049
-3.76568
-0.834815
2.30923
-1.42543
-0.989082
2.41451
3.12916
-3.53686
0.407697
-1.96972
1.41674
-0.616813
0.0903315
-0.914602
-1.65708
1.5169
-2.39067
0.873764
1.7012
1.85973
1.87514
-3.77672
1.90159
1.33059
-2.39466
1.06407
-3.89454
0.728161
0.181932
1.67752
-2.17534
2.36426
-0.188928
-0.817269
1.32313
-0.505859
-2.33262
0.276347
-0.547303
-1.12112
1.66842
0.561259
0.00368694
-0.564945
-1.18927
-1.14643
1.31272
1.85848
-3.17119
1.99619
-1.46958
1.03719
-1.82188
-0.14784
2.18571
-0.855125
-2.69984
-0.28935
0.552902
-0.780667
0.227765
3.94189
-2.30503
-2.17573
3.1694
-0.993666
-0.616711
0.736285
-0.119574
2.41496
0.0543594
1.48645
-2.09135
-2.17119
3.70639
-1.5352
1.76574
-3.66869
1.90295
2.06666
2.14495
0.0919248
-0.144642
0.0527175
0.541202
-3.02054
2.74373
-5.01588
2.27215
0.224914
-0.235853
-0.528824
2.70783
-3.57312
2.66382
-2.87518
4.51183
0.712074
-3.81247
-2.43708
1.71979
0.717283
2.76004
-0.657827
-2.10221
3.80896
-0.831676
-2.16096
-1.91392
-1.36533
2.20349
-0.255377
0.346517
-0.0911403
1.36662
-1.44108
-3.187
2.65818
3.94796
0.911252
-3.28001
1.10428
3.06232
-1.22341
0.310929
0.69477
-1.0057
-0.0104918
-2.22017
2.23066
-3.58455
0.625703
2.95885
3.39218
-3.39218
0.290849
1.26647
-1.55732
1.30311
0.48504
2.08541
-1.14919
-0.936228
-3.86129
4.02266
-0.16137
1.59978
-0.0924018
-1.50738
1.2522
-0.39042
-0.861777
0.601958
-1.08592
0.0444127
1.57154
-3.89922
-3.13373
3.71128
-0.577553
-1.23509
2.54781
0.166841
-0.00807615
-0.158765
1.557
-0.046597
-1.5104
-1.58623
1.87797
5.01476
-3.89063
-1.12413
-0.461053
-1.9422
2.40325
-1.15049
1.22344
-0.072943
0.766814
-1.20715
0.440333
-5.80886
-0.308076
6.11693
-1.23711
-0.552293
-0.183744
0.494673
0.0367511
-0.140546
0.103795
2.41743
2.19926
0.122936
0.0439049
-0.394974
-0.808502
1.20348
-2.15429
3.37513
-1.22084
0.134957
0.867181
-1.00214
1.72783
-1.54035
4.47338
-2.83878
-1.6346
0.267537
-1.8569
0.81099
2.94435
1.95091
1.05241
-3.00332
2.04791
-1.5608
-0.487112
-4.04591
0.76958
-1.27759
0.624054
0.653538
1.66947
2.66883
-4.33831
-2.66064
2.30935
0.290426
-3.67049
3.38007
-0.593261
0.52216
0.447689
-0.464636
0.0169466
0.248512
-1.60492
0.470958
-0.255696
-0.215261
-2.62375
-0.512473
2.44015
2.30441
-1.32347
-0.980941
-0.688479
0.0717674
0.482396
-2.70286
2.22046
0.92786
1.9345
-2.86236
1.59152
-2.76247
3.26026
-0.497781
-2.99106
2.1204
0.0696232
-0.0085896
-1.48894
-0.874041
-1.26037
0.284803
0.975566
-3.63122
1.47693
2.51559
-2.97664
1.49388
1.56844
-1.61106
1.45365
0.15741
1.04057
-4.14637
3.1058
0.851888
-1.27945
0.427561
2.24451
-0.758063
-2.51562
-0.385557
-1.49921
0.0820485
0.103234
0.0527849
-0.156019
1.75262
0.0485049
-0.0855208
0.0370159
4.1315
-2.46203
-0.0126167
3.11265
-3.10004
1.17498
0.853376
-2.02835
-1.29219
0.69893
-1.11331
-0.147061
1.36687
0.718544
2.89252
-7.66427
0.882846
-0.329943
2.34088
1.87892
0.463661
-3.4353
3.91297
0.307365
-1.46765
1.16028
-0.376567
-3.29242
3.66898
-0.0776232
-0.0793106
0.156934
-1.92028
0.107184
-1.87191
2.3808
3.02291
-0.899284
-1.35453
-0.402118
-0.0461784
-1.8095
1.85568
1.56229
-4.735
-0.285353
-1.77893
2.06428
0.467307
-1.40957
0.942264
-2.50237
-0.0263
2.52867
4.22977
-1.85694
0.0142632
0.481927
-0.49619
-1.03895
-0.111539
0.766294
1.58485
-2.35114
0.746885
-0.890313
0.143429
1.74558
0.874492
-2.62007
-2.68843
5.12028
0.537439
0.0238193
-1.21522
-2.24719
3.46241
-0.795489
7.80036
3.47024
-2.54238
-1.64622
1.09892
-0.0247136
0.0519046
-1.62487
3.83398
0.421758
-2.99913
2.57737
5.80348
0.568251
-6.37173
-1.58485
2.45195
-0.867104
1.52527
-1.58295
-1.38415
2.96711
0.0918241
-0.117527
0.0257033
-1.07674
-1.97548
3.05222
1.5084
0.0485936
0.310318
-0.339304
2.06055
-3.13728
-2.73834
-0.93455
3.67289
-0.0826811
-2.11701
2.19969
1.09632
5.10436
-5.16483
0.0604751
0.905833
-0.370414
-0.535418
-0.157127
-1.45393
1.01316
1.12919
-1.54288
-0.0638075
-3.14463
3.96098
-0.816352
0.445529
0.60508
0.595636
2.45797
-3.68316
-1.21968
-0.00979066
0.00838823
0.00140243
2.12587
-0.246952
-1.01423
1.10199
-0.0877533
-0.0259193
-0.64958
-4.13773
1.23887
3.43079
0.703561
-0.330346
1.09716
-0.942634
2.11761
3.72672
-2.15518
-1.02623
0.011994
-0.618376
-2.56863
0.775974
1.18413
-1.16724
-3.69099
0.106437
0.159965
0.992829
-0.140941
-0.645565
2.85308
-2.20752
4.10875
0.608068
0.970286
-0.355979
-0.614307
1.44999
-1.25663
-0.193362
-2.1634
0.824407
-4.15674
1.98556
1.32145
-1.33283
0.0113806
-0.313576
-0.103141
0.416717
3.8787
-0.0268598
-3.85184
1.00342
0.0870853
-1.09051
-0.665542
-1.21533
1.09201
-0.149286
0.301393
-0.285916
-0.0154765
1.86862
-0.0792521
-1.78937
0.0405714
0.260822
4.14993
-2.1402
-0.140779
-0.694502
0.835281
-4.04582
0.901191
0.00460039
-0.881371
-0.130619
1.20666
1.09775
-0.159507
-1.66399
1.02691
0.869705
-1.89662
0.649698
0.706826
1.41663
-1.10926
1.07182
-0.946503
0.504332
-1.3216
3.13587
0.663438
-3.79931
2.32603
-0.399204
-1.92682
-1.62028
-1.25684
-0.0631439
-0.714158
0.777302
1.22155
-1.37986
0.158309
4.35226
-0.108441
-4.24382
-0.773393
-0.130853
0.904246
-2.10778
2.87181
-0.764022
2.41056
2.5078
-4.91836
0.363313
-1.01477
-1.32917
1.94693
-0.617756
0.992641
0.449427
-1.44207
-4.21708
2.81291
1.40417
-0.237786
-0.0481303
-3.39695
0.658612
1.45049
-0.853521
-0.59697
1.65367
-2.27248
0.618808
-0.487572
-0.859871
0.771959
4.3324
3.3185
-0.658338
-2.66016
-3.17466
0.412187
1.35657
-2.33287
2.558
-4.37667
1.81867
-0.498746
1.33421
-0.0128236
-1.38257
0.9876
-0.736364
1.0226
-0.687155
-3.41394
4.10109
2.303
2.32529
-2.93261
3.14474
-0.212132
-0.0373326
0.140567
-1.95359
-0.690233
-0.578529
0.645736
-0.0672063
-1.0692
1.7911
-0.721901
-0.562579
2.25787
-1.69529
-0.440887
2.09455
-2.02006
-0.276773
2.29683
-3.28857
-0.971378
4.25995
1.69336
-1.48935
-0.204007
-1.27453
0.0703375
1.20419
-0.773009
0.207871
0.565138
-3.70268
0.168522
3.53416
0.0983241
0.921616
-1.01994
3.02581
-3.38156
0.355745
-1.77429
1.18866
1.52702
-2.71568
0.051393
-0.629922
-1.16625
-2.32885
3.4951
2.17997
-3.75673
-3.78318
3.31239
0.470789
0.90156
-0.154676
3.09123
-2.49559
-0.328978
-0.523508
0.852485
-0.0691356
0.895048
-0.825913
0.00390454
2.75955
-2.76346
3.97864
-0.19268
-3.78596
4.04626
-3.87102
-0.175242
2.66145
-1.0143
-1.64715
0.175438
-1.08015
0.904716
-1.35166
-0.0955788
-4.07218
3.53861
0.533577
0.172624
-4.24481
-2.53801
2.89405
-0.356041
-2.02142
-1.98725
0.98423
-0.777681
-0.206549
-3.16065
-0.885177
-0.917655
0.651389
0.266266
-1.4619
0.989426
-3.88464
3.69695
0.187688
-0.417819
-0.267823
0.0617527
1.10414
-0.10072
-2.19663
0.286007
0.780201
-0.833542
0.0533407
-0.472696
-0.558857
1.03155
1.81924
-0.21946
-0.877757
2.31335
0.101606
1.45779
1.56364
-0.961676
-0.601962
-0.42732
1.85436
-2.69021
1.78249
0.907712
-0.307682
0.0698963
4.52372
-2.22072
3.45523
-2.41465
-0.617594
-0.679209
1.2968
2.00327
-3.86516
1.86189
2.3937
-2.47638
3.94595
-1.73528
-2.21067
-0.0296171
-2.29585
-0.394353
-5.22581
1.74902
3.47678
0.631626
-1.27073
4.46701
-4.16124
1.00059
1.07321
-0.242676
-0.451431
0.04462
0.726523
-0.0216029
-1.95555
-1.87944
3.97069
-2.25129
-0.440804
1.03173
-0.590926
0.197282
1.05492
-2.73653
-0.778335
3.51487
1.69789
0.10694
-0.0216043
-0.690855
0.71246
3.28441
-0.243283
-0.191599
0.434882
3.81412
-0.678252
-1.3291
-3.7824
0.648674
-1.06407
0.0719689
0.992097
2.24074
2.65838
-0.87921
-0.803929
1.68314
3.87242
0.173844
2.53133
-3.5312
0.999866
-3.21203
0.0146948
3.19734
-3.32471
4.23861
-0.913906
0.67516
-0.0249775
-0.650183
-1.53917
3.71915
-1.86806
-0.236945
2.105
0.188826
-3.12143
2.62462
-1.6486
-0.976024
-3.59778
4.68494
-1.08716
-0.859725
2.37463
-1.51491
4.64968
-2.05794
-2.59173
0.168813
-2.37541
2.2066
-0.382567
-0.0820691
-2.03331
4.44388
1.77213
-1.48128
3.58792
-1.82218
-0.868152
0.727373
-3.32419
0.112157
3.93273
-2.05759
-0.134304
-5.34433
1.36139
0.0449908
1.46505
1.70207
-3.16712
2.20889
-0.694013
-1.51488
4.81983
-2.91114
-1.9087
-0.86896
0.0399662
0.828994
-0.803066
-2.07495
2.87802
1.52815
-1.02382
-0.457524
1.1215
-0.663972
0.464446
0.819007
-1.28345
0.339824
0.644406
-4.12371
4.75476
-0.631047
0.262525
-0.340148
1.8911
0.884379
-2.77547
1.81493
2.46567
-4.2806
0.835255
1.92478
-0.0161443
4.13077
-0.0688026
3.17465
-3.10585
0.534563
-0.399606
0.0703202
0.109012
-0.179332
4.98711
-3.92737
-1.05974
1.78069
2.16526
-0.097725
0.063545
0.03418
-0.937377
3.06067
-2.12329
-0.0318274
0.851449
-0.819622
2.30761
-3.91664
1.60903
-0.850634
-2.34541
3.19604
3.01227
-0.587305
0.979993
1.2289
-2.09022
0.295
1.79522
1.23384
-3.17604
-0.288406
-0.690061
0.978467
0.846668
-0.156728
-0.68994
-0.083726
-0.298841
-0.223616
2.97948
-2.75586
-0.697661
4.19912
2.90925
-2.512
-0.397256
2.69061
-2.07974
-1.86871
0.772115
1.09659
0.365181
-1.51437
-1.16793
0.253005
0.914923
0.32211
0.648175
0.609974
2.89649
-3.50646
1.18114
0.687479
0.521612
-3.81018
-2.047
0.262782
1.78422
-1.54913
-0.879689
2.42881
2.21666
-1.18975
-3.34686
2.11177
1.14891
-0.858787
-0.290127
-1.52671
3.43665
-1.90993
-1.73991
2.00745
-2.40257
2.15184
0.250736
-1.40267
2.77509
-1.37242
-0.0844358
1.01466
-0.930227
0.108636
-0.422212
-1.4452
-2.76776
3.38932
-0.621553
-2.25063
2.91665
1.94975
-2.21702
0.267264
1.65534
0.0873737
-1.74271
-4.99762
2.81626
2.18136
-0.147129
0.335547
-0.188418
-0.647083
2.74013
-2.73623
3.70539
-1.70212
-0.510149
-1.92693
-2.82941
2.76061
1.73634
0.0859937
1.18718
0.452879
-1.64006
-1.52263
1.39792
0.124707
0.275968
1.22888
-1.50485
0.401813
-1.19084
0.789025
-0.734122
2.90002
-2.16589
-2.67821
-0.912859
3.59107
0.11751
1.53783
3.52575
1.46136
-1.93797
2.08295
-0.144983
-0.126838
-0.952308
1.07915
0.0356911
0.89368
-1.11717
0.223485
-6.60435
-1.43555
1.83736
0.653556
0.941768
-0.766329
-1.85971
0.790515
-0.0196616
-1.94594
0.098746
1.30064
-0.0173184
0.265463
-0.248144
-2.30425
-1.96739
4.27165
-1.0823
-1.00793
-1.90623
-0.252889
2.15912
0.326537
1.05719
-1.38372
-0.00590091
4.42944
-2.84357
-1.58587
0.803203
2.5153
0.334053
1.28396
-0.0788531
-1.20511
-2.43275
3.81997
-1.38721
-2.10974
-0.883214
2.99295
-2.00285
0.673674
-1.24918
-0.619528
4.25276
-1.87933
-2.37343
1.94691
-1.82289
-0.124023
1.22749
0.43205
-1.65954
-0.80559
0.903914
0.807548
-1.013
0.205455
0.956672
-0.138277
-0.953464
-0.0417626
2.47946
1.7733
-1.03707
2.29375
-1.56823
4.56136
0.715561
1.23135
-3.15822
1.04849
2.9999
-2.4587
-0.577831
-2.6878
0.580018
0.0793607
-2.61737
2.57185
-2.58234
3.33348
-0.204317
-0.852379
-0.570641
-0.620677
-0.4006
1.02128
-1.34676
-0.185694
3.0561
0.524989
-3.58109
-0.134076
-1.01317
1.14725
-0.674745
-0.235877
-1.94572
2.1816
3.23843
-0.212618
-3.9023
4.28024
-0.377944
0.861091
-0.736533
-3.82157
-1.17605
-0.949654
3.60447
-0.0658599
2.2
3.92986
-1.42179
-2.50807
-2.31643
-0.178327
2.49476
0.901325
1.67986
-2.58119
-2.84769
0.345323
-0.78175
-0.196759
0.978509
-1.90842
2.33018
0.702611
1.84045
-2.54306
-0.0583773
0.14091
-0.0825331
-3.5145
0.419842
3.09466
1.61498
2.09041
-1.23622
1.89777
0.763684
-0.756938
-0.520653
3.00938
-3.6767
-0.0780563
0.28969
-0.211634
1.03836
-0.675046
2.67975
0.0531435
-2.73289
2.99744
-4.56567
0.0270872
-0.0598307
-1.13516
1.50961
-0.37445
-3.32671
2.16045
-0.157195
1.35466
-1.19747
-1.09254
0.63119
0.461353
-0.172849
-1.74743
-1.12632
2.48289
0.235357
1.08609
-0.714323
0.765716
-2.56146
0.85362
-0.107881
0.0289119
-0.906705
0.859822
0.0468835
0.93716
-1.04978
0.112624
-1.74005
-2.1924
0.380003
-2.28624
-0.336392
-1.37095
-0.183289
2.33729
-2.154
1.4218
-1.68885
0.320811
-2.63511
2.3143
-0.493834
3.09629
-2.60246
-2.87332
-3.89745
1.30503
-0.0838848
-3.6993
2.06742
1.90326
-2.80977
-0.537091
-2.1391
0.713667
-1.85833
0.737217
0.138264
-0.0588428
-0.0794215
4.45971
-2.21897
3.34964
-0.605905
-1.01048
-0.689288
1.69977
-4.32184
2.04442
2.27742
-1.27963
0.694551
-0.917524
2.10618
0.746888
-0.412154
-0.772347
-2.0734
0.205348
1.26674
-1.20026
-0.0664741
-0.507194
3.5633
0.404761
1.23575
-1.64051
1.25543
-4.57736
1.99694
2.58042
0.516257
1.25787
-1.77413
3.07823
0.0710334
-3.14927
-2.24665
1.38692
-2.09468
-0.2205
1.44799
3.52102
-3.89758
1.80013
-0.807493
-1.40827
2.64212
-4.33429
3.24578
1.08851
2.42994
-4.05402
1.62408
-2.62855
2.9528
-0.324247
1.33198
-1.7593
0.0498649
0.619361
1.074
1.10293
-3.87982
1.53239
-4.35955
2.70251
1.65704
0.882575
-3.199
7.71681
-0.0105925
-2.44772
0.481245
1.30115
4.13412
-1.47475
-2.65937
-0.457619
0.94978
-2.49891
0.748374
-3.53457
3.35624
-2.65622
1.07326
1.79379
-4.46673
0.762107
3.70463
-2.87854
2.51658
0.361954
-0.813697
-0.542824
1.01013
-3.95678
2.81844
1.13834
2.2206
-3.75977
-3.89974
-0.22397
4.27164
-1.71364
1.19906
-0.462148
-0.736913
-0.116748
-0.693622
0.81037
-0.390412
1.54006
2.03745
-1.15582
-3.31091
0.501752
1.0264
0.710071
1.55058
-2.26065
1.69072
-0.977403
-0.0767405
-3.81011
3.88685
-1.3597
1.05116
-2.64527
-2.31983
-1.70196
4.02179
1.01744
-1.50085
-2.80718
0.841079
1.96611
-0.0903315
0.510285
-0.419953
3.62507
-4.31223
0.129637
-1.2648
2.35964
1.69763
-4.05727
-0.98918
0.548376
-3.30453
0.955729
2.3488
-3.19137
2.34074
1.33292
-3.76567
-0.25221
0.174154
-0.0041506
-0.0861809
-1.69782
7.5013
-2.27208
3.03543
-0.763348
2.04803
0.101668
-2.1497
-1.85757
-0.0733568
-0.867782
0.173766
3.21842
0.597803
0.138482
3.31755
1.70879
-0.405678
1.97187
1.95479
-1.67882
-3.63009
-0.254548
-0.81134
0.875352
-1.92082
0.752058
0.830327
-1.58238
3.30055
0.264733
-3.56529
-0.50932
0.484343
-1.40702
-2.74972
-2.96704
-0.569823
-1.66436
4.6618
-1.35873
1.96717
-0.608437
-3.47961
1.17536
-1.26539
1.97546
3.05987
-3.70544
-1.915
-0.930776
1.12512
0.377183
-0.849879
4.19035
-0.585879
3.5234
-0.110883
-3.41251
0.215483
1.88839
1.17848
3.88408
-3.59366
-0.234466
-0.954462
1.43476
-1.82592
2.15408
-1.95312
-2.1507
0.983609
0.712478
-1.69609
-3.44879
0.0566088
-0.610539
3.07019
-2.45965
-0.140154
-3.76214
-2.45511
2.89648
5.16435
-2.39856
-2.76579
-0.279587
0.903641
2.5897
-0.990544
-1.59915
1.1495
-1.28778
0.160603
-0.0902824
-0.505992
-0.153893
0.659885
-0.423375
1.61055
-1.61976
3.84036
-0.0174739
-0.760207
-1.11626
-0.446862
1.56312
-0.125345
3.75042
0.582632
0.704175
-1.28681
-1.56646
2.33275
1.41956
1.64111
-1.95935
-0.0876512
2.2711
-0.892674
-1.37843
-0.103461
-0.00767325
0.111135
0.456024
-2.73142
2.27539
-3.58878
0.621737
0.951745
-1.1716
2.04695
-0.0590847
1.20859
0.612259
-1.97099
-2.94748
1.58215
-3.69348
1.12435
-1.9119
0.325676
-1.263
-2.15757
3.42058
-3.8221
0.342975
0.447519
-0.790493
4.09086
-3.10791
2.7574
-1.85607
0.368522
2.13869
-2.50721
0.453127
-1.23488
-3.72481
1.78029
1.94452
-1.41113
-0.246623
1.65775
-2.25088
4.4054
-2.15452
2.60756
-2.19744
-0.410116
3.31908
0.306092
-3.62517
-1.92143
-2.65593
-1.24558
-0.253625
0.941512
2.48889
-0.0367946
0.467234
-0.43044
-2.62443
-0.680093
2.44526
2.06934
-2.12351
2.62643
-0.502917
-0.605181
0.413583
-0.0106418
1.19315
-1.1825
1.39628
-0.991522
-0.387443
-3.56933
-2.20867
1.09369
0.0552232
1.34979
-1.10314
0.34821
2.70302
-3.05123
-1.94965
-0.246975
1.70423
0.291955
0.30932
-1.18805
-0.248582
0.400196
-0.151614
0.0167605
-1.37247
1.35571
0.00434275
1.29126
-0.872626
3.33237
-1.63116
2.83518
-1.78402
-0.505201
-1.06345
1.56865
2.81441
0.491437
-0.0911484
-2.71222
1.90916
2.15848
-2.28383
-1.55268
-2.55221
4.10488
-2.14843
-2.17341
-4.30725
4.55598
-0.248731
0.91189
-1.10653
0.705934
2.14012
1.19225
0.0505164
1.27225
-1.32277
-1.94262
-3.01662
2.30496
-4.04875
1.74379
1.81794
-0.120048
0.689172
-0.977578
2.11457
-3.52158
1.51185
-1.35759
-1.30358
6.93277
-5.62919
2.27283
1.45176
1.42936
-2.88112
3.91615
-2.19473
-1.72142
-2.33144
-1.8908
3.44932
-1.55853
0.158676
3.36472
-1.25767
1.19858
1.62711
3.02257
-0.948223
0.831475
0.0713958
-0.0228909
3.59768
-2.02529
1.80938
2.65033
-1.731
0.956026
0.774969
0.788851
-1.40644
2.72219
-0.0424444
0.922543
0.276518
-2.38259
-0.359004
2.7416
0.821146
-0.086368
-0.734778
0.72311
0.182722
0.502715
-3.82742
-1.23186
1.48037
2.47797
-2.33678
-0.141194
0.759167
1.51194
-0.68563
0.329651
1.23349
0.814647
-2.04813
-1.33502
3.88776
0.34167
-1.90491
3.75907
-1.85416
-0.764583
1.22903
0.00505549
-0.0634328
4.05785
-2.06593
-1.33255
0.174078
2.90416
1.28575
-1.62214
-0.807734
0.723298
-1.09988
-0.644804
-0.0436749
0.677507
-0.717101
3.05842
-2.34132
0.138794
-0.102042
-0.944575
0.421067
-1.40593
0.16035
-3.60567
2.39045
1.10916
0.837764
0.422081
1.43001
-1.85209
0.555001
0.45908
2.76492
1.67106
-4.43597
-0.520806
-0.0455713
0.566377
3.78312
-3.79573
3.5636
1.60075
2.92608
-2.57787
-3.51567
0.109453
0.0571413
-1.38881
1.6682
2.44326
1.63025
-4.07351
1.75695
-0.33515
-0.104589
-1.27617
-0.454826
-1.60872
-1.34477
1.70995
4.38246
-1.26981
2.02029
-1.94698
-0.0733081
0.840061
0.0197604
-0.255895
1.08421
-0.147052
2.81838
0.697707
-3.51608
1.31745
-0.0507104
-0.991324
0.6067
0.384624
-1.44004
-0.0731783
1.51322
0.814853
2.00541
-2.82026
0.820931
1.39573
2.50732
-0.0848147
-1.12564
1.41272
0.296073
-0.492176
1.30166
-0.809481
-2.95019
2.20819
3.16109
-2.42303
-0.738054
0.0718052
-0.648459
0.576654
3.0232
-3.24681
1.40686
0.411081
1.39997
1.35743
-0.625532
-0.0192718
-1.23442
0.348996
0.88542
-1.80797
-0.558733
3.99405
-2.05242
-1.94163
1.82203
0.790025
-2.61205
1.77849
-2.77291
0.99442
0.178937
1.95222
0.233498
-1.14095
3.12236
-1.9814
-0.871393
-0.363023
-0.233732
-0.0430556
1.27881
3.31791
0.00803873
-3.32595
-1.4867
-0.244926
0.227608
0.0718004
-0.00825541
1.05978
0.449838
-2.43791
1.87533
-0.0176101
0.338567
-0.217034
0.452298
-1.5829
1.95142
0.0290036
1.15513
0.0979352
-0.363896
2.28816
-0.0380451
2.05833
-0.750785
-0.5576
-0.809251
2.04274
-0.458379
3.06312
-2.60474
-2.9043
-0.492659
-2.41818
4.06552
-1.64734
-1.35748
1.31442
1.35535
-0.230177
-0.0589888
-1.06728
1.12627
-3.0919
1.02597
0.617476
-0.603213
1.01873
-3.75526
1.48661
-3.7338
-2.54019
3.97708
-2.26976
2.08436
-1.26971
0.0379211
-2.08916
2.54518
-0.00572624
-0.660552
0.252126
-1.74148
-0.526436
-2.16182
2.68826
-0.8873
2.59739
4.76528
-3.01685
-1.74843
-0.874723
0.367659
1.00162
0.0819077
-1.08353
-2.99661
0.724529
0.866841
-0.0201735
-0.0276181
-0.568526
0.596145
1.83122
-4.2494
0.38011
1.67254
0.271404
-1.94394
-3.43752
2.97914
0.644484
0.155756
-0.80024
0.446567
-3.21433
-0.625085
0.000325852
0.624759
0.837829
-0.193345
0.00860172
2.7456
-1.91034
2.12217
2.03183
-1.2109
-3.38337
1.06354
-2.36053
2.10495
0.255577
2.38933
-3.94201
-1.98232
-1.06673
3.04905
-0.158308
1.71949
-1.23892
1.14652
3.80648
-0.553024
-3.25346
-0.00408752
-3.626
3.30496
0.0141165
1.5883
1.0014
-0.684974
-0.00588156
0.653368
-0.874709
-1.51596
0.121663
-0.159309
0.0376456
0.00656903
-3.13346
3.1269
-0.682779
1.59442
-0.911638
1.70632
-3.53451
1.82819
-0.106929
-2.01988
-0.117337
0.0361425
2.38936
-1.40714
-0.70444
2.11158
-1.4429
-1.18085
1.80499
-1.09251
1.21664
-0.651695
-0.564947
1.53192
-1.10984
-1.41985
-0.36222
-0.363531
0.725751
1.0808
0.511377
-1.59218
-1.76482
-2.22782
3.99264
0.356828
-2.13878
0.592552
-4.19033
-0.796265
-2.62934
3.42561
-3.37172
0.128619
3.2431
-3.8585
-2.8749
0.246353
-1.33752
1.2985
0.0390184
-4.57881
-1.14453
3.96291
1.59392
-0.724213
0.486809
-1.29606
-0.540486
1.93622
0.6449
0.452609
-1.56887
0.0733148
-0.680925
0.607611
-0.553552
-0.0762664
-0.457388
0.529193
-1.32293
1.83918
-3.31581
2.51593
0.79988
1.67849
0.312743
1.67443
0.883074
-0.0619279
1.50649
-1.45598
-1.83634
-0.970848
-2.12678
0.654652
1.47213
0.359167
0.37303
-0.732197
-1.80495
1.82171
-0.382601
2.73827
2.5566
-1.97397
1.59265
-3.03555
1.58527
-1.84897
0.263701
0.538393
-0.0564665
-0.137595
-0.00704756
-3.40305
2.14005
-0.756108
2.57814
0.0501681
-0.837489
0.787321
-6.06574
2.55579
-0.354071
-0.397883
-0.795055
-0.0780944
-0.903201
0.981295
-2.18668
0.779535
-3.75487
3.36743
4.46361
-2.10397
-1.149
1.07177
0.0772244
-0.0265197
0.034908
-0.652703
0.944303
-1.59637
0.652064
-0.633784
0.588213
0.0529546
1.37814
-1.43109
1.522
-0.115138
0.115411
-0.110104
-0.00530758
-1.20263
1.23163
0.0361653
0.188749
1.85412
-2.64623
3.63258
0.239834
-3.78771
0.924501
3.313
-0.160641
-3.15236
-1.04438
0.692494
0.351885
2.02902
-3.98457
1.68568
-0.674129
-1.01155
-0.144062
-0.020275
0.164337
-3.27853
3.29296
-0.0144376
-1.43083
1.75164
4.92082
-0.94218
3.27063
-1.19581
-2.07483
-0.401662
-1.06611
1.46777
-0.860636
-1.31524
-0.0364204
-1.2402
-0.075033
0.355657
-1.21893
0.863273
-0.363095
3.36908
-3.00599
-2.82729
0.740141
2.08715
0.91915
2.95955
0.0592496
0.339306
-0.398556
2.13864
0.889035
-3.02768
0.118049
0.0202152
-0.923763
4.20637
-3.28261
-2.74387
0.361278
2.2357
0.943796
-2.92612
-0.0118625
-0.508327
0.520189
3.54307
-1.10683
-2.43624
1.52165
0.955674
-3.93012
2.05068
3.53287
-3.60961
-1.78195
0.208726
1.57322
-0.102168
-0.172373
0.722899
-0.550526
0.00682083
0.0374502
-0.0442711
-0.0385584
0.55036
-0.511802
-1.14453
0.95616
0.188366
-2.0665
4.18107
-1.19066
1.14448
1.30059
-1.24764
1.24488
-2.13844
0.893559
-2.35499
-1.97929
-0.731994
-0.0410155
0.222481
-0.011462
-0.211019
2.40016
2.83151
-5.23167
0.195831
2.28214
-0.970088
-0.552544
-2.2275
0.417998
1.77791
1.02745
-2.80537
-0.0087017
-0.0645369
0.0732386
-0.0242035
1.4742
0.194762
0.0124785
-0.20724
4.40183
-2.12189
-2.27994
-4.20103
0.78709
0.32699
-3.23645
0.898398
2.33805
-0.626778
-2.94634
-0.125729
-0.755642
-0.173029
0.0354346
-1.79376
3.78084
-1.98708
0.640434
0.106454
-0.270866
-0.494146
-0.970293
0.952819
-0.964326
0.833473
-2.97583
4.15841
-1.18258
2.2409
-1.73168
-0.509219
2.33736
-2.33302
1.00525
0.218185
-0.984065
0.800453
-0.348011
-1.26022
3.99857
-4.19125
-3.05918
1.91823
-0.742414
0.950285
0.573878
0.263951
-0.127165
-0.0168968
2.99405
-3.11775
0.123699
1.53625
-1.71979
0.91626
0.803527
0.452981
-1.40744
0.13723
-3.22988
-0.997375
0.911007
-0.649633
-1.10921
1.75884
-2.95998
0.709346
0.646775
1.01864
-1.66542
-1.40086
-0.0102748
-0.504192
-1.88842
4.35409
0.44241
-2.05752
0.804616
-2.05869
1.25408
-1.12409
1.43341
-2.24951
-3.81623
-0.501311
-0.591232
2.00843
-2.69839
4.25606
-1.55767
-0.13764
-1.27456
0.184843
-1.492
1.30715
-3.44212
-1.83041
-0.67913
0.679456
3.30565
2.1895
0.135481
3.80641
-2.00684
-1.66185
3.20882
-0.226383
-2.98244
2.47498
-2.49464