/*--------------------------------*- C++ -*----------------------------------*\
| =========                 |                                                 |
| \\      /  F ield         | OpenFOAM: The Open Source CFD Toolbox           |
|  \\    /   O peration     | Version:  2306                                  |
|   \\  /    A nd           | Website:  www.openfoam.com                      |
|    \\/     M anipulation  |                                                 |
\*---------------------------------------------------------------------------*/
FoamFile
{
    version     2.0;
    format      ascii;
    arch        "LSB;label=32;scalar=64";
    class       surfaceScalarField;
    location    "5.6";
    object      phi;
}
// * * * * * * * * * * * * * * * * * * * * * * * * * * * * * * * * * * * * * //

dimensions      [0 3 -1 0 0 0 0];

oriented        oriented;

internalField   nonuniform List<scalar> 
7520
(
-1.00343
0.78295
0.220478
-1.34206
-0.214174
1.55623
-0.025862
-1.89697
1.92283
0.229706
-0.0322987
-0.197408
0.122801
1.53849
-1.66129
-0.0875065
0.0940931
-0.0065866
-0.286177
2.09377
-1.80759
-0.198519
-1.81389
2.01241
-1.5071
1.48123
0.845551
-0.0651252
-0.780426
0.194152
-0.276317
0.0821653
-0.282668
-1.63644
1.91911
0.709196
-0.110605
-0.598591
-0.0972485
0.134399
-0.037151
-1.93845
0.907094
1.03136
0.125543
1.56861
-1.69416
0.0846095
-0.0798107
-0.00479877
-0.204439
-0.0609452
0.265384
0.0193369
0.0494266
-0.0687635
0.0147493
0.0698602
-0.395272
-0.289579
0.684851
-1.06999
1.19553
-0.0300117
-0.311328
0.34134
0.130289
-0.140988
0.0106994
0.0452436
-0.249693
0.20445
0.249528
-0.242461
-0.00706635
0.859372
1.1301
-1.98948
-0.0346704
0.31251
-0.27784
-0.0584178
0.0777547
0.194642
-0.0306932
-0.163949
-1.15408
1.74462
-0.590542
-0.047169
-0.0180573
0.0652263
-1.84091
2.03893
-0.198015
-0.301179
0.221833
0.0793463
-0.292645
-1.26396
1.5566
-0.440294
0.994749
-0.554456
0.267931
-0.542984
0.275053
0.794337
-1.54723
0.752897
0.0882291
-0.308329
0.2201
-0.0438924
-0.0999688
0.143861
-0.0267516
0.256458
0.353143
0.131053
-0.484196
0.28327
-0.0337422
2.12158
-1.60302
-0.518561
-0.514512
-0.633499
1.14801
-1.4725
1.6121
-0.139604
-0.102039
0.00658354
0.0954553
0.257147
-0.0748909
-0.182256
-1.34399
0.189917
0.270066
-0.0756083
-0.194458
1.79742
0.178091
-1.97552
-0.73201
0.268033
0.463978
0.128082
-0.114056
-0.0140262
1.05488
0.48729
-1.54217
0.0141192
-0.101626
-0.758369
0.131323
0.627046
0.391867
-1.26942
0.877552
-0.042781
-0.120748
0.163529
-0.115589
0.0684199
-2.19458
1.11284
1.08175
1.49477
-0.69463
-0.800139
-0.0058085
0.0840261
-0.0782176
-1.28004
0.987399
0.829941
-0.120745
0.0310774
0.0970047
0.00390128
-0.10115
1.1098
-2.27461
1.16481
0.129614
1.66781
-1.23611
0.974345
0.261764
0.312192
-0.234044
-0.078148
-0.512883
0.90475
0.221303
-0.883442
0.662139
0.3362
-0.0928958
-0.243304
0.347686
-0.421561
0.0738753
0.805167
-1.45529
0.650121
0.125246
-0.109325
-0.0159209
1.84957
-0.749613
-1.09996
0.387829
-0.739213
0.351385
1.68172
-1.18652
-0.495204
-0.8222
0.0638311
-1.4758
-0.718787
1.31643
-0.352963
-0.963464
0.216101
-0.599052
0.382951
-0.213675
-0.0875044
-0.305816
0.101378
0.21136
-0.0167179
0.00973027
-0.0496188
0.0398885
0.935008
0.914564
-1.85671
2.13475
-0.278041
0.650789
0.843981
-0.951526
1.11506
-0.163533
-0.012
-0.0366017
0.0486017
1.34416
-1.62682
0.237767
0.191652
-0.103423
0.444465
0.244331
-0.688796
0.00735434
0.0826272
-0.0899816
-0.538385
0.391326
0.14706
1.31075
-0.50558
-0.717744
0.623878
0.093866
0.799622
-1.26077
0.461149
-0.0858076
0.10823
-0.0224223
0.00361907
-0.00681546
0.00319639
2.55068
-1.38793
-1.16275
0.519152
-0.449068
-0.55436
-1.34954
0.836653
-1.9299
1.64373
0.163435
-0.0772279
-0.0862074
0.0637015
0.130451
-0.156019
0.15481
0.00120905
-0.141249
0.207748
-0.0664986
1.92267
-1.12834
0.0054374
-0.00534007
-9.73304e-05
-0.76185
0.366578
-0.0128144
-0.0479725
0.0607869
0.217563
1.09886
-0.799512
0.486603
0.312909
1.33775
-1.93609
0.598339
0.0286329
0.101656
-0.194219
-0.537792
-0.382903
0.0983008
0.284602
1.07488
-0.229327
0.224663
-0.203659
-0.0210039
-0.0166491
-0.0379684
0.0546175
-0.0624301
0.0504587
0.0119714
0.687709
-1.78773
1.10003
0.383564
-0.413576
-0.341163
-0.0532928
0.394456
0.0316296
-0.0261922
-0.0690744
-0.372625
0.4417
0.141224
0.031034
-0.172258
-0.0621799
0.203404
-0.618589
-0.180923
-0.234117
-0.551259
0.785376
-0.917832
1.97298
-1.05514
0.404846
-0.419686
0.0148392
-1.1586
-0.190932
-0.0327683
-0.0490168
0.0817852
1.42687
-0.371991
-0.647879
0.423344
0.224535
-0.000990561
0.113917
-0.112926
0.28559
-0.0739944
-0.211595
0.245222
-2.14219
0.320494
-1.79299
-2.30587
0.775581
1.53029
-0.838086
-0.398023
-1.27766
1.17441
0.103248
1.98713
0.247305
-2.23444
0.178718
-0.22261
0.0148475
1.15825
-1.1731
-0.24567
-0.344609
0.590278
0.171691
-1.44935
-1.83782
-0.00309332
-0.00513683
0.0148671
0.0623506
-0.116347
0.0539963
0.281427
-0.324208
1.07064
-0.271016
-0.151346
0.124594
-0.0398183
0.00794549
0.0318728
0.754259
-0.424475
-0.329784
-0.443236
-1.49521
-0.0183913
-0.227278
0.034713
-0.581025
0.546312
0.248385
-0.00569446
-0.24269
-1.57065
0.939219
0.631426
0.733056
-0.610255
-0.0500139
0.442508
-0.392494
-0.271064
0.316307
0.510445
-0.241609
-0.268836
0.972367
-0.527902
0.233216
-0.308825
0.9026
0.330098
-1.2327
0.296741
-0.331411
-0.34781
-1.44491
1.79272
1.2754
0.669047
0.675222
-0.459121
-1.34177
0.901473
-0.705747
0.923114
-0.217367
0.013882
-0.0366811
0.0227991
0.273956
-0.318061
0.0441052
-1.42733
1.6449
-0.263607
-0.154297
0.417904
0.277736
-0.0293516
-0.851704
0.886417
0.561711
-1.06747
0.505755
-0.514969
-0.0234162
0.674077
-0.406147
0.135738
-0.0104928
-0.483183
0.296607
0.186575
0.0755947
-0.216844
-0.328656
-0.127301
0.455957
0.130567
0.205632
-0.864481
-0.590807
-0.752629
-0.818016
-0.00658311
0.0514708
-0.0448877
1.56654
-0.457908
-1.10863
-1.34044
0.422606
-1.16607
2.14452
-0.978447
0.35216
0.158286
-0.417022
0.352361
0.0646608
-0.76801
0.573791
0.613645
-1.12816
1.75262
-0.0534372
-1.69918
-1.45093
1.91471
-0.463783
-0.0223586
0.0847092
0.393978
1.44046
-1.83444
0.0328224
-0.16263
0.129808
-0.142532
1.79518
-1.65265
0.00170094
0.10742
-0.109121
-0.903835
1.23994
-0.336109
-0.122351
-0.645659
0.0870569
-0.415713
0.270043
-0.150478
-1.70241
1.85289
0.0153655
0.0340611
-1.63525
0.770767
0.062815
-0.25119
0.188375
0.0562125
-0.0728616
0.118037
1.58837
-1.70641
-0.580729
-0.548284
1.12901
-0.502102
0.396896
0.105207
2.53228
-1.65114
-0.881139
0.445043
-1.02577
0.0169706
-0.0154899
-0.00148063
0.100545
0.73155
-0.832095
0.0392984
-0.0432505
0.00395214
0.821385
0.824669
-1.64605
-0.221272
-0.496472
-0.0574488
0.163356
-0.105907
-0.933869
0.710624
0.223245
-0.0697445
0.0385973
0.0311472
1.70284
-0.1363
1.0815
-2.03733
0.955832
-2.8164
1.24053
1.57587
-1.19924
-1.61716
-0.370828
0.487763
-0.116934
0.474869
-0.382833
-0.0920358
0.806456
-1.65124
0.844788
0.0138103
1.09845
-1.11226
-0.890472
0.537509
1.14393
-0.241333
1.08307
1.26366
-2.34673
-0.175226
0.0802167
0.0950092
0.0488658
-0.982735
1.86873
-0.484062
-1.38467
0.131962
-0.0991393
0.126516
-0.004707
-0.0751037
1.06712
0.801608
0.189005
0.673454
-0.862459
0.354563
-0.042053
-0.0338573
0.0671911
-0.0333338
0.433565
-0.445823
0.012258
-1.81153
0.86311
0.948422
0.323841
0.151028
0.669917
-0.904034
0.422268
-0.0210354
-0.401233
0.131252
0.125894
-1.7906
1.73741
0.0531898
1.17291
-0.611199
0.0571958
0.0543693
-0.111565
-0.0233938
-0.212832
0.236226
0.116754
-0.20965
1.67276
-0.562961
-0.0187131
0.16569
-0.146976
0.00218646
-0.0420047
-0.150081
-0.126237
0.8664
-0.622069
-0.672139
0.68595
-0.39206
-0.091123
2.09377
0.0258821
-0.0246122
-0.00126992
0.00561873
0.860781
-0.197732
0.128175
0.0695575
0.0326
-0.0289809
-0.197266
0.550409
1.50337
-1.48852
0.410983
-0.366004
-0.0449787
0.296717
-1.20055
0.190079
-0.259153
-1.85962
1.70914
-0.0244366
0.0414072
-2.05814
0.216417
-0.217408
-0.0726746
-0.00459897
0.0772736
-0.608949
-1.20258
1.61508
0.9356
1.72294
-0.783716
-1.63644
0.155624
0.0690385
0.106749
-0.0163637
-0.0903853
0.180205
-0.238756
0.0585511
-1.25511
0.621609
-0.191895
-0.26119
0.453084
0.324923
-0.390048
-0.111146
-1.99475
2.1059
0.991988
0.189502
-1.49631
1.3068
0.948575
1.09035
-0.690796
1.52794
-1.13396
-0.0523091
0.383855
-0.331546
-0.886268
0.752183
0.134084
-0.100201
0.0814875
-0.0824844
0.322234
-0.23975
-0.261672
-0.25802
0.519692
-0.534658
1.81006
-0.282177
-0.362357
0.644534
-0.11635
0.0143112
0.259216
-1.21074
0.00135968
-0.035217
0.00828551
-1.84467
0.991358
0.853315
0.356014
-0.466619
0.00874514
-0.0193247
0.424171
1.06903
1.46326
1.64123
-0.537887
-1.10334
0.116597
-0.0436932
-0.0729041
0.729151
0.95257
0.092145
0.0146039
0.646349
-2.08871
1.44236
-0.0560937
0.0772842
-0.0211905
0.605378
0.705369
-0.210591
-0.0977373
0.740609
-0.551604
-0.566417
1.42579
0.152984
0.0104509
1.81915
-0.4814
0.14161
-0.134256
1.76495
-0.123726
0.0991934
0.396334
0.0146492
0.0177591
0.294433
-1.75181
-0.835845
0.975932
-0.140087
0.0057275
-0.115052
1.75896
0.0517092
-1.81066
-0.707842
0.425665
0.219157
0.0664329
-0.302331
0.0682871
0.0185619
-1.20508
1.54715
-1.57769
0.0305404
0.0118485
-0.283563
0.271714
-0.659269
1.26465
-0.822272
1.50998
0.0366758
-0.0248273
0.794196
-0.307593
1.94143
-0.597273
0.00513436
0.116962
-0.122096
-0.0689017
-0.09386
0.162762
0.113549
0.00304839
-0.226943
-0.731835
-0.250272
-0.11991
0.370182
0.612865
1.36011
-1.7173
1.36949
0.110122
-0.451285
-0.767687
0.98899
-1.14387
1.32814
-0.184271
0.532987
-1.77607
1.63354
1.7946
-0.859588
1.30291
0.818672
-0.0664797
0.279828
1.26732
-1.33447
0.313292
1.02118
0.246175
-0.276868
0.396562
-0.0727212
-0.208627
0.146447
-0.098077
-1.50494
0.486916
-1.22399
0.737079
-1.3565
0.901291
0.455207
-0.157375
-0.726067
-0.0997762
0.0939677
0.0885523
-0.00107171
0.166814
-0.165742
-0.534786
0.484772
0.836805
0.957792
-1.45093
-0.0395739
-0.0228562
1.61814
-1.42549
-0.192653
-0.402032
1.84249
-1.65927
2.53381
-0.874547
-0.762761
1.05791
-0.295152
0.0921834
-1.37223
-0.00608686
-0.376746
-0.26859
0.417047
-0.148457
-0.0188533
0.0120378
1.31961
0.709377
-1.27656
0.56718
0.00276338
-1.55914
1.55638
-0.0516008
-0.104419
-0.0053644
-0.469501
0.474866
-0.562567
1.44216
-0.879588
0.193662
-0.134171
-0.0594911
-0.29731
0.268113
0.0291964
-1.97565
1.76148
2.14178
-0.471653
-1.67012
-0.0618324
0.0366196
0.0252128
0.0138061
0.166399
0.0865264
-0.601496
-0.854427
1.67581
-0.0287037
0.0158892
1.75262
-0.968901
1.06945
0.101096
-0.101096
-0.128372
0.317373
-2.17408
2.24728
-0.925813
-1.32147
-0.777647
0.805579
-0.0279314
-0.0865235
-0.258732
0.345255
1.02576
-1.21632
0.190562
-0.585699
-0.231041
0.81674
0.7959
-2.00647
1.21057
-0.0755513
-0.810716
-0.206199
0.137297
-0.208497
-0.586352
0.794849
0.767021
0.419674
-1.18669
-1.30044
-0.406981
0.656187
-0.249207
-0.799886
1.14112
-0.34123
1.44188
-1.32384
0.0389638
-0.289236
0.0442125
-0.0764904
0.424176
-1.19085
1.09955
0.0913004
-1.28677
1.80555
-0.518782
-0.0164592
0.128723
-0.112264
-1.50872
-0.765891
-0.0561808
-0.00223697
-1.64341
0.477338
-0.36458
0.282095
-0.209002
-0.553759
0.0343885
-0.0904822
-0.78656
1.86963
0.042503
-0.353831
-1.53082
0.129256
1.40156
0.817521
-0.683298
-0.134223
-0.870122
0.164375
0.218761
-0.563453
0.344692
1.59005
-0.13278
-1.45727
-0.0396623
0.0374737
0.00218868
-0.376193
0.713106
0.780704
-1.49381
-0.552773
1.45987
0.223113
0.675207
0.75166
-0.121057
1.57706
0.187895
-1.39285
1.39562
0.0444611
-0.0742018
0.0297407
0.11131
-0.179836
0.0685262
-2.03142
0.37215
-0.0837182
0.214772
-0.612035
-0.22381
0.249602
0.854811
-0.265972
-0.588839
0.187145
0.0961253
-1.17835
1.79405
-0.615701
0.149291
-0.243151
-0.0678603
0.341817
0.245405
-0.513994
-0.200885
0.269566
-0.0686813
0.0968851
-0.0334204
-0.0634647
0.828942
-0.930925
0.101982
-0.034882
-0.070789
0.105671
-0.283813
0.314608
-0.0307946
0.063874
-0.397774
0.3339
0.299578
-0.0534034
0.193866
0.269697
-0.463563
1.4528
-1.03573
-0.953747
0.010265
-0.358807
0.348542
0.0853283
-0.0512672
-0.269736
-0.232366
1.14301
-0.288202
-0.0365927
-1.23507
1.27167
-0.35314
-0.0297624
-0.0338033
-0.584786
-0.0960971
-0.201213
0.165753
-0.164052
-1.38484
-0.034319
-0.0782313
0.11255
1.33189
-1.00179
1.12225
1.01952
0.375589
0.0466786
-0.138308
-1.62592
1.76423
0.728698
0.479628
-1.20833
-0.0164434
-1.04416
0.653127
0.391034
0.835891
-0.0183696
0.0120896
0.0402943
-0.0523839
2.16765
-1.16944
-0.998212
0.131736
-0.296227
0.164491
0.711754
0.423942
-1.1357
0.0689389
0.0987326
-0.167672
1.72459
0.0157794
-1.74037
-0.169527
0.108582
-0.24907
0.291573
0.0579269
-0.00972659
-0.0482003
-0.0385805
-0.267236
0.0482353
0.0108366
-0.0590719
-0.47993
-0.666085
1.14601
1.13747
0.452577
0.985473
-1.02207
0.732801
-1.29537
-1.87172
1.76057
0.0317436
-0.069712
0.253651
-0.607273
0.353623
0.724403
0.998532
1.10963
-1.33221
0.222585
1.22909
-0.553879
-0.128242
0.084549
0.0741749
-0.379071
0.304896
-1.61756
-0.403517
2.02107
-0.407798
0.447829
-0.0400303
-0.00335769
0.104453
0.22305
1.31544
-0.135691
-0.0395346
0.805891
-1.89233
1.08644
-0.75557
-0.345645
1.10121
1.58519
-0.503691
0.275504
0.562686
-0.907294
-0.257858
0.0042094
0.253648
0.0189167
-0.182866
-0.473628
1.18301
0.00795414
0.0313442
-0.297796
0.039022
0.258774
0.0169122
1.00885
0.418958
-0.970217
-0.430516
-0.411917
0.510218
0.739697
-0.948699
0.0394609
-0.0448009
-0.120385
0.0452811
-1.93599
0.900264
-0.00263616
0.0986231
-0.0959869
-0.272226
0.217476
0.0547501
0.235925
0.862521
0.0930555
-0.00902946
-0.00457033
-1.64461
1.64918
0.318006
-0.817922
0.499916
-0.00948695
0.0570259
-0.0475389
-0.711452
1.19837
-0.136957
-0.363838
0.500795
-0.269259
0.48802
-0.934977
1.00589
-0.0709112
-0.589382
0.530969
0.0584122
2.04032
-0.0531924
0.0976707
-0.279577
0.181907
-0.324418
-0.0482075
-0.173522
-0.00974717
1.18357
0.951176
0.210842
-1.41869
1.20784
-0.803241
-0.173018
0.976259
-0.162491
0.199234
-0.036743
0.113416
0.11653
-0.229946
-0.0208239
-0.193285
0.214109
-0.0460917
0.0474513
-1.1302
-0.258508
0.00881458
-0.10349
0.0682727
-0.122029
0.384878
-0.262849
-0.225177
0.259122
-0.0339448
-0.0131689
0.141093
-0.127924
0.801049
-0.379846
-0.0712529
0.0216341
-0.085052
-0.610857
0.695909
1.21004
-0.974119
0.00670392
-0.348941
0.342237
-0.769829
-0.490942
-1.38017
1.50978
1.14931
0.00894315
-1.34663
0.83379
0.51284
0.212964
-0.0912379
-0.121726
1.7496
-1.7496
-1.57944
0.103646
-1.05552
-0.241037
-0.612551
0.853588
0.577638
-0.536479
-0.0411593
-0.198051
-0.0426364
0.056487
-0.0138506
0.00460668
0.200107
-0.204714
-0.484002
1.27895
-0.794951
0.311339
-0.127293
-0.184046
0.793134
-0.700951
-1.04282
0.239579
-0.0385836
-0.210138
0.248722
0.00310959
-1.33758
-0.495296
-1.21612
0.720821
0.640803
0.0161134
0.226766
-0.242879
-0.267598
0.324621
-0.0570234
-0.222812
0.165363
-0.0804524
-0.0739278
0.00125324
0.0352602
0.0103872
0.223994
-0.234381
-0.281229
-0.0978414
-0.178277
0.372143
0.00142828
-0.0373274
0.0358991
-0.0285432
-0.0758656
0.104409
0.0594683
-0.0836697
0.0242014
-0.0627538
0.164428
-0.101674
-0.595216
1.33229
0.55518
-1.14748
0.592301
-0.1466
-0.078104
0.224704
-0.0681578
-2.3577
2.42586
0.888473
-0.586449
-0.302024
0.439405
-0.0368886
-0.201867
-0.0288412
-0.0191313
-0.0538707
0.185606
0.301068
-0.951346
0.650278
-0.460974
-1.32962
-0.195047
0.831011
-0.635963
-0.0182551
0.0498847
0.399613
-0.268425
-0.131187
0.365271
-0.450323
-0.70571
0.19851
-0.346563
0.148053
-0.518988
0.327093
-0.156225
0.579569
-0.28522
0.261826
-1.76056
0.372631
-0.289853
0.535258
0.0258456
-0.232044
0.36998
-0.0650844
0.314647
-0.298533
-0.0807398
-1.29066
0.695446
1.98757
-0.192389
-1.70241
2.24419
-1.07763
-1.16655
-0.0932545
0.48458
-0.0630225
-0.759178
0.502775
-0.42718
-0.24044
-0.0174171
-0.589651
-0.405009
0.99466
0.0123934
0.173446
-0.185839
0.0273525
-0.865438
-1.99932
-0.308968
-0.329702
0.638669
0.625943
-0.307937
-0.239116
-0.0370072
0.276123
0.461656
-0.0780916
0.158901
0.0540629
2.00019
-1.20429
-0.906371
0.31672
-0.246202
-0.0490547
0.295257
-0.0460463
-0.129474
-1.08685
0.239465
-0.295718
0.0562523
-0.0821328
-0.0334561
0.911918
-1.18123
0.269311
-0.652687
-0.0579909
1.80759
-0.0509612
-0.559896
1.35244
-2.05767
0.705228
-2.02812
1.46205
0.566074
0.144449
0.101158
-0.245608
0.153898
1.19138
0.0165056
0.823356
-0.839862
-0.0305245
0.196214
-0.0162786
-0.0455537
-0.0279069
-0.26331
0.291217
1.24686
-1.38517
0.149202
0.21697
-0.165175
-0.0517951
-1.45819
-0.121252
-0.576972
-0.548535
0.5588
0.106278
0.00342253
-0.109701
-0.601882
0.281715
0.320166
-0.386832
0.334523
-1.08245
-0.550909
1.63336
-0.113229
0.160177
-0.246701
0.100738
-0.586009
0.485271
-0.152389
1.05368
-0.152119
-0.833817
0.0561698
0.803276
-0.133359
0.954423
-1.43842
-0.0456692
0.0345493
0.01112
1.09244
-0.489379
-1.17191
-0.339626
-0.0724224
0.412049
-0.0524695
0.198917
-0.0813379
-0.182847
0.264184
0.309217
-0.20784
-0.179638
1.68301
-0.174661
0.300287
-0.067071
-0.424709
0.405384
-0.173336
0.0695376
0.103798
0.240035
-0.106687
-0.133347
-0.14065
-0.0396267
0.180277
0.28442
-0.0500207
-0.2344
0.006818
0.0477995
-0.206477
-0.0770863
-0.0609937
1.20241
-0.133687
0.0662752
0.0674116
-0.0182283
-0.0104586
0.028687
0.0325231
-0.438007
0.405484
0.305644
0.241149
-0.648129
-0.0327753
0.355966
-0.0745381
-0.316105
0.0450412
-0.127277
-0.0353535
1.80284
-0.978175
0.0862218
-0.22367
0.137448
-1.59579
0.215627
-0.0930139
0.0776763
0.0153375
-0.0390407
-0.0307038
-0.547731
-1.48039
0.35391
-0.0571693
-0.820532
-1.26818
-0.181924
-0.115872
-0.661373
0.762112
0.986628
-0.71571
-1.19747
1.40831
-1.91996
0.302405
-0.239865
0.12121
0.118655
0.0967878
-0.176965
-0.389822
0.566787
-0.0999381
-0.0470384
-0.430987
-0.895129
1.32612
-0.779643
-1.0901
1.86974
0.608062
0.343551
-0.951614
0.00301939
0.374452
-0.175941
-0.259353
-0.254641
-0.165166
-0.10091
0.266076
0.239949
0.35033
0.272204
0.127408
0.294807
-0.598821
-0.0112561
0.0371381
-0.630571
0.866347
-0.235776
-0.141372
0.229364
-1.08737
0.0568731
-0.0054023
-0.884778
0.09895
0.34275
-0.709668
-0.194366
-0.130902
-0.90968
-0.324081
1.23376
-0.14712
0.649895
0.128814
0.676765
-0.287654
-1.0021
-0.933891
-1.25612
1.44669
0.0744008
0.050034
0.00769807
-0.0575258
0.0498278
-0.622445
0.567979
0.0544663
0.665598
-0.787949
0.158427
-0.161063
-1.11357
-0.233057
-0.326049
0.299629
0.02642
0.97874
-0.149797
-1.45414
-0.147893
1.60204
-0.0257541
-0.255475
0.245038
0.0508502
-0.295888
-0.227053
0.381448
0.137704
-0.0858584
-0.000355937
0.0862144
-1.30453
0.820467
-0.141053
0.0411148
-0.169761
-0.126465
-0.321001
0.0270679
0.012393
0.217373
0.32913
0.0516232
-0.0998236
0.32507
1.41234
-0.657242
1.96015
1.00919
0.619209
-0.85025
0.003572
-1.45772
-0.183315
-0.321953
0.377244
-0.0552916
0.0650188
-0.01456
-0.0108928
0.0100632
-0.0537334
0.122153
-0.11326
1.68684
-1.57358
0.202848
-0.848507
-0.12168
-0.254241
-0.0699673
0.24338
-0.277818
0.352627
-0.0748091
-0.0207391
-1.42785
1.44859
0.634894
0.270315
0.307323
-0.624952
-0.575056
0.951076
-0.37602
-0.0102437
-0.0439317
0.261408
-0.416055
0.967581
-0.551525
-0.135651
-0.111153
0.246805
-0.135474
-0.639865
0.775339
-0.27318
-0.0582316
-2.02909
-0.0114371
0.178582
-0.173448
0.0203448
-0.0869834
-0.0540695
0.329304
-0.659006
2.18349
-0.93742
-1.24607
-0.0592606
0.421045
0.241273
0.00376496
-0.346623
5.96178e-05
-0.168049
-0.0142069
-0.361841
0.148166
-0.255481
0.855209
-0.990683
0.134951
-0.0915008
-0.0434502
-0.378537
-1.93906
1.02856
0.910498
-1.87229
1.80413
-1.15931
0.35554
0.803765
0.0606912
0.072133
-0.132824
0.653147
0.489867
-0.0771998
0.19386
-0.107063
-0.0906939
-0.00635245
-0.257497
-0.0109288
1.04239
1.1411
0.0746872
-0.0074961
1.58079
-1.33348
-0.0384042
-1.38975
1.42815
1.2382
-0.0357825
-0.28783
-0.0767502
0.36097
0.0376028
-0.24327
-0.00760239
0.404164
0.649188
-1.64468
0.995495
0.0713103
2.38368
-1.429
-0.954683
0.0120721
-0.31687
0.0581379
1.41441
0.23049
1.26413
-1.16048
1.07371
-1.85335
-1.2299
0.0303266
1.19957
-1.30199
-0.060883
1.36287
-0.00432703
0.0725998
2.33035
0.0336757
-2.36402
-0.700455
1.97469
-1.27423
0.0442299
0.214892
-1.01997
0.220084
-0.0044939
-0.0199427
-1.33847
0.194594
-0.00533506
-0.0100586
0.0153937
-0.0926746
0.217512
-0.124837
0.141678
-0.487052
0.345375
0.523599
0.452333
-0.507944
-0.0939374
0.0758451
0.873154
-0.948705
-0.0652332
-0.0511137
-0.246879
0.0524216
0.0866637
1.32289
-1.40956
-0.597585
0.950723
-0.353138
0.0518348
-0.40585
0.354015
-1.01364
-1.58615
0.748131
0.83802
0.0310873
0.825931
0.259531
-1.08546
-0.376325
0.216103
-0.238649
0.0225454
0.163954
-0.0341464
-0.242898
0.0037816
-0.28321
-1.50107
0.0125508
-0.391796
0.788882
-0.397085
-0.712131
-0.629635
1.71838
-0.727024
-0.0988207
0.175438
-1.41185
0.0437367
-1.38113
1.33739
-0.162705
0.0485195
0.114186
1.01904
-1.19884
0.179803
0.133359
-0.019442
-0.0973409
-1.45141
0.739276
-0.613684
1.26681
-0.345018
0.194937
0.290676
0.210123
0.0299118
0.804078
-0.378414
-0.0212906
0.686888
-0.972343
0.434551
-1.84162
0.751524
1.17024
-1.19098
-1.44937
1.33611
-0.168555
-1.45807
0.195425
1.26264
0.601125
0.229886
0.0319574
-0.931101
0.690064
-0.105328
-0.130293
0.23562
-1.69277
0.292034
1.40074
0.338442
0.78466
-1.1231
0.0529323
-1.30906
0.769495
0.109581
-0.879076
-0.0518587
0.209925
-0.977611
-0.0492812
-0.0111423
0.0497396
1.49103
-1.47525
0.0103508
-1.01533
-0.570818
0.781473
-0.0285235
-1.20138
1.10669
-0.28076
-1.63354
-0.00289815
-0.316283
-0.916416
0.327855
-0.0289207
1.87172
0.222046
0.135626
-1.22248
0.132794
-0.10176
0.200367
-0.462039
0.315804
-0.534009
0.218206
0.279974
0.0209873
-0.300961
-0.0350717
-0.244506
0.111207
0.322358
-1.12996
1.15199
-0.0220298
-0.737
1.13512
-1.93581
0.800689
-0.654032
-0.0562627
0.0874099
-1.49117
0.136776
1.35439
-0.359325
0.892312
-0.658722
0.686075
0.163219
0.974523
0.587829
-1.01835
-0.826688
-0.164561
0.991249
-0.595621
-1.2756
0.844614
-0.11878
0.121971
-0.00319102
0.041138
-0.0886769
0.971893
-1.44552
-0.568616
-0.28935
0.857966
-0.148193
0.117509
0.0306848
-1.06841
0.428542
0.0356829
0.0249336
-0.222341
0.397932
2.0886
0.241744
-0.794833
0.811338
-0.256651
0.0868894
-1.17971
1.90163
-0.721926
-0.0742459
0.0615927
0.0741455
0.362418
-0.0210778
0.965486
1.17904
0.638023
-0.945616
0.321921
-1.97306
-0.162021
0.127702
0.124469
-1.12626
-0.216463
-0.964767
-0.202674
0.0513284
0.776549
-0.378617
-1.48162
0.563227
1.11978
0.177741
-1.68184
0.33615
1.3457
-0.0843249
0.465772
0.667977
-1.15417
-0.296755
0.729185
-0.306204
-0.422981
0.854572
-0.282889
-0.571683
-0.171144
0.0369736
0.630744
-0.65082
0.0200752
-0.971071
0.333579
0.637491
0.316882
0.689006
0.000579274
0.105699
0.747598
-0.506449
-1.92975
0.716323
1.21343
-1.85289
1.44937
0.853621
0.795631
-1.64925
0.790349
-0.726518
1.79747
-0.595902
-1.20157
-1.04315
0.165008
-0.0804591
-0.0921106
-0.102273
0.182489
-0.0307238
0.108683
-0.077959
-0.267334
-0.154227
-1.65301
-0.160885
0.0619023
-0.0898093
-0.0306874
-0.0125632
1.02215
-0.504779
-0.517374
0.761859
-0.480144
-0.109681
0.123488
-0.158093
1.26772
-0.155609
-0.00709666
-0.318631
-0.749776
-1.47377
0.564095
-0.0717647
-0.0692235
0.119748
0.0771104
0.0909885
-0.0832904
-0.501053
-0.243386
0.0869865
-0.0760084
-0.0109781
0.172235
-0.905528
-0.479462
1.38499
-0.129877
0.0428932
-0.0463717
1.08399
1.00755
-2.09155
-0.384709
0.992771
0.206739
-0.0821448
0.645829
-0.825966
-0.690175
1.51614
-0.931182
-0.976887
0.571879
0.293854
-0.189721
-0.104133
0.814086
-1.27199
-0.14749
1.70391
-0.568786
-0.173936
0.0999413
-0.417381
-0.730099
0.0853928
1.98907
-1.76057
-0.228496
-0.88487
-0.588905
-0.1957
0.15929
0.0647972
-1.02436
-0.196693
1.22105
0.245278
0.274832
-0.410483
-1.64104
-1.61885
0.71013
0.908721
-0.154686
-0.00474794
0.159434
0.945958
-0.556032
-0.389925
0.102701
-0.156434
0.0747109
0.0800994
0.851634
-1.93408
0.759146
0.0954265
-0.317666
-0.588706
0.2012
-0.0277542
0.144924
0.269372
-1.1749
0.0272444
0.356611
-0.530966
0.454476
-0.0817573
-0.00823862
0.089996
0.98605
0.811419
0.566775
0.061071
0.676505
-0.506956
-0.169548
1.77607
-1.43992
-0.234642
-0.398964
0.139508
0.0244467
0.201179
-0.00802283
-0.226359
0.00380307
-0.122583
0.538926
0.021494
-1.8098
-0.0190695
-0.135617
-0.0678684
0.0103426
1.0218
-0.892981
0.894118
-0.453976
-0.440141
0.00380785
0.104422
-0.00887589
0.00354083
0.395328
0.0921282
-0.155593
-0.45391
-0.477015
-2.35199
0.911904
1.44009
-0.0455194
0.00891772
-0.0172411
0.099047
0.112313
-0.276312
-0.287141
0.542305
-1.36827
0.232864
-0.961442
2.04544
0.625031
-0.0841779
-0.540853
-0.623817
-0.489969
-0.04651
0.0865046
-1.09963
0.503565
-0.729263
0.225698
-0.133813
0.0142525
0.11956
-0.185672
1.22245
1.31136
-1.38822
1.43992
-1.76552
1.3059
0.459614
1.08024
-2.04168
2.17064
-1.10161
-1.04397
-1.0172
-0.0307457
0.197559
-0.0517841
-0.417717
-1.54668
0.088613
-0.0561289
-1.27608
1.21098
-1.97766
0.766678
-0.0504898
0.229208
-0.419609
0.199163
-0.140751
0.981568
1.40212
-1.92855
0.748847
-0.159449
-0.771733
-1.3241
0.168021
-0.153768
1.87229
-1.92548
-0.135084
-1.09294
0.100039
1.24638
-0.533274
-1.58163
1.63897
-0.0573468
0.469434
1.95642
0.43141
-0.0696046
-0.361805
1.83432
-0.760608
0.225663
-0.215623
0.725139
-0.758942
0.0842183
0.125905
0.565403
0.911883
-1.47729
-0.569841
-0.453288
1.01194
-1.06708
0.0551394
-0.105497
-0.19022
-1.73182
0.739329
0.992492
1.30402
-0.284982
-0.654188
-0.0248246
0.83494
-0.968299
0.279735
-0.539088
-0.27068
0.315721
-0.621572
0.444607
-1.2044
-0.787531
1.99193
-0.344666
0.294646
-0.242585
-0.024651
1.03746
-0.981295
0.0409696
1.3608
-2.01804
-0.135083
-0.445609
0.200626
-1.17475
0.076632
0.706318
0.442798
0.0292457
-0.615598
-1.52895
0.331484
0.097044
0.353939
-0.450983
0.0670984
-0.306848
1.15745
1.08673
1.25773
-0.988419
0.0744585
-0.175501
-0.270323
0.425926
-0.27354
0.0657008
-0.683354
-0.944625
2.02486
-0.259122
0.290209
-0.591593
-1.1328
1.72439
-1.7548
1.05435
-0.0649987
0.313895
0.091589
-1.46383
-0.06699
-0.132267
0.635832
-1.06615
-1.28584
1.98907
0.554941
-1.37296
1.01032
-0.557992
-0.211475
0.18641
-0.362352
-0.242664
0.249368
-1.6209
0.209948
-0.785004
1.08014
-2.02476
-0.797017
-0.334509
0.286302
-0.0764997
-1.50513
0.866899
-1.06127
1.34023
0.741434
-1.49587
0.754431
1.20575
-0.87217
1.91911
-0.927757
-1.04216
1.96991
0.534327
1.27269
-1.02742
-0.661734
-0.957117
-0.894065
-0.871451
0.446765
-0.668705
1.42409
-0.755381
-0.14543
1.3844
-1.23897
-1.00637
-0.953374
1.95974
0.909407
0.102533
0.239653
0.350647
-0.417901
0.269025
0.148876
0.000978375
-0.244129
0.486496
-1.37137
-0.755962
-0.381307
-0.241138
-0.290687
0.389637
-0.310863
0.973001
-1.98592
0.860956
1.12496
-0.0339253
-1.65231
1.68624
0.0402449
-0.244657
0.0399427
0.609951
-1.85165
1.85165
-0.0421209
-0.0133188
0.0554397
-0.642055
1.06173
0.0837147
0.0843061
-0.770954
-0.320543
0.670873
-1.38822
-0.0724996
-1.27138
0.302475
1.2912
-1.28809
-1.20206
0.177703
-0.278835
0.417686
-0.13885
0.12843
0.502314
0.335252
-0.0552785
-0.974659
-1.18091
0.19784
0.983074
-1.40256
-0.31099
-0.712043
-1.22377
-0.0239748
-0.0618837
0.155138
-0.147756
-0.198867
-0.0130855
0.0647087
0.369018
-0.270572
-0.351
-0.775861
1.27886
-0.502996
0.302738
0.197712
-0.227501
0.393977
-0.166476
-0.428349
0.170329
0.415649
-0.52507
0.10942
-1.12906
1.8297
-0.976081
-1.28144
-1.70761
0.279757
-1.38344
0.0487435
1.00074
1.16692
0.129148
-1.04556
1.15562
-0.056071
-0.21971
-0.125308
0.657796
0.606006
0.184343
2.01426
-0.934124
-1.06573
-0.786874
1.85261
1.12866
0.00630762
-1.13497
0.0838245
-0.0942832
-0.187096
0.170637
0.118928
1.33658
-1.45551
-1.25961
1.19098
0.0686355
1.25961
-1.33611
0.207652
-0.258142
-0.828669
1.03859
0.0735074
0.0985131
-0.0507136
-1.66694
0.170636
1.51063
-0.769195
-0.32949
-0.062137
0.131675
-0.423555
0.944676
0.247586
-0.0830948
0.609247
-1.16077
0.16992
-0.229411
-0.553242
-0.0458099
0.661505
-2.0799
0.52076
-0.0692562
0.423848
-0.354591
-1.03531
-0.942343
0.0615823
0.670586
0.502324
-0.885793
0.0909602
-0.092028
-0.313822
0.0995692
-2.08221
1.03824
0.0488351
-0.0190749
-0.279458
0.11114
0.106233
-0.060772
-1.41398
0.664225
-1.49326
0.829038
0.0568576
0.239806
-0.296664
0.111182
-0.127545
-1.00966
1.31214
0.625222
0.367549
1.29645
-1.15417
0.17991
0.0392471
1.67741
-1.98446
0.30705
-0.0121661
-0.573843
-0.811941
-0.067135
0.366522
-0.438945
0.35703
-0.422114
-1.21223
0.00727435
-0.0744608
0.0671864
-1.46668
0.189197
1.27749
0.392798
-0.418552
0.0592079
0.299008
-0.358216
1.167
-1.19553
-0.351785
0.372772
0.603141
0.250448
-0.348468
0.374888
0.159256
-0.109371
0.180629
0.641908
-0.822537
-0.426002
-0.0610507
-0.921368
-1.01055
1.93192
-0.0241101
-0.25139
0.388839
-1.00742
1.80413
0.2325
-0.135712
0.0434496
0.0460448
0.055402
2.06396
-1.02158
-1.21428
0.755954
-0.546007
-0.648763
1.86219
0.27359
-0.181462
-0.165551
0.162194
0.186305
-0.118894
-0.279157
0.178247
-0.289876
0.132785
-0.280541
1.08552
-0.255256
0.366396
0.299562
-0.0727962
0.0362962
0.328154
0.0760106
0.479881
-0.750453
0.202299
-0.231455
0.0291563
-0.257043
0.305563
0.17517
0.89058
-1.06575
-0.235274
0.104982
0.480723
-0.627843
1.75313
-1.14027
1.02308
0.909132
0.101717
0.55928
-1.07465
0.344491
-0.422583
-0.374559
1.17552
0.824677
-1.48794
1.48794
1.72538
-0.824938
1.08415
-0.0255439
1.53208
-1.50654
0.926354
1.01809
0.848128
-2.05253
0.13032
-1.121
-1.34776
-0.206309
-1.43532
1.64163
-0.397972
-0.121016
0.0700987
1.00917
0.152488
-0.259175
-0.863121
1.53394
-0.670816
-0.171898
0.256117
-0.0267305
-0.0997282
0.935619
2.59167
-1.00596
-1.58571
1.62763
-1.49085
1.13366
0.194482
0.0345292
0.00214666
0.029011
1.55936
0.569938
1.13226
0.661793
0.0204112
0.189728
-0.210139
-0.332003
0.205537
0.174419
-0.186358
0.0119398
0.155078
-0.208849
0.0537713
0.509552
-0.433706
0.328719
-0.470091
0.0404296
0.115195
0.0149801
-0.218065
0.0200145
-0.525465
0.504187
0.0212776
-0.178782
0.155177
0.023605
1.92548
-1.58704
0.423721
-0.338855
-0.0848665
-1.49103
-0.3321
0.257561
-0.99107
1.91742
0.249759
-0.319726
2.05937
-1.21124
0.237576
-0.304647
-0.151413
-0.300847
-1.3282
-0.0495702
1.60332
1.28811
-1.08749
-0.107773
0.136406
-0.0895049
-1.48819
-0.283502
0.276436
0.234708
-0.356388
-0.355677
0.280868
-0.0746203
-1.33831
1.2999
-1.45426
1.4848
-1.17343
-0.465149
0.42017
0.650264
0.37714
-0.388069
-0.0500188
0.0572133
0.341719
-0.398933
-0.357846
1.42497
-0.968022
-1.01473
-1.99182
-0.0764929
0.0726725