/*--------------------------------*- C++ -*----------------------------------*\
| =========                 |                                                 |
| \\      /  F ield         | OpenFOAM: The Open Source CFD Toolbox           |
|  \\    /   O peration     | Version:  2306                                  |
|   \\  /    A nd           | Website:  www.openfoam.com                      |
|    \\/     M anipulation  |                                                 |
\*---------------------------------------------------------------------------*/
FoamFile
{
    version     2.0;
    format      ascii;
    arch        "LSB;label=32;scalar=64";
    class       volVectorField;
    location    "5.6";
    object      U;
}
// * * * * * * * * * * * * * * * * * * * * * * * * * * * * * * * * * * * * * //

dimensions      [0 1 -1 0 0 0 0];

internalField   nonuniform List<vector> 
5098
(
(2.62491 0.949207 0)
(2.14458 0.0808001 -3.39987e-20)
(2.58656 0.0311082 -2.48987e-21)
(1.49958 -0.665387 8.38218e-19)
(2.18886 -0.752198 0)
(0.866 -0.41767 0)
(2.42907 -0.00969694 -1.24097e-21)
(2.5449 -0.264171 1.68752e-21)
(2.68451 0.0226105 -5.10953e-20)
(2.0523 -0.24161 1.26394e-19)
(-0.432158 -0.938252 0)
(2.17483 -0.0531085 1.92365e-19)
(2.47709 -0.442268 -1.36245e-20)
(0.916291 -0.448071 0)
(2.09521 -0.291677 1.053e-19)
(1.95296 0.0361236 4.14201e-22)
(-0.368478 -0.263329 -9.58004e-20)
(-1.2438 -0.371951 0)
(-0.33473 0.328161 4.50146e-19)
(-0.449912 -0.152607 1.08804e-19)
(1.82931 0.588144 -8.17087e-20)
(1.90454 0.0264226 1.31598e-21)
(2.07406 -0.803381 0)
(0.725214 0.0884415 3.10156e-20)
(-2.23792 1.0636 0)
(1.45034 -0.581888 0)
(1.97583 0.0271417 1.35704e-19)
(1.82416 -0.774474 2.29052e-19)
(-0.189996 0.530456 -1.35775e-18)
(1.65929 -0.729421 0)
(2.40711 -0.210763 -1.28295e-19)
(0.706019 -0.343311 0)
(2.05528 0.00676909 -1.51152e-19)
(0.43691 -0.890061 0)
(2.56198 0.336469 -4.59343e-20)
(3.48286 0.257361 1.47687e-18)
(1.87148 -0.440469 1.63931e-19)
(1.97185 -0.00796449 -3.55754e-21)
(1.30279 -0.421544 6.02312e-19)
(1.36037 -0.632859 0)
(1.50666 -0.67973 -3.96175e-19)
(1.26493 -0.971717 -2.30024e-18)
(1.46413 -0.585123 0)
(2.5601 -0.191444 6.65476e-20)
(2.42267 0.61319 3.87731e-20)
(2.07157 0.0979542 7.32466e-21)
(-0.59969 -0.249187 6.10456e-20)
(1.04805 -0.341569 0)
(2.39771 -0.238212 0)
(1.50769 -0.633517 8.92593e-20)
(2.24874 0.129802 5.39981e-20)
(1.64124 0.482443 -4.99053e-19)
(-0.866048 0.701665 2.70852e-21)
(2.05437 -0.0731173 1.94e-19)
(0.929833 -0.464765 -3.68931e-19)
(1.56293 0.127542 0)
(1.85924 0.280337 -2.70708e-19)
(1.61262 -0.652606 0)
(0.835969 -0.412366 0)
(1.91467 -0.00343092 -3.02731e-20)
(1.55052 -0.350193 4.60461e-20)
(-0.955392 0.323324 -2.90527e-19)
(2.51949 0.37587 0)
(2.43446 -0.420811 0)
(-0.978532 0.902378 2.34544e-18)
(0.792358 -0.398651 4.5739e-19)
(2.18824 0.0254762 6.3593e-21)
(2.31619 0.189697 7.70496e-21)
(2.09838 -0.252692 2.01833e-19)
(1.65468 -0.687685 2.6465e-19)
(1.911 0.21988 1.75355e-20)
(1.34851 -0.418982 -7.01254e-21)
(1.89452 -0.789717 0)
(0.98521 -0.628736 0)
(1.66541 -0.0950332 3.11186e-20)
(1.09767 -0.535431 -4.27319e-19)
(1.54626 0.150106 0)
(1.47872 0.227163 4.62102e-19)
(2.51392 -0.24052 7.82432e-20)
(1.59963 0.178332 0)
(1.70659 -0.0199227 0)
(3.47621 -0.263321 1.01802e-18)
(1.66628 -0.253605 5.69769e-19)
(0.411602 -0.955963 -5.95003e-21)
(-1.30254 -0.561647 3.55266e-19)
(1.50068 -0.662405 2.89653e-19)
(0.00798494 0.340545 -2.76965e-19)
(1.53775 0.161561 -1.12332e-21)
(2.68067 -0.184103 6.27986e-20)
(1.52712 -0.368803 4.52813e-20)
(2.26621 -0.2702 -9.14347e-21)
(0.446901 -0.273413 8.52835e-19)
(2.45063 -0.0770155 -2.45427e-19)
(1.5229 -0.652293 -4.47015e-19)
(1.28884 -0.452264 1.06213e-19)
(1.37668 -0.395465 -9.40712e-21)
(1.03007 -0.516952 -3.64897e-19)
(1.48217 0.290341 3.41441e-19)
(1.6079 -0.0821042 1.73415e-20)
(2.01632 -0.488367 -1.39369e-19)
(1.85591 -1.60561 -1.54742e-19)
(0.982265 -0.483845 -4.39322e-19)
(-0.021734 -0.0797029 5.03814e-20)
(2.41531 0.407401 -5.5596e-21)
(1.49084 0.202524 -5.25282e-19)
(2.43443 1.07686 0)
(1.94759 0.258921 2.86406e-19)
(2.30403 0.0898747 2.44465e-21)
(0.99597 -0.395737 8.15189e-20)
(-0.562862 -0.880756 0)
(1.03131 -0.495294 -9.7037e-19)
(1.29431 0.606531 6.59749e-19)
(1.85733 -0.00294181 -2.83853e-19)
(0.104922 0.218636 1.87839e-19)
(1.75354 0.669567 1.16776e-19)
(0.20823 -0.374079 0)
(3.61584 -0.611584 2.19351e-18)
(2.74004 1.4562 0)
(1.8651 0.346998 1.23348e-21)
(0.754213 0.0355763 -4.77689e-19)
(1.71283 0.463301 4.09769e-19)
(1.62649 2.09021 -7.76797e-20)
(2.08573 -0.242585 -7.97851e-20)
(-0.0987557 0.819971 -1.53711e-18)
(0.415066 -0.104551 -1.11025e-18)
(-0.503561 0.112606 2.75108e-21)
(2.11426 -0.056795 1.61753e-19)
(2.06396 -0.770671 -2.91381e-19)
(1.33672 -0.141127 -1.2578e-19)
(0.150213 0.164924 -3.59931e-19)
(-1.97652 0.426635 -1.35984e-18)
(1.08936 -0.484283 -6.02142e-19)
(1.11838 -0.483584 5.0433e-19)
(2.61625 1.48709 -1.20532e-19)
(1.24626 -1.40172 -3.29959e-19)
(2.88994 -0.764383 4.23877e-19)
(2.05325 2.60934 6.56474e-19)
(1.91859 0.266301 1.95534e-19)
(0.84639 -0.41598 0)
(2.08451 -0.067165 -6.25872e-19)
(1.59837 0.592637 -3.298e-19)
(1.24228 -0.296292 -1.51021e-20)
(1.7227 -0.785537 4.44545e-19)
(2.5193 -0.00847297 -1.40911e-20)
(2.07175 0.064694 -4.84773e-20)
(2.2974 0.371224 0)
(2.07837 -0.254751 2.07759e-19)
(1.94751 -0.896283 0)
(2.68019 -0.0770638 4.15689e-19)
(1.60719 -0.738512 1.72993e-19)
(3.08374 -1.9827 -9.70191e-19)
(2.36424 0.47602 0)
(1.98679 -0.899127 1.04501e-19)
(2.05104 0.0608555 0)
(-0.0141491 0.224412 -3.52678e-19)
(0.778065 -0.28474 -1.99001e-19)
(1.61842 -0.643592 -4.72714e-19)
(1.71765 -1.57372 -9.04797e-20)
(1.4526 -0.674253 -3.23754e-19)
(-0.377013 0.313361 1.42196e-18)
(1.94288 -0.431894 -4.51189e-19)
(2.12003 -0.316835 -1.39247e-19)
(0.575831 0.32614 -5.3734e-19)
(1.82858 -0.166616 -3.52729e-19)
(-1.81247 0.322609 -4.10609e-19)
(2.4485 -0.191403 -1.27981e-19)
(2.14108 -0.883786 -3.73693e-19)
(2.32133 -0.585525 0)
(-2.2752 0.938347 6.45081e-19)
(1.66858 -0.524179 -5.14646e-19)
(1.47315 -0.347924 6.77795e-21)
(1.52048 -0.611786 -3.03825e-19)
(2.24805 0.63867 1.17796e-19)
(1.82485 -0.747806 4.1031e-19)
(2.61998 -0.0576768 0)
(1.95445 0.00864454 0)
(1.68823 -0.238944 -2.21412e-19)
(3.50831 0.308768 -3.22484e-20)
(1.77159 -0.133861 4.85381e-19)
(0.194324 0.156296 0)
(1.7701 2.27034 0)
(4.07863 -1.06811 -1.39993e-18)
(1.73671 -0.516879 6.36381e-19)
(-1.82697 0.305714 0)
(1.8311 -0.155706 0)
(2.73815 0.791492 5.16329e-19)
(1.51305 0.33901 0)
(1.88632 -0.422928 5.6604e-19)
(0.966291 -0.470865 8.31534e-19)
(-1.21348 2.26091 -4.62449e-19)
(1.33979 0.747585 0)
(1.46777 -0.257968 1.45904e-19)
(1.91817 -0.806726 0)
(1.66918 -0.137716 3.39964e-20)
(2.45425 -0.197882 1.42816e-20)
(0.422119 -0.272974 -8.9235e-19)
(4.21357 -0.0730649 6.73258e-19)
(3.05631 -0.819065 0)
(2.00322 0.00812548 -7.59664e-21)
(1.69282 -0.502116 -9.39521e-20)
(-2.37668 0.985014 -2.36311e-18)
(1.67279 0.390486 6.2503e-21)
(2.47308 0.619107 1.36572e-21)
(2.27941 0.00221457 4.95696e-21)
(1.47965 -0.0303871 2.27265e-19)
(0.755021 -0.298047 -1.42424e-19)
(2.5747 0.0602297 -2.01267e-20)
(1.14958 -0.531367 0)
(2.31695 -0.0742531 0)
(1.24134 -0.604099 -4.6946e-19)
(1.95402 -0.136095 -1.80432e-19)
(1.71438 0.357068 3.33295e-19)
(1.58462 -0.282673 -1.46608e-19)
(2.07512 0.103072 -1.74868e-19)
(2.12117 -0.0772454 -2.51798e-19)
(0.284188 0.392543 -3.903e-19)
(1.74322 -0.125858 0)
(-0.728391 -0.85043 -4.07401e-19)
(0.514425 -0.236785 1.61447e-19)
(2.0167 0.0731486 1.31146e-19)
(2.30652 -0.292335 -3.44392e-20)
(1.55191 -0.301994 0)
(2.19018 0.0130024 1.33924e-20)
(2.3161 -0.339128 1.76844e-19)
(0.170451 0.0249276 2.41724e-19)
(2.02078 -0.144605 0)
(0.332192 -0.056841 0)
(1.94248 0.0388249 0)
(1.97687 -0.488699 0)
(1.67783 -0.671513 1.03637e-20)
(1.85148 0.47842 0)
(0.559919 -0.219527 -5.19154e-19)
(4.12575 -0.497645 -9.33258e-19)
(2.03806 0.0297058 -4.03016e-21)
(2.67395 -0.0127261 -6.8796e-20)
(2.40463 -0.0192017 0)
(1.45576 1.55282 -1.72387e-19)
(-1.41386 1.79021 -2.75726e-18)
(3.18845 -0.121145 0)
(1.89437 -0.0384134 3.47542e-19)
(3.05683 -0.253196 -3.49638e-18)
(2.26637 0.626908 0)
(2.47144 0.141295 0)
(0.996516 -0.200203 8.78328e-19)
(1.84749 0.533918 -4.25455e-19)
(2.28785 -0.139383 -2.2159e-19)
(1.02842 -0.491721 9.78799e-20)
(-0.785804 -0.564128 -2.39617e-19)
(-0.397239 -0.332561 0)
(2.38993 -0.113539 6.16892e-20)
(2.19089 0.811004 -7.5985e-20)
(1.83011 -0.771333 4.26745e-19)
(0.283052 -0.398713 6.62835e-19)
(-1.97291 1.44093 1.36902e-18)
(1.94734 0.0255312 -2.57322e-19)
(-1.47139 1.90512 2.53819e-18)
(1.34976 -1.1491 2.82625e-19)
(1.03247 -0.367624 -8.07848e-20)
(1.07901 -0.363981 -3.69346e-19)
(1.83486 0.0301477 7.45952e-21)
(2.70651 0.798512 7.8213e-20)
(-0.685807 0.72102 1.04545e-18)
(-2.32558 1.15765 1.05279e-18)
(1.842 -0.798987 0)
(2.00514 0.0290132 -1.80975e-21)
(-1.29813 0.303859 1.46162e-19)
(-0.369971 0.23798 -1.6581e-18)
(-0.413914 -1.08835 0)
(1.3622 -0.345952 0)
(1.82291 -0.0195585 -3.21351e-20)
(-1.16475 2.15808 5.62236e-19)
(1.85185 0.0835768 1.20248e-21)
(-0.138035 0.245549 -7.41015e-19)
(1.39428 -0.285898 0)
(1.09265 -0.433942 2.50426e-21)
(0.127265 -0.145104 6.96384e-20)
(1.23128 -1.75604 -2.16199e-18)
(3.52515 -2.19264 0)
(2.21774 -0.717425 0)
(1.96935 -0.10172 0)
(-2.16587 0.843357 -8.0704e-19)
(2.48645 -0.190733 1.78522e-19)
(0.0385527 0.20051 -1.01475e-18)
(2.47293 -0.161803 -1.98347e-19)
(1.92662 -0.51943 1.41626e-20)
(0.334892 -0.420718 0)
(1.94647 0.0332567 0)
(2.38996 0.3853 -1.76395e-20)
(2.47958 -0.165168 1.02917e-19)
(1.75905 -0.00228452 -2.98806e-19)
(0.109482 0.686272 0)
(-0.575735 0.0873781 6.03595e-19)
(1.04534 0.0173033 -2.56625e-19)
(2.44619 0.488714 3.28278e-20)
(1.94306 -0.616259 4.42533e-19)
(0.958937 -0.140117 -5.94257e-20)
(2.53415 0.11131 0)
(2.41546 -0.204794 -1.15634e-19)
(2.01768 0.0765668 0)
(2.08894 0.0283673 -1.57569e-19)
(2.32289 0.397207 1.43584e-20)
(2.62495 0.0559686 1.28119e-19)
(1.56326 -0.405246 5.8928e-19)
(1.88868 0.464163 2.36381e-19)
(-1.2541 0.377687 -2.36807e-19)
(1.75933 -0.713983 -2.56206e-19)
(2.60241 1.91264 -1.45879e-19)
(2.10391 -0.0170679 0)
(1.81273 -0.411747 0)
(-0.641555 -0.261513 0)
(2.25791 -0.274157 4.39798e-20)
(0.0165354 -0.389799 6.64189e-20)
(0.799336 -0.397874 4.86639e-19)
(1.85757 8.27742e-05 -6.3321e-20)
(2.52027 -0.440041 -5.78829e-20)
(0.0861736 0.135196 6.90932e-19)
(1.98391 2.39291 -6.03303e-20)
(2.24236 0.0196121 -1.11645e-20)
(2.21885 -0.156192 6.02269e-19)
(0.834823 -0.343298 0)
(2.69774 -0.228679 -9.39821e-20)
(-0.594067 0.0723161 -1.36915e-18)
(3.01688 -0.0631677 -5.81248e-19)
(0.712198 -0.194652 -1.49587e-21)
(1.60465 -0.066765 1.37385e-20)
(1.28602 -0.391732 4.04244e-19)
(2.19037 0.83973 0)
(1.96309 0.0907069 -9.8466e-20)
(1.00847 -0.404504 -8.6178e-19)
(1.88486 0.283848 -1.54125e-21)
(1.24108 -0.601901 0)
(2.26953 -0.134316 -1.7475e-19)
(0.990868 -0.4792 2.72349e-19)
(2.25725 -0.713879 -1.51293e-19)
(1.67946 -0.696271 -3.59282e-19)
(2.35588 0.0854819 -4.50203e-20)
(2.37148 -0.366644 1.01647e-20)
(0.922351 -0.455562 5.40802e-19)
(2.14581 -0.0748868 2.48941e-19)
(1.81916 -0.353497 0)
(1.74462 -0.797561 -4.20723e-19)
(1.63288 -0.68778 -1.08267e-18)
(2.59217 -0.240209 2.92624e-20)
(1.97908 0.0522094 4.16906e-20)
(1.83263 1.17942 0)
(1.54454 -0.00733247 0)
(2.02749 -0.0538792 -1.97174e-19)
(0.492507 0.329645 3.27118e-19)
(2.76674 1.388 0)
(2.28295 -0.0912009 1.76671e-19)
(1.48203 -0.659948 -4.18175e-21)
(0.866599 0.401765 -6.23778e-19)
(0.83087 -0.351478 -4.60066e-19)
(-2.3044 0.854589 8.40716e-19)
(1.81269 -0.0220158 3.78845e-20)
(-2.1824 0.665986 2.67912e-18)
(2.85663 -0.734869 -3.91966e-19)
(2.24469 0.00633704 0)
(1.36825 -0.101954 -1.08302e-19)
(1.49446 -0.432557 0)
(1.95434 0.113141 -4.80265e-19)
(1.97964 -0.451348 0)
(2.12022 -0.0135614 -1.71421e-19)
(1.59878 0.25427 1.57281e-20)
(2.79289 -0.146337 -5.27076e-20)
(1.06803 -0.407238 4.87309e-19)
(1.94613 0.0969957 -3.8576e-19)
(1.98874 0.131097 -4.18111e-19)
(1.93031 -0.831677 0)
(-0.989921 1.97852 0)
(1.14406 -0.450839 -4.81162e-19)
(2.73763 -0.188364 0)
(3.44952 0.572998 -8.59259e-19)
(1.43778 -0.303365 0)
(1.49696 -0.444992 9.38681e-21)
(-0.97486 0.256319 2.54764e-19)
(1.71619 -0.537152 7.55805e-19)
(0.598227 -0.292576 -3.69082e-20)
(2.30785 -0.556744 0)
(1.59442 0.282314 -1.13359e-20)
(1.79768 0.0209504 -2.53153e-19)
(-0.451435 0.0388145 -1.50494e-20)
(1.92823 0.027698 -2.20516e-19)
(2.65451 -0.00432547 -8.32277e-20)
(2.68356 -0.0519665 -3.61508e-20)
(3.19142 1.02939 3.41877e-19)
(2.50612 0.464302 -6.16352e-20)
(-1.65057 1.79317 -6.2495e-19)
(1.64968 -0.472705 0)
(-0.0246249 -0.0844978 -6.50903e-20)
(1.98107 0.13354 -1.70489e-19)
(2.51548 -0.255934 0)
(1.94968 0.0641994 1.45689e-19)
(1.10221 -0.530324 -3.64545e-19)
(1.62862 1.33301 1.54389e-19)
(3.77377 0.346801 0)
(1.32879 -0.626584 1.31002e-19)
(0.822631 0.922309 0)
(2.16478 0.0463812 3.89396e-20)
(2.29537 -0.223963 -1.4712e-19)
(-0.134714 -0.00201091 1.22265e-18)
(1.0061 -0.011574 0)
(1.55299 0.313467 2.35636e-19)
(2.00057 0.0751752 1.55643e-19)
(0.279842 -0.29431 0)
(1.69671 0.0135804 0)
(1.99855 -0.168072 0)
(-0.752258 0.356474 6.02432e-19)
(0.281614 -0.149053 -4.06891e-20)
(2.68911 -0.0539519 0)
(2.02473 -0.0120757 0)
(1.44637 -0.697255 7.40737e-20)
(-1.78383 1.74021 0)
(2.42074 0.487982 7.88652e-21)
(2.91276 1.29288 1.8657e-19)
(2.05081 0.240052 7.13323e-21)
(1.85351 0.409857 -5.06335e-21)
(0.865469 0.476654 7.17462e-19)
(2.94298 1.46304 -1.97071e-19)
(2.37987 -0.262805 8.04638e-21)
(2.02534 -0.0553564 1.68261e-19)
(1.5365 -0.140631 -2.64035e-19)
(1.68092 -0.329687 4.41255e-21)
(2.00733 0.0253901 0)
(-2.19288 0.585321 -2.55902e-18)
(0.495084 -0.283367 0)
(1.09773 -0.593993 6.24749e-20)
(1.85601 -0.784064 0)
(2.22013 -0.201489 0)
(1.24342 -0.595444 -3.09179e-19)
(2.06065 0.030218 -9.82897e-21)
(-0.299499 0.446649 -1.49432e-18)
(2.0475 0.0136795 9.74003e-21)
(1.77 -0.688143 4.13154e-19)
(3.06043 1.22283 2.16916e-19)
(0.745375 -0.192301 1.34151e-18)
(2.38822 0.134081 1.77444e-20)
(2.03161 -0.813485 1.69943e-19)
(1.96746 0.067281 -2.65029e-19)
(2.4843 0.565717 0)
(1.78497 -0.0970512 -5.04794e-19)
(1.79395 -0.445801 4.20793e-19)
(2.00993 0.127023 -5.92656e-19)
(-0.234124 -0.148122 -4.23953e-20)
(1.55237 1.33523 -1.45369e-19)
(2.89085 1.33889 2.81761e-19)
(3.27226 -0.404021 0)
(2.07404 -0.270216 0)
(0.432434 0.430653 -5.81933e-19)
(2.1297 -0.0994421 1.05114e-19)
(-0.505088 -0.420538 0)
(2.25786 -0.136991 -1.52961e-19)
(1.98187 0.0263424 -3.21581e-19)
(-0.169282 -0.36708 -2.84792e-20)
(-0.318357 -0.722096 2.41746e-19)
(2.65105 -0.0920647 -5.30609e-21)
(0.807309 -0.986188 3.55025e-20)
(2.34628 -0.371941 -3.56821e-19)
(1.92215 -0.45038 2.96729e-19)
(3.41082 1.07687 7.88183e-19)
(1.47901 -0.603074 3.83994e-19)
(1.88737 0.244995 -3.37612e-22)
(0.967681 0.32215 5.24486e-19)
(2.10218 2.07195 0)
(1.65795 -0.451455 2.41509e-19)
(-1.08712 -0.485342 0)
(-0.303168 0.634028 -2.55047e-18)
(2.71625 -0.955708 0)
(-1.13992 0.396948 -8.11906e-19)
(1.57384 -0.664153 -5.44697e-19)
(1.62333 0.761385 -3.12002e-19)
(1.99942 -0.824718 0)
(0.92888 -1.0335 0)
(3.12979 -0.202478 0)
(1.99015 0.0925266 1.2382e-19)
(1.7248 0.845503 -1.35653e-18)
(-0.0456727 0.316143 1.18445e-18)
(1.5371 -0.281027 -7.81535e-21)
(3.48955 1.10321 -8.93801e-19)
(2.01329 0.266026 0)
(1.17013 2.10563 2.30592e-19)
(2.51785 1.3628 1.13012e-19)
(0.420949 1.06909 -2.36955e-19)
(1.48877 -0.69635 3.59861e-19)
(2.56166 -0.205378 5.27034e-21)
(1.11835 -0.544386 6.19175e-19)
(2.29945 0.51659 0)
(2.27761 -0.226137 1.40232e-19)
(1.02072 -0.310515 9.10692e-20)
(1.85258 -0.0178573 3.10767e-20)
(3.48341 0.744152 -4.65189e-19)
(1.8822 -0.809875 0)
(2.55044 0.74289 0)
(3.0314 0.41362 0)
(0.503617 -0.24797 0)
(1.88261 0.019939 0)
(1.3656 -0.511304 1.63264e-19)
(3.77061 1.00658 6.65163e-19)
(1.39946 -0.58063 4.54442e-19)
(2.06325 0.034258 2.61902e-19)
(-1.35634 -0.244519 0)
(1.99597 -0.836253 3.05382e-21)
(-0.462143 0.149454 0)
(-0.992119 -0.856403 -5.84263e-19)
(-0.49729 0.281603 6.22276e-19)
(3.96527 0.517028 -3.55765e-19)
(1.95788 0.131384 2.95707e-19)
(2.04596 0.280111 -9.0299e-20)
(4.01089 0.17461 -5.11443e-19)
(2.48938 0.010849 0)
(0.416664 -0.107172 1.05705e-18)
(1.99042 0.0316583 0)
(1.52899 0.949635 1.7527e-20)
(2.47852 -0.158745 0)
(2.06876 0.238484 -1.17261e-19)
(2.06559 -0.0920129 0)
(0.862024 -0.311235 -3.24719e-19)
(-2.35573 1.5498 2.13504e-18)
(2.3426 -0.190156 -1.46907e-19)
(1.36091 0.403837 4.71815e-19)
(-1.19142 0.561726 -1.25872e-18)
(2.11316 -0.789477 0)
(0.971608 -0.168802 -1.24291e-18)
(1.72304 0.372198 -2.45009e-21)
(3.52646 0.58222 -1.13154e-18)
(1.86358 0.0133775 4.98312e-21)
(4.22404 -0.427224 2.3101e-18)
(3.09047 0.840885 0)
(1.71125 -0.771156 -8.96421e-20)
(1.39914 -0.638874 0)
(2.50951 -0.246159 1.55071e-20)
(0.387272 -0.0790834 7.89494e-20)
(-1.73204 -0.0756583 0)
(2.42456 0.440003 0)
(1.4139 -1.57732 -2.35966e-19)
(2.51254 0.683703 0)
(1.73186 1.88422 8.184e-20)
(2.98056 1.00169 -3.4103e-19)
(0.386469 -0.118475 -8.30352e-19)
(-0.256831 -0.535322 -7.27496e-20)
(1.97819 0.0335942 -6.42949e-21)
(0.591642 -0.45812 1.44032e-20)
(-1.79775 1.16122 -1.31639e-18)
(1.90233 -0.0194041 5.38881e-19)
(-0.258363 -0.228396 3.24129e-20)
(-0.969688 0.314735 0)
(2.47182 0.142547 -9.46005e-20)
(1.18676 -1.6097 2.6733e-19)
(0.297809 0.305864 8.47706e-20)
(3.46807 0.656991 9.06499e-19)
(2.8571 1.71243 0)
(1.77936 -0.476714 -4.22654e-19)
(1.25474 -0.550174 -8.55281e-21)
(2.46835 0.809652 -9.91074e-20)
(2.62929 -0.0507408 -4.01804e-19)
(-0.0567829 -1.14871 7.25004e-20)
(-1.9557 0.348188 1.80483e-18)
(1.41787 -0.569168 -1.09574e-19)
(-0.489773 -0.557161 2.8624e-20)
(2.63233 -0.162922 -3.61816e-19)
(-0.350026 -0.86329 -8.1286e-20)
(1.97936 -0.730595 0)
(1.8681 -0.138063 -4.94185e-19)
(-0.962388 -0.219805 0)
(0.526167 -0.651577 2.37713e-20)
(-0.520208 -0.823583 2.37614e-19)
(-0.0169884 -0.299361 9.66737e-19)
(1.82197 0.396293 3.56053e-23)
(-2.07777 0.918319 1.13008e-19)
(-0.488979 -0.415804 0)
(2.13593 -0.789242 4.6362e-19)
(2.09915 -0.829265 1.24975e-19)
(-0.831705 -0.331894 -8.2207e-19)
(1.77121 0.561914 0)
(1.68978 0.537269 0)
(0.122594 0.434527 0)
(1.27327 -0.749243 -4.70978e-20)
(1.92076 -0.0470602 -4.78767e-19)
(1.32634 0.18828 0)
(2.03967 -1.81913 0)
(2.29721 0.206454 -8.95374e-21)
(2.73443 -2.17513 -8.42172e-20)
(2.1456 0.35234 -3.44705e-19)
(1.56773 -0.361399 3.29559e-20)
(1.72043 0.0374724 4.39925e-20)
(1.90665 0.00140527 -4.33482e-20)
(1.69683 0.398435 1.39193e-20)
(1.9236 0.577665 -2.7849e-20)
(1.86885 1.27151 0)
(-1.80895 1.22605 -1.84602e-20)
(-0.0113472 0.247701 0)
(1.00098 0.209608 0)
(2.95326 0.238025 -5.15575e-19)
(-1.58521 -0.118092 0)
(2.50158 0.397102 0)
(1.87836 -0.0878723 7.60242e-19)
(1.81245 -0.800562 0)
(2.05323 0.222454 4.27464e-19)
(3.33384 0.71872 4.62161e-19)
(3.25658 0.685416 1.6082e-19)
(1.90641 0.270153 2.24818e-22)
(1.06452 1.44529 2.67301e-19)
(2.14586 -0.826081 5.78254e-21)
(1.89541 -0.758411 -1.17421e-20)
(1.1194 -0.427999 4.69889e-19)
(0.314601 -0.465561 0)
(0.909101 -0.450096 0)
(-2.08263 0.695738 -1.4514e-18)
(-2.29737 1.52661 -2.92413e-18)
(0.890968 -0.907628 0)
(0.173641 -0.409494 -3.9874e-21)
(-1.10646 0.894386 0)
(0.494762 -0.111358 1.1428e-18)
(1.08073 -0.503357 -6.09835e-19)
(3.34143 0.495634 -2.10264e-20)
(3.24141 0.807563 3.67967e-19)
(1.16811 -0.3852 9.51402e-20)
(2.62108 -0.139583 1.83486e-19)
(2.3583 0.940191 0)
(2.46594 0.865154 0)
(1.05656 0.0800326 0)
(0.00674529 -0.384696 -6.06007e-19)
(1.36522 -0.51814 0)
(2.29279 0.711938 0)
(1.81937 0.0609966 0)
(2.42086 -0.403699 -7.94353e-20)
(0.102232 0.283434 3.58098e-19)
(1.98111 -0.7624 -2.37417e-19)
(1.26431 -0.743165 1.31414e-19)
(1.462 -0.322087 0)
(-1.89636 -0.216286 0)
(1.94424 -0.582722 -4.03697e-19)
(1.56968 0.593947 7.03762e-19)
(-2.38075 1.0353 -9.46609e-19)
(2.47298 0.468164 2.13841e-21)
(1.70362 -0.430998 4.43216e-19)
(0.948973 0.491319 -1.12879e-18)
(-2.30443 1.70239 0)
(1.17431 1.40042 -6.17755e-19)
(0.299639 0.48209 -6.97421e-19)
(3.2833 0.53622 0)
(2.23802 -0.0563285 0)
(1.79477 -0.0791366 0)
(2.02585 0.0522063 -4.68348e-19)
(1.43046 0.309456 -4.84143e-19)
(1.6503 0.169795 0)
(2.79036 1.43311 1.551e-18)
(1.74723 -0.783189 4.19552e-19)
(2.43691 -0.356821 8.95864e-20)
(-1.58772 0.47472 4.19387e-19)
(2.03844 -0.270465 0)
(2.49537 0.0689198 6.69893e-20)
(1.75467 -0.394562 0)
(1.07628 -1.68022 -2.66582e-19)
(1.68873 -0.766828 0)
(2.08797 -0.754507 5.38009e-19)
(1.42017 -0.298404 -4.01723e-23)
(2.06346 0.21116 -7.85438e-21)
(2.46388 -0.382197 0)
(1.77255 -0.758507 0)
(1.55146 -0.651279 -5.66788e-19)
(2.35828 0.42967 -8.71197e-21)
(-0.66742 -1.06904 2.51022e-19)
(0.834586 -0.401472 4.76636e-19)
(1.89338 -0.063896 0)
(1.53195 0.263474 -7.38004e-19)
(2.34513 0.0166903 -4.44774e-20)
(1.28261 -0.858857 -5.8601e-20)
(2.06887 0.292788 -9.08186e-21)
(2.10893 0.369339 0)
(1.13657 -0.31467 6.68197e-19)
(0.93667 0.262391 -7.23171e-19)
(3.67227 0.768224 1.02113e-20)
(1.77508 0.253889 -8.39511e-19)
(-1.41309 0.353716 3.26123e-19)
(-0.469267 -0.386702 -1.91415e-18)
(1.49111 -0.291653 -1.07034e-19)
(2.05654 -0.0189181 -4.41899e-20)
(0.977802 0.43336 1.33414e-18)
(-0.429907 0.342526 5.14967e-21)
(-1.4972 0.191112 6.25341e-19)
(-1.01395 -0.832307 6.07395e-19)
(1.74991 -0.0327863 5.23132e-20)
(2.37844 -0.229119 0)
(1.81919 0.582184 1.5017e-18)
(1.11996 -0.545855 2.80879e-19)
(1.62076 -0.19076 2.62463e-19)
(-0.385316 0.254428 0)
(1.5919 -0.36804 -7.05475e-20)
(1.9499 0.0374701 4.89698e-22)
(2.09345 0.0676331 0)
(-1.64927 1.59954 8.7733e-19)
(0.409563 -2.08794 1.42353e-19)
(1.25742 -0.338979 0)
(0.998864 -0.363362 0)
(1.48475 -0.779038 -7.16631e-20)
(1.27676 -1.07746 -2.59816e-20)
(2.92073 0.272091 1.85194e-19)
(-0.0993405 -0.293514 0)
(1.96637 -0.010552 -4.33813e-19)
(2.30492 -0.786088 -1.19204e-19)
(2.15432 -0.732904 3.22781e-20)
(1.17146 -0.451044 5.91665e-19)
(-1.596 0.103857 -6.40467e-19)
(-1.2391 -0.513199 4.98494e-19)
(3.71838 0.713138 -8.84504e-21)
(2.83504 -2.16167 0)
(2.20298 0.989236 -1.24822e-18)
(1.54868 -0.60344 2.82773e-19)
(2.06782 2.11782 1.82689e-19)
(0.775297 0.65619 0)
(1.11633 -0.200604 -5.88345e-19)
(1.17623 -0.499686 -7.18331e-19)
(-1.98488 0.510339 9.55355e-19)
(0.293998 0.0284904 -1.13956e-18)
(2.2957 1.53621 0)
(-0.348102 0.110393 -7.508e-19)
(2.35542 0.616718 0)
(-0.453125 0.57887 -8.05059e-19)
(-0.259311 0.0174981 1.47976e-18)
(-0.86942 1.99803 0)
(-1.77001 0.0692132 3.21016e-19)
(1.55494 -0.0983675 -1.07891e-19)
(0.310431 -0.150977 4.60797e-19)
(1.64891 -0.638059 5.17707e-19)
(-2.22979 0.885351 -2.56196e-18)
(1.14534 -0.525331 0)
(2.00725 0.0637179 1.48557e-19)
(0.402363 -0.17256 0)
(2.2507 0.228865 -3.01252e-21)
(-0.552979 -0.350208 -1.33025e-18)
(0.514201 -0.180404 3.09255e-19)
(2.11743 0.397294 0)
(1.85671 -0.74447 -4.01673e-19)
(3.01871 -0.0876595 1.61086e-19)
(-1.53333 -0.25038 1.36161e-18)
(0.661765 -2.13677 0)
(-1.50299 -0.321589 -1.21157e-18)
(3.50946 0.600912 -1.01989e-18)
(1.57279 0.25664 9.45302e-19)
(2.03224 -0.601954 0)
(2.39443 -0.164614 3.68426e-19)
(-1.2178 -0.306348 1.04756e-18)
(-0.192969 0.588681 -1.70763e-19)
(2.16396 -0.57245 1.65193e-19)
(-1.21722 0.129623 0)
(1.80053 -0.367127 -4.54591e-20)
(1.95784 0.171736 2.53718e-22)
(2.52558 -0.378817 1.43675e-19)
(2.3052 0.00184603 0)
(-1.73213 -0.063432 8.99779e-19)
(1.63352 -0.436323 -5.82595e-22)
(1.22896 -0.349181 7.34956e-20)
(1.77057 0.470669 0)
(2.00851 -0.779635 -1.89454e-19)
(-2.06524 0.580129 1.79334e-18)
(1.72524 -0.3956 -5.54032e-19)
(-0.161881 0.311667 0)
(1.50553 -0.236444 -5.41055e-20)
(2.03597 -0.758158 1.5354e-19)
(-1.60441 0.304387 -6.92266e-19)
(1.22009 -0.496752 0)
(0.446759 -0.265868 1.64549e-18)
(1.50717 -0.870648 0)
(-2.14191 0.716384 1.78143e-18)
(1.47281 -1.30433 0)
(1.87023 -0.0925196 -2.79948e-19)
(2.16151 -0.226162 -2.9236e-19)
(2.87789 1.38947 -7.74606e-19)
(1.44549 -0.631953 0)
(1.95256 -0.837038 -2.96265e-19)
(1.99305 0.0364015 0)
(2.39397 0.462553 0)
(2.03187 -0.839836 1.01309e-19)
(-1.90672 -0.0345752 9.21633e-19)
(0.496922 0.0118773 1.93796e-19)
(2.09283 -0.552207 -9.72147e-20)
(1.64707 0.338891 3.08334e-19)
(0.60499 -0.520773 3.49846e-20)
(2.08839 0.428026 1.60484e-19)
(-2.21853 1.84742 -2.17471e-19)
(2.38113 -1.47682 0)
(2.49522 0.261487 0)
(-2.47931 1.63027 0)
(0.249574 -1.21114 2.17127e-19)
(1.13455 -0.383244 -4.14996e-19)
(1.45359 0.147966 0)
(-0.733668 0.0243267 3.98491e-19)
(2.29566 -0.151312 -2.05594e-19)
(-1.11494 0.136707 -2.42384e-19)
(1.34899 -0.484026 -1.35996e-19)
(2.12025 -0.846028 0)
(0.339533 -0.0392909 1.42255e-18)
(-1.27013 1.26147 -1.89448e-18)
(-0.817094 2.24074 0)
(-0.650987 -0.0968061 -9.4695e-19)
(1.84382 0.0356194 -8.15805e-21)
(2.68526 -0.129813 9.24626e-20)
(1.93156 0.0519106 2.82453e-19)
(2.84885 1.10171 -3.61087e-19)
(2.43098 0.196572 8.06849e-21)
(-1.06624 0.00689124 0)
(1.91255 -0.753481 0)
(-0.562206 0.112989 2.99157e-19)
(0.0717771 0.323481 0)
(1.58868 -0.322938 -7.13326e-20)
(2.12699 -0.762003 -2.92521e-19)
(0.9564 -0.450616 4.99705e-19)
(2.25676 -0.152608 -1.28149e-19)
(1.73442 0.381679 -3.059e-19)
(1.50529 -0.592547 -2.77399e-19)
(1.59842 -0.620698 -5.17977e-19)
(1.24444 -0.939073 0)
(1.70206 -0.652099 4.96016e-19)
(1.94252 -0.0727876 0)
(2.50521 -0.409976 -6.04866e-21)
(1.99888 1.34221 1.56024e-20)
(1.16941 -0.220784 6.4625e-20)
(2.2278 -0.398149 -2.58532e-19)
(0.540356 -0.154026 -9.54135e-19)
(-1.88583 1.43808 0)
(1.26086 -2.15291 -1.42432e-19)
(-0.133275 -1.16985 -1.85763e-18)
(2.1076 0.582438 -1.77464e-19)
(1.80409 -0.72607 4.66415e-19)
(2.14585 0.0318937 -4.59641e-21)
(0.246868 0.0983189 3.8488e-19)
(1.75657 -0.741377 -1.29492e-19)
(0.249012 0.191736 0)
(-1.03503 0.00863428 6.66792e-19)
(1.76277 -0.343843 2.9299e-19)
(1.99707 0.0129101 -1.96606e-22)
(1.14678 -0.502577 1.05381e-18)
(-0.349201 -0.225187 -9.81477e-21)
(1.72961 0.660439 0)
(0.210318 -1.05357 -7.04694e-20)
(-1.60318 -0.287359 -1.11256e-19)
(1.0471 -0.301562 -7.91979e-19)
(0.501754 -1.13944 6.33117e-20)
(2.68436 0.980314 -3.5772e-19)
(2.13411 0.508928 6.31211e-21)
(0.922077 -0.366427 3.58475e-19)
(1.7803 -0.328833 0)
(2.59288 0.104209 -1.63257e-19)
(2.40031 -0.0560652 -5.70937e-21)
(3.06598 0.928396 -3.71749e-19)
(-0.579592 0.0787462 0)
(3.55139 1.03633 3.73136e-20)
(-0.236056 0.736651 7.70996e-19)
(1.58555 -0.675347 1.10093e-18)
(-0.325328 -0.553266 1.11134e-20)
(0.943501 1.09498 -6.32444e-19)
(0.155059 0.148934 2.77594e-18)
(1.96771 -0.743922 4.78714e-19)
(2.12241 0.0014013 -4.76347e-21)
(0.473958 -0.392076 -6.5243e-21)
(2.7559 -0.0437993 4.51948e-20)
(-0.117936 0.0839665 0)
(1.99688 0.0254654 0)
(2.404 0.498768 0)
(1.75116 -0.669995 -4.3359e-19)
(1.58576 -1.37628 2.32325e-19)
(-0.742747 -0.348229 0)
(1.18856 -0.345601 -1.71814e-19)
(-0.858665 1.95049 0)
(3.9151 0.0485598 0)
(-1.10414 -0.200612 0)
(2.01857 -0.00344064 0)
(0.502767 -0.208964 -5.12214e-19)
(-2.06769 1.97176 0)
(3.98799 -0.979729 1.32847e-18)
(1.43181 -0.0156007 0)
(1.9165 0.156347 0)
(1.8962 0.251763 1.93012e-21)
(-2.22443 1.63443 0)
(2.82 -1.96189 0)
(-0.348873 -0.425001 0)
(2.51521 0.0461478 2.17676e-20)
(2.37423 -0.638612 0)
(2.11912 -0.828064 -1.35645e-20)
(1.55099 -0.443938 2.82937e-21)
(-0.0784911 0.188945 -4.98072e-19)
(1.98716 0.0683146 6.81736e-19)
(-0.156717 -0.03581 1.27661e-20)
(1.05465 0.953964 -5.98586e-19)
(1.46664 0.749443 0)
(2.38344 -0.358038 9.37097e-21)
(1.62311 -0.155889 -2.56247e-19)
(1.55765 1.75639 1.47044e-19)
(1.88126 0.387549 4.29324e-19)
(0.738116 -0.240999 -7.51844e-19)
(1.47942 -0.64103 -4.29105e-19)
(3.29658 -1.3521 2.28322e-19)
(0.980428 -2.38236 0)
(2.268 -0.4998 3.50262e-20)
(1.47932 -2.45266 1.67843e-19)
(2.68239 0.265276 -8.65511e-20)
(-2.34003 1.02557 0)
(1.83662 0.0222133 -3.14951e-19)
(3.02269 0.832748 -1.16529e-18)
(1.32102 -0.531977 5.48032e-19)
(1.19983 -0.545783 -6.60069e-19)
(1.62942 -0.752505 0)
(1.73723 -0.763778 0)
(3.56334 -1.58712 1.22532e-18)
(2.27876 -0.397091 -1.66431e-19)
(3.38618 0.316978 -6.15306e-19)
(1.76389 -0.00293691 3.15132e-20)
(1.17078 -0.313934 -1.59416e-19)
(1.67325 -0.473836 4.70978e-19)
(2.50191 0.296633 0)
(2.39244 0.30418 2.27901e-20)
(-0.850248 1.18935 -2.23753e-18)
(2.39388 -2.46319 1.16645e-18)
(1.00229 -0.20317 1.77866e-20)
(-0.657603 -0.422612 7.83215e-19)
(3.34664 0.357793 5.13861e-19)
(2.54222 0.722219 7.78259e-20)
(2.40101 0.596422 0)
(-0.408027 -1.26587 0)
(2.18386 -0.83225 -4.15129e-21)
(1.12453 -0.227418 0)
(1.84065 -0.356696 1.97062e-19)
(1.62472 0.298504 5.3371e-19)
(1.68772 0.501298 -1.55804e-19)
(1.56644 -0.625803 1.12222e-18)
(1.95511 0.206425 -1.81621e-22)
(1.55779 0.000247477 0)
(1.80124 -0.00181182 -7.24901e-21)
(-0.958317 -0.351082 -8.88908e-19)
(2.15874 0.254254 0)
(2.60699 -0.407121 0)
(1.88477 -0.762152 1.7415e-19)
(1.93292 0.594399 2.34457e-19)
(1.06177 -0.128905 0)
(2.94606 -1.08041 3.69654e-20)
(2.63906 -0.0117332 1.8958e-19)
(2.33704 0.330076 2.3785e-20)
(1.78198 0.486093 4.60468e-19)
(-0.270644 -0.631706 -1.30681e-19)
(1.46194 -0.511228 0)
(0.579158 -0.103303 -2.39163e-18)
(0.492588 -0.205648 1.12219e-18)
(1.96562 0.0487325 1.76041e-20)
(0.155951 0.147719 -9.7155e-19)
(1.77544 -0.735506 3.28999e-20)
(2.65633 0.309986 2.30028e-19)
(2.30664 -1.59959 0)
(1.93839 0.186641 2.20973e-21)
(1.81805 -0.0101185 9.80833e-20)
(2.1383 -0.017422 -1.76927e-19)
(2.1866 0.562253 -1.30527e-19)
(2.17399 -0.792541 0)
(-0.188503 -0.460579 0)
(2.50118 0.0253934 0)
(2.32528 0.412273 -6.0545e-20)
(1.02582 -0.481152 7.84413e-19)
(2.44278 1.81667 -9.64211e-20)
(1.43585 -0.0861582 0)
(-2.52904 1.47851 -5.148e-19)
(-0.0292064 -1.26719 1.67109e-19)
(-1.92713 1.59437 0)
(1.93885 0.251184 -1.41841e-19)
(1.62119 0.302979 -1.78058e-19)
(3.03562 -0.268757 -9.82961e-20)
(2.05469 0.267508 -5.33243e-21)
(0.636494 -0.199957 0)
(2.18936 0.181032 -1.65251e-19)
(2.00802 -0.434417 0)
(2.04476 -0.263549 9.218e-21)
(0.971863 0.13012 0)
(2.27165 0.847516 8.48804e-20)
(1.66987 -0.659676 -5.06792e-19)
(2.45536 0.769249 0)
(1.81791 -0.0507286 -4.86174e-19)
(2.07912 0.326348 8.18943e-21)
(1.80975 -0.449147 0)
(1.1015 -0.522258 0)
(0.457034 0.271956 -9.40956e-20)
(2.49428 -0.215601 -1.45941e-20)
(1.00768 -2.01939 -1.50477e-19)
(0.476325 -0.340501 -4.96745e-20)
(2.62724 -0.0493822 1.06975e-21)
(1.63155 0.0332865 7.55434e-19)
(1.78477 0.418448 -1.98524e-21)
(2.0316 0.553542 0)