/*--------------------------------*- C++ -*----------------------------------*\
| =========                 |                                                 |
| \\      /  F ield         | OpenFOAM: The Open Source CFD Toolbox           |
|  \\    /   O peration     | Version:  2306                                  |
|   \\  /    A nd           | Website:  www.openfoam.com                      |
|    \\/     M anipulation  |                                                 |
\*---------------------------------------------------------------------------*/
FoamFile
{
    version     2.0;
    format      ascii;
    arch        "LSB;label=32;scalar=64";
    class       volScalarField;
    location    "4";
    object      p;
}
// * * * * * * * * * * * * * * * * * * * * * * * * * * * * * * * * * * * * * //

dimensions      [0 2 -2 0 0 0 0];

internalField   nonuniform List<scalar> 
13486
(
47.9804
45.5221
9.11189
-202.998
-17.835
6.88096
-14.3557
-0.733627
18.7732
33.0965
-75.3075
13.8276
49.8048
11.8606
-3.19076
33.6935
-73.6088
21.655
13.7956
43.9102
-217.415
48.927
44.8258
-71.4202
29.3317
-67.712
-78.4498
-16.5638
2.44942
-23.6428
-85.7907
12.5214
-34.5218
-10.0519
-0.533785
-11.5755
-58.4738
26.8131
-70.7978
23.1143
-78.3762
52.9271
5.79803
29.1493
28.9204
13.6892
-143.526
2.57769
-68.99
-12.466
33.6227
-1.39936
15.6969
28.7992
8.38543
-15.5204
14.5847
-11.594
-34.6206
-12.8628
-92.1187
-14.1165
-70.1086
-205.986
-261.13
-39.4747
-165.584
52.3883
17.9794
46.1974
-163.096
14.35
27.626
-56.2418
-15.8233
13.6306
-18.7657
-5.8187
-124.438
-15.1717
-7.52308
47.0158
-76.92
8.99966
47.9442
31.2257
-8.74104
32.9347
38.3991
38.0385
17.4793
-6.44944
43.2122
44.5976
16.8383
0.695347
-79.7877
-155
23.1919
-77.119
-9.97295
13.1776
-162.094
-8.03421
41.0117
-79.5606
34.4378
-62.0226
-130.01
-18.4095
9.14275
9.90342
28.7863
13.5779
62.9355
11.1556
30.1531
-1.97711
27.9332
-129.134
17.1004
-84.3283
20.8841
-54.1802
9.74724
-0.708575
10.331
18.8791
-0.302916
-204.657
3.04145
-147.264
-58.2783
-45.7096
34.0146
36.7926
65.492
-16.4679
-171.809
4.08581
-25.4354
14.3211
14.365
-16.755
8.68114
-29.4719
2.21434
65.9331
-13.9271
1.89571
27.51
-15.4609
-5.83886
48.4827
21.2746
8.71866
-31.3951
-34.7526
19.0982
-8.17788
-6.39582
19.1503
22.3146
52.1096
-3.70629
5.46578
15.7327
76.0992
2.01135
-45.6612
-71.8726
21.2542
30.3753
9.35971
-10.366
-226.828
10.6193
-28.7045
34.1713
14.3913
18.8207
13.2536
11.0383
-73.8477
7.43378
-15.8921
0.701289
-15.1343
-97.4234
16.0573
-89.6803
8.75456
-10.5133
57.748
-9.35985
-72.2491
-225.421
-6.77853
35.0997
7.92136
-91.6873
18.5159
26.7545
-46.8065
-6.33528
-3.87488
17.0404
33.0213
-17.5768
7.83203
-14.9044
-98.0562
43.3884
34.5152
7.04941
-23.7492
-22.6658
38.0675
38.7649
-30.993
-74.6221
-13.9875
5.68285
-7.03169
13.7453
42.0758
2.345
-202.281
-10.3708
-11.5208
18.6955
-192.273
-27.3494
54.9859
-183.933
38.4559
-11.376
9.09349
39.2774
13.007
-36.9454
30.157
11.4934
34.3707
-113.812
39.1778
13.9678
-48.8224
-51.3841
30.8529
-137.318
63.8211
7.92978
-40.5761
-12.2443
-219.689
13.4929
-24.0482
-28.2189
-37.3145
41.5523
-133.901
-1.80923
-218.156
-27.541
-74.7613
-19.3769
-124.383
27.7481
13.088
47.8074
34.6211
-23.175
13.5713
42.2123
-44.1612
-17.9955
-56.7095
-20.2879
3.8158
-61.3799
16.8589
35.4336
-59.8986
-90.9099
-86.4958
-23.7177
-2.40758
14.0079
28.2005
-185.28
-92.9765
14.8808
33.7376
-8.80566
-14.3594
-6.98477
13.0258
35.3552
-46.1975
23.2059
17.1505
2.49038
11.9452
-126.727
-48.878
-179.543
14.0175
-10.3551
-68.8842
-29.5916
-207.908
15.7592
12.1319
-14.6342
37.2005
-85.7073
38.6829
33.6878
-18.2434
-49.5052
-166.128
34.105
45.4303
69.2296
16.5501
1.50063
16.249
9.64248
-0.562443
33.1091
-8.95874
18.6836
53.3797
-19.0761
13.9002
64.2796
-15.444
29.4612
-154.799
-11.5003
45.2072
-2.62112
10.5193
-86.3837
2.06881
11.78
60.382
-32.1
-130.178
14.5063
11.3785
13.2003
-79.9352
35.1279
-3.12206
-49.0135
10.4564
-15.9426
-82.5509
14.0049
17.3873
40.4747
34.7394
-25.1788
-1.35479
-12.8366
-168.973
44.6446
11.2053
5.3352
12.4021
13.2077
-133.605
10.8531
33.3062
33.9242
-233.255
-11.4004
-38.5641
26.7438
-15.3073
53.3321
49.0202
-165.3
-13.6101
13.8409
29.1341
-62.2929
-52.3166
42.1504
-23.7904
24.4384
41.2566
55.8566
-125.362
-183.56
-130.02
-66.9379
-24.9561
-64.7539
26.4598
22.367
-270.977
-13.7988
4.08509
44.1603
-28.7208
13.6777
44.5372
27.6105
6.05187
-23.7222
35.6618
33.8657
53.835
-71.7142
-26.7556
-89.7877
12.78
34.2948
18.6922
60.7634
30.3517
-1.29301
-15.6132
18.6513
35.6401
-78.5235
17.0936
48.997
22.6532
24.0333
12.7637
-30.7828
-39.6234
53.8968
-143.189
9.59223
51.5386
-118.793
-22.8662
-43.2509
-24.0001
-16.402
31.0592
52.9833
49.5196
-38.7021
-130.163
-89.0708
30.0129
39.1261
-12.9424
-2.44996
34.1113
-106.827
-235.305
-55.8166
-34.4244
17.0344
36.9606
-11.3102
17.3131
-239.929
36.7081
2.51444
70.3267
42.606
24.9729
-6.09682
-16.0394
-0.102141
63.6269
6.07863
-161.72
-2.05511
14.062
-87.1589
12.7007
30.8576
-17.2037
2.67334
44.7999
-27.4174
-65.981
29.4915
-70.8259
75.3635
29.6601
33.7085
36.2571
-217.608
10.4288
62.8615
-31.4428
44.811
-45.9992
20.037
-132.879
-16.0096
6.14552
-83.1159
39.4159
10.137
-144.172
0.931106
5.65443
55.8488
30.9577
-6.91651
11.5637
11.8671
3.66011
-31.44
33.4541
-78.1737
52.8348
-24.4031
38.1925
53.156
-15.2093
-12.9398
14.8847
-139.786
-119.139
13.7628
-22.7853
21.7481
43.2993
-70.2289
-35.3438
-72.7858
1.00946
38.6329
19.7284
-77.285
-162.572
25.2792
-41.1353
1.93002
-261.337
-2.48075
11.7196
52.6243
-8.75362
40.5284
-33.7294
-127.252
-8.06329
23.0801
-82.8344
31.3603
9.39118
-99.2301
10.0096
27.1451
-40.8072
-72.2524
33.7713
40.8398
23.6025
48.8236
9.92164
30.1029
18.7244
33.8879
9.9691
38.6421
-79.9385
27.2264
9.34357
-2.49528
-43.6333
33.3398
-111.892
13.3081
53.0679
47.9956
-185.425
-12.1884
22.5715
15.0589
23.7414
36.1879
-58.7101
-71.9971
11.9651
44.9194
16.8258
17.7854
-188.994
48.4215
-54.6992
12.9981
34.079
-8.65785
-8.95217
15.501
-1.33289
8.68937
-4.66837
22.4798
-13.4518
47.0556
11.6144
16.2588
16.9143
10.024
-23.2769
59.0013
20.8114
58.449
-191.53
29.843
-14.5095
-48.3829
-24.2304
30.4824
63.1327
-298.342
-15.9021
-0.0684924
-34.8565
30.5199
19.5165
8.39972
20.8493
-72.3654
-39.5489
-49.6056
17.5913
-11.6206
35.8887
-9.90888
54.1774
21.7029
-8.81377
-123.372
-13.2632
21.1335
-85.6627
13.1082
-81.4119
37.7586
-1.52266
14.9958
-150.005
53.3598
1.35893
22.3981
52.2961
33.5203
-83.1347
-8.98004
12.9445
14.3275
7.47664
11.3235
-226.656
22.3155
23.6229
20.6
19.9108
53.4998
12.6511
-222.006
33.3315
22.9539
5.18112
1.77804
31.2224
25.7821
-77.6314
9.54447
-241.976
11.3692
38.5192
20.807
9.45181
9.15181
-93.4894
-1.26712
42.3275
-2.56027
5.11586
22.1247
52.8886
18.8199
2.67243
58.2627
4.53928
-110.459
29.0715
-38.2334
40.8253
8.83416
34.0743
-296.25
-46.4972
-86.4196
-7.40862
-68.7145
28.3447
60.9249
-22.3382
-37.523
1.00231
42.7276
9.57466
24.8008
-132.834
62.8581
-69.4166
14.3208
-13.7208
29.4119
38.1859
30.5878
-30.7016
-178.695
52.1508
34.1801
-35.0042
23.8931
-85.7034
10.451
1.66488
28.877
-41.6273
-6.83514
43.0161
-5.62118
-28.6062
-3.06824
-123.428
-26.3651
0.710228
32.0515
40.4736
-207.265
8.05163
-77.3138
-211.724
9.22561
-10.2373
17.7504
34.0625
15.5809
-4.15618
25.5053
-8.46803
-194.412
-5.89513
-2.15528
-200.071
-87.0214
-230.049
-209.119
6.97823
50.3572
-145.407
-185.012
52.3735
47.3815
-173.33
-192.71
15.756
-153.891
9.47654
8.55766
14.8695
-16.8086
-69.1892
24.0662
30.3257
-0.510617
-95.0657
-48.3622
8.06645
10.9513
31.7857
15.2828
-202.976
40.9826
44.9691
-82.5591
-207.716
20.5251
-56.921
16.1675
-79.3569
-20.3368
-201.133
8.61299
34.9158
58.9972
31.4503
9.62142
10.3296
34.1772
44.4803
15.2862
18.0821
31.5615
55.5184
-5.92513
-241.645
16.3514
-0.650074
52.8505
8.22993
28.2747
16.1673
-7.98663
13.4934
9.23234
-20.5042
36.4349
48.1407
30.7603
26.921
-73.3718
3.41532
-10.536
-16.707
-15.3505
8.35255
9.00715
-231.338
-103.759
27.3279
-19.6462
-50.376
-90.5171
-64.761
-10.222
-78.4753
-239.733
34.2793
-162.262
48.4856
-203.654
-51.5689
24.217
39.522
-13.9949
15.5281
-78.7806
38.6423
-20.8883
-44.387
-12.0071
-106.523
-81.4984
34.0844
15.2111
28.6081
-228.826
14.9464
-80.6826
10.86
-4.9594
31.7195
-20.9616
-80.8279
-203.139
48.3886
12.1368
-232.354
-63.998
31.2738
-195.093
-159.382
13.191
-2.99139
3.00853
0.580034
-233.855
40.3412
34.0982
26.4234
25.1996
55.8509
-25.281
32.5611
8.98058
25.4267
36.6477
-17.5454
-44.2801
-10.2639
10.0393
-144.544
38.8559
23.0094
24.0263
34.6441
15.8069
11.3657
62.149
8.98918
-28.3826
30.2611
0.691363
-24.3918
-16.3696
-242.011
31.2754
12.4742
4.80897
10.003
19.1575
31.072
-80.943
-2.78429
34.6653
1.28936
53.5385
39.8138
37.4562
13.3127
35.7978
14.1143
10.1542
-4.62786
23.9474
-247.421
-2.49704
-97.7684
-39.1086
-150.623
29.2132
-36.1098
-48.3907
-231.834
-256.038
-5.96839
36.4101
-15.4423
18.2233
-42.2559
33.8405
59.4913
2.73314
-41.8308
29.1588
-1.47541
30.3192
-9.94236
-95.7647
29.1042
11.3139
53.7024
15.2723
34.1585
-18.4228
39.4175
9.41
40.2243
-31.7842
-40.0335
10.7798
-294.511
15.4631
-1.65173
-94.5309
49.4098
33.8726
41.241
42.3353
41.4531
32.0849
-12.6079
17.7355
33.9642
34.5147
0.107087
1.80011
-16.8986
2.87313
15.0689
20.5808
-45.1934
71.7883
-4.78103
12.114
59.0632
46.3073
-2.61287
-207.399
24.6919
28.1418
-70.5053
13.5237
-44.2236
1.47962
34.0924
39.7203
-98.9748
19.2705
39.1412
-2.6693
-5.20797
41.7662
13.4703
-103.891
-68.6534
8.81237
-19.794
36.3592
41.8193
-46.595
-30.352
-34.561
14.6
45.5977
13.2892
51.5262
3.13016
68.0634
29.6681
13.882
33.5546
-85.0161
-48.6243
-190.369
31.4593
-85.6471
-41.571
-83.6361
25.6074
30.8308
-178.422
-15.1452
-176.126
-4.79753
11.7761
-206.356
16.1647
14.0477
35.235
35.4779
40.3298
22.4193
-1.41537
-32.837
-19.9366
9.4096
-210.843
14.8186
15.574
-136.379
34.8322
-42.8772
23.566
-141.074
16.0349
29.0238
-3.96451
-39.8443
10.6354
-12.0967
-40.5776
12.8293
-1.93505
19.3492
31.3618
31.0996
-44.7262
33.5928
10.6744
43.6445
18.6748
27.2268
18.1858
8.69647
53.3977
64.8785
20.1355
-28.3616
31.3599
12.2857
53.8299
-5.24045
-30.9718
-133.963
13.4054
-0.451339
-94.306
33.7804
28.7259
2.32681
-66.791
-3.77481
23.3289
62.0236
-29.0836
33.3657
-69.5519
3.87069
50.6408
2.34323
8.22558
-138.637
30.7161
13.9231
66.2231
-16.4159
-17.2291
25.9517
12.7486
-80.0619
-44.0738
22.5675
40.8373
-9.98047
-23.2949
47.6138
44.2683
-3.72791
-35.0959
-19.8143
18.9718
23.2139
27.1414
38.3533
14.9225
-44.9767
42.554
6.6848
-39.5481
-0.474203
38.8629
29.895
-34.9068
-254.932
0.803738
33.4689
50.8588
14.2242
20.1543
-20.7733
62.4685
-79.4792
-24.0256
54.7309
33.5236
6.83703
12.4923
-180.36
-3.18697
-52.0245
-74.4075
-215.893
-190.975
12.8139
-27.8792
-148.383
-71.1167
-75.1518
-12.942
-66.5578
-129.645
47.7609
36.3152
-33.2791
-174.462
14.4181
18.5658
-2.54223
67.4576
-8.31838
-15.9844
33.6139
-29.0366
-193.848
-2.74991
-5.10324
28.8703
69.5748
1.89223
3.43393
-78.2498
7.5884
-4.47149
8.76894
1.55947
42.9616
35.574
36.0516
-132.72
-14.7196
9.5683
16.8315
34.0996
15.6682
36.1316
63.2216
57.5968
-27.276
33.6177
41.9104
-16.0018
37.4786
-4.2979
56.3044
36.8392
12.7758
40.3906
27.3625
0.538676
5.527
39.7324
-30.4836
17.7781
-12.5582
-14.694
6.63981
30.3217
46.8744
15.2361
52.979
52.3829
2.02999
-44.5777
13.2073
-117.24
-1.03184
35.8309
43.4783
-44.4176
34.8131
16.394
12.7701
17.1855
-157.08
-139.908
-47.2788
67.8989
1.06474
-17.558
44.2096
6.33652
13.8427
25.5313
13.7858
32.4898
-49.4498
-17.1045
14.9343
0.825054
-7.6879
-2.63685
60.016
45.9238
28.1213
60.6885
51.2771
-1.89814
1.31144
16.2565
-7.79615
52.9029
-141.847
24.7868
13.223
-99.5966
-3.59218
33.0747
-209.989
12.8614
33.8469
70.2886
-78.4293
13.3074
6.33984
20.9496
8.14975
-185.766
51.2084
36.1463
17.3427
31.3421
-40.1669
-41.9192
-81.9732
57.3509
3.36976
65.6811
-147.271
21.9174
-71.2038
-33.0913
-46.1115
18.5216
-37.0513
21.7035
-8.0868
21.6086
-181.563
-2.74931
-129.54
-45.2449
-14.8896
-47.1941
-4.76263
5.48909
-270.986
-92.4111
13.3222
14.8948
54.8355
34.0543
11.5421
13.8819
77.2917
24.223
-81.3939
-14.9555
9.67001
32.8349
18.4847
42.9438
-20.9292
-21.8282
-5.30803
-2.95536
13.4733
46.4909
-45.0342
-96.0737
-78.1714
58.5113
-146.832
15.9801
37.6436
-155.747
6.73555
50.5566
-74.0105
-72.4271
-5.70256
31.1386
26.4596
36.9868
-47.3529
-45.4081
-18.0079
-105.115
-31.7562
-1.46297
16.8213
-72.1398
-15.3505
-168.374
-77.6053
-59.9661
47.1143
-203.844
57.9073
-88.3113
-26.1536
9.27408
9.80499
40.396
8.84997
47.3455
-0.963165
-49.7089
-65.3606
36.0839
-42.5812
31.4335
-276.509
49.6816
42.417
-253.422
31.3804
52.8031
21.8638
32.0802
-29.5841
-29.8415
11.0601
-37.7049
-40.2872
-9.11068
-13.9891
8.44561
-72.0035
13.398
-0.559133
1.67044
-8.9467
-15.9775
56.0692
7.61283
1.66958
12.0515
34.0785
-169.654
4.22951
23.1165
-0.739572
8.33854
4.49825
14.3799
34.0654
33.9035
-20.6704
36.0754
39.5858
26.4096
-25.9823
11.8348
20.5542
15.2799
-20.305
-113.036
-233.408
-31.0068
-183.88
-7.21109
-44.4153
14.2125
-43.1509
-13.3323
-141.227
-1.785
-80.9529
22.9053
-69.662
36.568
76.6909
23.8929
-120.979
26.1931
16.8464
13.2175
3.90254
-30.115
-248.697
10.4053
36.2034
1.84867
50.989
3.57154
33.8307
3.76347
11.3978
-85.879
-27.4669
66.3912
-261.179
34.1428
34.4552
42.7763
10.0673
36.0138
15.8088
-64.7318
20.841
-80.0558
-90.9887
37.1508
33.6253
-42.9866
21.0804
42.3809
-99.866
-267.725
14.5927
10.2149
36.1159
27.2355
39.3204
7.87906
19.8875
-41.5969
-15.681
-27.9201
39.3323
65.3221
-33.6071
-69.2299
-89.1681
10.303
9.50211
9.72289
-35.7119
26.6476
6.98424
-153.851
14.2606
63.7642
23.9725
14.3874
-113.372
-131.654
-46.3316
-65.0684
-57.5196
-103.454
44.4692
26.8975
-22.0849
60.4527
-14.6847
-68.8361
-111.764
-91.3034
22.3413
-39.3863
21.7183
17.9642
-16.2349
-25.6091
-35.1352
-84.0861
-180.275
40.631
-135.456
-6.20277
-80.4486
34.559
32.721
-148.306
38.0226
30.2051
46.3957
52.8269
22.3593
12.6334
67.6511
-79.9825
12.3799
-33.0227
-142.302
45.463
-216.033
55.4762
26.2554
-24.235
-168.551
-171.906
39.0442
-242.095
-167.119
0.484111
1.62946
17.2346
28.9562
17.5356
3.38077
58.4687
-47.3237
-63.5317
10.6613
13.2913
35.379
-69.7117
76.4968
-21.4316
0.795007
34.393
-16.003
34.0009
20.4167
28.8069
22.0689
19.128
-2.26587
22.7557
12.891
-192.226
-18.2174
19.7481
33.683
37.3095
-245.722
8.84825
-36.1536
28.3601
18.0705
-119.886
34.2817
-160.606
33.5751
36.5416
-71.9943
49.2933
-210.963
65.1558
25.0124
-156.283
1.96897
-36.3709
31.7942
38.7892
-194.312
37.6903
36.5679
-26.5567
9.24949
12.6145
9.84144
-30.7562
-74.5538
-12.8149
-173.533
34.563
-118.378
-53.0635
-28.579
42.4333
39.842
33.9822
-126.38
26.3689
-9.14682
7.19623
27.4437
-272.929
-221.11
57.1396
0.18835
-4.39026
-29.3069
-87.6219
-121.891
34.1786
-71.8468
-9.62673
38.9908
2.26669
34.4519
-105.679
13.1465
61.4479
-47.256
38.9809
12.8507
-140.213
21.5709
13.0512
17.4044
61.7101
27.1231
0.720978
63.0345
35.4879
43.9639
-110.617
-125.641
-20.2703
-27.3081
-92.3787
-38.0598
-21.3728
-40.0232
11.5555
13.8997
-8.08398
0.999774
-205.926
-8.77097
40.8684
-60.1163
13.4648
29.1206
33.9935
-9.70555
-42.0775
-149.884
-68.885
-112.421
-11.2262
40.7142
-146.598
46.6135
-93.6413
34.0309
-18.8054
-34.5998
-30.5834
27.8558
27.5821
19.1277
15.4094
22.0857
18.0642
41.0839
48.5468
-76.4936
-35.9545
-52.0524
35.3001
13.5568
-45.1969
-44.3011
11.8846
5.53532
-19.2423
18.3627
-3.04367
20.2107
27.4674
12.8078
8.74579
-187.519
45.4776
-129.668
30.4475
1.67879
33.6153
29.2559
28.2562
17.613
-38.2451
-184.893
-77.0092
-64.4957
-216.248
-179.201
9.07455
-148.505
33.5727
10.0909
34.0736
-24.3323
23.9753
-42.7969
-10.7176
29.0394
-74.6017
23.6398
13.6777
-247.758
-140.053
-136.448
16.2963
34.4363
-22.3176
13.1609
-45.3079
22.8773
13.7538
13.005
-86.5228
37.8986
13.5542
-21.6148
33.5148
21.289
32.3349
34.7672
48.8993
-43.8491
-3.72512
-51.0345
7.27475
29.3549
13.7281
-66.8641
-101.798
-148.93
-1.05463
8.31646
-171.762
66.4992
-33.9039
28.6462
13.8876
-182.385
22.9271
-5.21616
-17.5802
15.5657
12.1118
35.8398
-42.2326
34.3495
-46.3604
-47.6021
-238.338
8.63223
-99.4837
27.9435
60.6103
35.047
-26.413
-73.8964
34.1901
-79.4958
15.708
-26.4982
-2.00242
-99.5549
-152.391
-120.707
-20.5363
15.3711
10.1519
-50.7733
13.3658
38.1222
-14.2376
-37.4183
38.7672
-1.4725
-88.9821
8.84241
4.11858
2.23691
63.7424
-27.7057
12.3248
-19.0422
-8.809
-14.5374
19.7812
8.80969
7.00154
-6.28757
-22.1008
-5.42119
-7.53621
40.6552
19.0637
18.1515
-48.734
-10.0983
62.5813
-265.047
28.2005
27.9284
17.1759
9.90595
13.5419
-103.462
-8.68706
34.8621
30.3759
23.8812
-219.752
38.726
15.9123
50.496
-0.583394
35.6725
40.9
34.5073
15.3073
-80.5663
21.3721
-91.2181
-2.00377
25.9862
32.5405
14.6424
46.051
12.7516
51.5121
6.92141
29.8901
9.00637
14.1912
15.7001
34.304
11.1127
26.7735
60.4343
35.9503
14.7958
-15.2238
13.563
33.9369
3.17073
-67.6168
16.7854
-10.1356
39.9172
-136.987
48.1747
19.5293
77.5134
54.7988
-10.2863
-19.8555
10.9113
13.7912
56.462
2.56779
10.0828
-7.3
67.5439
28.7378
14.3606
58.4546
-10.8428
32.7562
-7.29078
27.3648
14.6588
20.7513
27.387
36.9911
26.3649
-131.935
13.6974
-125.257
10.3006
-77.4907
-14.2448
51.7673
44.4758
9.54412
-44.7048
-0.842603
31.9971
18.2367
17.425
28.712
-34.472
-74.5827
-185.857
36.4351
-43.4476
-19.622
23.0399
3.60381
13.4466
-15.5271
62.8263
-198.365
46.5725
-50.057
64.0323
-30.6998
15.5356
-25.7945
9.58716
19.8124
34.2253
12.8011
-15.2591
7.12175
-23.6442
40.9817
5.88425
11.8065
-237.361
-8.29113
-61.1737
27.3835
-17.1675
-7.93162
0.560476
34.7886
65.6593
-128.795
-5.68164
16.4121
14.6572
25.6925
-252.748
-13.2739
-12.7438
-171.193
21.616
-166.036
-20.1764
0.682282
-38.8235
-280.339
15.0615
32.8045
29.9676
33.2665
62.5005
-82.0882
65.8841
-51.8539
62.6093
-203.889
-14.3003
59.0254
24.8907
-248.173
9.63598
19.9689
17.7834
-251.263
-76.5179
12.5281
-21.207
-34.4882
-9.94361
-11.2859
23.5607
27.7439
-203.558
24.3224
-45.354
15.2489
-206.782
-3.20663
26.5992
-166.791
-31.3559
54.0426
60.6121
57.839
14.0512
-75.5714
24.2796
-10.2042
-19.2458
33.2099
35.82
67.0774
32.3192
37.8787
-14.4974
-46.3247
65.149
66.1953
38.9764
-6.53086
-208.563
-91.4397
18.3292
-5.49931
10.1897
42.2526
-93.9328
-6.48972
-33.8781
59.3196
20.0678
15.3746
-184.79
11.4435
30.3839
74.4261
69.9189
21.6989
21.5295
1.30746
-50.4729
28.6216
70.8407
8.9686
-23.455
-0.983901
1.966
13.9551
6.01054
0.644336
12.7483
14.9355
14.1828
-37.1124
22.0785
41.1914
-62.9618
30.0997
-192.919
-1.66682
55.4781
-44.6029
20.1746
-57.0883
25.5534
24.0386
-135.104
-60.4399
-5.13947
17.6424
75.1653
-79.6995
-47.6344
-165.188
1.08535
-12.7301
-55.124
-142.474
-40.3875
-18.9402
-70.7871
-7.97706
-34.9079
24.2902
-1.97662
14.7001
74.3194
16.3327
13.7871
-18.0468
17.91
-44.0678
-14.2054
51.681
31.7888
13.825
-6.20191
27.2994
32.0911
19.3843
-151.583
-40.0793
51.6538
-16.6036
33.7567
12.8435
48.8562
12.0249
-206.206
18.6681
35.5173
-10.3775
35.015
-10.7341
68.4988
-164.927
3.35809
-78.8452
29.3736
-157.299
-18.0187
-168.834
10.128
-41.342
-236.865
-216.532
4.69196
17.0796
-87.2843
-8.63442
19.0888
-86.6701
14.3291
-173.675
35.3805
63.6172
9.63525
-42.7239
15.6425
10.1965
19.2671
6.23645
-3.09795
-84.205
-7.19206
-34.14
-42.5863
12.9047
3.61875
-100.322
2.01912
14.2932
33.9321
2.56142
-141.071
2.91615
-109.826
-9.06476
6.11292
-27.6923
-148.221
41.068
-39.5619
-28.5345
-29.9991
8.73313
-73.5211
-82.9332
76.0177
11.4314
-24.4562
28.1859
62.9196
55.7124
-221.664
-8.73251
34.129
8.43811
-6.86161
62.3733
12.7287
0.4351
77.9021
6.62064
-51.2355
16.9802
51.1665
35.7508
15.537
50.8408
31.0673
15.7104
9.18628
25.6887
14.0025
-73.5186
60.2653
13.3843
3.05478
-28.5865
-69.0858
7.29213
-188.669
-13.7758
14.9096
20.2177
38.2155
22.0522
-78.1046
54.0322
58.0287
-44.4082
14.4331
-12.5339
-7.89814
19.0169
29.1671
-122.651
-14.8517
-3.08954
66.1348
-80.513
26.4846
31.0346
33.2488
-2.58519
16.9277
-14.2567
15.7197
-26.9526
-22.8441
-80.7242
-40.1419
8.38061
-176.946
35.0052
-238.844
-99.5159
19.829
-42.8354
-188.194
-73.2909
22.6538
-5.89344
-16.6071
24.0481
-144.232
11.4012
-49.336
-14.3343
33.9544
-71.9431
64.2903
-67.5733
69.1345
-5.67325
-20.782
11.8765
33.8438
13.288
-70.9287
-7.14713
9.48918
11.1171
4.32824
79.1925
33.3425
-1.97151
-15.7506
-0.450636
12.2328
21.8849
-18.177
29.4782
-172.925
-181.229
-46.9621
-53.3438
15.4914
-46.2868
29.6225
14.156
55.3615
65.7575
-69.8935
-83.0703
13.7054
-15.8982
58.1401
-14.8294
6.87693
24.2042
31.25
-161.261
9.97742
11.744
24.3303
5.2623
-121.909
-46.7941
2.44117
-10.4951
-56.4094
6.43036
-56.5417
-48.5062
22.6489
-239.916
-197.621
-25.0755
25.9731
67.8033
-11.1578
34.2937
-54.0342
8.4607
9.80974
-0.860544
21.034
-152.492
-143.883
57.6738
33.3804
12.0744
-56.3199
72.2251
-182.014
-96.3342
-176.499
-12.0489
-160.421
-151.673
50.2486
10.8905
14.4732
23.7061
-196.752
28.3674
-8.75882
14.1861
-59.4236
12.6653
23.6133
23.3371
-138.299
-70.6756
-26.2665
-28.3352
-18.2119
-18.8905
68.6802
30.308
-171.49
-14.9931
19.4875
53.2834
0.247082
-139.594
-12.49
42.9626
17.0771
-23.603
35.2402
-18.7993
56.8719
16.3078
38.1537
-72.063
-19.552
-64.941
-179.097
-18.8866
22.4165
-110.168
-158.003
29.9741
-5.0182
8.69864
44.6665
32.1706
43.1502
33.7146
-22.9655
6.29163
13.0887
18.6651
0.911196
29.8357
-5.92266
57.2614
-165.003
41.7944
-36.5652
62.7255
-206.758
-8.62488
61.2746
-168.703
-10.0012
-79.8473
44.8432
60.1893
35.0757
-24.2689
34.0321
35.9572
-75.8473
27.5042
-215.866
39.8258
-173.692
-154.828
-85.2194
-86.2038
35.1394
-29.8948
-91.091
9.66597
59.2623
4.55658
10.8152
-87.1479
-16.1018
-2.95615
-16.3514
34.2418
20.0026
-93.9326
70.0855
13.3753
52.085
39.1297
-5.54609
-1.99503
10.9174
-37.8086
-19.6444
5.72269
4.12824
2.33895
19.4525
-218.391
63.1109
39.6157
9.01411
-102.181
18.5959
-86.1453
31.7417
33.8562
12.8972
-25.1045
33.411
22.3545
-14.6863
-44.7877
-6.10718
24.445
56.736
-65.0401
62.4165
69.2057
64.3891
-39.7136
34.4932
-75.3724
33.9611
34.491
43.8851
24.512
43.2648
73.8396
35.1221
-79.4362
-87.0131
-147.775
73.5858
10.7121
-24.7946
-138.503
39.998
54.6818
27.1954
10.6107
-5.2237
49.9842
-47.0317
19.701
-146.189
24.6763
-2.87918
-62.6454
12.5383
-79.2733
-102.548
-124.243
-27.241
-1.41
33.7369
9.05355
10.5956
20.5438
5.70377
-22.0667
-79.4959
-9.40326
-71.7053
-102.86
40.9952
51.3955
-179.334
34.8899
40.4301
50.0813
8.39501
-277.489
24.4944
-68.1911
44.3019
-26.5245
42.7948
32.0836
16.4785
42.2358
15.853
36.9255
10.6586
25.6969
-12.4226
-42.0324
-1.7323
-19.2164
36.1018
-195.239
-200.333
-158.334
58.2965
34.4103
25.4822
5.88567
48.5119
-44.1262
19.6996
-5.51961
-16.2671
20.2488
-213.123
-79.984
-16.5046
-67.0939
-10.8042
-178.296
-8.81082
-84.7986
-48.7038
13.4333
60.2145
67.9243
54.9717
-215.597
19.9205
-65.5252
20.954
52.9865
17.9454
35.4356
-142.101
11.6377
-16.0136
9.71745
39.9542
-0.235342
25.0401
-84.8478
5.48812
-80.1797
36.514
25.2677
33.9681
-76.1461
20.7871
-240.841
-89.4714
-89.3429
11.6228
58.6627
-64.3519
-49.4891
-155.18
29.2224
34.3884
13.3282
28.7799
-76.7694
49.6434
56.3318
-177.747
6.70663
43.4804
-226.721
-89.5325
12.1758
41.5038
45.8789
-75.1084
-10.942
12.5582
59.3757
-81.063
-223.502
9.02482
51.511
11.6543
-10.3357
-31.4821
36.9755
32.1091
39.0146
8.22329
-53.6007
25.1409
71.5977
-41.79
2.17277
11.0845
-97.1046
11.7988
12.2272
-126.805
-12.9193
-236.501
29.5478
-99.1933
-42.7098
34.6389
43.5548
21.207
-34.1214
-182.657
22.0997
-81.0117
-19.0384
-15.3373
10.2848
-60.7667
42.3132
23.387
11.4059
17.0596
54.9264
-94.5905
-2.38465
35.6761
-84.2657
30.387
-1.39212
8.09588
-37.7464
33.2505
3.5022
12.246
-0.809304
-23.6225
38.0848
-34.4438
23.2997
-243.709
-23.7689
34.3441
-84.1845
63.8411
-77.8611
-109.715
-91.9297
42.2984
24.3366
34.2312
-172.283
51.1446
-80.9652
-6.88457
5.97373
-12.6728
35.3353
11.4732
-0.0502793
3.58424
-110.524
32.7762
-71.5782
-228.798
-4.85522
-36.1751
-28.0506
7.21513
54.9171
-8.10683
-74.237
33.7626
-43.2293
45.5748
-41.7171
12.7299
35.1155
35.9806
10.3184
-52.5767
-15.4906
10.9784
21.617
24.922
13.035
-169.727
12.0794
-25.475
18.7476
75.2315
20.4765
33.2456
45.4703
18.9547
37.8716
-108.862
-172.146
-249.684
33.8101
73.538
21.5849
-10.1913
39.0916
5.49095
8.9021
-21.401
11.7709
13.2637
64.1952
-24.5641
-38.6489
52.7964
40.0233
14.5144
24.9934
33.9314
16.3663
-240.9
-236.824
25.1436
-47.8911
-42.3031
31.6325
-254.507
-109.883
-41.9297
17.8538
19.5615
24.4651
13.2599
34.8337
36.0239
17.0642
25.9603
20.935
45.7711
38.5569
-17.3582
9.30183
13.8561
40.1249
24.4006
16.4454
7.32711
12.4987
-56.5118
54.627
28.5494
2.80248
-104.457
19.8411
30.086
-4.66079
25.5026
-9.06847
10.2448
-228.497
12.6579
-115.198
5.62241
-12.3149
-62.0341
-51.7626
-72.5846
47.4075
-126.641
-66.6456
-147.9
56.6896
-120.56
15.9124
20.1663
-88.2149
39.1646
34.385
-9.33379
41.8228
17.835
12.3001
-151.71
-112.616
5.09733
43.8352
21.3731
-68.943
-89.0194
-135.673
-86.1806
-151.388
-56.5436
-0.968615
23.0751
34.1692
31.8395
-113.067
-7.0068
42.8165
32.1463
-72.4599
15.1919
-153.816
1.7704
7.30587
13.5121
32.7777
0.347362
-137.26
-184.241
22.2846
-132.672
-127.922
7.28836
-264.732
-78.4141
-90.3822
-138.351
9.10124
-161.651
10.5811
-67.4081
35.701
33.9654
7.9261
43.1449
-184.027
54.1351
-36.6239
13.3908
-13.5742
25.4901
14.0054
-44.9613
-176.579
36.584
44.0698
57.8216
-97.7396
-71.3341
-219.046
2.39325
2.7038
-78.1915
-34.9775
-83.6401
13.8459
-67.6217
-9.03844
-32.9929
9.2165
50.0436
16.33
2.88284
35.5334
-28.834
-80.8588
51.2153
67.3153
-61.2685
26.608
26.0844
-0.538774
-202.948
41.7375
43.6859
-56.8281
-101.147
-249.976
-199.248
-10.7838
-83.161
-4.42632
34.1114
2.81564
39.9548
-66.1008
-86.8088
35.3869
-7.05801
-86.8492
14.8852
38.2175
-87.1395
-0.690746
-88.5281
-76.9213
-85.3778
59.2684
-178.804
7.29421
-79.0803
31.4984
-87.2714
-25.3933
-42.6921
-74.0694
-13.3522
27.0356
-13.7118
-81.3304
20.605
-5.4349
-152.298
-6.89493
-74.0539
-3.2482
8.28907
33.7239
-159.661
44.0896
-158.157
1.73312
-3.17991
-31.3995
-232.859
-75.3115
-83.9512
16.2668
23.6451
-16.8516
7.9886
-28.9234
14.8862
-106.317
34.4321
-5.74525
28.7878
-12.5139
-43.7836
14.6306
82.1411
-216.587
-86.5509
-126.799
-36.3484
33.9185
-55.0974
15.7571
13.3993
-65.6212
-97.0122
-49.2611
-81.859
17.2564
-63.4753
16.1999
-83.2455
9.82119
21.0161
-3.88452
-17.2654
-3.95324
32.9031
-72.3346
-139.777
38.4155
8.17518
-75.5582
7.52122
-13.5023
-29.329
3.15705
34.4979
-225.645
26.6394
-64.7908
-28.8824
-37.0978
-35.1577
-97.1824
-21.9121
-89.5375
32.6733
25.8938
-62.8035
78.6755
-222.078
43.3268
42.7965
-89.6133
18.6851
30.9219
34.086
-4.5449
-117.626
-48.2878
-40.8917
33.6746
20.8888
-40.9219
14.6175
-9.09716
43.89
9.10823
22.3507
14.6697
38.176
-24.1009
-28.4971
-73.9836
33.0775
21.2659
11.3705
44.6279
40.8812
-22.0023
-188.763
32.9337
27.4278
11.8476
3.84931
-44.4623
-71.6046
-36.3061
-160.539
43.0547
16.3962
8.25269
-16.2388
6.57027
-0.660925
22.2017
-207.222
-9.21269
33.7647
39.2028
-205.585
31.0601
7.03032
18.2516
23.2994
11.331
24.6627
-11.8133
35.7055
33.1709
34.7616
-84.2236
39.1843
33.0932
33.5285
32.7821
-157.368
1.44126
-4.401
-25.3485
35.1417
54.6356
-284.581
57.0189
-122.8
-44.1565
24.5286
31.491
-40.2599
8.73883
-76.9663
-231.255
-0.862386
-194.554
-39.5675
7.76414
18.1794
68.9475
29.1197
-141.462
-182.978
19.7764
26.2053
-194.326
-84.3933
-209.596
-24.4896
-46.6082
-42.2066
34.1804
4.48975
24.6933
15.5988
14.8045
4.12349
6.84994
15.5428
-9.46056
38.242
-33.74
-38.3568
-46.4306
-127.155
13.4463
27.5249
5.63203
4.15015
33.8119
24.1591
26.2676
-19.9521
32.7148
18.6761
50.6378
33.7137
-134.016
6.15471
-16.8076
-197.557
-5.24256
-74.7278
-22.9021
-279.078
69.4693
8.25607
13.3189
43.4478
-143.004
-0.586218
-144.539
-94.809
-169.099
-42.1622
-18.772
11.8694
-36.6283
-142.499
15.7902
-249.443
-18.4822
-66.4709
1.319
33.2657
-156.661
-187.164
-21.692
12.3391
-33.7098
33.2551
45.5788
-221.922
33.8158
2.04359
31.2356
56.5614
-123.802
30.0716
13.6757
24.1206
40.0446
11.2282
2.28541
-72.1356
31.0035
45.7034
-249.432
-6.78516
-49.7453
-35.0303
27.6392
-158.938
-42.0744
-232.267
26.0836
-64.8099
13.0271
12.4766
34.7255
12.2914
-67.5136
0.167748
-158.062
-44.3934
51.6222
63.4385
35.1307
71.2824
38.0438
52.4649
19.8573
8.81363
42.894
-71.1769
24.6389
5.45355
-46.6345
46.9059
-1.08605
-27.6079
61.5623
13.6479
-156.177
27.2439
24.7533
40.7621
-98.7562
35.537
61.0194
-133.366
-42.757
-34.1755
15.4374
-65.6743
31.4705
8.01493
42.6006
33.9833
-178.116
30.6374
-10.8131
-117.782
-83.04
-253.275
26.1067
-38.8334
34.1743
19.1024
-80.7923
2.16658
-6.3727
-3.51539
-230.993
-163.082
29.7145
18.5655
-83.1917
3.50422
33.4021
13.5363
-257.764
28.1823
-54.7597
26.3282
-82.2264
33.1455
21.0446
-24.7333
-0.211446
26.3966
14.3371
21.9886
-77.7283
69.9628
-17.1866
-89.8628
26.9124
19.0514
-85.4504
-27.6057
-75.0119
-7.77267
0.986153
-32.9067
8.47268
3.87586
73.608
5.92162
-164.821
1.70964
-13.8221
-6.21969
-8.85525
21.3233
33.8514
-67.7379
14.7938
-71.1377
-7.60545
13.7891
19.0065
31.7997
3.32064
1.91315
0.218659
33.6554
17.5203
6.72739
-88.7349
3.46195
-5.17323
37.5722
-89.6504
6.92729
-152.353
25.5191
-80.0116
6.20042
36.7445
31.8162
32.2657
-107.725
-147.797
34.4299
19.1421
39.4963
27.4701
17.1666
31.8793
13.7483
21.6942
14.9393
-19.2657
-70.8332
33.5264
-30.7547
39.1541
13.6864
73.3342
10.9059
20.4038
34.2056
16.1549
13.7338
33.1215
5.50964
12.2181
-44.5363
-107.369
23.0277
12.9362
-1.30023
-192.438
-14.0543
-129.259
-86.6461
-26.859
34.1078
-6.81293
32.8753
13.6787
60.9706
53.3536
24.1315
9.74365
23.5573
-91.6286
39.7834
16.2562
15.2252
11.8366
36.9063
26.2999
-35.0832
-138.672
-39.9221
13.3195
0.160573
17.2594
34.5152
-184.548
10.3202
-65.2575
25.1337
26.0876
-31.9403
24.9844
29.8057
3.41223
20.7801
32.4888
12.667
-38.4396
32.7679
14.4329
49.1991
-4.77834
41.2738
27.1537
-77.0529
-162.051
-56.9618
-20.024
-74.75
-223.173
34.0538
46.2518
39.3804
43.4425
31.3336
38.7111
25.4445
9.09228
26.474
-2.75703
16.7899
20.256
1.29729
54.0707
14.6833
-69.828
32.432
45.77
53.3492
-90.9174
5.26522
-132.678
-49.3065
26.7808
10.3074
-171.425
32.1078
60.1648
-135.804
-17.3673
-88.2686
24.904
10.5903
17.5399
16.8657
15.266
-177.201
1.55354
-6.52181
-74.2328
35.6309
33.9888
39.0947
-7.17397
-67.0866
-4.33812
8.26904
-39.5112
0.747893
17.589
11.5814
-8.79435
-5.94623
-8.96694
-98.1177
26.6739
-42.5212
13.5797
31.1742
2.41679
-1.81835
-70.4455
-136.236
-40.9573
33.0172
12.4755
8.39664
33.7963
35.9421
-24.446
-14.8999
14.4456
2.05643
-294.78
10.6453
11.2499
-27.5063
26.1906
-111.521