/*--------------------------------*- C++ -*----------------------------------*\
| =========                 |                                                 |
| \\      /  F ield         | OpenFOAM: The Open Source CFD Toolbox           |
|  \\    /   O peration     | Version:  2306                                  |
|   \\  /    A nd           | Website:  www.openfoam.com                      |
|    \\/     M anipulation  |                                                 |
\*---------------------------------------------------------------------------*/
FoamFile
{
    version     2.0;
    format      ascii;
    arch        "LSB;label=32;scalar=64";
    class       surfaceScalarField;
    location    "4";
    object      phi;
}
// * * * * * * * * * * * * * * * * * * * * * * * * * * * * * * * * * * * * * //

dimensions      [0 3 -1 0 0 0 0];

oriented        oriented;

internalField   nonuniform List<scalar> 
20045
(
1.32422
-1.44142
0.117206
-2.70833
1.02637
1.68196
1.14692
5.06765
-6.21457
-0.136393
0.749356
-0.612963
-2.41552
1.96652
0.449004
-1.5353
5.48581
-3.9505
-1.96428
0.195093
1.76918
0.0819431
1.25024
-1.33219
1.33492
0.986537
-2.32145
-1.9569
-0.302631
2.25953
-1.33278
-0.454257
1.78704
5.28153
-2.35553
-2.92599
0.950942
-0.965772
0.0148305
-3.05023
2.65108
0.399146
-0.277438
2.12524
-1.8478
-2.62728
0.670378
-0.188575
-0.198796
0.387371
1.37454
-1.77517
0.400634
-4.0258
5.96461
-1.93881
-1.92901
0.100544
1.82846
-2.70352
2.3719
0.331618
0.31678
0.634162
-0.403958
-2.30437
3.39351
1.52346
-4.91698
2.03143
0.469245
-2.50067
-1.87525
5.26876
0.0487756
0.0253791
-0.0741547
-3.30624
6.40356
-3.09732
5.08515
-0.0166951
-5.06845
-6.8975
3.64146
3.25604
0.238565
1.84504
-2.08361
2.86712
-2.198
-0.669118
-1.46698
3.86664
-2.39966
6.5548
-3.47044
-3.08435
-1.57288
1.65482
2.46082
-0.944154
-1.51666
5.10854
-5.29487
0.186329
-0.162064
1.04424
-0.882175
-1.42008
3.76463
-2.34455
1.42934
1.42046
-2.8498
-0.206432
1.51298
-1.30655
0.481391
-0.655083
0.173692
6.32319
-6.40823
0.0850415
3.63832
-1.31644
-2.32187
1.65603
1.98228
2.18749
3.09403
-0.898195
-0.419744
1.31794
2.8264
2.19766
-5.02406
-0.688627
5.79717
0.580991
4.62788
-5.20887
3.28526
-5.47535
2.19009
1.27595
-0.493106
-0.782847
-3.02042
-1.49775
4.51816
-0.2833
-0.780417
1.06372
2.24014
-1.73762
-0.502518
-1.71605
-0.699468
-0.810344
4.14389
-3.33354
-0.072719
1.91205
-1.83933
3.06991
-4.53689
4.28187
-0.236981
-4.04489
-1.86799
-0.319838
2.18783
4.93278
-0.650906
1.75625
-4.84542
3.08917
-2.20921
-0.494314
3.30412
0.576386
-3.8805
5.8577
-4.87804
-0.97966
0.635571
-1.07912
0.443552
-1.70703
0.349756
1.35727
2.23167
-0.896758
6.59184
-7.80304
1.2112
0.754958
-0.119387
0.938034
1.3021
-0.59065
-2.65478
3.24543
0.764758
-0.567863
-0.196895
4.45065
-4.17385
-0.276798
3.01495
-3.82529
4.1963
0.254349
1.41791
-1.69535
2.24997
-0.485046
-1.76492
-0.701889
-2.84701
3.5489
2.18746
1.46884
-3.6563
2.25005
-1.82515
-0.424899
3.81462
-2.05837
-6.75302
1.21262
5.54039
0.0493507
1.27487
-1.22599
1.48766
-0.261669
0.786498
-4.42579
3.6393
-3.98107
0.120855
3.86022
2.50856
0.490444
-2.99901
-2.04288
1.82536
0.217519
-2.77055
-0.50916
3.27971
2.06595
-0.548011
-1.51794
1.08439
-1.54104
0.456643
-0.471051
-2.0167
2.48776
1.5397
-1.70439
0.164692
3.80715
1.47296
-5.2801
-0.12772
0.176496
-0.589823
1.7884
-1.19857
3.0738
-1.64446
-0.221929
-0.0236468
0.245576
1.9178
0.543019
-1.07757
-1.97266
1.5401
-2.12992
-1.03879
0.966066
-0.0617306
-1.16426
-0.0572939
-0.164635
1.04238
3.07336
-4.11574
-1.86364
-2.94144
4.80508
1.35177
-1.37121
1.15733
0.213881
-0.812271
1.01754
-0.205265
2.25365
-2.00911
-0.24454
-1.33923
1.05593
3.32441
-5.41427
2.08986
-0.50114
0.866834
-0.365694
0.141408
-0.971997
0.830589
2.78497
-0.753545
4.40846
2.14633
-2.93116
2.34051
3.07368
1.24754
-4.32123
1.7203
-0.345761
-2.15075
0.282762
-2.09124
1.6437
0.447543
-3.28372
0.327917
-1.60649
1.27858
0.672651
0.603302
2.55031
-3.55509
1.00478
3.92287
0.485009
-4.40788
-5.35259
3.71406
1.63853
-0.75281
-4.08629
4.8391
1.27408
-0.601428
0.648821
-1.06856
0.713858
0.0419348
-0.755793
-0.110506
0.0883557
0.0221501
2.87521
1.97605
-4.85125
2.98927
-2.81657
-0.172697
-0.982045
0.327497
0.654548
-0.980839
-0.390375
-0.501245
3.57493
-1.80808
1.81306
-0.00497894
2.9134
-5.57643
2.66303
0.321569
-3.34199
2.47581
0.902569
-3.37837
3.78872
-4.4906
5.52245
-0.871676
-4.65077
1.95065
-4.01552
2.06487
5.11105
-2.68983
-2.42122
-0.421774
0.917192
-0.495418
-0.302852
5.39011
-5.08726
5.38799
-0.302842
-4.10926
0.114916
3.99434
-2.45093
1.66163
0.7893
3.14903
-0.961571
0.769927
1.48012
-3.09592
3.7873
-0.691383
-4.37673
5.52365
0.0253529
-1.24141
1.21605
-1.33507
-0.206815
1.54188
-0.133405
-0.976286
1.10969
5.68665
-0.524584
-5.16207
6.86283
-3.38751
-3.47532
-1.20546
1.07205
1.02099
-2.44783
1.42683
0.597294
-0.115904
-1.53189
-2.20332
3.28589
-1.08257
-3.2262
2.33023
0.895969
-0.0578224
-0.18369
0.241513
2.67222
2.43883
-0.0543294
-0.0561763
-0.503538
1.2174
-3.45772
0.361804
-3.70346
4.64144
-0.93798
-3.23627
3.4821
-0.245834
-1.73074
-2.73026
4.461
0.27928
1.55108
-1.83036
2.13499
-2.18912
0.0541233
4.82545
-0.00235537
-4.8231
-0.0150556
-3.72527
3.74033
-1.52216
3.99796
0.885038
-2.75945
1.87441
-2.18882
5.51323
-3.68921
2.54632
1.14288
0.184071
-0.161094
-0.0229773
2.67972
-6.41128
3.73156
-5.0958
1.78956
-3.62209
-1.52356
5.98352
-3.44768
-2.53584
-1.96594
1.75951
0.951475
-1.01911
0.0676321
-4.52079
5.73717
-1.21638
-4.76039
6.62316
-1.86278
1.42512
-2.57216
1.14705
0.296292
-1.20745
0.911154
-2.61272
0.0924775
2.52024
0.47077
-1.80355
-3.59897
2.84616
-3.65968
-1.12144
4.78112
0.652508
0.149804
-0.802312
0.715684
-2.919
-1.54576
1.78433
4.23559
-0.312714
-0.878653
0.716589
-1.13248
1.4028
-0.270322
-0.19214
5.87879
-2.96104
0.348319
-0.291711
0.633877
-0.342166
-3.5385
0.678684
2.85982
-0.645568
2.07069
6.7385
-4.05878
3.93933
-6.77524
2.83591
3.27706
-6.70603
3.42898
0.179166
-2.10817
-2.49366
3.53604
3.16393
-4.69923
3.59492
-5.08702
1.49211
-7.28877
4.22867
3.0601
-0.159097
-1.88379
0.971052
0.719181
-1.69023
3.64452
-1.30987
-2.33465
-0.212222
-3.7707
3.46785
-1.31623
-0.491855
3.20315
5.00092
-3.61763
-1.3833
-0.0472164
-0.715063
0.76228
3.21654
0.658318
-3.87486
-0.77956
-1.44257
2.22213
-2.3419
3.99517
-1.65327
-4.42607
5.21257
2.85508
-1.97005
0.251679
2.08338
-2.33506
4.70836
-1.79497
0.624574
-0.0588513
-0.565723
-1.34333
-1.21658
2.55991
-0.739487
0.77716
-0.0376733
5.81959
-3.40655
-2.41304
1.30875
-6.06914
-0.8262
0.0867127
-3.98421
1.24776
2.73645
6.20676
-2.34012
1.17866
-4.88211
6.92695
-3.20127
-3.72569
-0.098444
0.750952
4.9573
-6.79087
1.83358
-3.05243
0.641474
2.41095
-4.59091
4.60898
-0.0180664
2.61324
-5.68256
3.06932
0.171824
0.0155237
-0.187347
-2.32138
3.05917
-0.737797
-0.138405
1.8096
-1.6712
-0.797195
0.296055
-0.991466
0.179195
0.987549
-3.92899
0.767822
-3.64558
2.87776
-1.96203
1.70996
0.252072
1.74135
1.12576
5.03781
-1.44289
-1.86661
0.531539
3.10599
3.10077
-2.51984
0.153233
2.36661
6.74731
-1.79001
1.86349
0.261741
-1.98156
0.0195275
-1.50012
-0.312447
1.81257
0.160505
0.0235665
-4.57975
2.23784
1.87547
-2.86922
0.993751
-4.45063
4.30708
0.143548
-2.68529
3.0985
-0.413213
-0.917461
-0.592802
1.51026
3.75936
-4.16829
0.408927
-4.39022
-2.89855
6.09563
-3.55105
-2.54459
-0.570873
0.523656
6.0952
-3.48195
-3.99116
4.75898
-4.08332
1.33643
2.7469
3.837
-3.13374
-0.703263
5.33489
-2.08102
-3.25387
-3.02665
-1.05668
4.12916
-2.53588
-1.59328
-0.892208
3.9632
-3.07099
0.899408
-4.12614
3.22673
0.578143
1.62602
-2.20416
-0.325924
-0.101258
0.427181
6.16535
-5.22164
-0.943704
-3.08354
-2.26905
2.64432
2.3566
-4.06489
-0.385744
1.14416
-2.48749
-2.13322
-5.68114
7.81436
0.0113687
0.940106
-2.67716
5.55236
2.63352
3.18607
6.47004
-3.71637
-2.75367
-5.26028
4.13884
3.08313
-5.7575
2.67437
-3.11403
-0.266609
3.38063
-1.78356
-0.405738
2.18929
2.28281
-1.26182
-1.17434
0.882628
2.64506
-0.30628
-1.89172
-5.68026
-0.938732
6.61899
-1.38314
0.250656
-2.03537
2.28705
0.554453
-5.14536
1.19792
-5.62399
-5.20942
-1.06855
1.33096
-0.262415
0.146957
-0.28335
-2.36382
1.75941
0.604406
1.51142
0.74223
2.43395
-0.583913
-1.85004
2.37848
0.61079
-7.49291
5.35969
2.85996
-0.351399
-1.03931
-2.4992
5.24785
-4.85996
-0.387888
0.562822
-4.89007
-2.78912
7.67919
3.92474
-4.34243
0.417693
-2.25377
1.78272
-0.710942
-0.271103
-0.417443
-2.35311
1.64664
-2.67734
1.0307
1.98921
2.13996
3.25314
-5.72425
2.47111
1.42015
-2.66434
1.24418
-4.86436
0.88329
0.20583
1.86012
-2.04928
3.29171
-1.24243
-1.20552
1.57639
-0.370873
-2.30816
0.343886
-0.584785
-1.26718
1.85197
0.545763
0.0116239
-0.557386
-1.26885
-1.18208
1.80695
2.25192
-4.05887
5.77574
0.971571
0.668103
-2.26765
0.0138706
2.40297
-0.982814
-3.09407
-0.595133
2.05387
-1.89019
-0.163685
5.09062
-2.26422
-2.42373
3.66449
-1.24076
-0.638608
0.735103
-0.0964949
3.5387
0.105813
1.55629
-7.23743
-2.48604
4.38463
-1.89859
2.69463
-5.5403
2.84567
3.19439
2.90124
0.0859925
-0.100016
0.014024
0.514127
-3.62815
1.17615
-4.72796
3.55181
0.328319
0.436439
-0.545788
3.09609
-4.09916
5.29708
-3.10985
6.38691
0.99433
-5.02013
-3.48357
1.67693
1.80663
3.23721
-0.577707
-2.6595
4.68433
-0.92497
-2.66883
-2.04019
-1.03839
3.06349
-0.00910538
0.362428
-0.353322
1.6346
-1.53406
-3.62264
3.07686
5.13204
1.19115
-3.81304
1.3893
4.60635
-1.96202
-1.76263
1.95239
-0.189756
0.131354
-3.04724
2.91589
-4.4984
0.812286
3.68612
4.26351
-4.26351
-2.16313
6.83482
-4.67168
2.17061
0.263343
3.11394
-1.59302
-1.52092
-4.58893
4.7932
-0.204267
1.77394
-0.0858036
-1.68814
1.37803
-0.545401
-0.832626
0.586896
-1.50436
0.639715
0.972823
-4.96398
-4.07733
4.76768
-0.690351
-1.44533
3.25229
-0.163095
0.039886
0.123209
1.77345
-1.91777
0.144319
-1.92245
2.10161
6.44298
-5.14472
-1.29826
-0.431627
-2.56509
2.99671
-1.21769
1.34125
-0.123562
0.693398
-1.41223
0.718835
0.797835
-0.729522
-0.068313
0.329621
0.419735
-2.03451
0.271884
-0.0819317
-0.0114035
0.0933352
3.06608
3.09926
0.0496787
-0.212774
-0.282252
-1.32633
1.60858
-2.56146
3.99611
-1.43465
0.90063
0.855607
-1.75624
1.66736
-1.47226
4.7373
-2.25312
-2.48418
0.10951
-2.12621
0.830035
3.99542
2.20641
1.30119
-3.5076
2.36516
-2.0139
-0.351262
-5.05868
0.949419
-1.88965
0.785818
1.10383
2.29778
3.30629
-5.60407
-3.17197
2.90537
0.352004
-4.58031
4.22831
-0.655057
0.951349
0.376863
-0.320791
-0.0560723
0.280622
-1.78075
-0.315448
1.2063
-0.890853
-3.12815
-0.856059
3.0583
1.24842
-0.319798
-0.928622
-0.666567
0.0279598
0.780248
-3.49901
2.71876
1.26574
2.57271
-3.83846
2.26715
-3.4715
4.236
-0.7645
-3.62055
2.72834
0.0982343
-0.0728552
-1.89268
-1.33352
-1.35878
0.355845
1.00293
-4.29709
1.73563
3.27119
-3.70282
2.62335
1.98299
-1.77299
1.57348
0.199518
1.38347
-5.23951
3.85604
0.809456
-1.39671
0.587258
7.6999
-6.14361
-2.95397
-0.282303
-1.62289
-0.0841339
1.53271
-0.535898
-0.996815
2.05277
0.0387271
-0.151647
0.11292
5.34443
-3.04665
-3.65273
7.35779
-3.70507
1.38893
0.883907
-2.27283
-1.69226
1.0372
-1.13594
-0.22284
2.22511
0.888835
6.08892
-4.84137
1.63024
0.423631
3.03216
2.10054
0.759423
-4.50999
5.09098
0.622661
-2.2044
1.58174
-0.46488
-4.11882
4.5837
-1.22346
1.3573
-0.133836
-1.53839
1.81767
-2.71385
3.61326
4.06738
-2.11672
-2.01954
-0.344274
0.0632209
-2.1247
2.06148
2.41114
-4.14189
-0.60105
-2.25612
2.85717
-0.748381
1.7179
-0.969524
-3.21066
0.175328
3.03534
5.20466
-3.007
-0.0811638
0.492342
-0.411178
-1.14073
-0.0769604
0.83297
1.87014
-2.70311
0.84056
-1.00308
0.162518
1.36339
0.49676
-1.86015
-2.24652
6.05367
0.543331
0.00243191
-1.35065
-1.69527
3.04592
-2.123
1.62176
4.62557
-3.35983
-1.81723
1.23245
-0.291993
-0.0339304
-2.54312
5.62625
0.613374
-3.79874
3.18537
5.18748
4.37339
-9.56087
-2.35723
3.39986
-1.04262
1.9612
-2.20223
-2.04012
4.24236
0.19577
-0.0580885
-0.137682
-1.38681
-2.44498
3.83179
-0.397408
2.17086
0.207755
-0.265577
2.55549
-3.9423
-3.47202
-1.10794
4.57997
-0.269629
-2.44535
2.71498
-0.430476
6.66465
-6.80964
0.144992
1.08659
-0.695034
-0.391553
-0.171982
-1.60101
1.28862
1.19913
-1.62903
-0.154523
-3.95663
5.03176
-1.07513
-0.757426
2.6329
-0.0814503
3.87017
-4.83274
-1.57549
0.296796
-0.07315
-0.223646
2.65359
-0.553051
-1.11802
1.21494
-0.096919
1.77873
-1.91713
-5.83808
2.21599
4.50537
0.980441
-0.578496
1.27189
-0.995154
2.38408
4.39337
-3.42054
-1.12884
0.0108137
-0.657069
-2.96557
0.928655
1.34196
-1.3166
-4.61156
0.113155
-0.818986
1.09552
-0.286069
0.230376
0.264705
-0.495081
7.55797
-0.966139
0.984055
-0.323927
-0.660128
1.61707
-1.38828
-0.228794
-1.65606
0.711908
-4.93125
2.44521
2.8955
-1.72044
-1.17506
-0.157994
1.21508
-1.05708
4.98447
0.0183696
-5.00284
1.13163
0.098626
-1.23026
-0.761439
-1.3298
1.18387
-0.099474
-0.225009
0.114218
0.110791
2.07334
-0.0717115
-2.00163
-0.195112
-0.0298967
4.7056
-3.23265
-0.174111
-0.730226
0.904338
-5.10852
1.15189
0.215769
-0.777284
2.31738
0.018092
1.23033
-0.628506
-1.2381
1.1365
0.977874
-2.11437
3.32645
-0.0223292
2.09689
-1.47423
1.1898
-1.04839
0.399514
-1.60504
2.4798
1.2301
-3.70989
2.72367
-0.254048
-2.46962
-2.80323
-1.21229
-1.9279
0.248911
1.67898
1.89993
-1.9742
0.0742707
5.44619
-0.120379
-5.32581
-2.14816
0.903511
1.24464
-2.53107
3.34054
-0.809468
2.95367
3.25994
-6.21362
1.93066
-2.2505
-1.50164
2.19202
-0.690379
1.06318
0.542428
-1.60561
-5.3847
3.41371
1.97098
0.135906
-0.0216874
-4.22903
0.757012
1.58042
-0.987868
-0.592555
2.33994
-2.9846
0.644659
-0.438561
-1.00286
0.958102
5.70655
4.11605
-0.728202
-3.38785
-4.13818
0.666681
1.70913
-2.74843
3.66208
-6.12614
2.46406
-0.503867
1.47492
-0.0417279
-1.79791
1.51566
-0.805118
1.13303
-0.984436
-3.76482
4.74926
3.00851
3.08669
-3.62646
3.87622
-0.249755
0.518994
1.01372
-2.56311
-1.10536
-0.615123
0.681637
-0.0665137
1.43236
0.328009
-1.76037
-0.907186
1.51228
-0.605096
-0.35399
2.69393
-3.75344
0.158872
3.59456
-3.92283
-1.14067
5.0635
2.27915
-1.75297
-0.526175
-1.44197
0.0562017
1.38577
0.432851
0.0304245
-0.463275
-4.81388
0.259224
4.55465
0.148387
0.965694
-1.11408
3.84951
-4.36075
0.511242
-2.49373
1.32442
4.17475
-5.49918
0.043497
-0.65862
-0.156981
-4.66426
4.82124
3.20474
-5.39356
-4.72827
4.13237
0.595892
1.01477
-0.174206
4.07989
-4.16134
-0.254117
-1.14306
1.39718
-0.0774719
1.00739
-0.929923
-0.67944
4.59953
-3.92009
5.13079
-1.92395
-3.20684
5.06278
-4.86396
-0.198822
3.74041
-1.33244
-2.40797
0.237135
-1.17291
0.935779
-1.48841
-0.118083
-4.84564
4.24018
0.605468
0.243919
-5.08956
-2.71185
3.42897
-0.717123
-2.79851
-2.42314
0.979724
-0.835596
-0.144129
-4.01546
-1.09306
-0.932189
0.621667
0.310522
-2.01871
1.23916
-4.67209
4.45484
0.217253
-0.292671
-0.154661
-0.413201
1.24484
-0.113207
-2.92179
0.600415
0.712582
-0.846759
0.134177
-1.3831
2.05955
-0.676448
2.02705
-0.253106
-1.0177
3.41972
0.118981
1.74273
-0.738309
1.28007
-0.541756
-0.408314
2.54331
-3.0534
2.05349
0.999907
0.163898
-0.0279923
5.99453
-2.98602
4.56473
-3.18126
-1.08905
-0.734797
1.82385
2.99587
-4.78079
1.78492
2.78957
-3.0592
3.55346
-2.18926
-1.3642
-0.0305096
-2.63927
-0.414133
-5.42867
6.14968
-0.721011
0.0244892
-1.72349
5.66282
-5.24796
1.2325
1.9233
-1.34516
-0.429707
0.239502
0.800275
-0.0231149
-2.38654
-1.2944
5.91374
-2.89879
-2.38449
1.3308
1.05369
0.313923
1.0641
-3.87986
-1.49202
5.37188
0.496355
1.78646
-0.00849858
-0.722133
0.730631
4.09755
-1.29922
0.453781
0.845439
3.83018
-1.35039
-1.60662
-4.86725
0.789919
-1.17578
0.0799494
1.09583
3.18787
3.73908
0.886564
-1.51976
0.633196
4.8701
0.192684
3.01328
-4.18391
1.17062
-4.04261
-0.0726987
4.11531
-3.9352
5.03414
-1.09894
0.69456
-0.0144406
-0.68012
-2.10599
5.31073
-0.454823
-2.13778
2.59261
0.228511
-3.85497
1.48986
-0.595754
-0.894104
-4.6645
6.10944
-1.44494
-0.986355
2.65943
-1.67307
5.8051
-2.56588
-3.23922
0.00257057
-2.93011
2.92754
-0.190369
-0.130423
-2.62177
5.57544
3.60864
-5.77177
5.54113
-2.8465
-0.940377
0.766266
-4.25491
0.212302
6.14737
-2.89422
-0.122938
-6.63008
1.4992
0.0137745
2.65579
0.455066
-3.11085
2.68085
-0.667926
-2.01292
5.1561
-5.56479
0.408687
-0.977574
0.0459482
0.931626
-0.900813
-2.43478
3.33559
1.74886
-1.34935
-1.76887
0.0272914
1.74158
0.527951
1.32197
-1.84992
0.396267
0.583457
-5.33659
6.12287
-0.786277
-1.19194
-0.0315235
2.28812
0.957951
-3.24607
2.33877
3.06776
-5.40653
0.818529
2.41868
-0.0233732
5.54582
-0.0538374
3.94392
-3.89008
1.33133
-0.4307
0.382517
-0.152062
-0.230455
6.5667
-4.7449
-1.8218
2.10894
1.44452
-0.150562
0.276457
-0.125895
-1.36924
3.94287
-2.57363
0.0492821
0.808845
-0.858128
3.90655
-5.21739
1.31084
-1.80211
-2.29793
4.10004
4.07595
-0.859406
1.38672
1.29412
-3.20789
0.388686
2.81921
1.41218
-3.97727
1.41241
-2.30763
0.895213
0.944035
-0.335435
-0.6086
0.373607
-0.563976
-0.337392
3.93586
-3.59847
-0.859914
5.4878
3.77626
-3.08276
-0.693499
3.17024
-2.6798
-2.46873
0.804953
1.66377
0.748166
-2.34118
2.23049
-2.0339
-0.196589
0.298628
0.685427
0.756461
3.61839
-4.37485
1.33359
0.739754
0.626328
-4.54916
-2.07173
0.0281824
2.04354
-1.74044
-1.01764
2.75808
2.46544
-1.32894
-4.16646
2.72113
1.34735
-1.00298
-0.344375
-0.880523
3.94838
-3.06786
-2.15871
2.26822
-2.2194
2.05937
0.160025
0.416359
2.73854
-3.1549
-0.0941002
1.12442
-1.03032
-1.48904
1.33104
-1.18048
-2.01358
1.05693
0.956652
-2.7323
3.41098
2.46662
-2.57197
0.105356
0.795222
1.76016
-2.55538
-6.31665
4.08208
2.23457
0.314975
0.454266
-0.769241
0.0212831
3.52845
-4.20789
4.59391
-1.59803
-1.5484
-1.93516
-3.52105
3.46721
2.38001
-0.0497766
1.83002
0.514892
-2.34491
-1.69112
1.52598
0.165139
-1.33747
1.08685
0.25062
-1.18086
-2.23555
3.41641
0.458167
2.69225
-3.15042
-3.57073
-1.29501
4.86574
-1.78351
2.57874
4.08215
2.48455
-4.76643
0.919827
3.8466
-2.23972
0.896017
1.3437
0.039962
0.884909
-1.15587
0.27096
-1.32517
-4.72118
3.54032
0.686062
1.00882
-0.771683
0.0409558
1.39141
1.18033
-5.26663
0.0909401
1.44876
0.284437
0.732522
-1.01696
-3.18102
-2.63732
5.81834
-1.52886
-1.67904
-2.42559
-0.478442
2.90403
0.356913
1.16612
-1.52304
0.0452084
5.53411
-3.54187
-1.99224
0.89308
3.22297
0.505219
0.107404
-3.07503
2.96763
-2.84054
4.73244
-1.8919
-2.70897
-1.25214
3.96111
-2.25873
0.757092
-1.89103
-0.577701
5.32543
-2.31359
-3.01184
2.38577
-0.409149
-1.97662
1.7924
0.312092
-2.1045
-0.826702
0.975089
-0.652683
-0.184899
0.837582
-0.529766
-0.169034
-1.03642
-0.0391656
3.1813
2.14413
2.57399
1.19064
-2.22863
5.87008
2.2844
0.101373
-4.14706
1.43809
3.60038
-3.08625
-0.535922
-3.12086
0.589787
0.607194
-3.31904
3.48668
-3.35532
4.08878
-0.16404
-0.996157
-0.54488
-1.11115
-0.417142
1.52829
-1.47869
-0.2257
3.68757
0.655035
-4.3426
0.0601986
-1.22789
1.1677
-0.552041
-0.193141
-2.42677
2.61991
4.19136
-0.341846
-4.26223
5.00716
-0.744931
1.0492
-0.699443
-5.26794
-1.0487
-1.36527
4.3513
-0.111125
3.51284
5.32608
-1.81467
-3.51141
-3.10292
-0.158224
3.26114
1.09924
2.37942
-3.47866
-3.45646
0.245796
-0.850723
-0.551499
1.40222
-2.33943
2.9528
0.677468
2.48548
-3.16295
-0.756776
-0.266571
1.02335
-4.66978
0.593882
4.0759
2.67036
1.92355
-1.35914
2.72679
1.01362
-1.30078
-0.588873
4.11289
-4.98456
2.43829
-1.62065
-0.817639
2.24614
-0.315481
3.31706
0.186758
-3.50382
3.59403
-5.82266
-0.020013
0.191837
-1.82901
3.16403
-1.33501
-5.18568
5.0287
-0.184836
1.50466
-1.31982
-0.618697
0.649423
-0.0307258
-1.59783
0.0594444
-1.23917
2.9483
0.995527
1.89997
-0.754486
0.797983
-2.24093
0.79836
0.337603
-0.322079
-0.994889
0.94053
0.0543595
0.989384
-1.1398
0.150414
-2.52166
-1.65219
0.643902
-3.06949
-0.449939
-1.516
0.0227735
2.7471
-2.76988
1.55229
-1.86473
0.840392
-3.8819
3.04151
0.130949
3.5414
-3.67235
-6.41563
0.735374
-2.91924
-0.10796
-4.62031
2.79824
3.1155
-3.61558
-0.550875
-7.10976
2.21969
-2.0663
0.799117
-0.0304866
-0.364401
0.394887
6.28302
-3.09515
2.99227
-1.81612
-1.18791
-0.711008
1.89892
-5.68503
2.58323
3.1018
-2.27986
1.8256
-3.3176
4.64202
0.785851
-0.469071
-2.29661
-2.01063
1.55581
1.7304
-1.84572
0.115327
-0.62776
4.31533
-1.66705
2.0786
-0.411545
4.91078
-6.19353
2.67483
3.5187
0.679846
1.26458
-1.94443
3.62608
-0.722185
-2.9039
-2.51848
1.53212
-3.02259
-0.0260788
1.81848
4.40579
-4.87067
1.99638
-0.9332
-1.89917
3.31135
-4.03749
4.44026
-0.402774
3.9157
-5.33484
1.41914
-3.38155
3.62915
-0.247605
1.97861
-2.38693
0.0493506
1.05569
1.22346
1.78341
-4.63043
4.82455
-4.2534
3.1138
1.13959
1.1012
-4.20412
5.15019
-0.17132
-2.88111
0.582228
1.17006
5.08647
-1.73317
-3.3533
-0.837137
1.10348
-2.84392
0.761864
-4.6017
4.44348
-3.80119
1.59896
2.30201
-4.82055
1.94304
2.87751
0.327153
1.63461
-1.96177
-0.258227
0.872006
-1.62039
-4.81587
3.39732
1.41855
3.24931
-5.3553
-5.0632
-0.273388
6.06699
-2.40492
1.0864
0.989246
-2.07565
-0.132432
-0.75487
0.887302
-0.984245
1.10884
2.59282
-2.13087
-2.68968
0.778147
0.970717
1.05664
1.73681
-2.79345
1.8473
-1.12812
-0.0654994
-5.17908
5.24458
-1.57159
1.83221
-3.35437
-3.34885
-2.22999
5.57885
1.1216
-1.66961
-3.2457
0.93631
2.30939
-0.248683
-0.0479405
0.296623
3.65872
-4.64316
0.863683
-2.6927
2.93622
2.66493
-5.60116
-1.92485
-0.459641
-3.92548
1.09239
2.83309
-4.11068
2.30857
1.7914
-4.63194
1.9811
0.457184
-0.46242
0.213738
-4.7485
9.93598
-2.89844
3.67229
-0.773843
1.81244
-0.162048
-1.65039
-2.55844
-0.0831629
-0.985386
0.218405
4.0451
0.577226
0.157876
2.60643
2.75688
-0.58627
2.40702
-0.723389
-0.614086
-4.38724
-0.284853
-5.62081
-3.23137
-3.5595
0.784059
0.970507
-1.75457
1.78593
0.120641
-1.90657
-0.524132
0.509691
-1.61485
-3.3164
-3.72117
-0.621266
-2.32563
5.91966
-1.63988
2.22182
-0.581941
-4.75336
1.57234
-1.35945
2.41609
1.5941
-1.36372
-2.27871
-1.42783
1.48195
-2.97294
1.58984
5.04529
-0.693989
4.28702
-0.900181
-3.38684
-0.294602
2.37798
1.24075
4.80492
-4.45292
-0.0532245
-1.10345
1.56009
-2.33825
2.49149
-2.18306
-2.1896
1.11754
0.768225
-1.88577
-4.33346
0.0699566
-0.611549
3.6863
-3.07475
0.222744
-4.48497
-3.25103
3.90934
6.70816
-3.05514
-3.65303
-0.545764
1.33158
3.2362
-1.73075
-1.50545
1.25732
-1.42636
0.237848
0.144669
-0.70739
-0.0114295
0.71882
-0.483517
2.31354
-2.2174
5.46671
-0.129681
-0.705915
-1.32947
-0.382809
1.71228
-0.21449
3.87321
3.81493
0.216198
-4.03113
-1.84807
2.68104
1.97687
1.96601
-2.19614
0.124412
2.55666
-1.02097
-1.53569
-0.281172
0.13524
0.145932
0.718873
-3.7687
3.04983
-4.41951
0.69834
1.07656
-5.68628
2.45491
-0.0813347
1.33866
0.563997
-2.20388
-2.6222
1.58382
-4.87608
1.48857
-2.14636
0.223914
-1.81066
-2.52544
4.33611
0.895801
0.158761
-0.19768
0.0389192
5.02492
-3.81229
3.72486
-2.62562
0.657399
2.52864
-3.18604
0.915568
-1.76629
-6.70117
4.19702
2.50415
1.18552
-1.39923
0.213713
-2.88004
5.8163
-2.93626
3.14153
-2.06423
-1.0773
1.88859
0.778906
-2.6675
-2.65954
-3.53399
-1.52165
-0.101243
0.114189
1.15989
-0.0851264
0.458844
-0.373718
-3.16975
-0.755727
3.29061
2.674
-2.55255
3.037
-0.484447
-1.20268
1.65646
-0.297136
1.12827
-0.831132
0.489572
-2.15662
-0.500374
-4.3155
-3.11229
1.18967
0.157684
0.483406
-2.02917
0.356851
3.4482
-3.80505
-2.37313
-0.548662
-0.678129
6.45387
0.334117
-1.31496
-0.249769
0.0697686
0.180001
0.0893865
-1.53033
1.44094
0.860207
2.2383
-0.274941
3.86458
-1.87538
3.71786
-1.88565
-0.494341
-1.22657
1.72091
3.5213
0.4419
0.0816162
-3.13036
2.22955
1.65319
-1.86768
-2.15465
-3.09543
5.25009
-2.92047
-2.76456
-5.46738
5.70926
-0.241888
1.21457
-1.64462
1.22748
2.50693
1.35766
-1.42804
2.51811
-1.09007
-3.96134
-3.84169
3.83932
-6.68849
2.84917
1.86561
-1.36925
2.21525
-0.802833
2.5739
-4.18876
2.12131
-1.65206
-3.24164
5.8857
-2.64405
3.11449
1.99875
1.42267
-3.42142
5.19915
-2.95546
-2.24369
-2.90074
-2.69565
5.27149
-2.57584
1.17882
3.1082
-1.39728
1.31594
2.00252
3.80258
-1.03358
0.901145
0.0701981
-0.031471
4.50291
-2.52686
2.51815
3.76487
-1.92507
0.993077
0.931997
0.94761
-2.03666
3.50336
-0.186297
2.71604
-1.62963
-3.10672
-0.594022
3.70074
0.877384
-0.15892
-0.718463
0.696388
0.390199
0.61298
-4.54818
-1.35328
1.6339
3.19722
-2.85087
-0.346355
0.863503
1.69316
-0.689694
0.365767
1.36579
0.906341
-2.27213
-1.93218
5.00209
-0.976827
-2.82816
5.27392
-2.44576
-1.23908
1.76703
0.450914
-1.20769
5.02333
-2.49029
-1.5746
0.951535
2.67455
1.38838
-1.83832
-0.897922
0.803822
-1.2838
-0.661015
-0.00555296
1.76944
-0.743673
3.76856
-3.02488
-0.290952
0.209021
-1.58545
0.442388
-1.5225
0.000847779
-3.4666
2.11595
1.24614
0.94588
-2.17375
1.44014
0.733606
1.05423
0.433428
3.67829
1.97843
-5.65672
-0.463661
-0.108102
0.571763
2.23489
-5.88762
4.56734
2.14082
3.63755
-3.2807
-5.23877
-0.517912
-0.0433235
-0.0485749
2.14596
3.45454
2.46986
-5.92439
1.93497
-0.382681
-0.169983
-1.51697
-0.408106
-0.305249
-1.88394
2.6321
4.4708
2.88699
2.57137
-2.6397
0.0683348
0.923055
0.0174747
-0.281844
1.18164
-0.19226
3.39939
0.896573
-4.29597
1.95474
-0.224346
-1.0572
0.626291
0.430912
-1.59237
-0.0953017
1.68767
1.43066
2.69323
-4.1239
0.909067
1.55637
3.19301
-0.120698
-1.21853
2.55802
0.198864
0.270249
0.213703
-0.483952
-4.39721
2.87365
3.9047
-3.06837
-0.836327
0.0808208
-0.686187
0.605366
3.73377
-4.07116
2.54584
-0.680235
1.75244
1.97242
-0.590372
-0.0706423
-0.445902
0.56582
-0.119918
-2.51034
-0.582983
4.98654
-2.55879
-2.42775
2.84043
0.314185
-3.15462
2.0093
-3.17706
1.16776
-0.749502
2.18563
0.217341
-2.49804
5.41465
-2.91661
0.0149421
-0.460845
-5.44455
1.9563
0.1223
4.45438
-0.0200917
-4.43429
-1.30169
-1.00964
1.29408
0.301298
-0.0248406
1.20064
1.96339
-1.90148
0.994296
0.0382752
-0.22491
-0.603622
0.541892
-1.82203
2.47943
0.0156849
1.32627
0.112659
-1.01564
2.757
-0.22241
2.79378
-0.929095
-0.548787
-0.89403
2.25982
-0.698628
4.05645
-3.35782
-3.66317
-0.565867
-3.54474
5.33644
-1.7917
-0.10698
2.06328
1.5002
-0.249959
-0.0637255
-1.18229
1.24601
-3.70442
1.21413
0.533555
-0.614719
1.94114
-5.82101
2.03559
-3.73087
-3.40446
4.92793
-2.3292
2.311
-1.40466
0.0391579
-2.77491
3.49378
-0.0141252
-0.700938
0.599428
-2.3524
-0.482637
-2.72421
3.20685
-2.47786
4.21084
6.48367
-4.16502
-2.31865
-0.948759
0.363506
1.10736
0.0883176
-1.19568
-3.64063
0.742186
0.844443
0.0995925
-0.043046
-0.573941
0.616987
2.04692
-5.59166
0.434383
2.03085
0.157342
-2.18819
-4.53019
3.83157
0.700188
0.161174
-0.861362
-1.33152
-0.682059
-0.628012
-0.0207494
0.648761
0.909801
-0.209613
-0.0461948
3.25765
-2.43912
2.65434
2.25918
-1.35011
-4.71064
1.36178
-3.00187
2.47148
0.530395
2.94075
-5.09541
-2.2958
-1.23072
3.52653
-0.119644
1.78128
-1.35366
1.26786
5.00622
-0.770526
-4.23569
-0.0156774
-4.37156
2.84715
-0.958562
1.48954
1.74666
-0.695214
-0.0269185
0.683384
-1.01542
-1.66192
0.164838
-0.146073
-0.0187648
0.00712586
-4.51294
4.50582
-0.872914
1.86261
-0.989696
2.66488
-3.94299
1.2781
-0.401635
-2.41493
-0.175036
0.0131906
2.98883
-1.6084
-0.770371
2.37877
-1.52394
-1.60421
2.00949
-1.24126
1.24102
0.756203
-1.99722
-1.76755
-0.406194
-2.86185
-0.55461
-0.205928
0.760538
0.882472
0.728655
-1.61113
2.95115
-6.41776
3.46661
0.164633
-2.469
0.784617
-5.44912
-1.73868
-3.45582
5.1945
-4.23221
0.185548
4.04666
-5.39128
-3.53556
0.154019
-1.49157
1.43205
0.0595158
-5.77331
-1.45167
4.85107
1.77874
-0.80087
0.543467
-1.4375
-0.59676
2.15313
0.664717
0.388685
-1.71815
0.07941
-0.761663
0.682253
-0.62771
0.205936
-0.493351
0.574171
-1.35543
2.03527
-0.98345
1.40888
-0.425431
-1.66108
0.486744
2.41482
0.884541
-0.00715749
0.752646
-2.18068
-2.16936
-1.07635
-2.40119
0.730532
1.67066
-0.415657
1.93624
-1.52058
-1.93356
2.02295
-0.328146
3.18796
6.20347
-2.38854
2.17404
-3.69798
1.89645
-2.49012
0.593667
0.492434
-9.17435e-05
-0.102588
0.00257185
-4.28894
2.47828
-0.154279
2.99471
0.0518672
-0.918305
0.866437
-7.38939
3.01267
1.5169
-2.73348
-0.857241
-0.114332
-0.960404
1.07474
-2.46656
0.858161
-4.56507
4.0647
6.24707
-3.31085
-1.26182
1.19591
0.06591
0.499779
-0.572929
-0.671058
-0.980803
0.0301227
0.950681
-0.646096
0.537994
0.20049
1.51453
-1.71502
1.35825
1.1876
0.6328
0.302243
-0.935043
-1.34628
1.36197
0.498992
-0.170673
1.7433
-2.71738
4.54849
0.321605
-4.43207
0.00627191
4.15886
-0.128723
-4.03014
-0.990065
-1.48439
2.47445
1.4385
-3.82504
-1.85
4.27072
-2.42072
-0.191626
0.0102644
0.181361
-4.36501
4.32597
0.0390369
-1.9131
2.7535
4.35161
0.779181
2.37405
-1.40267
-0.971372
-0.0674892
0.364414
-0.296925
-0.524738
-1.46282
-0.0255874
-1.36557
-0.0972527
0.167985
-1.44119
1.27321
-0.419246
4.18593
-3.76668
-3.45712
1.22968
2.22744
1.09863
3.88584
0.121966
0.175391
-0.297357
2.52054
0.998406
-3.51895
0.502734
-0.53322
-2.5309
4.40206
-1.87116
-3.69681
0.590096
2.88548
1.09647
-3.39227
-0.0157347
-0.559388
0.575123
4.69744
-1.36853
-3.32891
1.89893
1.06069
-3.57777
2.28337
4.78942
-4.85492
-2.22672
0.469291
1.75743
-0.189396
0.947858
1.08008
-2.02794
-0.091405
-0.60705
0.698455
-0.0481891
0.576531
-0.528342
1.24836
-1.4967
0.248336
-2.4221
4.996
-1.27724
1.34046
1.57523
-1.37474
1.41056
-2.40776
0.997195
-1.29429
-2.74319
0.431719
0.0011324
-0.0558933
0.0511308
0.00476247
5.72341
-0.916934
-4.80647
0.418888
2.77833
-1.05339
-0.637727
-2.49045
0.365754
2.06102
1.96058
-4.0216
-0.000531656
-0.0583178
0.0588495
-0.0222504
1.63932
1.86325
-1.84876
-0.0144905
5.84747
-2.6418
-3.20567
-4.9832
1.21838
1.34455
-5.47302
0.406852
5.06617
0.90347
-5.00263
-2.20716
1.42988
-0.0241951
-0.0783932
-2.09327
4.44629
-2.35301
0.648529
0.137322
1.03871
1.3332
-1.03778
0.908102
-1.21679
2.1203
-4.97082
4.71196
0.258861
2.63309
-1.71719
-0.9159
3.60447
-2.74426
1.06585
0.275407
-1.09288
0.887612
-0.190143
-1.635
2.98221
-4.90616
-5.08984
2.59179
-0.0332914
0.0637159
0.618809
0.290992
-0.0807258
-0.1109
3.79218
-3.88418
0.0920059
3.4155
-2.08133
0.886889
1.19444
0.418903
-1.52235
-1.50694
-3.91004
-1.07417
0.915254
-0.689537
-1.2643
1.95384
-3.4797
0.7474
0.747659
1.64851
-2.39617
0.0291373
1.15638
-0.910796
-2.55535
5.62311
2.8713
-3.57456
0.899765
-2.27451
1.37474
-1.25103
1.58514
-2.81085
-4.57854
-0.385701
-0.232995
2.66654
-5.28885
4.98416
0.304687
-0.163699
-1.40918
0.210437
-1.6589
1.44847
-4.60178
-2.17346
-0.7032
0.68245
4.37028
2.36822
0.851912
4.2387
-2.91558
-2.62472
3.98714
-0.249913
-3.73723
5.78314
-4.60281
5.89417
-3.0678
-2.82637
1.4236
0.777047
-2.20065
-2.30964
3.32149
-1.01185
-6.849
3.79203
3.05696
-0.164416
1.11873
3.5679
-2.50083
-2.90985
5.41068
5.20958
-4.30611
-3.22103
-0.235427
2.37828
-0.630695
2.20477
-1.57408
-3.66427
5.7112
-5.41867
0.411333
-2.98357
2.57224
1.90977
-3.02847
1.1187
3.59566
-1.84322