/*--------------------------------*- C++ -*----------------------------------*\
| =========                 |                                                 |
| \\      /  F ield         | OpenFOAM: The Open Source CFD Toolbox           |
|  \\    /   O peration     | Version:  2306                                  |
|   \\  /    A nd           | Website:  www.openfoam.com                      |
|    \\/     M anipulation  |                                                 |
\*---------------------------------------------------------------------------*/
FoamFile
{
    version     2.0;
    format      ascii;
    arch        "LSB;label=32;scalar=64";
    class       volVectorField;
    location    "4";
    object      U;
}
// * * * * * * * * * * * * * * * * * * * * * * * * * * * * * * * * * * * * * //

dimensions      [0 1 -1 0 0 0 0];

internalField   nonuniform List<vector> 
13486
(
(7.48177 -1.09985 2.37263e-20)
(8.45691 1.24522 1.29695e-20)
(13.2944 0.468712 0)
(-8.31235 0.0519082 -1.3768e-19)
(12.2981 -0.804842 -8.79014e-21)
(11.9778 0.839875 -1.37137e-21)
(11.3014 2.1538 -1.26398e-21)
(10.7895 -3.3341 -9.17983e-23)
(9.93561 -1.56368 0)
(9.68966 3.3823 0)
(-0.980993 11.774 -2.57926e-20)
(11.6599 -0.870669 0)
(6.70367 -2.10921 -2.32993e-20)
(11.7273 3.72995 -2.88937e-21)
(11.0733 0.395948 -8.44648e-22)
(9.52446 3.56635 -1.14505e-20)
(2.54627 -2.25993 2.50392e-20)
(3.55508 -4.66103 1.9676e-20)
(10.7493 -0.198616 1.42334e-22)
(8.23768 -0.297944 -2.41489e-20)
(-17.81 7.22816 -6.10919e-20)
(6.80164 -2.175 3.00171e-20)
(8.53874 1.18436 -1.03894e-20)
(17.3448 -0.223364 0)
(10.0611 2.77646 3.92496e-21)
(17.838 -0.565492 -1.29537e-20)
(0.764712 0.894818 3.00987e-20)
(14.1219 -0.672129 1.48126e-20)
(10.368 -1.2666 0)
(14.4312 -2.2871 -1.42501e-20)
(-13.1057 5.35267 -2.60125e-20)
(10.0416 -0.436868 -6.68979e-21)
(15.2943 0.116386 1.42385e-20)
(11.6845 -1.37917 0)
(10.8146 -3.13024 0)
(4.17376 0.625129 6.87573e-21)
(1.26208 12.5397 -5.38794e-20)
(8.29865 -3.7498 8.41218e-21)
(1.64795 -8.48023 -9.51817e-21)
(9.89871 -0.871596 8.59023e-21)
(14.6725 -2.15233 0)
(6.04018 -2.85359 -2.83591e-20)
(11.8098 -0.2276 0)
(10.1276 2.36849 -1.84333e-20)
(10.1284 2.36619 7.51408e-21)
(11.9279 -0.878513 6.22038e-21)
(-9.87823 -4.30814 9.28752e-20)
(10.7546 -1.24575 -7.39865e-22)
(1.0856 12.0678 4.2367e-20)
(13.3914 0.266918 5.24641e-21)
(9.94884 0.0853907 1.58285e-20)
(1.91714 -0.963537 0)
(11.1247 -1.8702 -1.17538e-20)
(8.56817 -2.91618 -1.28841e-20)
(3.13065 -6.26459 0)
(12.0801 -1.13511 4.2312e-21)
(9.96687 2.16073 -5.33044e-21)
(3.22627 -1.80102 -5.84241e-21)
(15.5792 0.207672 1.76241e-20)
(6.47294 8.25113 0)
(-1.57362 15.4604 -3.37049e-20)
(6.78648 8.46784 0)
(20.1489 0.781107 -2.15964e-20)
(-16.2881 8.46193 -7.86225e-22)
(13.6823 -7.60458 0)
(3.33578 10.7549 -2.00866e-20)
(-8.23645 1.12542 -1.05492e-19)
(7.32595 0.154196 8.65001e-21)
(9.93478 -1.69394 -3.86881e-21)
(14.3824 4.0803 -1.17236e-20)
(-7.86739 1.11415 1.21817e-19)
(3.36391 -5.98013 7.11102e-22)
(9.81414 -0.430225 7.36018e-21)
(-2.42991 5.62828 -1.54424e-20)
(3.95958 8.0775 -2.22572e-21)
(10.0745 1.9592 1.20247e-21)
(3.45778 8.12977 4.18159e-21)
(11.1995 0.450526 6.47299e-22)
(-9.42003 -6.02004 -3.91675e-20)
(9.95221 -6.46288 0)
(6.32573 1.21552 -3.37805e-21)
(8.32081 1.70613 -8.51923e-22)
(17.4709 -0.204282 -3.18156e-21)
(13.9591 0.266923 -1.36636e-21)
(7.46286 -1.11655 -4.61132e-20)
(7.14039 7.52762 0)
(11.4681 -5.4189 -4.53002e-21)
(9.91854 0.225964 -2.48917e-20)
(9.33669 0.865488 -1.074e-20)
(8.71293 4.70388 -1.44463e-20)
(9.81563 -1.25424 -6.4885e-21)
(11.5146 -2.42627 1.53252e-21)
(7.81776 -1.60421 5.70666e-21)
(8.39585 0.30794 6.6224e-22)
(9.68551 -2.6218 1.44902e-21)
(11.0246 -0.531505 1.25651e-22)
(-0.117299 1.17949 0)
(-16.6508 4.69064 5.17616e-20)
(9.89896 -0.834466 -1.6507e-20)
(0.319519 -1.61036 -3.58857e-23)
(4.78126 0.66258 0)
(11.6667 3.72228 -1.24962e-21)
(-15.6577 4.29654 2.17807e-21)
(-0.128931 -2.27795 6.80748e-21)
(6.36395 7.02761 0)
(-0.314859 -2.58076 -6.29419e-23)
(9.84675 0.150166 -1.10906e-23)
(3.66332 -8.62528 -2.23438e-20)
(-11.396 -5.97133 5.24932e-20)
(11.3364 -4.92945 0)
(9.31594 -4.28521 0)
(9.4392 0.497366 -6.0628e-21)
(8.65287 -2.83216 2.75862e-22)
(10.7962 0.548435 4.58538e-22)
(5.62228 -0.430875 0)
(9.14068 -4.27827 -3.42597e-21)
(9.93833 2.93927 0)
(12.0344 -1.32135 0)
(9.78542 -0.378544 0)
(-1.51199 8.93164 -5.92226e-20)
(4.5969 -4.53203 -7.78751e-21)
(-4.39365 14.8254 0)
(9.4722 -2.35486 0)
(0.527625 -6.93599 2.46798e-20)
(10.0728 -3.16612 0)
(3.07004 -0.119376 0)
(10.7229 -0.639558 1.19763e-22)
(10.62 0.468128 8.43198e-21)
(9.86199 -0.840193 -2.25892e-22)
(16.2097 -11.5233 -4.9806e-20)
(1.40421 -0.468999 2.42411e-22)
(-5.47573 -2.4368 -2.4205e-20)
(2.3743 5.90313 2.98489e-20)
(-0.794784 0.65873 1.95364e-20)
(9.96672 0.0284385 -2.53262e-21)
(9.31286 1.99471 -1.37595e-20)
(5.70278 3.43438 -8.44217e-21)
(11.5007 -4.75951 0)
(1.01025 8.40018 2.47291e-20)
(10.7095 -2.411 -9.65218e-22)
(14.52 0.334194 -1.45757e-20)
(11.2833 -2.0065 9.90025e-21)
(10.6402 -0.975803 0)
(10.9181 -7.34324 0)
(11.6674 -0.189514 1.19937e-21)
(18.5736 -1.42656 -1.68357e-20)
(11.0313 -2.0122 -5.38904e-22)
(-3.4194 6.47094 0)
(13.5606 0.394791 0)
(10.2701 -1.19086 0)
(9.97608 0.0108941 2.93404e-22)
(11.8909 0.401551 0)
(6.21761 0.926975 3.53538e-21)
(8.05121 1.64141 -7.30265e-21)
(10.729 1.58889 0)
(14.6626 0.50343 0)
(12.0854 -5.0408 0)
(5.30388 10.9932 1.36441e-20)
(9.22127 -3.39359 1.38789e-20)
(12.6883 1.37688 -4.65999e-21)
(13.0946 0.217438 1.9815e-21)
(9.2467 -3.30614 -2.04812e-20)
(9.11685 -1.94827 7.22077e-21)
(5.50426 -2.72177 1.23093e-20)
(3.33348 -1.42794 0)
(12.3348 3.84072 1.39727e-21)
(11.3528 3.37573 9.42517e-21)
(2.53786 -0.876175 -3.50543e-20)
(10.5767 -1.82332 1.12362e-21)
(-0.571442 0.731006 5.34561e-21)
(1.33002 6.75965 4.26223e-21)
(10.677 1.42639 6.76332e-21)
(9.99415 0.276911 -2.19621e-20)
(10.8404 -0.342198 2.04904e-22)
(8.92612 1.61488 -3.03545e-21)
(-9.6194 7.96044 0)
(11.4871 5.28181 -5.1662e-21)
(15.2187 0.824763 1.94367e-20)
(9.88176 0.111016 -2.34238e-20)
(10.6641 -1.0132 0)
(10.1406 -1.01858 1.47239e-20)
(10.6961 0.437223 9.47771e-22)
(10.8825 -0.440858 1.05017e-22)
(-1.11839 2.29104 0)
(13.5031 -0.408165 2.56496e-21)
(13.2622 -0.498763 -6.60955e-21)
(10.2818 -0.965207 -4.56604e-22)
(12.6856 -1.83856 -2.97801e-21)
(16.683 -2.45231 0)
(8.41611 -4.01737 -6.47557e-21)
(0.126208 11.3422 0)
(12.6007 0.255244 0)
(3.18849 -3.14835 0)
(7.4693 3.93577 -1.657e-20)
(4.76161 -4.28247 0)
(-3.1246 11.0048 -8.03416e-21)
(12.4107 -8.89771 1.05085e-19)
(13.1674 0.129467 1.26249e-21)
(7.487 -3.59703 -4.45053e-21)
(12.1622 3.53952 2.04413e-21)
(-12.3167 4.01985 2.45989e-20)
(10.7623 0.53615 -2.63219e-22)
(8.24646 -3.85421 -9.74817e-21)
(13.1724 -5.30735 -1.00042e-20)
(12.1828 1.97119 5.82697e-21)
(5.60978 -4.14972 -1.53116e-21)
(0.815667 -5.3988 7.25052e-21)
(9.52478 -0.146031 1.6895e-20)
(3.60629 -2.82944 0)
(13.3732 -0.173383 0)
(13.9767 -1.03377 9.49587e-21)
(20.414 -2.15881 3.80976e-20)
(8.36298 -0.158475 2.21694e-20)
(9.77685 0.179801 2.69124e-24)
(12.0215 1.05098 1.58149e-21)
(11.974 -7.01075 2.94786e-21)
(14.4599 -1.83631 0)
(8.87383 4.3344 3.47169e-20)
(8.20699 -1.66602 0)
(15.5023 4.22425 0)
(0.903808 -2.0945 -4.6846e-20)
(13.798 0.4955 0)
(10.5808 -2.46789 1.84935e-21)
(13.3865 0.259589 0)
(10.6613 -2.60032 -2.23734e-21)
(6.97551 -3.16105 7.89181e-21)
(12.5899 1.88137 5.09662e-23)
(-11.5261 2.29953 2.4694e-20)
(6.55309 -3.07828 -2.25173e-21)
(11.3238 -5.92359 -3.56538e-22)
(10.1485 -0.979692 -4.80494e-21)
(19.4675 9.08873 9.47452e-20)
(14.8539 0.519899 1.82193e-20)
(5.8859 -2.77102 9.85606e-21)
(-17.1855 4.49053 0)
(6.83467 -3.26788 8.74476e-22)
(12.1606 -1.82242 4.75183e-21)
(12.8838 0.192633 -1.24826e-21)
(7.00627 -3.29511 2.45086e-20)
(10.9745 -0.407861 0)
(15.6369 0.28788 0)
(9.98235 0.24471 3.3873e-20)
(11.4269 0.23057 0)
(6.84056 -3.32953 7.5485e-21)
(8.92266 -13.4947 -3.56084e-20)
(9.12901 0.241919 0)
(11.486 -0.130713 -1.55714e-21)
(16.7581 -1.53876 3.73082e-20)
(-1.85042 1.22861 3.58007e-20)
(9.94732 2.23072 0)
(-13.5944 7.9107 -1.87423e-20)
(5.51932 -0.297721 3.90171e-21)
(8.75401 -4.2456 3.37704e-21)
(4.40952 -8.66642 0)
(7.48384 -4.32417 1.96056e-21)
(-7.60866 8.69969 1.54191e-20)
(10.0721 -0.528153 6.67593e-21)
(11.981 -6.59993 -3.72512e-21)
(7.09443 9.66583 -1.42825e-20)
(15.3658 -0.0155358 1.30689e-20)
(8.92544 0.963609 0)
(5.64325 -10.93 -6.4244e-22)
(10.9651 0.369812 1.69484e-21)
(-8.51055 8.69655 -1.92503e-20)
(12.6121 -3.02103 1.23723e-20)
(0.701954 0.506008 0)
(10.0395 -6.02015 -4.75857e-21)
(-15.5343 5.85807 -4.64436e-20)
(10.075 -0.0039074 -9.23652e-21)
(7.13833 -4.60023 0)
(7.43578 4.16684 1.30983e-20)
(9.84757 0.172563 -6.57598e-21)
(13.9487 -2.0499 0)
(11.7563 -1.51675 5.8372e-21)
(7.18149 -3.31785 1.04397e-20)
(16.1798 -2.69427 -2.09474e-20)
(11.5287 -6.72335 0)
(4.09259 -13.1594 0)
(7.27629 -7.75547 -1.1243e-20)
(10.7865 -2.13935 1.54405e-21)
(3.78817 -13.2841 2.71513e-20)
(10.4107 -0.552805 -5.47939e-21)
(9.69853 0.26136 1.42055e-20)
(17.3718 1.56644 -1.52855e-20)
(-5.60229 15.2148 4.37219e-20)
(3.45701 -0.436377 5.52823e-20)
(14.651 0.868837 1.47688e-20)
(10.1537 -1.09413 2.97038e-22)
(12.4103 -2.90877 3.54522e-21)
(10.0584 -0.0181037 0)
(-18.5415 4.70674 0)
(14.5093 9.59946 3.24887e-20)
(8.97937 -4.14551 4.88847e-21)
(10.0032 0.0511238 -2.45962e-21)
(12.2409 -1.79652 3.08047e-21)
(12.4742 -1.83778 0)
(12.1995 -0.0496154 -2.81219e-21)
(12.4859 -1.31478 -4.8284e-21)
(9.68902 0.222648 -1.28377e-20)
(13.5606 1.66375 -1.96721e-20)
(7.69183 -2.01775 -8.73662e-21)
(0.746012 -5.5983 1.08787e-21)
(10.0849 -2.0515 -1.31583e-21)
(10.1211 -0.35493 6.64443e-21)
(2.50575 14.2335 1.57068e-20)
(12.5872 -5.63032 0)
(20.0909 11.979 0)
(10.3089 -0.126731 2.94915e-21)
(10.6248 -5.45083 4.12135e-21)
(-0.134908 11.4956 0)
(8.88147 6.66266 -2.77775e-20)
(-0.647183 -1.34835 0)
(11.012 5.12884 4.14468e-21)
(9.59921 0.329981 -8.01236e-21)
(6.75867 7.30458 0)
(9.42299 1.73401 -8.61552e-21)
(16.7075 7.91265 -4.42787e-20)
(9.30052 0.838812 -9.1616e-22)
(9.45942 -0.145375 -1.89833e-20)
(11.4639 -4.8734 0)
(2.16943 10.3297 3.60141e-20)
(10.2062 11.5404 3.31859e-21)
(9.90168 0.152023 2.965e-21)
(8.37234 0.535027 -1.2668e-20)
(3.51631 3.6086 1.52316e-20)
(10.0018 -1.24762 1.33877e-20)
(11.133 -0.792152 -1.424e-21)
(10.4742 -0.544211 0)
(13.4915 -1.13924 1.07235e-22)
(11.2332 -0.63118 1.0979e-21)
(10.0009 -0.00678128 3.5965e-20)
(11.5647 -2.32362 0)
(9.61876 -1.53614 -3.81169e-21)
(7.38319 1.71405 0)
(11.4589 2.10598 1.89133e-20)
(10.0086 -2.35031 -3.10952e-21)
(4.57599 -2.04145 1.27793e-20)
(11.9064 0.304528 7.40151e-21)
(10.0623 0.796093 0)
(10.5635 -13.2387 -8.50168e-20)
(10.1705 -3.58305 2.59541e-21)
(8.42412 0.514034 1.19793e-20)
(11.404 -0.653584 -1.66074e-21)
(10.7555 -0.400517 6.09549e-21)
(-8.60357 11.3162 -3.12522e-20)
(10.7084 -1.01026 1.07222e-22)
(10.7935 -0.426385 0)
(5.46847 -1.81162 2.93508e-20)
(15.5826 4.22024 0)
(18.686 8.33924 -4.91626e-21)
(10.3947 -0.248142 9.91175e-21)
(12.9126 -1.53053 -5.10578e-21)
(12.204 -1.53662 4.82193e-21)
(-0.665869 0.216521 -3.50076e-20)
(9.7134 0.214164 1.59795e-20)
(8.76982 -3.90136 0)
(-3.11407 3.82609 -1.17677e-20)
(10.7122 -0.616959 -2.43985e-21)
(11.4228 -6.23629 -3.38422e-21)
(18.2054 -3.26361 2.71563e-20)
(12.2299 -0.180414 0)
(9.92052 -1.73602 9.86911e-21)
(9.04441 0.604629 2.61163e-20)
(9.84967 0.212553 1.99884e-20)
(14.1534 -2.53225 0)
(6.15457 0.688113 5.5442e-22)
(12.7426 -2.01351 -4.46288e-21)
(-3.30136 -1.86957 1.40038e-20)
(8.14159 -0.238351 3.09418e-21)
(10.7254 -0.545402 2.32715e-21)
(12.2963 -0.237725 -7.41279e-22)
(10.6846 -0.427137 0)
(10.4502 -2.69451 -8.20736e-21)
(-13.9395 9.67614 1.65254e-20)
(11.7842 2.07382 -3.97425e-21)
(10.0373 0.0699305 1.31367e-20)
(8.30885 0.00794014 0)
(17.6306 1.65769 -1.54318e-19)
(7.69802 8.02125 0)
(15.0489 7.07268 -8.13606e-21)
(10.1116 -0.0524036 0)
(11.9035 -2.88843 -5.98108e-22)
(6.96862 -0.63479 -6.89133e-21)
(7.70392 3.3284 3.03261e-20)
(-4.32781 -1.12002 -6.50442e-20)
(8.85016 -6.07255 0)
(10.8894 0.370493 -7.46745e-21)
(10.0121 0.86951 -9.46602e-21)
(-1.12252 -0.101589 -1.41744e-20)
(-9.60258 9.10016 3.05614e-21)
(8.47506 -0.281711 -3.29839e-20)
(14.0313 -1.66837 6.71057e-21)
(10.2811 0.869423 7.25611e-21)
(7.72271 -2.25178 0)
(7.04714 1.28872 1.48132e-20)
(-1.52573 0.581489 -6.58715e-20)
(-4.41757 -0.305754 7.71294e-20)
(-13.1197 8.54012 -5.92896e-20)
(-0.23766 -0.20924 -2.76644e-20)
(14.6039 0.527977 0)
(-1.55144 -0.59924 0)
(10.0257 5.54495 0)
(10.4771 -0.236927 0)
(23.4533 4.9362 -7.45311e-20)
(11.0197 1.80731 0)
(9.88707 -3.90699 0)
(8.45875 0.410189 4.85977e-21)
(14.9584 0.740469 -1.99715e-20)
(10.6289 -0.437491 -6.90795e-21)
(8.52812 1.38439 4.55819e-20)
(10.0319 0.15746 -4.666e-21)
(10.7771 7.83569 0)
(14.2089 -1.06514 0)
(9.61841 0.249893 1.3747e-20)
(10.1742 0.0633254 2.3646e-21)
(6.08616 3.9073 0)
(-2.28029 2.56741 3.02253e-20)
(12.6738 -2.85027 -1.38787e-20)
(-0.276307 7.69775 0)
(10.8983 -0.410275 6.6584e-21)
(9.90042 0.179221 -1.57415e-20)
(6.58919 1.04081 -7.66654e-21)
(5.43873 -1.76618 0)
(10.0353 0.877717 1.72021e-20)
(12.7575 1.13381 0)
(13.1038 -1.99369 0)
(10.8035 0.980149 -1.23787e-21)
(9.68571 0.291729 7.53154e-21)
(0.651669 1.08703 -3.94266e-20)
(11.2592 3.29444 3.30671e-21)
(7.05247 -1.7087 -1.13614e-20)
(10.2355 -0.203127 1.20786e-21)
(10.3598 0.966088 5.79693e-21)
(11.5645 -3.02542 2.05926e-20)
(12.9782 -2.01402 0)
(15.0506 -1.21406 1.61146e-20)
(6.99831 -0.342405 0)
(14.626 8.48378 4.75519e-20)
(10.7999 -0.392383 0)
(7.42964 0.162506 1.84757e-20)
(-11.3087 1.34515 -6.37761e-20)
(14.6126 -1.66 0)
(-1.22897 0.2659 8.40971e-22)
(14.5386 -1.19303 -1.38427e-20)
(13.692 -4.06549 -9.71658e-21)
(9.13931 -1.13848 2.57585e-20)
(6.98439 3.10243 -1.88122e-20)
(7.00954 -1.69344 -3.31468e-20)
(16.4226 6.5438 0)
(0.734244 12.0492 5.95883e-20)
(-10.64 14.7147 -7.95648e-20)
(9.98325 0.919963 0)
(9.25105 0.948238 1.00373e-21)
(13.441 0.140566 -1.15864e-21)
(12.6586 5.64869 0)
(10.0074 0.0122376 0)
(-10.8982 6.42194 0)
(-7.41754 6.52841 7.59742e-20)
(15.867 2.4302 1.81045e-20)
(15.6454 0.250165 -9.91912e-22)
(11.0099 4.86203 0)
(8.7579 -0.772746 1.95781e-20)
(8.48686 1.77432 6.08134e-21)
(11.2286 3.04316 -7.55185e-21)
(-13.202 3.2409 1.50692e-19)
(9.61417 0.662733 0)
(10.5386 -1.25353 0)
(4.36241 -0.776532 -2.10191e-20)
(7.58557 -2.21468 -7.5791e-21)
(9.84928 -0.633142 0)
(10.4433 -4.77885 2.52124e-21)
(4.02585 0.489032 -4.74259e-21)
(10.6675 -0.240778 8.80236e-23)
(4.86061 -2.13602 0)
(6.38859 -1.0981 -1.3336e-21)
(-1.13164 3.93513 8.14921e-20)
(12.8805 1.09298 5.69662e-22)
(9.95644 -2.49251 0)
(2.52804 -1.41468 -8.3896e-20)
(12.1926 -1.50446 5.2731e-21)
(9.99051 0.365885 3.40746e-21)
(17.0818 -9.0703 2.36648e-22)
(12.6318 3.76807 0)
(8.55016 1.42192 -1.21079e-20)
(15.4236 2.71573 -7.19613e-21)
(0.0788101 -0.941234 5.68845e-21)
(9.98709 0.189282 0)
(-11.1564 9.55536 -3.13674e-21)
(2.87382 -0.595335 0)
(10.0336 0.164616 -1.34948e-20)
(9.95087 0.191876 5.29358e-21)
(9.4502 0.172409 -2.68635e-21)
(-8.93063 7.60903 0)
(13.3266 0.106662 -2.45142e-21)
(5.96155 2.15453 4.08806e-20)
(12.8795 -2.73142 0)
(8.3591 0.361277 1.48668e-20)
(13.7869 0.929598 2.26555e-20)
(10.8029 0.113393 0)
(-14.2292 5.14177 2.29453e-20)
(10.4816 -7.01564 -6.14359e-21)
(12.1712 -0.238083 0)
(-1.62115 -1.90309 5.05067e-20)
(9.19128 0.870039 0)
(9.61888 -4.23327 3.34088e-21)
(-13.789 7.91605 3.66395e-20)
(10.2249 -0.984292 4.57808e-22)
(12.059 0.882233 2.02055e-21)
(6.99468 1.236 7.7531e-21)
(9.07638 -1.25834 -9.32502e-21)
(12.3461 -6.17526 -1.20953e-21)
(9.59884 -4.05159 2.69418e-22)
(10.6794 -0.588156 2.50598e-21)
(12.5807 3.67379 -2.14994e-21)
(12.0948 -4.93577 0)
(9.98591 0.019558 -1.16489e-20)
(1.46768 7.65115 -1.74158e-20)
(7.12051 -0.376245 0)
(0.123069 0.775243 -5.45439e-21)
(16.0505 2.17783 0)
(6.41832 -1.7907 2.94809e-20)
(11.7431 -3.57014 0)
(4.14168 0.333204 -1.20812e-20)
(10.8615 -0.246692 -5.71579e-21)
(-13.9308 3.37377 3.9754e-20)
(-11.089 6.04804 5.47009e-20)
(11.8998 -0.168317 -7.25604e-23)
(11.0772 -5.09831 -1.08993e-20)
(9.40912 -2.37209 7.13084e-21)
(7.77997 -1.58284 0)
(0.0616499 -1.75827 -1.8024e-20)
(13.248 -2.0552 2.69876e-21)
(0.0834959 -1.97363 -2.11979e-20)
(10.9324 -0.685485 1.85062e-22)
(7.66854 -2.79849 0)
(11.1297 0.0779339 -9.46067e-23)
(-0.257933 2.37298 0)
(-15.1635 5.0409 1.60028e-21)
(6.9203 0.586243 1.00603e-20)
(6.78008 10.3035 0)
(10.9657 -2.02069 3.82255e-22)
(13.6631 -8.99327 0)
(12.6802 5.36866 0)
(9.27135 -4.27527 -4.46605e-21)
(7.50611 1.39834 1.20973e-20)
(7.79775 -5.96688 0)
(9.09279 0.71787 -7.31466e-21)
(16.362 -0.531778 1.922e-20)
(-13.048 10.6854 7.2958e-20)
(12.61 6.96044 0)
(10.7347 -0.011711 0)
(-8.99527 14.0391 -3.32898e-20)
(9.47958 -0.419679 0)
(13.5474 0.0423421 0)
(-3.49238 14.2396 4.05724e-22)
(10.5883 -1.34221 -6.08904e-21)
(9.14979 -1.90788 6.95901e-21)
(15.496 -0.122917 1.93928e-21)
(1.63772 -0.456176 3.94462e-20)
(9.9362 0.14025 6.01412e-21)
(7.97079 -1.69721 0)
(10.6091 2.33749 -3.35879e-21)
(7.42534 -0.977765 0)
(12.7384 0.171099 0)
(10.0496 0.462652 0)
(10.8211 0.945535 -1.00607e-21)
(9.46609 -0.14906 8.76307e-21)
(11.8915 -0.149992 -2.28796e-21)
(8.14761 -1.73949 0)
(-0.80121 0.873984 -2.85465e-20)
(9.74244 5.21053 7.21913e-21)
(10.0838 -3.20314 2.93859e-22)
(10.4352 -1.20439 -6.74625e-22)
(15.7708 -1.88493 3.39173e-20)
(9.98772 0.0698441 -8.93393e-21)
(-11.1796 0.920439 0)
(11.9442 -1.39215 0)
(6.62168 3.88201 0)
(6.57028 -2.84825 -2.04475e-20)
(-4.3453 -5.6939 -5.95474e-20)
(6.2546 6.9597 0)
(10.7349 2.33207 0)
(12.2089 -2.56902 8.76807e-21)
(9.6027 -0.0290253 -1.95395e-21)
(9.40472 2.91322 1.57243e-20)
(13.7922 -5.31888 0)
(3.35599 -2.5268 -1.03634e-20)
(11.0797 0.39003 3.83729e-21)
(7.39393 -2.05001 -1.84091e-20)
(10.7625 0.432754 -6.30757e-21)
(11.1957 3.06036 1.02285e-20)
(23.4292 1.654 4.55209e-20)
(6.47824 -2.83512 3.54347e-20)
(13.8331 -9.40628 2.41286e-20)
(11.0046 0.496561 9.71894e-22)
(10.0088 0.0212512 -2.80621e-21)
(9.80413 -4.63238 1.66724e-21)
(10.5644 -6.99698 3.11407e-21)
(7.91033 10.0343 -6.38133e-21)
(10.108 -4.6326 -4.30263e-22)
(14.1641 -0.932054 0)
(11.2131 -4.40884 5.14929e-22)
(10.8523 0.00821279 -1.43565e-20)
(14.0221 4.19039 2.51264e-21)
(7.21864 -1.86537 -1.72446e-20)
(9.9658 -3.09339 -4.50005e-21)
(10.0697 -0.0351862 1.66596e-20)
(12.5949 -0.206239 -9.5739e-21)
(9.54585 -3.84668 -5.107e-21)
(14.5303 0.715871 -7.82163e-21)
(6.00811 -0.885698 -4.21016e-20)
(10.7816 0.05075 -1.23689e-20)
(5.95883 -1.21402 0)
(-12.3279 2.816 -1.0393e-19)
(10.8493 0.0833882 2.06308e-20)
(3.20255 0.214139 2.33547e-21)
(-2.64368 4.07135 0)
(11.5794 -4.9437 0)
(9.98626 2.05762 1.3993e-20)
(5.44001 -0.849797 2.66769e-20)
(10.3848 0.0101745 -1.11958e-19)
(11.904 -3.04861 4.0039e-21)
(11.2408 -0.738795 5.45996e-22)
(15.8532 3.89326 0)
(9.98035 2.23342 7.95148e-21)
(3.00544 -4.63412 -1.02419e-21)
(11.8118 5.09116 -3.99558e-21)
(10.0401 -0.938021 -9.23398e-21)
(1.44397 -1.40742 -6.35457e-20)
(15.5531 -2.74076 -3.15364e-20)
(16.9897 -1.37456 9.31178e-21)
(10.5999 5.72985 0)
(11.2449 -3.18775 -2.52551e-21)
(9.5039 0.143937 2.38539e-21)
(7.16375 1.47994 -3.97181e-21)
(5.47859 -2.64932 3.45349e-20)
(9.95691 -0.988827 1.39999e-20)
(12.8492 2.9354 3.82866e-21)
(-12.3346 9.33969 -3.93163e-20)
(12.5169 -0.843843 -5.03601e-21)
(10.9414 0.124415 1.10916e-20)
(-3.4227 14.6098 -5.44629e-21)
(11.3811 4.92606 1.09985e-20)
(-0.741145 -1.94595 -5.48789e-20)
(7.15681 -3.38094 -9.4401e-21)
(7.36662 1.04851 0)
(10.2409 1.71426 -5.0499e-21)
(-6.35271 13.5764 -2.9888e-20)
(6.91924 -0.746903 3.6651e-20)
(10.7552 -0.812149 0)
(9.06962 -2.38628 8.52697e-21)
(6.21798 -2.45559 8.35793e-21)
(9.97064 0.109199 -2.58126e-20)
(-9.17732 9.33394 -3.15668e-20)
(8.56917 -6.66013 -1.65057e-21)
(10.6947 -0.431471 4.69648e-21)
(11.2459 0.385401 1.11752e-20)
(9.80358 -4.31305 -3.07416e-21)
(11.6703 0.126209 3.28546e-21)
(-3.47442 -5.44568 -1.64989e-19)
(10.622 0.0325556 1.34709e-20)
(10.2164 -0.168021 -5.30732e-21)
(10.5644 0.556311 -1.86223e-22)
(11.5804 -0.00156759 -1.08038e-20)
(6.05962 -2.56587 -1.61599e-20)
(10.8952 0.328798 0)
(-12.9016 6.2723 6.45017e-20)
(10.7115 0.0770057 1.72631e-21)
(6.29448 0.518632 -1.14515e-20)
(12.3483 0.281817 2.26034e-21)
(11.1386 -0.974718 -9.39675e-22)
(9.97785 0.0847697 -2.17121e-20)
(10.3295 1.58179 4.44497e-21)
(-1.81865 2.39211 -3.10673e-20)
(13.77 0.134842 0)
(11.342 0.286662 8.34664e-20)
(12.9169 -1.61992 5.23311e-21)
(7.71473 -2.71954 0)
(10.516 0.461408 8.99239e-21)
(13.6829 -1.13842 5.68323e-21)
(13.4873 0.220813 6.57006e-25)
(16.8988 -3.71135 2.67817e-20)
(5.8498 -3.60309 0)
(8.9541 1.72228 2.30536e-20)
(11.9486 3.93405 -8.94068e-22)
(9.69657 -4.42947 2.35826e-21)
(10.099 -0.597366 0)
(7.39795 1.40446 -3.48279e-20)
(5.46028 -4.04094 -8.44231e-21)
(11.494 7.17694 -2.926e-23)
(6.05807 -0.9607 4.1077e-20)
(12.7583 -0.365845 3.26009e-21)
(-11.0607 6.29556 3.98104e-20)
(9.76507 -0.346414 -1.24654e-20)
(15.0224 -0.655981 -2.12668e-20)
(8.98186 0.645811 -1.51135e-20)
(11.2939 -0.181589 0)
(10.0034 0.0488981 -1.05474e-20)
(16.1423 3.31643 3.3655e-19)
(-1.09702 2.86416 0)
(18.6063 -1.41332 0)
(7.16924 1.44784 0)
(1.00412 -1.73278 0)
(10.135 1.46585 0)
(5.75886 -0.837921 0)
(12.3589 -6.26285 -1.85951e-22)
(15.7181 0.857702 -9.88481e-21)
(12.6656 1.98811 0)
(8.46069 1.41616 3.43662e-20)
(7.16166 -5.24828 9.22198e-21)
(10.2837 0.99008 2.03209e-22)
(-4.77254 13.6142 -1.17e-20)
(5.79511 0.223242 6.44012e-23)
(-3.04848 3.85406 2.52991e-20)
(9.87037 -0.0039329 -4.57758e-21)
(13.636 0.231304 7.93516e-22)
(10.0348 1.41269 -9.39049e-21)
(9.43291 0.766975 -2.11208e-20)
(9.51188 4.83718 -1.39601e-20)
(16.0636 6.86449 0)
(-13.4088 10.0854 2.43605e-20)
(6.53381 -1.8888 -3.22504e-20)
(10.0092 0.0208333 -3.14353e-20)
(13.3534 -1.89031 2.60069e-20)
(11.5008 -0.0188049 1.87317e-21)
(16.153 2.23054 -3.32286e-20)
(10.6746 -0.853789 -7.16763e-22)
(10.9713 -1.99304 -1.22448e-21)
(10.0115 0.774748 9.81164e-21)
(8.91044 7.14551 0)
(11.5622 -4.90555 -1.26531e-21)
(8.60383 0.277522 -4.57257e-21)
(10.3787 1.65423 0)
(6.4955 -6.31799 0)
(10.5735 -4.55921 -2.64564e-22)
(-12.7839 6.03704 4.71042e-20)
(12.3557 -5.96254 -1.47558e-20)
(1.98286 3.49517 0)
(9.60464 -0.213603 -1.74547e-20)
(9.06037 0.925181 -4.07786e-21)
(-14.1653 4.78589 3.8274e-20)
(13.2707 -0.469534 2.85903e-21)
(-5.22865 5.51802 0)
(-15.7613 9.87581 2.90111e-20)
(12.656 -0.827246 0)
(11.2321 -4.27394 2.52886e-21)
(10.0189 -1.58216 -7.07828e-21)
(10.029 0.0427484 -1.09609e-23)
(11.4134 3.44822 -1.66971e-20)
(12.5723 6.22202 -1.20616e-21)
(9.10397 -2.30023 1.58497e-20)
(-6.45655 0.882091 0)
(9.34144 -11.4727 -1.0361e-19)
(7.1242 -8.02184 0)
(12.9532 1.98934 -4.63883e-22)
(-15.9166 5.90007 7.59964e-20)
(20.4748 -1.38835 3.4567e-20)
(7.85514 -4.74102 -8.42072e-20)
(-6.17588 9.87234 -8.95768e-20)
(8.96838 -4.17289 -2.72374e-21)
(6.75238 -1.8948 -1.83264e-20)
(-0.389842 4.92265 2.17316e-20)
(13.5723 -12.9999 8.48154e-20)
(6.11958 -2.62605 1.32876e-20)
(7.06499 -2.02314 1.93444e-20)
(-4.85899 -4.71196 7.0995e-20)
(17.007 -9.16469 -4.6759e-20)
(9.81226 -2.65812 5.39971e-21)
(-6.02029 0.791119 6.16215e-20)
(12.1929 -0.143037 1.52179e-21)
(7.31633 -5.62661 -7.51805e-21)
(11.4193 2.22821 -4.33164e-21)
(12.21 -1.16863 0)
(1.07088 -1.65779 -5.41097e-20)
(10.4424 -0.00802955 -1.58449e-20)
(9.94771 0.488417 0)
(12.8649 1.85085 0)
(5.27503 -15.1307 -4.66343e-20)
(16.505 -0.0246163 -2.06356e-20)
(11.9221 1.22123 -6.90119e-21)
(10.5495 -1.29605 7.88794e-21)
(9.33836 4.52538 1.24131e-20)
(8.83895 -0.0536751 1.09511e-20)
(-15.4262 6.24544 -3.11819e-21)
(8.77152 2.91924 0)
(7.28006 -2.17679 1.79693e-20)
(-5.11102 -1.92769 7.84269e-21)
(-6.40152 9.36163 6.93541e-20)
(9.16097 -3.20307 2.1877e-21)
(13.2175 -5.5128 1.17853e-20)
(9.80527 -0.0643872 5.69575e-21)
(0.563121 -7.21337 1.63696e-20)
(13.3277 -2.47212 1.40791e-20)
(-14.4228 6.01831 -4.82236e-20)
(11.8271 1.16289 5.25833e-21)
(9.74512 0.181682 7.91144e-21)
(5.90425 -1.1792 -1.68621e-20)
(9.54485 -0.315285 1.0569e-20)
(9.43917 -3.86464 0)
(11.787 2.01432 7.00319e-21)
(9.90345 0.118742 1.7621e-21)
(7.7215 -1.42506 -5.88418e-21)
(8.95873 7.56159 -3.41254e-21)
(9.64971 -2.6195 4.77369e-21)
(9.75214 0.0222834 3.19871e-21)
(6.93349 0.547445 -2.56021e-20)
(10.5831 1.58419 0)
(6.1796 4.11795 -1.60259e-19)
(10.9102 0.482057 8.5351e-21)
(9.44413 -1.46499 0)
(7.24909 0.0756172 1.43096e-20)
(13.3104 -0.422172 0)
(7.68633 7.89392 2.30382e-20)
(12.0731 -0.137532 0)
(6.40727 -4.97611 0)
(12.0087 -0.606236 3.00786e-21)
(11.8187 0.936374 4.57862e-21)
(14.4169 1.56006 -1.09902e-20)
(9.58094 0.585117 -9.62957e-21)
(7.24658 4.69463 -9.28112e-21)
(9.93018 0.324518 -4.24229e-21)
(10.2638 1.53374 0)
(2.70341 -5.50962 -6.4123e-21)
(12.2698 0.882195 -1.85278e-21)
(10.61 -3.99538 -4.65414e-21)
(12.1956 -1.22274 0)
(14.1943 4.04331 4.3216e-21)
(10.0396 7.80825 -6.06651e-22)
(12.3295 -0.187084 6.69571e-21)
(6.98466 7.68459 0)
(-0.887558 14.0238 3.14285e-20)
(10.246 0.757549 0)
(13.8173 -1.90614 -6.64798e-21)
(-1.40063 0.999481 0)
(15.1125 -1.50158 0)
(14.5902 -10.9813 0)
(11.3791 -3.60111 0)
(0.284448 3.451 -4.87319e-21)
(-7.62585 6.18261 -1.71576e-20)
(9.4097 -0.113594 -1.31316e-20)
(-15.6027 3.23148 -5.33967e-20)
(6.55881 -2.7127 0)
(-9.95471 1.28395 -4.51758e-20)
(-2.94346 2.10469 -3.55072e-20)
(8.49125 -3.85061 0)
(7.71859 -2.52058 -1.79593e-20)
(5.39514 8.38565 -1.5828e-21)
(11.3091 2.10373 1.12667e-20)
(16.2432 -3.01313 -2.3937e-20)
(9.33064 0.693056 0)
(12.3208 -2.36513 0)
(16.6691 1.58785 7.06949e-21)
(8.81359 -6.28218 8.71043e-22)
(0.588642 15.0469 -3.83965e-20)
(5.13488 -14.3709 3.43506e-21)
(9.97536 0.00243726 7.82138e-22)
(10.1365 1.6824 1.61326e-22)
(10.0141 0.743813 1.39219e-20)
(15.1689 8.99225 7.66428e-20)
(9.9848 -2.26702 0)
(3.44853 1.66765 0)
(11.5425 0.0655185 0)
(6.14366 -2.35102 0)
(8.96084 -1.42971 6.98416e-21)
(14.2694 0.258581 0)
(-4.44989 14.9458 5.44155e-20)
(18.1429 0.95528 3.7299e-21)
(6.91437 -2.0868 -2.94144e-20)
(7.06301 -4.8482 -5.04343e-21)
(-10.4737 4.55787 -3.44618e-20)
(-3.49909 12.9827 -2.24352e-20)
(10.8742 0.134805 2.5215e-21)
(-13.538 7.36295 -4.19033e-20)
(16.5821 10.9897 8.07089e-20)
(12.4061 -0.486643 0)
(11.2765 -0.107795 0)
(8.49358 -5.15986 0)
(11.1951 -1.0839 2.31249e-22)
(13.5773 -6.90645 0)
(8.93879 2.84137 0)
(10.0214 0.00735957 0)
(9.2146 -1.89597 6.56856e-21)
(10.2433 0.866531 -1.45114e-20)
(8.89362 2.79742 0)
(12.9138 -5.51645 -1.22704e-20)
(9.84317 0.837349 -1.24099e-20)
(11.8131 4.88631 8.08209e-21)
(8.52434 -3.77525 8.18666e-21)
(9.252 3.28974 1.9682e-22)
(9.75318 -6.91322 -6.20282e-22)
(2.97231 -6.76895 1.10494e-20)
(6.1182 -3.76222 -4.17783e-21)
(11.66 0.976854 -6.07051e-21)
(-0.681875 13.18 -1.17282e-19)
(9.15994 0.357305 -1.40225e-20)
(10.5181 0.0324474 0)
(6.01636 1.39626 8.76539e-21)
(9.83716 0.195145 1.46494e-20)
(3.38847 -5.17078 -9.03324e-21)
(10.6273 -0.848021 -2.35005e-21)
(5.56028 -0.961918 -2.90196e-20)
(11.7655 0.822327 9.97219e-22)
(15.3579 2.80462 1.04101e-20)
(9.97639 0.310992 0)
(10.524 -4.0447 -2.56507e-22)
(0.221285 4.62712 -3.9848e-21)
(11.173 -5.37081 1.02963e-20)
(-15.4056 4.79827 -1.71904e-19)
(10.0081 0.0539907 6.82385e-21)
(11.2697 0.374592 -9.94366e-22)
(12.3284 -0.343725 -2.44854e-21)
(11.5798 -0.180706 0)
(6.81691 -3.29905 0)
(7.94096 -3.66575 1.16871e-20)
(-8.28791 8.16801 3.4098e-20)
(6.23278 0.924965 -5.42511e-22)
(9.85899 0.186462 2.89822e-20)
(10.4566 -4.14019 1.27664e-21)
(7.34422 1.16705 0)
(9.08423 0.383572 0)
(8.32612 -1.6166 -3.35602e-22)
(11.7989 -0.321081 4.53111e-21)
(9.4756 3.02474 2.21406e-20)
(10.8434 -0.87747 0)
(11.7718 0.0453929 0)
(11.2867 -2.19074 -3.70224e-21)
(9.99806 -0.527314 8.51329e-21)
(-3.6139 5.18708 -4.02293e-20)
(8.85693 -0.798901 0)
(13.4061 -1.89077 1.26589e-20)
(14.9483 -4.84097 -5.48737e-21)
(-5.83299 12.2441 -3.47784e-20)
(9.96753 -0.0645541 -1.38005e-20)
(15.6001 -0.293649 0)
(16.1054 -0.08429 1.66811e-20)
(10.3233 6.77038 -7.89606e-20)
(-3.60163 4.595 0)
(15.742 -9.71166 -1.02996e-20)
(9.63348 0.40491 -9.83168e-21)
(3.87718 -0.263957 -1.82458e-23)
(9.70418 -1.44402 4.25665e-21)
(6.57482 7.35275 7.49069e-21)
(10.8483 0.0661807 0)
(5.54291 -1.92873 -3.11401e-22)
(9.83967 -3.9641 -1.61688e-21)
(10.7912 7.57568 -1.87355e-20)
(10.0894 1.42258 1.112e-20)
(-5.28664 0.633509 1.49458e-21)
(9.70085 0.0383507 -3.16255e-20)
(13.0955 2.27337 -1.47909e-21)
(3.84673 -9.81175 3.91948e-20)
(9.04835 -1.73821 0)
(4.07671 -0.280636 6.65376e-21)
(5.98239 -2.69026 1.07114e-20)
(10.5949 -0.231126 -1.11039e-20)
(9.93013 0.110752 -1.30246e-20)
(12.9822 -2.14741 5.70858e-21)
(8.5366 -0.693913 2.95043e-20)
(11.8273 -0.130666 -1.72682e-21)
(8.98775 0.470855 8.32454e-21)
(-0.324742 3.79289 -1.33511e-20)
(15.9339 0.140782 -2.1437e-20)
(11.6483 5.39244 6.7714e-21)
(10.8132 0.0824375 8.8027e-20)
(9.85281 -0.0590023 0)
(10.3154 -6.11476 0)
(14.4446 6.95187 0)
(6.87358 -1.9189 2.29654e-20)
(9.71708 0.0476997 -2.06212e-20)
(8.99432 0.972746 0)
(7.89387 -1.49954 -1.67903e-20)
(9.00709 0.877539 0)
(8.99416 -1.21807 -1.14959e-20)
(10.135 -4.44895 -7.52456e-21)
(9.82718 -2.08098 -6.37637e-21)
(10.9754 0.0626653 0)
(9.73676 0.130709 0)
(10.3845 -1.63641 1.80922e-22)
(12.6236 1.70965 -5.07048e-23)
(13.8666 -0.0879315 6.69761e-21)
(10.4475 8.14773 -1.02242e-21)
(10.2484 -0.95693 0)
(9.23341 -3.10714 -3.46355e-21)
(-2.22546 1.93753 0)
(3.27865 2.86073 -1.64196e-20)
(12.7323 6.2542 0)
(11.2195 0.26609 1.89154e-21)
(6.01484 -0.775239 1.09676e-20)
(7.84671 -0.606915 1.0116e-20)
(9.00113 -0.888987 -2.44334e-22)
(19.3204 -0.64808 -2.06022e-19)
(9.88842 -0.676678 2.13612e-20)
(10.1329 1.49666 -2.63189e-22)
(14.8846 2.72109 4.11934e-20)
(10.2679 -1.65525 -2.77462e-21)
(-1.7507 1.79517 1.33423e-20)
(12.7668 2.65585 0)
(9.9255 0.137355 5.44142e-24)
(8.07435 -1.8102 0)
(4.88654 -11.1912 -3.46756e-20)
(9.35772 -3.08082 -1.63011e-21)
(8.65404 -0.569724 -9.59303e-21)
(5.54406 0.648465 -6.1553e-22)
(12.9774 0.340275 -2.6432e-21)
(8.5375 -0.137171 2.116e-20)
(11.136 -0.394178 -5.10814e-21)
(-0.620746 12.8021 0)
(1.38693 -3.09647 0)
(13.6345 0.298962 1.805e-21)
(14.4331 1.50612 0)
(9.55588 0.705933 -5.2906e-21)
(8.49161 5.52179 -1.4123e-20)
(7.45229 10.9772 -7.40897e-21)