/*--------------------------------*- C++ -*----------------------------------*\
| =========                 |                                                 |
| \\      /  F ield         | OpenFOAM: The Open Source CFD Toolbox           |
|  \\    /   O peration     | Version:  2306                                  |
|   \\  /    A nd           | Website:  www.openfoam.com                      |
|    \\/     M anipulation  |                                                 |
\*---------------------------------------------------------------------------*/
FoamFile
{
    version     2.0;
    format      ascii;
    arch        "LSB;label=32;scalar=64";
    class       volScalarField;
    location    "2.3";
    object      p;
}
// * * * * * * * * * * * * * * * * * * * * * * * * * * * * * * * * * * * * * //

dimensions      [0 2 -2 0 0 0 0];

internalField   nonuniform List<scalar> 
13486
(
21.8915
17.5816
0.46408
-11.6427
7.67714
-2.10862
3.38147
12.6977
14.971
8.82969
-97.5314
3.6639
23.0051
-1.34198
5.67658
9.22868
-49.3791
1.42174
4.87231
19.7179
-7.29373
22.7896
17.2504
-34.6648
7.65408
-30.092
-54.0039
-12.067
-0.0154326
-12.1329
-4.57055
4.33251
-22.7806
-8.65704
12.7088
-0.0146148
-0.634913
18.1316
-2.13734
14.7983
2.8351
23.9291
0.217246
7.90029
7.74935
3.46968
-46.9247
0.00216976
-0.600935
-10.7715
12.887
-2.33373
2.85019
18.3996
0.748267
8.01896
-0.152372
-2.32092
-21.1521
-1.01403
-119.596
-0.89852
-30.1159
-6.52781
-24.2312
-0.631775
-15.9738
21.8888
14.9004
-1.00677
-15.6615
0.964331
15.0578
-36.5846
-0.606068
-0.133431
-0.535698
5.55429
-47.1588
-3.04262
0.000835684
17.6923
-31.2938
0.561121
21.9674
6.60034
-1.52808
12.2064
14.8539
9.97948
3.25051
11.1224
20.9903
18.7741
15.6783
0.0115606
-54.4935
-24.0514
14.7195
-48.2231
0.0440393
-0.726375
-23.4852
-2.28762
9.53642
-48.4586
14.6758
-2.24938
-48.795
10.5098
14.8988
3.5539
18.3553
0.192418
25.575
15.1552
7.96586
-7.55163
15.213
-0.47723
1.42603
-113.576
16.3555
-2.20977
14.5565
-2.18945
10.611
3.71213
-6.54965
-17.5233
-2.18384
-44.1483
-33.8226
-33.8624
13.4483
12.2387
23.8358
10.7323
-0.475488
12.987
-16.9277
2.65135
4.35938
-3.11157
0.290032
-47.8993
-0.3102
18.9399
-11.3598
0.00580767
8.52723
5.43711
0.0162345
18.1668
4.54034
0.205099
8.78164
-0.064704
16.5027
-14.8358
-8.02723
16.4857
2.76254
23.775
-2.38085
-4.02974
0.781143
29.0956
-0.202275
-33.834
-34.0358
4.57471
10.2393
7.97881
-0.0159911
-76.2727
-3.13175
-19.2391
14.7309
4.39201
14.0452
0.227247
6.37291
-69.7983
0.521462
-11.9586
-0.00862497
-10.597
3.25877
16.1127
-0.504557
0.225656
-2.64302
19.309
-2.95092
-93.9874
-18.2241
-8.01556
20.0937
-3.01866
-4.88118
3.54007
18.1262
7.20031
-13.8252
-3.04709
1.03855
16.1127
-2.59647
0.589348
-11.1973
-26.4199
19.4944
14.6903
-2.14375
-6.42256
-12.6528
10.1435
19.9435
-17.4404
-48.4242
-11.3605
13.2334
-8.44033
2.06571
21.4383
-4.44808
-20.1083
-5.24686
-0.610549
13.8715
-5.11081
-17.7885
24.4324
-17.2285
20.7147
-9.11105
0.298495
20.9365
6.61118
-23.3038
10.0823
0.263584
19.7866
-2.01985
16.8157
6.82441
-20.3502
-31.7218
8.84884
-55.6762
25.7705
14.5027
-2.31585
-4.00121
-95.8868
4.24118
-6.20983
0.101704
-23.6758
16.2271
-1.98326
5.6089
-85.3109
8.52996
-71.0881
-5.3129
-6.34174
14.108
0.865989
15.3617
14.3376
-12.9778
2.79327
21.5097
-19.087
-4.01464
-2.74844
-2.40046
-0.457078
-3.13204
12.2255
14.8967
-60.9739
-106.432
-48.7857
-16.6126
-7.13176
2.0981
14.2236
-14.7772
-2.14839
15.9031
13.4209
-8.62567
-9.95643
-8.15067
2.52946
15.2126
3.1379
2.8383
1.13037
0.10331
4.51873
-0.636778
6.62332
-1.83136
6.78289
-1.19025
-0.531301
-27.7446
-10.6647
-0.626258
3.62722
-106.277
12.3922
-2.67909
14.8502
16.1687
-5.92151
-0.611747
-1.79761
14.6028
18.9195
24.6671
3.42133
9.44523
12.0142
1.39623
8.85395
12.3815
10.7076
3.00363
20.2621
3.17915
14.8321
26.5802
5.75905
9.31695
-2.02651
-5.68368
18.6885
8.62054
6.53131
-79.979
0.0121644
9.88178
25.6336
-17.6115
-2.24667
9.66021
1.86605
2.63727
-53.8303
15.1062
-0.213401
-36.4597
10.5485
-1.63134
-24.0978
5.13281
3.03969
16.4362
14.4096
-12.7392
0.0172195
-9.46868
-41.2412
19.9568
10.6717
0.0770831
10.0223
1.6732
-64.4117
-0.761626
12.9621
14.5761
-2.01921
-104.9
-24.7147
13.9002
10.3644
22.9788
15.8684
-43.9207
-4.25742
1.20436
9.11899
-50.5044
-2.526
19.1595
-13.3226
6.45759
20.9332
21.5369
-0.36029
-13.0928
-62.0232
-50.2747
-17.2502
-50.7681
4.17644
13.1133
-2.10036
3.52877
0.00896124
18.6279
-18.7113
10.5038
16.7541
8.63283
-7.95621
-14.2267
15.2577
14.4774
18.3119
-69.9622
8.7981
-35.9989
6.79905
14.7326
2.1836
25.6655
9.75538
-5.90496
-10.2942
3.42785
14.9217
-52.3879
1.42695
22.6228
13.1316
6.27779
1.92145
7.25785
-19.9385
22.8385
-2.05461
8.20042
21.5058
-55.2288
-13.0894
-33.7969
-14.4135
-1.51715
17.4397
17.6514
22.6916
-24.6539
-0.547875
-81.3728
9.57368
15.0743
-10.8191
-9.35047
14.2211
-50.1654
-76.5646
-65.8142
-49.0627
0.188184
18.4581
-0.0118238
1.74239
-8.19415
14.1904
0.0151836
27.664
21.2377
14.9368
12.2467
0.0579406
-0.00835187
26.4632
-4.33618
-0.440377
-6.28046
14.9276
-49.9692
2.35242
10.525
-0.342408
-5.23941
17.0195
-16.5443
-49.0463
9.80015
-2.59491
28.8334
9.93235
12.9831
15.9961
-83.9556
1.1306
23.4969
7.73922
19.0191
3.48435
4.43145
-7.98844
-3.04339
0.163974
-46.1268
15.2405
14.9576
-57.4047
0.0253266
-2.68952
21.7715
17.4993
-4.26975
15.2144
10.8501
-4.91186
8.80321
13.0353
-34.3934
22.5887
-0.249925
-0.968675
23.7257
10.5758
-0.0433729
9.74466
-10.1096
-42.8081
5.77043
9.95679
16.4956
21.0914
-63.843
7.1018
-63.6603
0.013818
20.5805
4.04652
-70.7681
-27.3425
2.19242
-0.220237
12.0597
-23.5743
-9.09463
15.2503
20.0475
-2.26374
16.1785
-50.3358
-71.3182
-13.2732
6.01756
-83.711
16.1743
0.880693
-127.913
12.6334
17.3537
-25.3009
-64.0707
13.0885
20.4961
5.17725
22.0344
0.907989
9.97627
3.53612
16.2369
0.260274
19.9784
-53.5248
4.73505
14.5416
-6.38091
-17.6459
14.527
-54.866
2.7638
17.9175
22.8049
-10.2917
-0.889225
4.68458
2.36062
13.1238
10.8157
5.59912
-68.2766
0.309582
21.7381
2.67477
1.91026
-55.1457
22.8797
-8.8014
0.227066
14.0396
11.8628
-3.11385
-3.28558
13.0742
1.10113
-1.05068
5.67189
-11.8602
22.1848
14.8668
10.1098
10.6617
1.49508
-16.5015
24.8172
4.80052
24.8764
-16.5302
14.3601
-0.0804879
-36.9774
9.76385
8.75456
25.9395
-48.8438
10.0145
9.19134
-18.3276
8.61498
1.45605
-3.91852
14.4292
-65.3473
-16.4713
-21.3651
-0.21647
-7.16632
15.9162
-0.00866632
24.2357
14.645
-11.0967
-68.4395
-10.744
4.93543
-101.426
-1.78719
-48.1528
20.5878
-0.00150793
0.0195887
-122.644
23.1087
0.0294678
3.52087
23.7527
12.9582
-70.4196
-2.07591
10.3418
1.46804
14.5231
0.274255
-15.8862
5.6188
13.2983
4.59855
11.9748
24.06
0.214647
-49.5763
14.4475
1.2189
-2.83321
10.2039
10.9924
6.80191
-69.1787
0.890639
-1.96472
1.69876
20.5288
4.72779
1.22886
0.60085
1.84143
-3.27739
15.3292
-4.72906
14.1161
13.8995
20.398
1.43848
-8.57798
24.673
0.182883
-47.9472
15.347
-20.0931
16.6791
0.240004
14.0728
-3.69926
-36.4762
-29.7572
0.000261055
-48.8269
8.19121
25.3346
-7.30351
-48.2977
-5.08105
15.4791
0.338766
6.74239
-131.039
24.9637
-67.9077
7.69345
-11.2333
8.81172
14.8195
6.57817
-22.5273
-4.89838
23.4925
14.4155
6.84261
13.1136
1.72855
11.5645
11.912
8.96824
-31.417
-3.96064
18.3532
3.37463
-2.4619
12.7219
-42.8939
-7.28105
-1.75198
15.8315
15.7499
-31.9967
0.840313
-66.4398
-5.62571
1.25991
-7.11187
2.95898
14.0129
0.569303
-10.909
17.3121
-0.510771
-12.5806
-1.08873
-6.50895
-31.34
-28.7613
-1.90768
-112.76
14.4959
23.0224
-0.388352
-12.9195
23.7907
22.3133
-9.86498
-18.0987
15.4083
-49.4843
0.263252
0.675246
1.08419
8.30274
-48.5997
6.53142
10.0811
-5.79008
-4.62949
-28.2393
-1.63051
12.7104
7.20771
9.4609
-39.8874
13.1082
21.7902
-65.7919
-105.641
16.735
6.08272
9.54448
-2.11
-11.5725
-44.6668
-1.45761
15.1266
24.9609
16.0946
1.03501
-0.923936
14.6379
21.249
-3.35302
15.8583
14.7211
22.3188
3.58082
-1.82611
2.44061
-5.52058
21.9341
0.852814
2.12648
10.1293
-3.96512
3.59829
-1.08543
-14.5946
14.1192
12.8549
10.4051
7.40829
-38.4951
-3.74935
-6.49913
8.29487
-12.6379
-5.88395
0.220643
-114.417
-134.896
7.99579
-11.577
-31.4093
-32.6267
-8.86866
11.3053
-81.8393
-69.897
16.4061
-11.3901
22.8961
-19.2708
-32.6407
17.6136
20.6745
-0.576673
1.42553
4.2267
15.2836
8.83224
-24.3992
-2.99974
-0.647396
-4.29849
14.0431
0.0413955
8.89619
-1.81664
14.9379
-51.6586
0.255984
-0.220271
17.9051
-14.3332
-105.328
-52.3994
22.6396
0.676611
-48.8705
-97.7401
14.64
-56.7873
-1.95679
3.26924
6.90828
-0.215083
10.2645
-23.0757
12.6948
14.165
17.1126
6.94841
-1.15815
-8.3042
11.3233
-3.46904
17.8672
10.7407
-3.05942
-2.30264
-4.48751
-0.724085
-0.577589
16.6648
6.00433
3.0164
14.5724
1.17635
11.7458
25.7015
-1.1569
-16.7254
10.1852
-0.646226
-1.75355
-4.69157
-8.2294
14.6617
0.213434
0.177626
0.224317
1.63279
19.0971
-67.8051
0.0141191
14.5793
-0.131637
20.7369
16.8139
19.5938
3.51736
10.1739
4.59269
0.584632
11.2504
14.4043
-3.57008
-6.62863
-28.6181
-12.4757
-118.373
14.6953
-42.4183
-31.0131
-108.46
-3.41164
-0.302626
14.8172
-0.0421362
3.39587
-31.9323
14.5606
25.4169
-0.285628
-110.134
8.6189
-0.174561
14.5024
-13.6825
-2.08882
17.6348
-2.44877
24.137
10.0291
14.5398
-11.0636
18.9969
0.257387
16.9343
-0.286215
-25.2739
-3.17356
-53.5705
9.55709
-0.891696
-1.29632
22.7895
14.5202
16.0038
20.7335
16.3669
17.821
-6.48783
15.3961
14.5597
15.1449
-5.5647
-4.65712
-12.2866
-9.88443
4.01445
16.7063
-37.8582
23.4699
-11.0262
0.23499
24.7147
20.9003
-6.38191
-44.4512
14.7866
8.04018
0.960801
13.8244
-37.6014
-5.10914
14.4835
20.2715
-2.04889
16.4176
18.8267
-0.0253406
-7.461
18.9184
6.3993
-0.537719
-72.0788
0.509099
-14.3703
13.8398
11.3222
-1.25727
-0.952077
-14.6346
4.07604
-1.51976
3.40472
21.3266
-2.0601
27.4029
14.7496
4.77873
16.5157
-71.7512
-33.8657
-50.959
14.6815
-2.09552
-30.2567
-4.08304
7.32761
9.01741
-2.0772
11.0405
-39.8853
7.71538
0.936327
-2.05668
11.7956
4.62321
19.0634
15.0556
15.5709
14.0998
-6.21339
-19.7792
-14.0563
0.751914
-13.8388
-2.14354
11.6035
-8.41002
-1.0092
-1.42844
2.53599
-139.039
10.3992
7.41999
-4.82932
-15.6467
6.98535
-10.7598
-20.8054
2.12418
-0.743305
16.3832
11.0296
19.0607
-34.0102
13.2226
0.268275
20.3989
0.2815
8.00245
1.32394
-1.60688
23.616
24.1445
11.7801
8.53415
10.332
13.6086
23.9015
10.2107
-20.8903
-126.087
2.91088
-10.3794
-36.2852
14.5207
14.3239
-0.233874
4.62175
12.6753
13.2854
25.9776
-50.2455
11.7785
-52.0808
-9.78186
20.9653
-4.4086
12.1881
-6.32418
4.73677
5.7454
26.9131
-2.22707
-12.4235
7.51546
2.3017
-81.582
-37.3259
1.66973
16.4248
-6.1592
8.53617
22.2628
20.4365
-3.20116
-21.9318
-1.95381
3.01678
17.4132
13.8984
20.397
8.71239
-98.5468
21.4202
13.6171
-21.6225
11.4503
15.2018
18.5509
-103.949
-3.4889
0.0332396
12.5469
23.4705
7.54514
2.74018
-14.8564
26.0376
-72.416
-16.3533
24.3727
12.9074
0.61703
11.5975
-14.2399
8.32537
-11.5167
-74.4859
-1.95873
-62.0989
0.74511
-8.1388
-52.3277
-48.8048
-34.8906
1.59541
-50.0136
-57.7708
12.3587
13.7198
8.47765
-42.3783
4.06029
2.76701
-6.56761
27.2058
9.87673
-12.3996
12.9349
-10.3646
-68.1302
12.455
12.3954
14.2553
27.4813
0.0244308
-4.2698
-34.7679
0.639206
10.1613
14.7484
-5.0239
21.6674
10.6346
15.5971
-7.88412
-2.90433
0.26457
15.3031
14.7192
16.03
14.7314
25.2402
25.0329
-10.5059
12.9752
18.7147
-12.0213
20.4829
-1.78137
24.7091
20.3698
0.695721
16.6933
7.64407
11.3248
-0.287403
15.1315
-18.8141
12.7156
5.46331
10.2948
-2.18752
14.413
-1.50042
3.88922
23.8925
23.8432
9.78559
-35.1909
3.43405
2.01603
-4.06148
12.046
21.3841
-36.0276
15.1762
14.1314
7.08802
15.1778
-98.0562
-6.02858
-1.29745
25.6789
4.26882
-2.53437
17.0637
-2.40242
0.0697486
7.35959
2.91304
11.3676
6.73107
-11.0078
8.71203
12.0118
10.0186
11.2067
25.1232
20.6889
18.4254
19.7752
23.5792
6.95005
-1.92597
1.11112
-12.7327
23.5631
-8.15472
14.5991
13.2052
-72.6995
7.77237
16.2129
-40.427
7.2256
9.83421
27.7849
-54.3406
6.4126
0.395279
16.9746
0.199399
-16.1611
23.2159
19.9271
14.2298
14.6354
-11.9199
7.28358
-47.8288
24.961
-0.174911
26.7376
-1.05531
1.72765
-46.5676
8.61519
-36.6476
2.97127
-2.48768
5.22204
-1.45646
5.11306
-21.4966
-0.00115753
-6.78661
-32.9743
-11.5131
-24.9077
-0.432416
-3.20816
-6.38997
-112.235
15.2197
15.4864
19.079
14.2761
5.94884
5.62483
28.7899
14.2485
-52.2591
-0.0301919
-1.06433
11.472
12.8119
21.6884
-14.8721
-15.1623
12.3985
0.0120238
3.53576
18.4527
-36.3729
-78.7132
-47.8882
25.266
-22.6283
10.2493
18.6883
-0.785575
11.5497
-1.29137
-67.5842
-58.6091
-9.53709
10.1522
17.4479
18.3343
-27.1878
-33.4268
10.1773
-50.0863
-13.0569
-6.34437
3.29773
-10.3057
-1.63218
-27.5022
-55.643
-30.0441
22.3576
-8.04738
24.3528
-87.9141
-4.30938
5.58433
0.72189
20.785
14.7657
17.6554
-0.306054
-11.5681
-72.3946
20.2399
-32.5081
10.9722
-1.86713
17.8858
20.6696
-1.85449
14.5487
23.4156
16.1655
15.7486
-23.6784
-1.339
6.10916
-18.8562
-2.43398
9.00685
11.0452
0.273775
-82.2288
3.41104
-3.18525
13.0395
11.2368
-11.419
24.623
0.493979
-0.00618255
2.02291
14.1833
-17.7123
0.0257928
15.9186
-6.54601
0.382548
-3.22546
15.788
14.2271
13.6659
-1.69394
13.9173
16.9272
16.5263
-9.95045
0.249052
3.86444
12.566
-14.6939
-38.8164
-42.8354
-17.4955
-14.1485
0.0734985
-2.39108
0.14834
-37.5254
-11.2728
-151.725
-3.99629
-12.1973
5.66343
-72.0782
15.663
29.0981
5.54554
-6.80143
7.0039
2.12736
3.30388
0.124405
-12.3111
-97.6663
1.22641
19.3397
0.0340507
23.0555
0.0825347
13.6228
12.1594
6.46733
-51.028
9.31915
25.1998
-6.19873
14.2555
14.0825
21.5952
1.12
19.8505
16.0049
-44.1736
16.9417
-56.6949
-54.3869
20.3544
12.9561
-22.8652
1.88389
18.9578
2.21885
-37.1181
0.15589
0.273168
11.8346
8.15624
15.0141
13.9121
12.2753
-23.6846
-11.8886
-9.41659
14.6402
26.8167
-13.834
-66.9948
-48.9724
15.0204
0.817201
0.875905
6.97953
1.58354
11.4262
-2.46708
3.51532
22.5266
6.44059
1.03361
-5.73709
-34.7914
-20.8919
-51.3105
-29.5811
-84.2109
17.47
8.01936
-13.833
23.1041
-0.0243298
-75.7476
-7.70282
-61.4758
15.8565
-30.6046
5.07946
14.6334
-1.22623
-10.1668
-2.52307
-53.5416
-15.1566
16.0581
-144.674
-1.51121
-46.9353
14.1042
15.7096
-23.9982
18.4962
17.118
22.1861
22.7839
16.3585
2.38806
25.4823
-47.4203
14.2938
3.06351
-118.118
17.8486
-36.2885
22.2183
7.33061
-15.6135
-35.2694
-37.4681
15.8076
-42.4256
-14.2758
0.327387
-8.90329
1.18894
9.27291
2.95871
10.8649
25.2338
-35.7816
-29.3748
-6.63497
15.5123
11.5559
-21.7526
28.8717
-1.85326
-2.36235
9.9955
-12.7458
13.9063
15.0762
16.8472
17.1471
1.35989
8.09011
13.962
3.00399
-7.67407
-0.125405
16.0634
16.4357
20.2017
-4.18518
0.461109
8.28337
9.01511
2.75138
-83.5685
12.2977
-7.52582
12.8849
15.1725
-48.6173
23.0542
-35.2872
24.6591
16.8372
-148.47
0.0450799
-0.597989
6.83201
15.5819
-129.708
19.8006
14.0062
8.0006
0.248259
2.89431
-2.22513
8.01949
-47.7885
9.38646
-12.8997
14.2951
-35.8434
-0.588476
-9.19694
18.0687
20.946
8.07258
-32.1373
7.47018
-3.38546
0.277223
8.43168
-2.76572
-3.56848
24.3932
-6.27573
-0.940089
-18.0825
-63.6031
-2.47729
14.4506
-49.1706
-7.16576
15.515
9.41161
15.7782
-52.5889
6.67335
24.5691
-22.8794
14.4686
4.66372
-3.44647
5.13989
3.16527
-5.50977
25.0055
16.7862
-0.241213
24.1703
19.0391
18.0084
-49.6749
-37.1861
10.3104
-16.3383
-2.06676
-39.5312
-14.2342
-35.4335
11.512
5.66713
8.98095
9.85768
-2.53427
11.4188
14.6051
-84.475
15.6629
9.32308
14.3807
-3.35364
-0.341308
-25.7299
-52.8763
-45.1192
-8.26637
14.4651
-123.221
22.5181
-70.5339
13.9417
9.57231
-1.50547
2.64382
15.0166
7.36518
3.89915
13.1385
2.54874
1.23401
21.2349
17.4337
-23.523
-57.6714
-0.989064
13.0865
0.677957
7.19031
-26.5734
0.268968
-3.62905
-2.41776
12.6207
12.7257
2.20764
7.23375
0.321135
-1.36648
-128.59
18.1025
-32.2402
14.5001
0.0253045
12.6664
15.4958
8.65514
13.5944
-0.245096
-22.2545
-2.33099
-29.7846
-39.7403
-31.8569
0.469766
-2.75007
11.8258
-0.637141
14.1308
-1.47853
1.50212
-20.3456
-1.73898
15.2872
-58.036
14.2106
3.70596
-91.7635
-0.51001
-34.9102
10.2024
14.6695
-1.39353
2.75994
-33.4747
17.3584
0.604099
4.57922
-78.7357
18.3167
7.09394
-0.111626
15.6564
15.1597
17.6764
5.20059
18.0886
-24.1102
-7.41482
-3.07964
14.4847
9.62926
3.85913
1.4256
-59.1286
-101.308
8.16648
0.0317523
-121.184
23.2209
-26.12
17.4829
10.3814
-13.6358
-1.98547
-10.5994
-2.83437
1.92738
2.17262
13.8729
-1.7306
14.6161
-20.9229
7.04921
-3.51328
3.7361
-67.7621
18.3629
24.6274
16.0258
8.79843
3.62649
10.1382
-51.2671
0.419434
-1.73166
-3.95349
-28.2674
-154.493
-73.2905
-13.3099
12.9679
14.7121
-38.3346
3.57459
16.5315
-11.3326
-21.3536
15.822
-2.00164
-102.128
0.241339
-3.32662
0.0249741
23.1853
-1.64693
14.1458
-13.4489
-9.41336
-11.3178
14.2989
4.0129
12.0205
-9.66937
-14.7452
-7.40857
2.4677
16.877
12.7223
3.17116
-1.97813
-8.61578
25.6134
-4.09319
16.6079
18.3806
0.420335
-2.39097
6.60801
-47.5539
-16.1638
12.9049
8.91201
14.0735
-49.4926
16.0635
2.05743
20.7249
2.98103
13.1392
18.4388
12.3487
2.97204
-71.2809
4.99383
-53.7793
12.968
7.08954
17.6126
1.67398
22.0554
2.56453
23.5923
0.417669
18.5013
-1.51197
10.8092
-80.5117
13.9953
6.97539
6.83777
21.7912
14.5642
3.70781
-11.603
8.21569
13.7254
-1.66916
-49.1008
10.3107
-8.04736
18.9397
-26.1214
22.5408
3.95726
28.8305
22.6248
11.1168
10.2978
-89.6296
1.2114
24.1413
-0.407943
-0.606711
-3.53305
23.6582
7.84173
12.47
19.4816
-10.2209
15.8293
-6.91766
17.4576
-0.0143308
16.6299
14.8228
20.4018
-1.96244
-44.9508
4.17009
-37.063
6.76067
3.24877
-1.58295
18.8703
21.1582
0.114504
5.29471
-5.98109
19.2573
11.8429
13.3954
9.199
-2.75615
-28.9644
-9.59675
15.0612
-20.6813
-0.453538
1.55037
10.4932
6.91273
-11.7489
25.2344
-2.13115
22.4565
5.02006
22.9502
-12.2658
3.54961
-1.36599
0.258062
12.1649
14.3349
1.58524
-0.25814
0.351018
-0.86958
21.2069
-3.47916
0.268418
-2.54052
0.0624835
5.79587
17.9865
7.38892
-9.76861
-0.175978
14.4982
26.8357
-39.7689
-9.33068
14.2889
0.66835
7.46378
-1.95939
10.9001
-0.0980733
-32.821
-0.81784
-7.63366
-4.16092
-0.383549
-42.4285
-41.9797
0.748972
11.7151
15.5054
12.7468
26.16
-119.521
23.467
-30.0827
22.6719
-133.733
-11.6843
25.3516
6.49695
-17.1325
14.9403
-2.0628
16.1566
-4.21178
-47.3175
2.44487
-12.8717
-17.1067
-0.000953562
-4.23261
6.06238
18.3286
-126.342
6.63031
-21.1118
3.93271
-2.48145
-1.60689
2.68142
-3.01648
-17.5586
18.8863
-1.13814
21.0549
5.57866
-56.2229
5.58452
-10.8768
-1.19856
12.7021
18.2214
25.895
11.2547
12.9357
7.20438
-33.8795
25.1216
26.9902
16.0434
-8.4692
-52.7647
-55.895
13.4856
9.7419
5.40499
12.6516
-5.4067
-1.28102
-87.7149
21.6255
1.70601
2.0665
-20.2184
14.1716
4.20421
28.4496
26.8405
12.968
2.17675
4.06701
-26.6368
6.73103
27.3794
1.49527
-1.03167
10.9263
0.063358
3.01274
-2.38403
-4.98252
2.91514
2.21621
6.6074
-0.238803
5.05988
20.3399
5.45831
15.4099
-23.2684
-5.96103
24.5348
-53.2356
3.01702
4.31345
6.75772
3.50373
-27.4916
3.57141
-10.5839
2.53879
28.4222
-51.4063
-38.407
-43.1522
-7.35613
0.834623
4.46199
-21.1921
-36.166
-0.12024
-29.1759
-9.92352
-18.1088
3.73215
-2.90793
1.654
28.1341
1.96375
4.16427
-4.14882
3.18575
-34.2403
-8.58282
20.193
14.6018
4.23859
-0.0431088
14.0255
15.5474
0.549736
-139.581
-2.04473
20.0381
-12.1937
13.5121
0.755462
22.3306
1.71023
-28.0441
1.25813
15.951
-10.7948
13.1762
-10.2199
27.396
-19.5018
-3.74382
-86.0428
7.39741
-29.416
-13.5926
-21.2227
1.50109
7.49404
-63.0325
-3.28732
-2.97299
3.01303
-21.6554
-10.0233
11.5366
-56.1329
12.6708
-24.5285
16.1366
25.0187
13.8155
-35.6104
14.8499
1.08544
3.05849
-3.31088
-6.62979
-49.8116
-2.17415
-10.6516
7.34162
0.430392
-7.63462
-0.976539
-80.9642
7.29344
14.4457
-10.2825
-32.1794
-4.35888
-0.330718
-0.241523
8.67272
-24.012
-35.5583
15.0616
-1.86284
9.11965
-19.6537
-93.1689
-72.3884
-124.507
27.4415
4.73738
-15.3749
5.32841
23.7499
24.5925
-32.5405
-7.11756
14.4301
-1.2694
-1.13327
24.176
8.02793
13.2996
28.6476
-3.35677
5.02247
2.68953
21.6846
15.1649
15.2662
18.4977
10.6751
0.0921139
0.207979
7.16048
3.46543
-53.1951
24.8177
-4.2734
-5.94151
-0.216934
-20.2008
7.18995
-20.2494
-7.91047
3.66938
15.2819
15.8813
16.9224
-49.95
21.5029
24.2357
-44.2065
9.21376
-2.91273
-1.40347
2.92098
8.86715
-2.79121
-11.4556
-11.8486
26.7922
-56.5179
16.9432
14.7266
19.5245
11.3259
11.358
-0.206014
0.102761
9.32883
-2.28027
-67.452
-20.8388
0.377672
-15.3176
17.9465
-57.302
-1.31026
3.54437
-32.6556
-26.0091
-48.9086
12.7792
-6.94076
-1.32777
6.49761
-56.1658
5.2933
-39.785
-2.79713
15.7677
-68.4628
24.8067
-0.223211
25.9212
0.00596017
-1.5992
2.10551
12.8979
12.5112
-24.7138
-3.72723
-1.92026
1.78233
10.4077
28.9315
19.5187
5.03075
-11.6516
7.88188
0.826549
16.9357
-0.942775
8.96584
-11.3007
-19.8456
-33.1948
6.19861
0.104017
-32.8665
9.77769
9.38799
24.0191
25.5393
-50.28
-48.7094
1.52914
-12.353
25.1357
1.75922
-4.31622
6.53913
10.8492
-10.7989
0.753513
1.63425
-2.02678
13.6819
-6.85822
4.67942
-0.269637
-10.0907
-23.5071
-3.10419
-23.0704
-21.5789
16.2344
-37.0884
-23.2102
-8.10436
1.73705
27.0726
11.4397
13.7314
-9.3213
7.48012
-0.748642
6.12315
4.7047
-20.5755
-38.147
25.0632
15.5394
0.134011
-40.8099
28.05
-27.5733
-33.2002
-9.31351
7.87056
-32.8645
-9.87995
21.7382
-0.553723
13.5191
6.16808
-12.86
1.96141
-1.02081
7.08789
-23.2171
0.476697
5.33627
14.3418
-37.4776
-31.7913
1.01646
-11.4287
-13.594
-13.4376
26.4774
9.85515
-128.099
7.52841
4.08825
23.4497
8.40499
-44.8997
9.07397
18.5641
16.1759
-13.6497
13.2002
-0.239337
24.8972
0.0748202
15.1196
-76.6457
-12.636
-0.302748
-14.5943
9.34305
5.37558
-49.6605
-39.508
17.322
-0.0400496
-1.30528
20.3553
11.7217
19.8235
13.4996
-15.2122
0.103857
0.743873
14.5425
0.00677381
18.1572
11.902
24.5827
-17.3035
19.3052
8.1198
24.6283
-11.3233
-9.28903
25.3127
-19.3203
11.7384
-59.0893
22.0605
24.3486
15.788
-18.3565
14.3388
18.9463
-20.3255
6.81794
-22.7424
20.1407
-21.4505
-3.50061
-48.8004
-48.3458
18.5662
7.69189
-54.8597
7.76416
24.3398
-5.47129
-1.24759
-48.865
-12.5536
12.8017
-4.53338
13.9243
13.6778
-54.1537
27.1421
-2.43808
20.9544
20.8559
-3.63408
-0.239614
13.107
-20.5384
-6.09692
13.0713
11.1374
-4.73541
13.7893
-8.80356
21.4851
16.0022
5.83211
1.36215
16.5221
-3.76539
9.51148
19.4503
3.03122
-0.142341
18.7457
15.6298
-11.5628
-35.4856
11.6406
16.4137
24.7498
-41.9934
26.149
25.1281
26.4484
-1.71891
18.2218
-81.7831
14.5963
19.8172
19.1929
16.224
21.4286
28.4874
12.9828
-44.1518
2.40136
-30.3064
28.2371
7.97833
-0.403485
-29.5373
14.1504
21.6527
13.9433
5.17086
-3.51781
21.3843
-34.5393
15.8068
-32.515
6.83395
-1.396
5.59019
9.53065
-74.2088
-76.0777
-3.06575
-10.873
-0.921929
17.8343
-2.06317
1.56462
13.5628
-74.0934
9.9425
-0.333947
-67.5473
-70.7564
-44.7229
20.4649
22.0206
-24.0861
6.6493
18.8349
17.2543
0.122124
-82.4716
15.9943
-53.6547
20.1532
-58.6839
19.5941
9.77203
2.3496
18.3568
10.0255
19.2268
5.47035
7.19051
-10.8977
-36.1121
-86.8418
-2.29008
18.8677
-96.7333
-15.7673
-81.3264
21.0944
19.0205
6.07149
11.0749
21.1499
-21.8566
13.9834
-1.15493
-11.9804
13.8658
-26.932
-53.9212
-12.5853
-51.891
-7.8079
-145.028
-1.12676
-59.8536
-33.577
11.948
24.9596
27.187
23.7519
-107.041
15.9485
-82.4557
13.4422
21.1198
2.68521
18.5144
-70.1192
5.3897
-12.0099
-0.9489
20.0842
-7.64181
16.64
-49.8373
-3.22143
-50.6128
16.8474
16.4853
14.3964
-65.0886
13.7669
-3.17983
-51.8576
-49.5962
4.99548
25.2195
-24.4496
-9.11973
-36.3766
14.3673
13.9946
-2.34439
9.36058
-62.4534
21.4447
19.7842
-13.1099
-2.57021
20.8709
-27.4754
-134.405
0.257912
19.1251
21.43
-73.5834
10.871
-0.796424
24.5303
-60.4482
-30.1026
-1.06933
23.1003
0.0341115
-10.3604
-0.658699
20.0216
11.6888
19.8293
-1.52224
-22.9893
16.2447
27.8219
-36.7279
13.5979
-0.246342
-51.3868
0.000327647
5.52431
-37.2462
10.6778
-9.24265
9.77793
-5.18071
-19.3333
18.1434
21.7641
13.6274
-19.3634
-27.7246
17.1845
-55.7582
5.7371
-11.7641
7.26386
-74.4133
15.9688
17.1527
-0.24827
16.2369
24.3314
-6.56351
12.2939
16.6282
-48.6592
9.41947
-6.02914
7.20958
5.78472
11.8098
0.0265475
5.21974
-5.63843
-23.0199
20.5747
6.31219
2.70053
-31.544
-5.7007
15.1941
-68.0034
26.3745
-58.7209
-54.2365
-1.61716
18.6169
16.7847
19.7601
-39.8518
23.4634
-96.3927
12.0927
0.689251
-59.227
13.6497
6.72309
-6.46246
10.0661
-29.7416
12.1099
-49.1743
-31.8756
-0.074885
-50.1603
-57.7203
13.22
23.9875
-0.139208
-83.7577
18.7464
-31.9147
21.8375
7.5482
0.562473
9.17375
14.8014
7.80343
-2.16316
1.39227
-0.169877
4.42273
6.06078
-69.4008
-37.2797
-0.0831144
9.50702
0.442477
28.4074
15.8722
14.5665
22.1867
3.07042
16.3613
-58.0307
-34.2693
-49.9241
14.475
27.9142
13.5088
-10.0152
20.4647
14.17
14.3582
-1.90461
-0.107733
7.68986
26.5483
1.70299
-18.4019
18.178
21.0039
15.7478
14.4485
17.7626
10.2536
-3.72037
-87.1313
16.0301
-37.6275
-34.4876
14.5556
-63.8312
1.3543
5.44755
16.0552
16.6989
16.8974
-0.293725
19.5757
20.1178
3.27789
17.6616
15.3198
13.1426
11.8824
10.6614
7.51239
-2.43324
18.6018
17.6359
1.26468
13.6697
-0.492223
-1.14368
23.7913
18.1844
0.0520344
-85.7496
1.22389
18.8296
10.7932
4.47179
-1.46488
1.5175
-13.4993
2.60899
-51.2137
-2.6484
11.3996
-4.65271
-60.1466
-65.496
22.6263
-35.9541
-28.9731
-62.6817
24.0845
-4.93441
3.72665
3.63115
-50.2932
12.3576
13.74
9.45265
21.3813
11.4315
0.465071
-41.877
-83.0157
0.117524
17.1392
1.64517
-75.5845
-58.7236
-10.7425
-26.9661
-54.7379
-34.5703
-5.25677
5.77174
14.2949
19.2262
-8.40337
-1.22788
21.3791
16.2034
-72.1899
-0.487532
-34.9713
9.06936
0.809806
7.95499
12.4416
0.0770147
-6.15419
-9.07411
4.69298
-100.499
-47.7916
0.371507
-78.7088
-54.812
-52.9629
-79.2351
0.602382
-29.7491
7.48811
-70.1913
14.4851
13.0477
4.14533
18.8402
-135.495
24.1673
-16.2639
0.897225
-11.5869
14.4642
8.71786
-34.8125
-33.278
14.9663
17.7224
25.026
-89.7645
-55.6672
-125.228
-4.57989
0.0579646
-58.5242
5.74313
-50.6467
8.42874
-80.9216
11.7565
1.7724
-3.01969
21.9341
12.9043
-7.71265
-0.894706
-17.3074
-45.957
19.2087
27.2355
-33.3179
18.0823
13.7069
-0.00349922
-2.4077
18.3574
17.7469
-36.0503
-3.89925
-55.3822
-142.763
-10.4911
-53.3184
-8.65312
10.3317
-0.558521
16.2537
-75.9769
-56.6439
13.78
-9.21503
-47.5763
1.2823
11.97
-47.6355
-5.97342
-56.3261
-58.3709
-47.5028
25.4246
-32.3744
-2.23851
-90.1975
15.8398
-49.9984
-1.10918
-34.3571
-122.099
-11.1352
16.5564
-0.0332393
-54.6322
12.5739
0.0308421
-21.9222
-63.5234
-69.1612
10.6214
12.0017
14.6759
-37.8786
21.9114
-14.6469
0.0453603
-7.32801
-19.4603
-92.5438
-62.339
-54.8823
3.59535
6.33591
-1.65813
-2.32325
-19.227
13.7584
-147.238
14.6171
-86.8854
9.37154
-7.73826
-2.084
0.899945
28.9001
-1.64011
-49.0834
-24.9823
-21.0101
14.4243
-2.02476
1.03286
-0.311736
-55.3245
-86.2323
-34.3323
-49.4719
16.2405
-75.2532
2.39843
-54.8849
-0.70213
12.712
-6.76174
6.74954
-6.97828
19.2725
-49.5696
-36.5751
20.695
5.98452
-49.2041
-2.42596
-72.6892
-18.5655
-4.04392
18.7458
-35.1257
6.9015
-53.0071
-65.2196
-95.8008
-82.1717
-29.6653
9.34171
-5.80501
14.5701
6.18471
-110.209
22.1537
-111.911
18.1001
21.6131
-49.9032
1.97004
15.5641
14.1328
11.9818
-47.349
-54.4248
-47.8965
14.5172
4.58745
-24.012
-76.2483
8.58804
17.4813
-1.76491
1.38833
1.22979
20.3102
-15.1941
-16.598
-1.29295
12.6021
2.41036
0.649718
21.9907
18.1646
-1.67758
-86.6068
18.5141
7.79254
-0.327097
13.8938
-12.58
-54.0267
-56.1419
-72.557
17.8386
15.8088
-3.80727
-11.959
-0.0436997
-0.440674
16.0398
-99.7844
11.8691
19.3842
20.8411
-11.6118
14.6851
13.0188
16.4567
17.4188
-0.945012
17.4355
-0.0333832
14.6887
9.1216
15.8652
-73.9496
18.3415
17.4929
13.1164
10.1985
-31.7993
10.5536
-6.98084
-15.8206
19.9143
19.698
-83.3653
17.5264
-60.8604
-37.9426
15.786
15.7806
-32.74
-1.24004
-55.117
-88.2628
-9.45757
-25.6914
-38.0316
-2.64148
13.2998
26.1882
18.6139
-10.7493
-12.5901
15.6241
7.81577
-4.06322
-58.1145
-27.5399
-15.6085
-36.9035
-35.7924
13.9084
-0.0657675
6.88014
0.0701516
0.0651122
0.323699
0.161147
3.64997
7.91811
10.7068
-15.2795
7.94003
-35.4022
-154.403
10.0647
8.30355
-3.07594
-0.022676
10.3762
-1.9819
6.56569
-13.1014
14.6351
11.9138
23.1635
14.636
-47.8514
-3.09121
-11.998
-23.1768
-1.36675
-1.19063
-4.82112
-79.5678
26.4427
0.321615
0.506806
21.5947
-38.2785
-7.18625
-3.84423
-76.4367
-47.6992
4.74363
-13.4067
14.4145
-6.34909
-44.6482
1.12299
-17.842
-13.9655
-3.61884
-0.496232
11.7254
-21.4434
-29.5662
-14.5568
5.82209
-20.7988
15.7541
22.2435
-23.2965
16.0075
8.4803
10.8246
24.3179
-45.2347
9.30659
7.57644
6.56897
20.975
-2.33798
-4.5912
-2.80642
15.4853
22.2718
-35.9068
-1.25059
-28.3258
-19.7835
7.99008
-37.1497
-25.0201
-29.9284
6.56618
-51.924
3.2879
4.8956
12.985
2.4457
-41.3733
-0.37883
-1.93776
-3.50116
23.6373
26.3868
19.7408
27.194
13.3238
14.6454
16.7445
14.5665
14.1091
-28.5421
14.9616
-3.17405
-34.6441
21.5345
-5.87809
-18.1418
25.1178
0.822721
-132.821
8.11841
6.90622
17.8606
-29.8113
13.6698
23.2693
-40.1809
-37.6976
-20.1328
10.2053
-74.0763
18.9149
-1.64634
17.9591
14.5171
-30.8842
17.1072
-9.83345
-42.791
-42.6436
-70.2504
17.7944
-21.9454
14.4863
-2.24977
-56.1801
-0.13585
-0.26581
-11.0821
-36.3725
-49.5325
17.9215
3.46062
-47.7978
-4.73764
10.0835
3.84319
-98.3268
7.71432
-2.0111
7.61609
-46.4041
9.36604
4.54042
9.76434
-3.5766
13.8693
8.9451
4.98507
-52.1098
27.3691
-13.2779
-53.6003
14.0391
11.8782
-48.9728
-17.7637
-66.7844
9.42973
7.89701
-18.9165
-1.30989
-3.39119
27.289
0.151929
-40.7545
0.084756
-11.2004
10.501
-7.01232
13.3402
10.0819
-68.2403
9.40499
-54.8998
12.0138
5.8745
14.7475
10.7152
-0.00622429
0.0745529
7.32934
15.87
3.12072
0.0725469
-48.6016
-5.59753
-7.4399
12.8937
-50.6957
7.40581
-40.3459
17.8562
-59.1677
-2.77981
19.2888
17.3503
7.77083
-54.1235
-31.679
16.2011
0.916174
18.1796
8.38616
1.34812
14.7581
4.53487
4.8768
3.07694
-11.8834
-25.3156
10.4581
-1.4505
19.764
4.51721
27.5469
-0.22248
4.49622
17.5825
2.31801
4.05513
15.6284
12.54
9.00729
-25.2383
-2.03942
13.8303
9.51053
5.25822
-116.953
-4.60081
-81.2548
-51.7555
-13.8265
13.3089
-15.3303
12.1055
0.099427
23.7869
18.6038
6.10698
12.0278
5.80898
-50.8355
14.0328
10.5809
1.49286
6.26489
18.0477
16.0759
-2.36449
-88.7079
-20.0218
13.0454
6.78367
1.30532
15.6228
-150.077
13.6046
-27.0918
14.2805
7.42575
-2.2319
6.8835
16.8309
-3.54919
14.9147
19.082
2.60149
-10.4746
9.05072
2.20357
22.3139
-69.4147
20.261
16.9818
-65.5102
-25.7621
-0.228224
-12.0401
-86.9889
-23.277
14.0496
20.5572
16.4606
20.7727
10.5209
18.9195
6.82399
1.23982
7.3698
-2.43815
2.24361
11.9894
-2.1056
21.7465
4.1521
-51.6643
10.9721
21.3238
22.4406
-140.28
8.42472
-38.9279
-32.548
7.90123
2.08071
-30.4693
8.47024
22.6439
-52.4565
-62.8895
-90.7249
6.94801
1.42735