/*--------------------------------*- C++ -*----------------------------------*\
| =========                 |                                                 |
| \\      /  F ield         | OpenFOAM: The Open Source CFD Toolbox           |
|  \\    /   O peration     | Version:  2306                                  |
|   \\  /    A nd           | Website:  www.openfoam.com                      |
|    \\/     M anipulation  |                                                 |
\*---------------------------------------------------------------------------*/
FoamFile
{
    version     2.0;
    format      ascii;
    arch        "LSB;label=32;scalar=64";
    class       volVectorField;
    location    "2.3";
    object      U;
}
// * * * * * * * * * * * * * * * * * * * * * * * * * * * * * * * * * * * * * //

dimensions      [0 1 -1 0 0 0 0];

internalField   nonuniform List<vector> 
13486
(
(4.12326 -0.532247 1.08481e-20)
(4.93585 0.909025 5.00093e-21)
(7.79611 0.16975 0)
(-2.56091 0.528438 -8.2753e-21)
(6.62741 -1.53179 3.78353e-21)
(7.36499 0.54289 4.18512e-22)
(7.38225 -1.30764 7.29259e-23)
(5.63184 -2.04162 -5.94475e-21)
(5.56942 -1.10252 0)
(5.90304 2.3598 0)
(-3.75261 7.86983 -3.35561e-20)
(7.49696 -0.279524 0)
(3.6318 -1.10262 -1.08124e-20)
(7.2847 2.40238 4.07399e-22)
(7.02484 -1.13677 1.91875e-21)
(5.80355 2.44337 -3.19545e-21)
(1.91812 -0.737296 1.62052e-20)
(2.84453 -1.39651 1.36783e-21)
(6.81396 -0.0603545 4.95631e-23)
(4.70988 -0.152577 -1.08437e-20)
(-1.87404 -1.2804 -2.59646e-21)
(3.67252 -1.12597 1.39293e-20)
(5.00482 0.897337 -4.00614e-21)
(10.1895 -3.2909 0)
(6.16216 1.87788 1.01264e-21)
(9.78421 -3.20075 -5.46808e-21)
(-1.50206 2.05178 2.03676e-20)
(8.20885 -0.510627 1.07963e-20)
(6.00069 0.225089 0)
(7.63781 -1.34014 -7.40247e-21)
(-0.902689 -2.75531 -1.34189e-21)
(7.2896 -0.808239 -2.43351e-21)
(9.81467 -0.534527 9.71832e-21)
(6.81154 -0.453305 0)
(5.64182 -1.95554 0)
(5.51078 0.0286222 1.68348e-23)
(5.20037 0.5775 -5.40596e-22)
(4.45585 -2.07602 5.69433e-21)
(5.02696 -0.411898 -3.32292e-22)
(5.64488 -0.68519 5.47638e-21)
(6.93168 -2.37881 0)
(3.03549 -1.44807 -1.27861e-20)
(6.26787 0.00529015 0)
(6.14857 1.64169 -5.01548e-21)
(6.16783 1.63445 2.03185e-21)
(7.49806 -0.256192 1.57853e-21)
(-2.09095 4.84298 3.10158e-20)
(5.96798 0.236695 -2.43112e-24)
(5.21054 0.545469 4.1184e-22)
(8.33607 0.0731856 4.56232e-21)
(5.9683 0.11425 6.10118e-21)
(5.24221 -0.100724 0)
(7.58096 -0.493991 -2.17581e-21)
(4.62961 -1.64428 -8.22438e-21)
(2.91215 -1.82345 0)
(6.56529 -1.55961 -2.50413e-21)
(6.4553 1.12161 7.83822e-23)
(5.24398 -0.227707 -1.36483e-21)
(9.691 -0.484507 1.13217e-20)
(4.90556 1.08232 0)
(-4.22825 7.19035 -4.62085e-20)
(4.93636 1.05503 0)
(12.1471 2.4324 -9.04667e-21)
(-1.82943 -1.27114 -2.57653e-23)
(5.36238 -6.86948 0)
(5.15367 0.685934 -2.66659e-22)
(-3.29313 0.870864 -1.01519e-20)
(4.16365 0.27509 3.59908e-21)
(5.56783 -1.16495 -3.16831e-21)
(5.30665 0.0475404 2.96948e-22)
(-3.29574 0.893049 1.17221e-20)
(2.91722 -1.65154 4.78982e-23)
(5.69735 -0.326026 4.05156e-21)
(-1.77274 -2.56541 -1.0669e-20)
(5.23989 0.868244 -5.85673e-23)
(6.52434 1.08163 -1.21552e-23)
(5.29657 0.827437 1.42015e-22)
(7.03257 -1.18333 -7.85458e-22)
(-2.35245 6.99557 -1.63635e-20)
(5.27368 -1.44202 0)
(5.86591 0.0357109 4.41676e-24)
(4.79123 1.27099 -3.22148e-22)
(10.608 2.44393 2.65748e-22)
(8.01127 0.112186 -8.16621e-23)
(4.09632 -0.581806 -2.1128e-20)
(4.19783 5.27877 0)
(4.57055 -0.921548 -4.99774e-22)
(6.00045 0.148264 -9.26572e-21)
(5.52791 0.653547 -4.13456e-21)
(5.30169 3.19053 -3.51638e-21)
(7.45705 -0.798226 -1.32668e-21)
(5.96959 -1.74559 -3.09137e-21)
(4.28287 -0.910569 2.78321e-21)
(4.83549 0.344127 2.80153e-22)
(5.14797 -1.55615 1.30854e-21)
(5.96282 0.188276 1.85387e-24)
(-2.47383 3.35993 0)
(-5.01406 0.45815 8.0375e-21)
(5.67351 -0.667804 -1.04495e-20)
(2.25307 -0.664463 -3.6617e-23)
(5.92359 0.0327803 0)
(7.22119 2.41034 1.00164e-22)
(-5.14405 0.023566 8.09652e-22)
(5.16263 -0.16702 1.59819e-21)
(3.89032 5.10519 0)
(2.76732 -0.746848 -1.48573e-22)
(5.85959 0.170171 2.18722e-23)
(5.06539 -0.511516 -7.73119e-22)
(-2.2557 7.0224 2.13275e-20)
(5.6172 -2.57153 0)
(4.49637 -2.12464 0)
(7.31227 -1.00529 -2.23953e-21)
(4.65165 -1.58234 7.28815e-23)
(6.49583 0.660849 6.34898e-24)
(3.04735 0.0093192 0)
(4.39827 -2.10533 -5.01361e-21)
(6.05809 2.01267 0)
(6.99015 -0.403558 0)
(5.72311 -0.29653 0)
(5.35912 0.444805 -2.26145e-22)
(3.04209 -1.34583 -5.9642e-22)
(-5.82446 7.43932 0)
(5.09762 -1.40554 0)
(5.02159 -0.426145 1.07215e-21)
(5.32463 -1.87285 0)
(5.21297 -0.118977 0)
(6.36976 -0.754864 1.20207e-22)
(6.54514 0.327972 1.69486e-21)
(6.21107 -0.162132 -1.03723e-21)
(5.60787 -5.39407 -3.84026e-21)
(5.21612 -0.067888 -1.66552e-22)
(-2.29669 5.19429 -7.62284e-21)
(-0.520504 -1.27398 1.56847e-20)
(-2.0556 0.620967 1.41346e-20)
(5.97581 0.042596 -1.00184e-21)
(5.63554 1.38527 -4.60171e-21)
(2.43489 2.45378 -2.93294e-21)
(5.59782 -2.54305 0)
(5.38263 0.425759 6.79119e-23)
(5.68304 -1.62519 -2.0844e-21)
(9.20902 0.0437656 -9.54625e-21)
(7.62436 -0.548477 1.81667e-21)
(7.3397 -0.620604 0)
(5.28889 -1.38876 0)
(6.65202 0.0552282 5.22914e-23)
(13.9211 0.793723 -2.57798e-20)
(6.73609 -0.0890298 6.61062e-23)
(-2.13458 4.9412 0)
(8.42333 0.0986085 0)
(6.00953 0.208784 0)
(6.038 0.0575681 9.05017e-23)
(7.0094 -1.33939 0)
(5.89145 0.0382853 -4.62246e-24)
(4.65474 1.23818 -2.71757e-21)
(6.55691 1.07175 0)
(7.99329 0.213506 0)
(5.39486 -2.44065 0)
(0.178809 -0.149805 -8.86769e-24)
(4.93538 -1.94379 1.18626e-20)
(6.22161 1.6032 -9.16687e-21)
(8.16215 0.0986943 2.67011e-21)
(4.95708 -1.89107 -1.78233e-20)
(7.4586 -0.85891 8.97707e-22)
(2.78824 -1.36846 5.64076e-21)
(5.25443 -0.156119 0)
(7.62481 2.40727 -1.35689e-21)
(7.05798 2.23533 3.95879e-22)
(1.11095 -0.137375 -1.3348e-20)
(6.61087 0.0810695 -1.56124e-22)
(-2.12038 0.381269 3.83008e-21)
(-1.68309 -2.11851 1.22602e-22)
(6.53754 0.982247 1.49739e-21)
(5.95854 0.279267 -7.37476e-21)
(6.83719 -0.677475 1.84377e-22)
(5.86207 0.109544 -5.2728e-24)
(-5.30673 -3.64465 0)
(7.24609 3.41221 1.52199e-21)
(9.64995 0.266853 1.28427e-20)
(5.85123 0.1374 -1.01055e-20)
(7.34963 -0.593829 0)
(5.77375 -0.818405 1.11575e-20)
(6.52409 0.603091 1.63526e-23)
(7.02781 -0.606125 -8.08824e-23)
(-8.58093 4.57685 0)
(7.96079 -0.0778115 1.68166e-22)
(7.76558 -0.40687 -4.89809e-21)
(6.13604 0.208476 -4.22725e-24)
(7.44487 -0.901672 -2.14372e-21)
(6.82713 -2.38108 0)
(4.04454 -1.94486 -6.68503e-21)
(5.28262 0.537802 0)
(7.2993 0.178453 0)
(5.32792 -0.37527 0)
(3.96158 2.6198 -5.66656e-21)
(5.409 -0.472855 0)
(-5.45921 8.21883 -9.70271e-21)
(5.27753 -6.03412 8.71811e-21)
(8.31226 0.0367905 1.48399e-21)
(3.84102 -1.89565 -2.55262e-21)
(7.55278 2.26221 -4.99915e-22)
(-0.937656 -2.70014 1.25657e-21)
(6.57071 0.370326 -5.07424e-23)
(4.38946 -2.10342 -6.59847e-21)
(5.80135 -2.46392 1.26224e-21)
(6.23592 2.26014 1.10829e-20)
(5.46587 -0.459439 -1.18737e-21)
(2.24601 -1.69725 4.58318e-22)
(5.57647 -0.0992997 8.26347e-21)
(5.28255 -0.3506 0)
(7.98428 -0.0230583 0)
(7.99366 -0.494598 7.39419e-21)
(8.77539 -4.16045 9.72236e-21)
(4.75497 -0.0497095 9.95801e-21)
(5.76365 0.186348 4.31195e-23)
(7.39763 0.659948 -4.82636e-22)
(6.0043 -2.00387 7.76993e-22)
(7.84276 -1.15991 0)
(5.3844 3.03934 9.21627e-21)
(4.47726 -0.954547 0)
(9.4471 2.5904 0)
(2.87964 -0.577496 -3.09219e-20)
(8.47727 0.149687 0)
(5.64665 -1.60088 4.90049e-21)
(8.18273 0.156293 0)
(7.614 -0.583146 -3.44715e-22)
(3.76509 -1.7283 4.00028e-21)
(7.79823 1.18928 -1.11907e-22)
(-1.98805 -4.88577 2.26914e-21)
(5.93654 -1.35111 1.44678e-22)
(4.69505 -0.797658 8.05329e-23)
(5.80414 -0.797082 -3.57565e-21)
(5.03383 -1.20428 2.43343e-21)
(9.31862 -0.079474 1.19757e-20)
(2.98367 -1.40252 4.37366e-21)
(-3.9861 -1.61985 0)
(3.58629 -1.74359 4.74162e-22)
(7.10259 -0.708902 3.65104e-21)
(7.34835 0.143698 -4.85569e-23)
(3.50231 -1.6782 1.30266e-20)
(7.03879 -0.405944 0)
(9.92645 -0.804356 0)
(6.02692 0.204419 1.13591e-20)
(6.70039 0.441454 0)
(3.39423 -1.67575 4.33324e-21)
(4.78219 -0.578475 -7.01548e-22)
(5.38601 0.228997 0)
(7.24488 -0.0801481 -7.47989e-22)
(8.79207 -2.35133 1.58815e-20)
(-0.0844206 -1.8058 2.23808e-20)
(6.04535 1.55716 0)
(-8.43945 1.91334 -6.55982e-21)
(2.95161 0.0931184 1.56998e-21)
(4.03138 -1.97491 6.4296e-21)
(5.06299 -0.52713 0)
(5.59824 -1.27762 8.37476e-22)
(-5.65834 -3.70446 6.34276e-21)
(7.29319 -0.805088 1.97874e-21)
(5.91292 -2.04231 -9.81839e-22)
(0.276872 -0.460018 9.28583e-24)
(9.89551 -0.729974 8.26691e-21)
(5.26705 0.758624 0)
(4.75794 -0.548349 1.83935e-24)
(7.03322 -1.14432 -4.46762e-21)
(-5.88492 -2.28279 -7.91966e-21)
(6.32637 -2.09669 -3.95526e-21)
(-8.47964 4.84095 0)
(6.0014 -1.31174 -2.00562e-21)
(-1.54174 -2.59992 -2.39566e-21)
(6.14294 0.0239283 -4.71213e-21)
(3.69818 -1.05239 0)
(4.43665 2.87499 4.14787e-21)
(5.852 0.171225 -2.72951e-21)
(7.8279 -1.24982 0)
(7.62312 -0.378153 1.23597e-21)
(3.82954 -1.79251 5.34205e-21)
(8.47346 -2.29213 -8.8825e-21)
(5.6144 -1.16075 0)
(3.33634 -2.96981 0)
(5.09605 -0.618265 -8.21732e-22)
(7.0585 -0.170387 -9.59659e-23)
(3.54516 -3.17201 1.50057e-21)
(6.20243 -0.561601 -3.99907e-21)
(5.78127 0.240225 6.00032e-21)
(13.3751 -2.57392 -1.68527e-20)
(-6.9431 6.96554 5.20703e-20)
(-0.295796 1.94745 3.14383e-20)
(9.32937 0.285656 1.04087e-20)
(6.25652 -0.234138 1.36393e-21)
(8.26889 -0.588408 4.87842e-22)
(6.06169 -0.0389973 0)
(-3.58348 -1.01803 0)
(3.96311 0.0142319 8.7611e-22)
(4.38121 -2.0943 4.99284e-21)
(5.99958 0.0601213 -9.79845e-22)
(7.05858 -0.672106 3.34611e-21)
(7.29432 -0.81878 0)
(7.59166 -0.0218457 -3.48031e-21)
(7.61622 -0.3464 -9.15278e-22)
(5.74552 0.240061 -5.49832e-21)
(7.26945 -1.70444 1.41871e-21)
(5.77145 -0.647606 -1.05472e-21)
(2.35068 -1.74056 7.06436e-23)
(6.99926 -0.129 8.17801e-23)
(7.25375 -0.816547 2.32059e-21)
(5.26248 0.405682 1.08733e-22)
(5.05345 -2.40471 0)
(0.983061 -0.452769 0)
(6.61662 -0.110183 1.47568e-21)
(4.73896 -1.11071 3.37709e-22)
(5.28166 0.554348 0)
(5.79232 4.11972 -2.3022e-20)
(-2.22274 0.720629 0)
(6.92144 3.33697 -1.21644e-22)
(7.46131 -0.97596 -2.24377e-21)
(7.51387 2.31348 0)
(5.663 1.25838 -2.79208e-21)
(3.68541 0.129307 -1.29878e-21)
(5.52859 0.649369 -3.52367e-22)
(5.54906 -0.0845895 -9.09739e-21)
(6.14935 -1.3353 0)
(5.22215 0.634727 4.80515e-22)
(4.37282 -0.0909469 -3.44339e-23)
(5.89946 0.139595 1.272e-21)
(4.83241 0.481265 -5.25679e-21)
(1.9326 2.30425 5.48555e-21)
(7.49169 -0.779866 2.5706e-21)
(6.46904 -1.11302 -1.13804e-20)
(6.2524 -0.559141 0)
(7.78113 -0.273311 5.31773e-23)
(6.54097 -1.13078 -2.1461e-21)
(5.98544 0.0876041 1.34158e-20)
(6.04084 -1.76516 0)
(7.33803 -0.850303 -6.04783e-22)
(4.23866 1.24725 0)
(7.26183 -1.37068 -3.45221e-21)
(5.40715 -1.47543 -3.55341e-21)
(2.1993 -0.988054 5.26914e-21)
(6.95256 -1.38283 -3.11323e-21)
(6.04571 0.624016 0)
(4.6858 -0.527501 -1.13082e-21)
(6.1011 -1.30776 2.23106e-21)
(4.90364 0.479621 4.97103e-21)
(6.57389 -1.15017 8.21402e-21)
(7.00183 -0.603985 3.7185e-21)
(-9.27529 4.87062 -2.95552e-20)
(5.973 0.211221 1.1888e-24)
(6.57302 -0.575064 0)
(2.83969 -0.864968 1.24841e-20)
(9.47301 2.55234 0)
(3.91728 -0.128632 1.01102e-22)
(6.59165 -0.311374 6.59898e-21)
(7.70686 -0.336267 -7.99673e-22)
(7.59617 -0.370676 9.18022e-22)
(-3.40295 3.88848 -2.38862e-20)
(5.75997 0.210153 6.87373e-21)
(5.7001 0.0543541 0)
(-1.52689 -2.43341 -9.11741e-21)
(6.39136 -0.762152 -2.39167e-21)
(4.90996 -0.943535 -3.53038e-22)
(8.30227 -3.78871 8.13475e-21)
(7.80323 -0.0653009 0)
(7.74162 -0.779436 1.63289e-21)
(5.3429 0.510584 1.06275e-20)
(5.85121 0.186867 8.27595e-21)
(7.6926 -1.39126 0)
(5.9187 0.0212633 1.40095e-24)
(7.23246 -0.773989 -3.42903e-21)
(-2.6165 2.86996 4.86913e-21)
(4.65079 -0.126814 1.38608e-21)
(6.41709 -0.675213 2.28122e-21)
(6.50721 0.00737859 -1.66469e-23)
(6.54517 -0.540911 0)
(7.55704 -0.605767 -1.12969e-21)
(-8.65173 2.36691 7.9222e-21)
(7.26734 1.32076 4.56635e-22)
(5.99616 0.10535 5.11551e-21)
(4.71336 0.000301948 0)
(4.35183 -0.362255 -1.37825e-21)
(8.26134 2.32322 0)
(9.57256 3.6706 -5.31255e-21)
(6.18308 -0.0392661 0)
(6.03415 -2.02084 -1.05531e-22)
(3.88427 -0.148186 -2.97714e-21)
(4.4939 2.49576 9.90283e-21)
(-2.90786 3.64657 -1.66038e-20)
(5.7102 -1.16039 0)
(6.88246 0.21675 -7.74281e-22)
(6.04132 0.659823 -2.95116e-21)
(4.91674 -1.99693 -1.10496e-20)
(-0.426152 -1.71024 1.2687e-22)
(4.8414 -0.0784945 -1.50099e-20)
(7.98786 -1.14883 3.64898e-21)
(6.23098 0.640811 1.97737e-21)
(4.16401 -1.19052 0)
(4.0301 0.985398 5.69855e-21)
(5.47376 0.462452 -1.68015e-22)
(-2.75098 0.788116 4.97422e-21)
(-8.98256 2.36076 -2.63819e-20)
(5.67133 -1.33997 -2.07483e-20)
(9.35436 0.261824 0)
(5.94163 -1.97517 0)
(6.0961 3.6922 0)
(6.16153 -0.23314 0)
(1.5494 -1.38881 -7.54213e-22)
(7.25471 -1.29417 0)
(4.31662 -0.623712 0)
(4.87082 0.373459 2.06137e-21)
(9.61479 0.258328 -1.31956e-20)
(6.48251 -0.513742 -5.36699e-21)
(5.03794 1.00895 1.72215e-20)
(6.0134 0.114207 -1.46456e-21)
(6.95679 5.23741 0)
(8.28123 -0.934681 0)
(5.70888 0.233916 5.87038e-21)
(5.92157 0.0713626 1.01223e-21)
(3.61591 2.89899 0)
(-8.71492 4.40844 2.81432e-20)
(6.2644 -2.13662 4.43668e-21)
(-2.65162 -3.18943 0)
(7.04239 -0.422725 3.60482e-21)
(5.90298 0.157503 -6.74022e-21)
(1.38469 -0.167802 -7.81656e-22)
(2.83453 -0.831964 0)
(5.97516 0.686884 5.5649e-21)
(7.89789 0.705506 0)
(7.40457 -0.866856 0)
(6.65535 0.652439 -2.36545e-22)
(5.77215 0.280933 3.13899e-21)
(-1.08962 2.14973 -2.66316e-20)
(6.9816 2.18967 3.41801e-22)
(3.85612 -0.944839 -5.29915e-21)
(6.11924 -0.218883 6.93441e-22)
(6.25787 0.6839 1.52393e-21)
(8.20805 -0.616204 2.8407e-21)
(6.51609 -2.09415 0)
(8.84554 -1.98232 7.81944e-21)
(3.90687 0.056199 0)
(4.16611 -0.165099 7.48057e-22)
(6.79606 -0.668618 0)
(4.2425 0.243758 7.68091e-21)
(-0.516879 1.57597 -3.04704e-20)
(8.01976 -1.04421 0)
(0.0659873 1.58378 6.69851e-22)
(8.33296 -1.04422 -8.1008e-21)
(5.30103 -1.32708 -1.01526e-21)
(5.208 -0.711531 1.44276e-20)
(4.18452 2.42639 -6.11046e-21)
(3.84842 -0.912897 -1.51014e-20)
(10.1839 3.72428 0)
(5.32048 0.45707 2.41185e-22)
(-9.01523 5.24705 -7.3277e-20)
(6.01111 0.695467 0)
(5.47866 0.716997 3.86055e-22)
(8.21216 0.0118146 -9.84123e-22)
(7.97027 3.54615 0)
(6.01588 0.0311865 0)
(-7.30468 3.03247 0)
(-4.772 -4.76339 2.57483e-20)
(13.1029 -3.5372 1.99609e-20)
(12.1151 0.712363 1.14296e-21)
(6.86699 3.17504 0)
(5.05949 -0.468878 9.74284e-21)
(5.84046 0.102905 7.75365e-24)
(6.91838 1.98715 -5.96671e-22)
(-2.10254 -0.420768 5.13438e-21)
(5.71651 0.551766 0)
(5.96969 0.230297 0)
(2.07206 -0.159406 -8.29208e-21)
(4.09743 -1.18035 -3.75099e-21)
(5.65269 -0.560645 0)
(4.8503 -2.29082 -4.90036e-21)
(6.02794 0.0232402 -3.6378e-25)
(5.96229 0.171529 1.50087e-24)
(2.40806 -1.04392 0)
(5.74104 -0.237969 1.39795e-21)
(5.43406 0.424472 1.85287e-22)
(7.97953 0.681975 2.66751e-21)
(5.32705 -1.52686 0)
(0.766399 0.890979 -4.74054e-20)
(7.68017 -0.349131 9.99582e-22)
(5.96867 0.320796 1.17491e-21)
(5.56638 0.115814 9.23706e-23)
(7.80259 2.34475 0)
(5.03051 1.01403 -4.57614e-21)
(9.48199 1.83025 -4.28131e-21)
(4.84739 -0.695554 3.94793e-21)
(6.02524 0.156848 0)
(-0.5358 -1.659 -1.30183e-22)
(1.30183 -0.0250911 0)
(6.04258 0.14925 -4.5244e-21)
(5.96099 0.212474 2.03325e-21)
(5.55455 0.187849 -1.15295e-21)
(-6.54388 -3.79365 0)
(7.73558 0.0137832 -2.80651e-22)
(3.17447 1.57641 1.53365e-20)
(6.45806 -2.08227 0)
(4.79177 0.367327 6.34371e-21)
(7.16547 -1.72561 -1.63129e-21)
(6.64826 0.0775123 0)
(-1.70678 -2.91506 1.40437e-21)
(5.30408 -1.37039 -1.49423e-21)
(6.5247 -0.00248061 0)
(0.779275 0.422025 2.898e-20)
(5.47879 0.666836 0)
(5.05863 -2.30353 4.89943e-21)
(-8.29443 1.27295 1.50687e-20)
(6.12131 0.226772 4.77419e-24)
(7.43359 0.540151 -1.18969e-21)
(3.96475 0.952607 3.02327e-21)
(5.18862 -0.796243 -5.28958e-21)
(5.72056 -1.05961 -8.9763e-22)
(5.07451 -2.265 4.78076e-23)
(6.38673 -0.675053 2.18025e-21)
(7.77533 2.31482 2.80672e-21)
(5.8719 -2.64671 0)
(5.9776 0.0665565 -4.53448e-21)
(-2.8037 -2.70342 -7.72345e-21)
(3.96749 0.0399881 0)
(5.55296 0.62167 -3.62947e-23)
(5.26493 0.0469503 0)
(3.51838 -0.926863 1.32131e-20)
(5.94833 -2.20451 0)
(5.78665 0.00961249 -4.38597e-23)
(6.639 -0.262838 -3.77619e-21)
(-1.74421 -3.57791 2.61979e-21)
(-6.77286 2.64926 1.91512e-20)
(7.57866 -0.132634 -3.06759e-23)
(4.89276 -2.35064 4.70846e-21)
(5.06514 -1.39696 5.27702e-21)
(4.25606 -0.918277 0)
(-6.2257 3.90144 -1.62498e-20)
(6.57686 -1.97191 -8.93101e-22)
(-7.25412 5.26842 -1.95355e-20)
(5.96253 0.194983 1.39784e-24)
(4.1325 -1.51366 0)
(6.68503 0.0513418 -2.06427e-23)
(-8.44215 4.59394 0)
(-5.58274 -0.323129 1.01458e-21)
(1.99521 -0.563307 1.01762e-21)
(-0.920915 0.668047 0)
(5.92333 -1.52195 1.54501e-21)
(5.37465 -6.77417 0)
(8.0199 3.41343 0)
(4.76501 -2.25168 -6.43817e-21)
(4.31722 1.09264 4.63672e-21)
(4.86932 -1.60669 0)
(5.39397 0.57346 -2.90494e-21)
(11.9284 1.35645 2.8936e-20)
(-8.94689 2.8825 4.03484e-20)
(8.08899 4.40594 0)
(6.36395 -0.0127317 0)
(-8.92212 5.77926 -3.29139e-20)
(5.52151 -0.28063 0)
(7.93454 0.0515609 0)
(-5.43731 6.78931 -1.60437e-21)
(5.98177 -1.10916 -7.25698e-21)
(5.0597 -1.15443 4.47672e-21)
(10.024 -1.06544 1.21457e-21)
(-7.367 5.01996 3.52676e-20)
(5.94863 0.173968 2.33771e-21)
(4.3683 -0.977211 0)
(6.51279 1.59636 -7.54672e-22)
(4.0893 -0.444731 0)
(7.55878 0.0691741 0)
(5.98757 0.378201 0)
(6.64516 0.633074 -1.88814e-22)
(5.51732 -0.0643409 4.20723e-21)
(6.65705 0.296347 -6.33963e-23)
(4.44432 -0.992941 0)
(-2.11326 2.66918 -1.92951e-20)
(6.04254 3.4752 1.06826e-21)
(5.3311 -1.90565 5.09347e-22)
(6.3266 -0.279931 -2.19129e-21)
(8.31635 -2.17144 1.37054e-20)
(6.16816 0.0794252 -3.90056e-21)
(-0.329842 1.10117 0)
(7.61196 -0.338005 0)
(4.10483 2.78502 0)
(3.52061 -1.52034 -9.69627e-21)
(1.22936 -5.65608 -2.83442e-21)
(-0.424463 -0.873542 0)
(6.58518 1.58935 0)
(7.85754 -0.596854 1.33197e-21)
(5.92911 -0.0247253 -1.08938e-21)
(5.71538 2.05682 4.67519e-21)
(5.90593 -2.47692 0)
(-6.6274 7.15779 -9.29499e-21)
(7.01702 0.225379 8.12841e-24)
(4.00766 -1.10552 -8.91481e-21)
(6.65114 0.295962 -9.70341e-22)
(6.92828 2.02096 1.28313e-21)
(10.3014 -6.44275 1.24243e-20)
(3.47492 -1.49784 1.67091e-20)
(5.81606 -3.03286 3.9989e-21)
(6.59683 0.594451 1.61746e-23)
(5.96349 0.0447849 -1.15309e-21)
(4.38672 -2.1199 -1.5094e-21)
(5.31078 -1.26144 6.47649e-22)
(4.75715 6.63148 -2.51375e-22)
(4.74883 -2.26187 2.541e-21)
(7.76189 -0.223456 0)
(4.96544 -0.851652 8.11509e-23)
(6.43318 -0.00122157 -3.61854e-21)
(8.70911 2.60888 2.12731e-21)
(3.93261 -1.02765 -8.1252e-21)
(5.27558 -1.82923 -5.43794e-21)
(6.11044 -0.0911958 1.04117e-20)
(7.59822 -0.20182 -5.98357e-21)
(4.64344 -0.445102 -6.45175e-22)
(9.33573 0.446068 -5.48329e-21)
(3.32027 -0.299409 -1.77371e-20)
(6.62067 0.0176829 -2.87248e-21)
(3.26634 -0.525481 0)
(-1.91467 -4.36953 -9.69876e-21)
(6.18268 0.0870491 9.89774e-21)
(5.25531 0.0196733 3.67077e-24)
(-2.23856 -3.42342 0)
(5.27422 -2.43967 0)
(6.08141 1.4441 4.05585e-21)
(2.8991 -0.260149 1.09978e-20)
(5.54283 -8.58867 -1.92521e-20)
(6.10264 -2.00658 -2.7556e-21)
(6.49694 -1.13059 6.24232e-21)
(9.62158 2.46287 0)
(6.09202 1.5702 2.20606e-21)
(2.56026 -1.46711 -6.34207e-23)
(7.42051 3.28184 1.6938e-21)
(5.70694 -0.748971 -6.30193e-21)
(-6.89847 4.43744 -5.72884e-20)
(8.09775 -2.10578 -1.31598e-20)
(9.05753 -2.1516 4.38922e-21)
(6.67522 3.74744 0)
(6.48135 -1.30647 -1.5598e-21)
(5.57806 0.169026 1.05497e-21)
(5.87366 0.0637913 -4.55571e-24)
(2.78166 -1.33904 1.54818e-20)
(5.67543 -0.764118 9.491e-21)
(4.38071 2.20695 3.55356e-21)
(-9.1603 2.62786 -2.26262e-20)
(7.27045 -0.434631 -3.71341e-21)
(6.50769 0.115151 2.56838e-21)
(-6.38044 7.14833 -6.41443e-21)
(7.14866 3.20428 -1.2402e-21)
(2.19666 -1.50412 -3.14885e-20)
(3.60419 -1.74227 -5.13324e-21)
(5.9027 0.0574189 0)
(6.51845 1.0037 -1.02317e-23)
(-7.71052 3.0091 -2.36855e-20)
(3.85441 -0.247457 1.59363e-20)
(6.23483 0.169135 0)
(6.30774 -0.807222 1.09768e-21)
(3.31502 -1.26528 3.78267e-21)
(5.98673 0.11123 -9.94335e-21)
(-8.82339 4.34837 -2.6588e-20)
(4.8438 -1.52993 -3.25756e-22)
(6.51022 -0.552042 3.67877e-21)
(6.83919 0.245065 1.06301e-21)
(5.12188 -2.33463 -6.79628e-21)
(6.69584 0.415326 7.73857e-23)
(1.2299 -6.2576 -1.17985e-20)
(6.44176 0.0235045 3.39427e-21)
(6.09961 -0.176184 -2.99265e-21)
(6.41469 0.393426 -9.19725e-23)
(6.86724 -0.104194 -6.39831e-21)
(3.19704 -1.33343 -7.30519e-21)
(6.64061 0.537405 0)
(-5.02094 -4.52981 1.39566e-20)
(6.27543 0.0887432 7.49825e-22)
(2.06363 -0.338862 -1.00153e-21)
(7.51233 0.149853 -8.99889e-22)
(6.34714 -1.17692 -3.86503e-21)
(6.01155 0.0508297 -7.69054e-21)
(6.2852 1.11828 1.18127e-21)
(-8.20786 4.38684 -2.8928e-20)
(7.97938 0.0751635 0)
(4.5241 -0.366385 6.99375e-22)
(7.81652 -0.327189 8.19619e-22)
(4.15401 -1.45921 0)
(6.39804 0.336195 2.02567e-21)
(7.84727 -0.239987 7.98036e-22)
(7.92239 0.0754288 4.33215e-26)
(7.21309 -2.66009 -4.79596e-22)
(5.57358 -0.447829 0)
(5.26698 1.22315 8.40083e-21)
(6.1702 3.07298 -1.75017e-21)
(4.66407 -2.20432 5.52329e-21)
(5.96569 -0.524792 0)
(4.26978 1.0622 -1.34296e-20)
(3.24077 -1.17234 -6.22867e-22)
(7.38429 4.64516 -4.98233e-21)
(3.35556 -0.362815 1.7352e-20)
(6.46639 0.0333116 1.25525e-22)
(-7.2378 2.96397 1.65689e-20)
(5.68838 -0.229738 -6.5507e-21)
(9.03682 -1.58949 -1.09035e-20)
(5.28901 0.512058 -6.1203e-21)
(6.42133 0.0621954 0)
(5.97889 0.0910781 -4.36557e-21)
(-0.81081 -0.476097 3.43023e-21)
(-1.66993 -1.28796 0)
(9.19477 -3.97876 0)
(5.87592 0.052025 0)
(3.62454 -0.32658 0)
(6.14608 1.04749 0)
(3.14337 -0.264698 0)
(6.21129 -2.06696 -1.14466e-22)
(12.6092 -0.24816 -1.4702e-20)
(7.88239 1.26279 0)
(5.2267 1.15132 1.24789e-20)
(3.85903 -1.19592 5.0268e-22)
(6.23261 0.67803 1.31042e-22)
(-7.32269 4.51345 -1.19048e-20)
(3.17722 0.393038 -4.4146e-23)
(-8.77852 4.52984 2.34225e-20)
(6.23886 0.02307 -2.39674e-21)
(8.33763 0.0433942 6.4115e-22)
(6.0692 1.02806 -2.793e-21)
(5.60071 0.619064 -8.22859e-21)
(5.85606 3.25162 -3.00072e-21)
(10.011 3.89501 0)
(-1.29613 -1.3336 5.02884e-22)
(3.5588 -0.97435 -1.44673e-20)
(6.05426 0.0431845 -1.32529e-20)
(6.64102 -1.95077 -5.29566e-21)
(6.4983 -0.0203296 1.0347e-21)
(7.7439 -1.90804 5.64556e-22)
(6.15485 -0.895451 -8.2203e-22)
(5.96793 -1.48726 -5.36249e-21)
(6.02218 0.599129 3.05885e-21)
(5.62189 4.0939 0)
(5.65085 -0.928226 -8.17418e-22)
(4.9141 0.285648 -1.88087e-21)
(7.27612 -1.21344 0)
(5.14925 -0.542129 0)
(5.3783 -2.44932 -4.94647e-23)
(-6.87605 2.35048 1.67737e-20)
(6.15121 -2.07354 -4.0821e-21)
(5.091 0.000696814 0)
(5.62862 -0.154557 -8.59496e-21)
(5.37721 0.696034 -1.59489e-21)
(-4.52791 -3.5916 6.72727e-21)
(7.94093 -0.123517 2.99021e-22)
(-8.68055 4.40445 0)
(-1.47241 -1.09167 7.81654e-22)
(7.84573 -0.207296 0)
(6.40293 -1.3514 1.66481e-21)
(7.49999 -0.770574 -1.30481e-21)
(6.01069 0.059623 -8.16945e-24)
(7.09029 2.27683 -6.93309e-22)
(7.9791 3.9615 -5.94656e-22)
(4.91135 -1.33149 1.0927e-20)
(0.645911 -2.21496 0)
(4.50487 -5.30406 -6.9445e-21)
(4.13132 -1.99691 0)
(8.06185 1.25671 -1.06357e-21)
(-4.56166 -3.48212 1.09685e-20)
(9.30392 -3.89531 1.1662e-20)
(4.63643 -0.4184 -6.73318e-22)
(-5.48952 -3.13779 -4.85085e-20)
(4.19359 -1.96841 -6.37915e-21)
(3.68811 -1.0045 -8.41242e-21)
(5.43361 0.469398 6.00444e-23)
(4.92162 -4.88037 5.67734e-21)
(3.25965 -1.35276 5.98898e-21)
(3.85323 -1.08081 9.11448e-21)
(1.25056 -5.41315 3.62457e-21)
(5.88113 -5.4463 -4.20126e-21)
(5.19181 -1.57354 5.40738e-21)
(-2.37129 1.92549 2.07942e-20)
(6.81708 0.0832691 4.84484e-23)
(3.87274 -1.34255 -4.42531e-22)
(7.05283 1.44801 -4.31499e-22)
(6.49886 -1.61136 0)
(3.84484 -0.200094 -3.86673e-20)
(6.25522 -0.0107526 -4.29066e-21)
(5.99591 0.405625 0)
(7.98353 1.17287 0)
(3.63962 -3.57058 -2.35427e-21)
(10.1422 -1.91052 -1.2658e-20)
(7.34695 0.768398 1.32096e-21)
(5.97252 -1.07888 9.54038e-21)
(5.78381 3.14743 2.86233e-21)
(5.05098 -0.0620717 6.78043e-21)
(-5.5244 -3.11998 -1.07334e-21)
(5.29805 2.07256 0)
(3.94993 -1.1548 8.69345e-21)
(-1.79993 8.22573 6.04442e-21)
(-6.45974 -1.88765 3.62676e-20)
(4.92597 -1.85192 1.83403e-21)
(5.28806 -2.40787 -1.48695e-21)
(6.11851 -0.026186 3.33512e-21)
(4.93953 -0.417889 3.63612e-22)
(7.49315 -1.3139 7.77409e-21)
(-6.11776 -3.54012 -9.83556e-21)
(7.26533 0.741991 -9.72028e-22)
(5.75934 0.195127 3.43845e-21)
(3.24576 -0.495197 -7.13698e-21)
(5.5576 -0.210928 5.3666e-21)
(3.99996 -0.402693 0)
(7.27708 1.30859 -6.74306e-22)
(5.86539 0.143809 7.62902e-22)
(4.2321 -0.822321 -2.78867e-21)
(5.82588 5.64308 1.35753e-21)
(5.11394 -1.5309 4.01634e-21)
(6.13101 0.0594685 1.48746e-21)
(3.94547 0.528325 -1.03522e-20)
(7.34022 -1.24206 0)
(4.62321 -0.270461 -1.17263e-21)
(6.68964 0.320392 1.31215e-21)
(6.24496 -0.356576 0)
(4.10065 0.263071 5.93799e-21)
(7.90561 -0.11668 0)
(4.96135 5.62188 1.73618e-21)
(7.30538 -0.127197 0)
(5.64996 -1.01783 0)
(7.55611 -0.187313 8.08834e-22)
(7.28534 0.59007 -3.79244e-22)
(9.13848 1.00955 -7.72342e-21)
(5.71803 0.481002 -3.72342e-21)
(4.50618 3.57944 -2.57224e-21)
(5.95333 0.291114 -1.42596e-21)
(6.24116 1.0932 0)
(1.67937 4.7475 -2.29464e-21)
(7.58573 0.522219 1.64287e-21)
(6.29452 -1.31543 -3.40414e-21)
(6.51194 -1.59988 0)
(8.83371 2.55885 3.18835e-21)
(6.49147 5.27237 2.86491e-22)
(6.76914 0.107743 1.81359e-22)
(5.38889 -6.78416 0)
(-3.36136 6.19452 4.0689e-20)
(6.1211 0.591508 0)
(7.62558 -1.12556 -3.88536e-21)
(0.143757 -1.17546 0)
(4.97556 2.36465 0)
(5.67993 -3.32642 0)
(5.83421 -2.17887 0)
(-5.07042 8.14336 -4.9111e-21)
(-3.70824 -5.13052 -5.2733e-21)
(5.47286 -0.0547618 -6.28807e-21)
(-2.12838 -3.44985 -3.88083e-21)
(3.51653 -1.42857 0)
(-1.48129 -5.2638 -3.9256e-21)
(-0.124674 -1.88608 -2.21978e-20)
(4.53376 -2.12368 0)
(4.15622 -1.34091 -9.39071e-21)
(5.26101 0.943078 -6.29724e-23)
(6.99732 1.39973 1.00631e-21)
(6.99493 -2.39883 1.45007e-21)
(5.51584 0.575675 0)
(6.29287 -2.00953 0)
(10.5669 1.72205 3.76095e-21)
(5.31143 -1.14246 1.711e-22)
(5.23669 0.435984 -2.1164e-22)
(3.58997 -3.4047 4.75459e-23)
(5.99201 0.0109862 3.23012e-22)
(6.5076 0.971172 1.58839e-23)
(6.04753 0.589998 4.35077e-21)
(4.33507 -0.158656 6.08111e-22)
(5.42889 -1.449 0)
(-3.38096 4.36099 0)
(6.68406 0.352293 0)
(5.47393 0.0691319 0)
(5.07257 -0.855808 3.91666e-21)
(8.81567 0.0234803 0)
(-5.00562 7.77973 7.31403e-20)
(9.20861 -7.41323 -7.38891e-22)
(3.74079 -1.10048 -1.37617e-20)
(3.88252 -1.17384 -2.48513e-22)
(-4.71369 -4.73506 -8.14568e-21)
(-2.16068 8.04467 -3.42514e-20)
(6.12218 0.111816 1.17742e-21)
(-6.49029 -2.13964 -1.29355e-20)
(4.20106 -0.00213578 9.91654e-22)
(7.55885 -0.135251 0)
(6.85952 -1.13727 0)
(4.51964 -1.02107 0)
(6.33041 -1.23263 2.04831e-21)
(6.03418 -6.30434 0)
(5.4104 2.01607 0)
(6.03303 0.0225559 0)
(5.10981 -1.14434 4.19141e-21)
(6.27754 0.642062 -3.97563e-21)
(5.17218 0.0771679 0)
(6.44397 -2.07551 -3.9978e-21)
(5.92063 0.612996 -4.31394e-21)
(7.40109 3.11721 -3.68045e-21)
(4.58369 -2.10169 5.74037e-21)
(5.65002 2.26152 3.13378e-23)
(5.22189 -1.50151 -1.14022e-22)
(5.09555 -0.596185 8.07596e-22)
(5.75462 -1.29849 -1.67391e-21)
(7.20191 0.636165 6.01614e-22)
(5.32242 0.400361 -4.16079e-22)
(5.37148 0.275783 -5.99416e-21)
(6.36133 0.0164166 0)
(2.50939 -0.372682 7.29604e-22)
(5.82553 0.197655 6.13219e-21)
(2.83477 -1.54375 -6.26597e-22)
(6.1403 -0.847255 -2.39829e-21)
(2.99251 -0.336772 -1.19627e-20)
(7.25272 0.541625 -1.21756e-22)
(9.52617 1.89882 6.19351e-21)
(6.00815 0.284403 0)
(4.83345 -0.690438 1.00829e-22)
(5.05458 -0.0543656 -3.13919e-22)
(5.80016 -1.33225 3.30257e-21)
(-2.16275 -0.662105 -5.85805e-21)
(5.99158 0.0642551 3.21122e-21)
(6.71213 0.549608 -1.61975e-23)
(6.35268 0.028491 -1.00332e-22)
(6.6164 0.297395 0)
(3.44224 -0.962496 0)
(4.26387 -2.02546 7.10964e-21)
(-8.7133 4.08361 2.87198e-20)
(5.9058 0.0352854 2.95376e-24)
(5.87829 0.202688 1.22279e-20)
(4.48973 -0.750563 -2.06449e-22)
(4.26202 0.931612 0)
(5.29374 0.306644 0)
(4.57237 -0.930066 -4.66267e-23)
(7.37937 -0.115368 1.22053e-21)
(5.79026 2.13784 6.25418e-21)
(7.30014 -0.565991 0)
(7.12537 0.0194757 0)
(5.98667 -1.67595 7.60549e-21)
(5.84941 -0.506824 5.06544e-21)
(-0.118779 0.699556 -3.9144e-22)
(5.94998 -0.167465 0)
(2.40713 2.5133 3.4821e-21)
(7.12756 -2.50082 -1.77707e-21)
(-9.04305 2.71826 -2.78092e-20)
(5.89711 -0.0461624 -6.90053e-21)
(12.6673 -0.0415142 0)
(10.5214 -1.65501 1.0048e-20)
(7.24309 -7.07507 -3.8644e-20)
(0.178244 0.548586 0)
(5.50503 0.108376 -2.81519e-22)
(5.72219 0.377587 -4.01189e-21)
(5.9112 0.0407483 -7.28594e-26)
(7.68427 -0.830432 7.76711e-22)
(3.95932 4.11229 6.75381e-21)
(6.37861 0.067168 0)
(2.88299 -0.93244 -7.50807e-23)
(4.72783 -0.726054 1.31218e-22)
(9.24263 0.956828 -5.20459e-20)
(6.11265 1.04426 3.30735e-21)
(0.820229 -2.04581 4.8399e-23)
(6.02444 0.0423485 -1.51411e-20)
(4.41382 2.03509 -2.46091e-21)
(4.86147 -0.545272 7.72218e-22)
(5.04387 -1.06154 0)
(5.21464 -0.0227027 -1.51694e-21)
(3.17853 -1.39877 4.84371e-21)
(6.57545 -0.264108 -7.29525e-21)
(5.89397 0.140192 -5.53877e-21)
(7.47638 -1.09039 3.49421e-21)
(4.93903 -0.422245 1.4193e-20)
(6.7752 0.0416791 -5.09195e-23)
(5.2705 0.348756 3.45139e-21)
(5.52016 0.655188 -1.42509e-22)
(10.0754 -1.09229 -1.35449e-20)
(7.2629 3.44498 -2.79584e-21)
(5.98596 -8.12425 1.49664e-20)
(5.9834 -0.109676 0)
(4.81202 -1.04947 0)
(3.31132 -1.22815 0)
(3.75675 -1.02329 1.05857e-20)
(6.17117 0.0667513 -8.84947e-21)
(5.30283 0.758259 0)
(4.32846 -0.872124 -8.26343e-21)
(5.28465 0.726124 0)
(5.12619 -0.758777 -6.4358e-21)
(6.28087 -1.33255 -3.62192e-21)
(5.39307 -1.35265 -5.8957e-21)
(6.48589 0.0720957 0)
(5.74398 0.163194 0)
(6.26737 -0.389277 1.95928e-21)
(7.80487 1.07193 1.11332e-22)
(8.29569 -0.171905 4.8706e-21)
(6.93462 5.52902 -3.21076e-22)
(7.3605 -0.716043 0)
(4.94921 -1.78841 -3.03989e-21)
(-0.980849 -0.594715 0)
(2.37563 2.7031 -5.41772e-21)
(8.07711 3.92989 0)
(6.67741 0.497958 3.9286e-23)
(3.35299 -0.221242 4.6029e-21)
(4.32884 -0.21248 4.59072e-21)
(5.87531 -0.195043 -1.9614e-21)
(8.8145 -7.18446 -4.30292e-20)
(5.72094 -0.584662 1.28045e-20)
(6.15731 1.06721 -1.20721e-22)
(7.18285 -1.91654 -6.64359e-22)
(5.76617 -1.21284 -2.95103e-21)
(0.217815 0.876698 1.13218e-20)
(7.89995 1.71648 0)
(5.91617 0.145867 2.0656e-23)
(4.40697 -1.01587 0)
(4.86211 -0.497107 -7.76195e-22)
(5.00768 -1.792 -1.58187e-21)
(5.00557 -0.358902 -4.65873e-21)
(5.89255 0.00898845 -1.55535e-24)
(8.08731 0.195484 -3.56182e-21)