/*--------------------------------*- C++ -*----------------------------------*\
| =========                 |                                                 |
| \\      /  F ield         | OpenFOAM: The Open Source CFD Toolbox           |
|  \\    /   O peration     | Version:  2306                                  |
|   \\  /    A nd           | Website:  www.openfoam.com                      |
|    \\/     M anipulation  |                                                 |
\*---------------------------------------------------------------------------*/
FoamFile
{
    version     2.0;
    format      ascii;
    arch        "LSB;label=32;scalar=64";
    class       volScalarField;
    location    "5";
    object      p;
}
// * * * * * * * * * * * * * * * * * * * * * * * * * * * * * * * * * * * * * //

dimensions      [0 2 -2 0 0 0 0];

internalField   nonuniform List<scalar> 
5098
(
-0.694373
0.490001
0.223803
2.12891
-0.779004
2.35931
0.0266275
-0.935891
0.240128
0.315733
-0.471964
0.841988
0.489442
2.63677
-0.438514
0.0115911
-0.16811
-1.88277
-4.84965
-0.206885
1.45157
0.00878602
1.10777
3.18314
-4.03888
2.28655
1.42249
1.59388
-4.79424
0.84577
0.722859
2.81359
1.66054
0.0275593
-0.416888
-3.13139
1.73184
1.63959
2.5404
1.28215
2.09141
-8.479
2.25916
0.205331
-0.203043
0.616784
-0.342304
2.85223
0.732738
2.16632
0.197952
1.90705
-6.88805
1.5487
2.36261
2.21509
1.61436
2.00748
2.81997
-0.163098
-0.212752
-0.660647
-0.439513
0.511528
-6.91361
2.66363
0.0476693
0.114832
1.35788
1.91639
1.55718
-0.0906522
1.42463
0.158239
-0.113999
2.16966
-0.0356465
2.25674
0.32573
2.1414
-0.201449
-7.57557
2.08291
-0.0153358
-2.03996
0.788516
3.37141
-0.0233671
-1.1575
-0.267888
0.993342
-5.39558
0.864963
2.12981
2.55283
0.029416
1.89657
2.3103
-0.101729
1.41965
-1.21471
2.29884
0.169707
0.0860034
2.27178
-0.45249
1.47162
0.0662908
2.89418
-0.544649
2.02501
-4.56999
1.61814
-5.6906
1.38734
-4.74388
-6.65159
-1.54109
0.0358668
3.16081
1.86808
0.0634414
0.332483
-10.7557
-5.26981
-0.232041
1.49262
1.14524
2.57668
-5.54126
-6.92022
2.74807
2.71682
-1.30142
-0.634233
-1.74866
-1.84284
1.43247
2.56966
1.55296
1.91466
0.027669
1.51219
0.246605
0.630307
0.0872749
1.41047
-0.61119
-0.994812
1.29427
-5.42002
-4.67298
-0.675678
1.67965
3.41298
3.1071
2.01077
-1.04199
2.09692
-4.67317
1.59166
-0.49769
-4.45702
1.91298
-2.61687
0.574482
-0.844473
0.745942
-4.13587
1.99703
0.0120307
2.16992
0.356344
1.60285
0.639862
0.757354
2.04157
-2.87664
1.9958
3.42107
-3.23329
-5.33437
1.89202
-2.71469
1.87748
-0.951784
2.22063
1.70018
2.14366
-7.82859
-4.54328
0.277643
1.3754
-0.138436
0.602529
-5.54594
-5.21881
-1.9529
0.0171545
1.96185
-6.94382
1.89857
-0.210235
0.503702
1.47223
3.10429
-0.73448
2.59842
1.07673
1.37028
1.73218
1.86791
0.267
0.542395
-0.758449
-4.84383
-0.135574
-0.845767
-5.30176
0.776681
0.919156
2.2609
0.0869039
0.910683
-6.0532
1.62429
3.36811
1.51337
1.48641
0.479313
1.55158
3.24176
-5.65843
0.00721315
0.413068
0.455369
1.033
-9.11373
-2.10804
1.85439
-8.23104
0.297347
0.155657
2.93896
1.42235
0.946942
2.59201
-0.668901
-0.189966
0.884148
0.349224
1.5436
-5.14932
-8.64968
1.73101
-9.3608
-0.640764
0.302499
2.8128
-0.0163937
-0.949371
-6.77488
-4.69124
1.44166
0.0485856
-1.1199
-4.65169
-0.573465
0.111987
1.88077
-7.71293
-0.070183
-4.65396
0.112413
2.7815
0.187922
-7.43978
-4.13169
0.874643
1.71919
-6.54734
-0.788248
-6.18305
-0.926812
0.0791937
0.0802004
1.71099
0.0997056
0.588545
0.923188
-10.9468
-4.90269
2.92413
-0.144379
1.49561
0.291222
-0.407876
0.659789
1.35688
1.6749
0.0923351
-0.823687
2.22193
1.35986
-1.07479
1.74057
-1.90791
0.775362
1.8489
-0.350049
1.02901
-5.2095
2.31754
-0.153384
0.446332
3.40866
-1.67904
0.0892288
1.16351
3.03782
0.297936
-5.02994
-1.80327
-5.20501
-0.0874205
2.5728
0.434113
1.43737
2.8661
0.0386732
1.89638
1.12185
2.57223
0.788274
1.87657
0.16344
0.736158
2.19432
1.33847
1.84782
1.474
1.94838
0.388582
1.61111
-4.53285
-0.0854501
1.46765
-4.78145
-1.5092
0.815888
0.632176
2.97178
3.0113
-6.65495
-0.165759
-5.50089
-1.55517
0.674628
2.53758
-0.116559
1.50045
1.51825
1.10857
0.00235005
0.163138
2.81059
1.61422
0.9795
0.874084
-9.87321
2.71907
0.215461
-2.78616
-0.212503
-0.0753069
-0.67861
1.91653
0.323958
0.797173
0.0102301
1.54375
-0.193898
1.71379
-0.788155
0.20282
-2.30334
-0.324948
-9.2592
2.05044
0.154762
1.39923
0.456196
1.57218
2.03239
1.03242
-4.88683
2.20227
-4.66267
0.455695
-0.698323
-4.47835
2.96978
2.1581
1.52122
-4.68169
0.42166
1.58268
-1.4022
0.27599
-1.09733
1.51247
-0.254855
-7.35484
-0.0025067
-1.73545
0.0585777
1.37581
2.92612
-2.12995
0.810132
1.53239
2.25699
-0.0866454
0.816142
-5.4255
-5.30364
0.141676
-0.483276
0.118685
1.62202
0.0484136
-4.74461
0.0284905
1.7486
-2.04468
-5.18104
0.142259
1.14901
1.24008
-5.81127
1.97629
1.85673
1.10439
-0.0950885
1.25964
-1.76487
-2.35307
-0.438656
-4.77524
1.49656
-0.286901
1.06133
1.5538
-0.068213
-0.268609
0.181846
-8.82558
0.783494
1.63074
-2.96985
2.22977
0.0350777
2.93378
-2.85169
2.05653
-1.25884
-5.99084
-8.29096
-0.913326
2.05082
-4.9088
0.831696
-0.0150403
-2.00197
1.41519
-5.39936
-5.11605
2.2886
-3.14314
0.862075
0.577247
-0.885551
-4.57002
1.38202
0.180314
1.83067
0.27311
-0.648654
0.263781
1.59643
-2.90194
-0.545307
-0.479405
-5.95427
-5.27056
-0.000133393
2.4322
-3.55263
2.35134
1.65715
-1.61672
1.1244
-4.97315
-1.82085
-4.79322
-3.49423
1.14344
0.916778
-4.15954
-0.376611
-5.22608
1.53098
1.68556
0.53746
0.700237
1.49301
3.03745
-7.13958
-0.658988
2.42373
-1.52099
-0.687136
2.97335
0.0242029
-3.58413
0.0207647
-4.88079
-4.25878
1.59757
0.891778
0.466102
3.34846
-3.56809
-0.0635452
-0.777987
-0.304534
0.0235138
-1.67084
-5.72585
-0.138713
1.37658
0.17754
-6.9733
1.84225
-0.104321
-0.727283
-0.345862
-0.574993
3.34157
-3.15001
-2.13397
1.85227
-0.699754
-4.5281
-0.98331
-0.270545
-6.72687
2.33476
-0.3286
-1.10721
-0.329326
-0.550539
1.81958
-4.83407
0.118708
-4.2323
-5.25408
0.0354506
-3.74429
-5.14563
0.972222
0.731688
-5.13635
1.42768
1.86651
3.29468
-0.27767
1.79919
2.58239
-1.43036
0.119744
-5.31505
0.70616
0.0782938
0.297731
-0.231699
0.0143104
1.06483
0.606613
-7.00374
-5.16268
2.94425
-1.48311
-2.59843
-0.283148
1.81331
1.15368
0.965639
-2.67967
-2.42202
0.0398872
1.9885
0.860157
0.509327
2.75053
0.0742837
2.61875
-3.33192
-7.02151
0.0104959
0.0302085
-6.85653
-5.1809
2.67783
-2.69129
-2.41301
2.71166
-0.992102
-0.11303
-0.237316
2.92331
-4.80085
2.4311
0.221086
-0.0141999
0.424003
-5.55418
1.30878
-0.263734
-0.210157
-4.97996
1.51272
2.02329
-4.74401
0.0550452
2.00943
2.81325
-7.3386
1.66807
3.29832
-2.45838
1.03796
-0.818328
1.64182
2.39179
2.09367
-4.39753
1.63555
0.582843
-1.67343
1.46158
-0.293509
1.95129
-0.555936
1.70622
1.11065
0.115918
0.0615518
0.560977
1.6853
2.09416
0.117255
-1.25389
2.83874
1.81476
2.17651
0.213199
-0.361692
0.0735301
0.0748158
2.76597
2.97394
-3.2863
1.74294
-1.31763
-4.95543
0.181586
1.59583
-5.05575
-4.71
-1.62336
-1.41431
-0.265919
0.79091
-5.00818
1.77649
2.13095
-4.86992
2.19535
0.0224374
1.66292
-7.11094
-1.13012
-0.308531
2.89733
-0.315268
-0.516717
-1.34831
-4.55417
1.46077
-0.908516
0.995971
2.68682
-2.06361
-2.54023
-3.45367
-3.10498
-4.90153
2.13776
-1.06465
2.85689
2.83069
2.65824
-3.30194
-5.38198
-4.51214
-5.07149
0.14764
-4.96406
-4.59719
-8.61624
-2.86241
2.21361
-5.47571
1.97052
-3.91617
2.62649
1.46546
-3.78368
0.214585
-4.81405
3.26886
0.0748849
1.55336
-1.7353
-3.31711
-0.971127
-2.80838
-3.82689
2.09033
-0.544209
-0.709862
-4.73123
-5.92023
1.07945
-0.99647
-0.302133
0.0398342
0.473574
0.360909
-5.66002
2.10972
2.6549
-4.52022
1.24243
-3.51019
2.00611
-4.62122
0.198313
1.20788
-1.76899
-0.47034
-5.5751
-0.367021
-7.63344
-0.77331
1.83781
1.295
-4.3107
-0.222985
1.17139
1.36961
-0.0574418
0.758781
-5.99752
3.31423
1.22407
1.90627
0.167495
0.778881
-7.47481
-7.1071
-0.306645
-7.01267
-0.165446
2.74692
2.34299
-0.410436
0.962636
-0.834576
2.46365
0.884634
-5.7911
-6.89926
-8.03884
-4.81823
-0.0239227
0.169209
1.72216
-1.38388
-0.201373
-4.24994
1.44555
-0.275763
-5.23263
2.21106
1.02817
2.79653
-0.594285
1.79585
2.2021
2.05614
-0.398761
1.88225
-0.359208
0.479846
0.317279
0.169503
1.05804
-5.16024
-7.07061
-1.14202
-7.10128
0.766047
1.65786
0.522098
-5.44619
0.653092
3.39292
-0.741906
1.95094
0.0189071
2.68561
-5.22758
1.55052
-0.120186
-4.56057
2.8643
-0.0577901
-4.58445
0.718992
2.95939
1.89991
-0.567141
-0.963783
-1.94456
-3.63102
-3.11928
-5.12311
2.01844
-3.68916
-5.22406
-5.95205
1.35481
0.0244426
-5.14544
-1.10596
-4.48085
1.11893
0.0452905
1.79313
-0.933608
-5.10813
2.70134
-9.6866
-3.64965
-4.94419
0.340362
-5.65817
-7.54223
-4.62024
-0.227401
0.0291165
1.41246
-7.29947
-2.10963
-5.03007
0.185422
-0.97977
0.646094
-0.0691566
-6.25061
1.51155
0.0365067
2.53568
2.04068
0.716117
2.1612
0.48891
1.43531
3.14301
2.1954
-5.88748
-1.40191
0.214817
-1.40222
-0.770861
-4.52154
1.84594
-4.24938
2.47613
2.57042
1.74176
1.71723
-4.04431
0.932239
-2.72358
-0.161048
2.73298
2.00868
-0.311188
-0.109791
-6.52064
-2.22959
0.0710629
-4.94573
-2.45573
-0.496169
-0.064807
-0.80026
0.784087
2.81293
1.78456
2.00369
1.81011
2.09773
0.0396004
-0.36252
-0.610661
-4.70973
0.546659
0.40561
1.4848
1.1146
2.90224
-1.732
-0.884969
0.0589902
1.62063
-0.170336
-0.152835
-5.16161
3.2343
1.68874
-5.15528
1.69539
-0.649148
-6.77477
1.42009
1.88066
0.979915
0.503362
0.904197
-0.0811138
-0.190347
0.194329
2.74588
-1.4139
2.42124
-6.59417
-0.331164
-8.95569
1.32965
2.02489
-1.78882
0.0637702
3.21547
0.467805
1.46954
1.47922
2.98365
0.186491
1.92477
-0.222636
1.91541
0.0745254
-0.297297
2.48468
3.29438
0.51747
-0.858946
0.227847
-1.02496
-4.52492
1.75974
0.853619
-2.76047
1.66661
2.15739
1.64048
1.71507
0.136577
1.76855
2.49766
-1.21862
3.07208
2.12041
1.03962
0.0163479
-1.17831
0.130621
1.83528
0.337297
1.82662
2.11843
1.67463
-2.60262
-2.93325
2.17338
1.25929
2.34126
-0.231846
1.55727
1.94179
1.27949
2.22503
2.1778
-0.220897
-0.557704
1.75225
2.14594
-1.46546
-0.678013
-1.62281
2.10478
0.419006
1.87408
2.99806
-3.52082
2.90953
3.17841
0.127024
-0.993687
0.182518
3.3781
-3.84594
2.07159
3.01084
0.708525
-6.51318
0.918373
1.32772
3.14563
1.3863
1.29015
3.2683
2.35833
-0.427515
3.25102
2.67974
-0.572135
-0.589507
-3.50914
0.0169416
0.500626
2.06902
2.64913
-3.82459
-0.190642
1.03268
0.64196
2.27223
-4.39364
2.76987
-1.87092
-4.92082
1.52134
-2.36782
2.06469
-0.55656
1.38718
-1.38332
2.65521
1.83508
1.68411
1.79936
-6.63464
-0.236049
-0.140242
1.15129
1.14762
2.80386
1.99824
0.012797
1.21903
0.587681
-1.77867
2.62887
-0.38715
2.20856
0.0862143
0.191547
-2.19066
0.366896
0.948297
2.9504
-0.0364077
1.245
-1.75748
-0.7491
2.54735
2.39898
-3.00822
2.49375
0.622916
-2.2478
0.247119
1.19548
3.33401
-0.243609
-2.96957
2.2785
0.031003
1.82327
-6.24343
-8.93615
0.104651
-5.34446
-7.35315
0.735518
1.90578
-0.193495
-6.98219
0.012649
-0.30627
-2.29277
0.813654
2.8377
1.35315
1.14853
-0.0659526
-0.124377
0.165919
1.33723
-0.7315
0.00974385
0.085883
0.00862591
0.284702
1.20402
0.574016
0.781727
1.27861
1.25566
-1.69191
-4.77118
0.293067
-1.2077
3.21669
1.08732
0.667561
-0.0346636
-0.921823
-1.07734
-0.162531
-1.37233
-2.6289
-0.464373
-0.963929
1.90352
0.593516
0.0253185
2.05459
-7.02099
-0.736645
2.78155
-3.29209
-2.31521
0.667817
1.61361
-1.40046
0.440008
-1.83454
-0.301005
-0.16944
-0.521075
2.10156
-4.07821
1.12159
0.0760417
-3.51565
-2.01714
-0.332337
1.45451
0.231342
-0.921125
2.77825
-9.01948
1.78759
-0.769764
-3.33867
-2.25425
-0.599222
-7.65496
1.76782
1.62177
1.76841
-0.211593
-8.46503
2.46842
-2.77754
-2.68832
0.0163628
-4.63888
0.0171304
-0.782013
2.52858
-8.89719
-4.77603
-0.908994
1.19837
1.0523
-6.30619
1.16682
0.100329
-0.693488
0.598734
1.03558
0.741327
0.177906
-6.04348
2.59447
-0.256849
0.0122363
1.07507
0.0166896
1.17981
-7.16228
-0.488412
-0.742701
1.24957
-0.0942945
-0.21646
0.769252
0.0109272
0.111661
-0.362338
1.76112
-0.161377
-0.837839
1.61329
1.47944
-0.0710879
0.833482
0.876651
1.65939
2.12262
1.89301
0.252269
2.83562
1.41447
-2.32701
1.27583
-8.28108
-0.0526604
0.0547417
0.675392
-0.704605
2.86369
0.555669
0.451158
0.0948463
0.764481
0.00125622
0.647895
-3.95314
1.38357
0.0473293
1.60445
0.9017
1.67019
-9.0861
2.17317
-6.68238
1.65721
1.75177
0.545679
-0.132632
-1.88948
-0.385131
2.03955
-4.31105
-4.66181
1.99094
1.17957
-0.115298
2.02867
1.24214
-0.946788
2.64895
-2.039
0.421653
-1.568
-1.53559
-0.107698
-0.354701
-0.92998
2.92644
0.00656648
0.524994
-0.409312
-0.928546
1.73909
2.14464
0.0135448
0.0263516
1.56036
-4.711
1.62531
1.67094
-0.426258
-0.506225
1.27107
-0.184209
2.96424
-5.43383
1.30969
-0.103098
-1.36437
2.78709
1.89776
0.425114
2.40016
-1.11471
2.21081
2.13357
0.0055865
1.59895
1.61924
1.27407
1.59861
-1.13035
1.73688
0.236272
0.991444
-0.00152165
-4.73727
1.72563
-6.8783
-5.24744
-0.096702
-0.20612
1.35997
-4.4598
1.57771
0.476968
0.804108
1.58808
1.43464
0.60143
0.204167
-1.47301
1.60478
1.04419
-7.5883
-1.30654
-0.00667272
1.68073
-7.23308
-6.30765
1.44785
-6.77072
2.14864
0.989558
-7.77578
-5.66374
1.90768
2.07856
-0.679648
1.4026
-5.02364
-1.03139
-3.65242
0.484233
-0.895755
-6.12371
3.14344
0.917431
-4.99875
0.0306938
-0.723848
1.59244
1.02399
-1.4988
-6.51381
-1.53922
-1.06376
-4.81166
1.34344
2.6361
-0.47267
-4.71776
0.0204345
-7.17581
1.8333
3.1787
-10.0501
1.22682
1.81264
-6.8255
0.563715
2.86411
-3.7829
-1.38626
1.31572
1.4224
1.23506
-0.887598
0.992139
0.00592462
1.14812
-2.19391
0.0640533
1.65972
-0.467926
0.385805
1.03172
1.5179
0.958644
0.0885424
0.710209
1.6725
1.22903
1.57194
2.97944
-1.57976
2.79304
-0.046241
2.73782
3.29798
-6.59507
0.212277
0.39885
1.53548
-4.47383
0.75241
1.09306
0.0385169
1.87314
2.46051
1.93354
1.98576
0.408768
1.24141
-10.3291
3.24003
-6.92539
0.16684
-1.28847
-0.87698
-10.2625
1.69249
1.9757
0.934327
2.05835
-2.40052
0.0880527
2.1373
1.658
-0.165306
-0.605844
-0.0103498
0.194515
0.523236
1.7728
3.11019
1.56129
2.28356
2.20531
1.88871
2.98328
1.06878
1.60536
0.18619
-0.957298
0.935846
1.30518
1.3635
3.27747
0.646192
0.871634
0.00295589
0.0714973
3.14588
0.976599
-0.454905
-3.23532
1.46651
-1.43305
-0.136353
2.36685
1.65053
1.59508
1.76658
-0.378119
2.3725
-4.92956
1.56529
0.289431
0.24795
0.179861
2.62379
0.310403
-0.00586594
1.69794
1.6641
-1.01
1.45763
2.69803
-0.326065
-4.19309
-6.84979
-4.80472
-0.645873
-6.21693
-0.58095
1.49435
0.660509
0.0632405
1.79603
0.186886
-0.518819
-1.01834
-3.64058
-2.02889
0.228726
-6.72647
-8.2671
1.61851
1.52204
2.30163
-0.274125
0.656155
0.036642
1.50033
2.56858
-3.7382
0.0277528
0.00757188
2.7151
1.30638
-0.266971
-0.884921
-4.71942
0.0284001
-0.898184
2.85876
0.00993747
0.0016514
0.684184
0.671328
0.0120517
0.892784
0.281929
0.88779
-4.01403
-5.52502
0.298165
-7.83696
-0.0560419
0.86124
-3.43762
1.82178
1.02851
3.0495
0.656886
2.72045
-0.72845
1.85777
0.053784
-0.1245
-1.40983
2.55712
-0.408481
0.405414
0.314198
-3.75033
-1.89687
0.0132895
0.0515395
-0.112517
-0.263213
-0.125642
0.204835
1.04993
2.02101
-4.61562
-1.1562
0.229844
-0.209796
0.068895
1.79949
0.389881
0.870271
-0.218699
-0.0215825
2.39158
-2.39647
0.84787
0.00297201
0.045787
-0.491688
2.35845
-2.17309
-0.0155237
-0.0615995
-4.81291
-0.693861
-0.0841453
2.74677
1.96289
0.0164917
-4.3451
-4.44086
1.6567
-0.119308
-0.298804
0.00479789
0.684163
-0.531568
-0.0245698
-0.835923
0.0062
0.682168
-0.817488
1.80057
0.564879
-1.11208
0.088446
0.630084
0.134212
-0.135261
1.74184
0.155972
-0.394816
-0.547825
-0.145224
-0.482269
-0.0680042
1.75195
-3.69441
-1.13711
-0.999765
0.0192702
-1.96879
0.188371
-0.0867999
-0.00531784
2.49249
1.1487
-4.61573
-0.0347206
-4.47719
-0.455213
-0.215377
-0.112095
1.68552
1.06699
1.31918
1.61262
0.249984
-3.48207
-0.933447
-4.62386
-0.0242899
1.88349
-0.0736156
0.701486
-6.66009
2.049
0.0568582
1.73203
-0.305848
-0.699597
2.20502
0.0350985
0.012365
-3.95775
2.43694
0.357264
1.44444
1.67588
-1.98728
0.0217322
1.5497
-4.62439
2.38715
-0.446815
2.33056
-1.56829
-0.0829328
-0.844531
1.75448
2.27232
-3.48402
1.40282
0.672087
-0.128754
2.56602
0.58412
-3.89583
1.57753
-0.0280691
-0.084708
-0.915997
-3.297
-0.0267862
-6.82955
0.00267137
1.47273
1.15204
-0.103153
0.0658586
0.707367
-0.0834812
1.54426
-0.2463
0.0198634
-0.952827
-0.0239294
0.0764827
-0.0236132
1.47487
0.496039
-0.0221408
-5.2477
1.88784
-0.0886178
-0.335543
-0.112887
0.527785
2.72223
0.26393
0.00450981
1.35316
0.226238
-0.163865
0.229442
-2.86187
0.234465
0.0673317
0.0769536
1.72167
0.00641593
-0.0649466
-8.24587
-0.0208824
0.0352279
-0.294294
1.65827
-0.330698
0.0238852
0.575222
-0.427198
-0.151145
-0.0083992
1.20546
-1.05245
0.18339
-0.913744
0.100049
0.0232383
0.0148281
0.0174876
-3.75904
-0.577586
-0.623748
0.454721
1.09563
0.0773871
0.724966
0.779549
-0.0247946
0.016983
0.820436
0.0446234
0.018805
-0.374865
-0.260382
0.333711
-1.16473
-2.04862
0.0196809
0.361439
0.140751
0.994756
0.901385
0.0998681
0.350731
1.69352
0.0723932
-1.46108
-0.0053433
-3.09545
2.27656
1.56973
0.103819
0.00506931
-0.0707127
0.0999584
0.0379817
-0.00694277
-0.841597
-0.391394
1.52578
0.260225
0.0110903
1.59884
0.0997609
2.51678
-0.0709888
0.214092
0.173653
-0.086716
2.40538
-0.00296089
0.0443838
-1.57575
0.0515428
1.11577
0.617392
-0.0178464
1.64218
0.0923188
1.36346
2.23725
1.0903
0.898254
0.0236699
1.05274
0.0704133
0.371485
-3.61767
-1.76899
0.0681947
2.14481
0.562718
1.62586
0.788262
-0.000787498
0.0619453
0.0882158
-0.283585
1.31313
-1.2041
0.0445756
0.0104239
0.0428624
-0.0552068
-0.291088
-4.4584
2.77501
-2.50608
-6.64421
2.58784
-0.0294002
0.0480139
0.0108238
0.0455556
1.58227
0.0670748
0.023815
-4.60689
-1.68355
-0.00493513
1.65478
0.0834611
0.0583987
-0.893319
0.0174932
-0.109504
-0.0226329
-0.00109797
0.0765027
1.64977
-6.84138
-0.0346486
0.692899
-0.117281
-4.61743
0.12009
-3.40169
0.00434925
1.86619
-4.98522
2.10964
-0.150203
0.0763772
-5.93926
-0.0846174
-0.227294
-0.0439315
-2.97322
-0.00927116
2.62492
-0.783183
-3.41777
0.0105177
-2.67968
0.0208279
0.0947318
-8.28029
0.00972373
-0.0206665
-0.216456
0.0235488
0.0490266
2.02908
0.479642
0.00556319
0.11805
0.00838846
-8.01751
0.089571
-3.29912
-0.0124302
-0.184375
1.94176
-0.360347
1.65975
0.00651745
-0.149204
0.00739774
0.00531445
0.0198206
-4.6627
-5.59537
0.0845763
0.975822
1.50435
0.652993
-0.00570968
-0.011193
0.0106828
1.95726
-0.0275042
0.270071
1.03202
0.00502768
0.00873856
0.19791
-0.000996462
0.0125445
0.098333
1.68538
0.00455533
1.36829
0.0204493
1.78779
0.0585146
1.23311
0.00979048
0.0122009
-9.63586
0.0219877
-0.0322313
-0.271164
-0.386265
1.26353
-0.007045
0.633011
-0.00163413
-0.048972
0.345931
0.0625884
-0.018014
-8.95848
-6.30692
0.00794172
2.12079
1.49509
0.0137241
-0.00854733
-1.06214
0.0342996
0.439414
0.219102
0.0128463
2.38821
-0.0113353
0.0375722
0.0131865
-3.71495
1.66883
-0.0222317
0.059446
0.0153481
-5.36415
0.152055
0.0450967
-9.61173
0.700371
1.19991
0.063805
-0.221175
0.132731
1.60299
0.00629467
0.0165829
0.0199787
0.0977793
0.0740741
0.0846813
0.0680649
0.0169575
-0.0299885
0.0318169
-0.156011
0.0165386
0.0665412
-0.260681
0.080791
-0.000696613
0.102067
3.04873
-0.00305593
0.12735
0.0130015
-0.01772
0.799563
-0.00921569
0.114564
0.292232
0.0484474
0.0164372
0.00362228
0.0228131
1.62324
0.0159861
-0.00619741
0.103446
0.0210115
0.023748
0.149317
-0.0183572
1.96048
-0.0741342
-1.27541
1.3742
0.00677399
0.0339412
0.0557645
-0.232116
-7.87022
0.177747
0.242787
0.022749
0.0929007
0.0319663
-1.70628
1.82787
1.93297
0.0275883
0.0848918
0.0903617
-0.0103147
1.61556
0.010074
0.0335254
1.67379
0.0140676
1.68897
0.0662138
0.0358679
-0.0687105
0.0588358
0.0121609
2.04579
-0.00913406
0.00243168
-0.305461
-0.32711
1.68571
2.43407
0.00698968
-0.266791
0.0435675
0.0223062
0.00152927
1.78056
-10.3927
-0.000338281
0.0362113
0.109357
-0.0104618
0.0109068
0.0667624
-1.83342
0.00200864
0.0367284
-0.992501
1.61713
-3.52224
0.0429881
0.0136863
1.0547
1.06473
0.0300057
0.00406364
-4.19217
-10.1086
0.014724
0.0382852
0.0160271
0.0289641
0.00119658
-3.74409
0.0188985
0.0856159
0.0354166
1.59119
0.0202713
0.0862297
0.0390708
-0.0558977
0.0107037
1.60374
0.0405798
1.96758
-0.620794
-6.86043
0.0297534
0.0700862
0.0380263
0.0374949
0.0942232
0.0225973
0.0466674
0.0980759
0.0173385
0.0225772
0.0155467
0.0345446
0.0384254
0.00882231
1.69918
0.0546034
-0.408825
2.04864
0.0196465
0.0935533
-0.896274
0.578315
0.0329902
-1.28902
0.0303722
0.0313192
-5.22854
-0.149045
0.0299235
-0.65587
0.0327564
0.000329622
0.136966
0.00354239
-9.71882
-0.104339
0.0420806
-1.26617
0.123761
0.0209292
0.0205627
0.0487881
0.0662912
0.093676
0.0934237
0.302606
0.012007
0.0221628
0.0311395
-0.853187
0.0193483
0.00829722
0.0196947
-0.0216367
0.0248959
0.032339
0.015806
-0.515659
2.71477
0.0440043
0.0131044
0.0505022
-0.169377
1.90289
-0.00153876
0.210854
0.00357555
1.8983
0.0270615
0.621827
0.116742
0.0106846
0.0197725
0.012776
-4.64188
0.0810951
0.32427
1.59436
0.034413
0.00926484
-0.0433491
1.98162
0.0388333
0.0373543
0.0156076
-0.0352922
1.36069
0.0231185
0.0477522
0.0190708
0.030292
0.0201948
0.0317008
0.686849
-0.404737
2.14161
0.00846115
-0.520848
-0.237471
2.28576
1.32538
0.014881
0.0261865
0.0580702
0.0519705
1.50639
-0.231318
0.0342491
0.091882
-7.85453
0.0257953
0.0840638
0.0416769
3.11822
1.02738
1.51231
0.0381755
1.69039
0.0259694
-2.89627
-7.54357
2.25296
-6.6225
-7.09776
0.0209193
1.41369
-0.133556
0.0231775
-0.361726
-0.164111
-2.28967
0.313294
-0.000547182
0.0116799
1.6526
-0.016703
0.548819
0.0345272
0.0290966
0.050463
1.69493
0.031705
-2.6846
0.0631437
-4.68569
-4.96544e-05
0.0449612
0.0599923
2.76957
-6.04886
-0.248686
0.0553726
0.0370292
0.0391592
1.1121
1.63881
-0.0234724
0.0383061
-5.59493
0.0469074
1.01507
3.05642
0.87427
0.234492
0.0291787
0.0608619
0.0275527
0.439162
0.0507388
0.0503865
0.0291239
0.641964
1.59767
1.59768
-7.99816
1.12697
0.0484004
0.0952864
-11.0907
0.112972
0.0517436
1.87109
-0.15067
-5.98978
0.0132986
2.66555
-0.610317
-0.190788
0.0557584
-0.927377
-0.197315
-5.06639
2.79931
0.017489
-0.417141
-6.48626
0.0612444
0.120864
0.266093
-0.340901
-0.198397
-1.43503
-7.43892
1.65926
-0.0183763
-0.0520979
0.056545
1.11731
-0.00640702
-7.16824
0.0253375
0.0860488
3.17534
0.0213414
-6.83741
2.88277
0.00649058
0.115487
0.0526996
0.00724893
1.77695
-6.895
1.55342
1.68321
-0.0288418
0.0499622
1.69438
0.788817
0.0167593
-1.28558
-4.20248
0.00831394
1.78416
0.0271598
-0.74536
-4.52272
0.500423
-0.397491
-0.0164855
0.0431382
1.60744
0.0593891
0.0294732
-3.46414
0.0223044
0.0259356
0.0562588
-4.89723
-3.33618
0.0642047
0.0306069
-0.225583
-0.621905
0.0750414
3.06959
0.0895491
-11.3645
0.442077
0.0224581
1.84427
-0.0689636
1.65694
0.0687762
1.52497
-5.30782
0.102647
2.49347
0.0573526
-0.0343309
1.89645
0.204456
-0.0265019
-0.0464744
1.70856
1.90588
0.0709202
1.96439
2.82871
1.20935
2.01061
-7.56942
0.00317383
2.58672
-4.99664
0.578247
-0.000330887
1.56706
-2.22926
2.01924
1.93613
2.09913
-0.044548
-0.00763383
-0.758495
0.0242077
0.115832
-3.03077
-1.17444
0.000535776
0.0297508
-1.72871
0.0725244
-0.257288
0.464934
2.17149
2.32513
2.2417
0.132567
1.31099
-0.197301
0.444967
0.128303
0.0537711
2.99448
0.0325629
-0.0461166
0.192088
-5.26344
2.42026
-0.0620628
-0.459853
-3.82429
0.137859
0.270433
-0.847538
-5.65473
1.4274
0.0360031
1.39743
1.77234
-3.1826
-0.432655
0.0910161
1.84821
-1.11601
0.00749735
-0.00673406
0.0125429
1.52455
-0.0734293
-0.0949241
3.33148
2.41428
-0.0717355
0.0976309
-3.33662
2.7403
1.61894
0.107124
2.92638
0.0217763
1.71031
0.601629
2.74262
0.109286
-3.56647
0.964842
-5.13091
0.0124711
0.0614042
0.114969
-3.47662
2.87155
0.0589804
-0.150503
-0.740561
0.606935
1.11519
3.16626
-0.144447
-0.153214
0.051183
1.20002
-0.201922
-0.057087
0.191595
1.60418
0.0413248
-0.134802
-1.14694
0.16597
0.539996
1.64949
0.0374891
2.80918
-0.0638299
-0.162147
1.68657
0.0210646
0.00509301
0.105965
-0.75897
0.839571
0.0208912
0.711779
-1.68614
-0.169859
1.52492
-1.55051
-0.0651378
-0.240437
-0.114073
-0.127743
1.5453
0.0924635
0.114385
0.00410724
-0.435181
-0.0601397
-0.293937
-6.16727
-0.00141713
0.917486
0.249432
-0.190403
0.320774
0.0573997
-10.2125
-0.0927226
1.6615
-0.309311
-0.193977
0.159704
-0.250028
2.51762
-0.139364
0.867738
-0.0212067
3.22695
3.0655
0.0601879
-0.553467
-4.8712
-0.000494974
1.38137
1.68109
1.66142
-0.201514
0.0112674
0.132965
2.66265
0.178798
0.00994589
0.481004
-0.223567
0.25868
-0.201489
1.36819
2.63905
0.0527712
0.0543511
-0.20206
1.29522
2.23346
-0.515675
0.625162
-1.19571
3.11917
0.0033101
0.0115152
1.30581
-1.1907
0.0197513
0.0189258
1.60838
0.0106865
0.0120086
-0.642891
-4.50965
-0.136419
0.00333328
2.59715
0.77434
2.04481
-0.11237
-0.106798
3.24155
-0.164109
0.0605416
0.609039
-0.32253
1.3762
1.41966
1.74551
0.00849444
-1.02329
-0.425202
1.64154
-0.386577
0.0160777
0.0651066
1.68178
0.368401
0.0252972
-0.028667
0.371871
-0.177465
0.0202369
0.100577
-0.181408
-0.339867
-0.175986
1.17992
2.55262
0.208631
1.84017
1.57585
-1.77023
0.0171879
-9.47343
1.81053
0.0933048
-0.188297
-0.415163
-0.163453
-0.172552
0.00813267
3.23295
0.0112937
1.75757
1.08472
-0.200951
0.0697253
-0.435496
0.0482687
0.571649
0.114772
0.000180238
1.19586
-0.195271
-0.294207
1.97445
0.362287
0.392893
0.108656
-3.71922
0.14145
0.838033
-0.0699673
1.30222
0.133569
-0.953198
2.44731
2.13311
0.227774
1.56478
0.0139456
0.74096
1.59372
1.75609
0.0359886
0.0532475
-4.20379
-0.153592
1.63145
-1.24325
2.33735
0.0228437
0.946382
-1.24809
-4.65807
1.62966
-0.320999
1.62104
0.299617
0.209886
0.0620746
0.351551
0.0422559
1.49193
0.643219
1.67518
0.501907
2.2606
2.46283
-0.0113423
2.11973
0.0746269
0.000628445
0.638608
2.41293
1.01354
-1.28532
1.77524
0.15596
0.0644648
2.36003
1.61576
2.30158
-0.173504
-0.128348
0.0190319
-8.77219
0.106598
0.0536411
1.40242
-5.07603
1.85481
0.00139424
-0.402556
1.53009
1.77274
0.282622
1.66748
0.0503291
-6.85601
-0.371329
-0.0494297
-4.79582
0.961471
0.967797
-4.6562
-0.357452
0.328
-0.148223
1.30831
2.39139
2.52894
0.795914
0.559507
-0.0241538
0.371405
1.56999
0.00867835
2.08104
0.100685
-0.109731
-0.476347
-0.372408
1.16754
1.6937
2.0865
1.4174
-0.167071
0.0679617
1.61513
1.60285
1.83897
0.210606
2.10271
0.85229
1.67069
1.1635
-0.0502941
0.0322496
1.83241
1.58935
-5.66886
1.72097
-0.237722
0.431957
1.29328
-0.354831
-0.790461
2.76611
1.98727
-0.0209355
1.73973
0.516381
1.07102
0.0290628
0.126346
-0.0789704
-0.110304
-0.316468
-3.56494
0.602304
-0.505281
-0.185242
1.63202
2.33306
0.0966948
1.65775
0.193649
3.37026
-2.01995
1.9881
-0.106066
-4.59614
-1.99617
3.43923
0.272683
-0.15739
3.43579
0.0304813
-5.30604
1.6834
3.41579
-0.0322842
3.37193
0.922388
-0.0401561
-0.568286
3.27744
-0.12706
-0.181361
-5.1912
0.247168
-0.0639362
1.97796
3.12765
0.0130295
0.451601
2.07375
0.33266
1.77894
1.39884
0.0633939
-0.186738
-4.89463
3.07564
0.607468
-0.270131
0.273393
-0.0714326
3.0297
1.31777
-0.0864477
-0.363081
2.98042
-2.64474
-0.474599
2.93213
1.9925
-0.609441
-3.30113
-0.814368
0.754631
2.00246
-0.766559
2.85759
1.64418
0.0838203
-0.955552
2.32685
0.255518
0.389442
-0.584279
-5.94109
1.51486
1.6729
0.0102064
1.72349
0.138294
-1.34485
-7.50114
2.72338
1.24194
1.42852
-0.0827514
-1.67216
-1.97212
-2.30245
-2.66306
-3.04783
-3.43816
-0.334078
-3.84523
-5.1019
2.01141
2.68154
1.1883
1.01868
0.303808
1.21499
-5.50942
2.64998
0.000813471
-5.87675
2.17293
-7.02868
-6.2021
0.115883
2.56112
1.48951
0.985683
0.4917
1.64366
-3.16211
-6.48683
2.5291
-6.64137
-0.307395
0.635513
-6.7929
1.56547
2.48892
-0.147259
2.15865
0.0909712
1.31862
-6.92776
-0.396427
-0.201686
2.44954
-0.531113
-4.6854
2.41027
0.304726
-1.38861
-0.455606
-6.81925
2.37627
1.7391
0.574427
1.65313
0.436433
-0.0111726
0.015737
-6.78456
-4.68374
2.33179
0.712245
0.0677343
1.72094
0.828203
-4.27547
-0.42443
-6.68168
2.29673
-1.40403
1.70528
0.0426355
0.0329798
-6.57233
2.25596
0.718071
-7.69168
2.2091
-6.41319
-0.0760602
-0.379092
-4.66165
0.164546
2.17777
-6.16746
2.12008
-6.03412
-0.0462919
1.06648
0.0148289
0.952421
0.0138123
2.07671
-5.80551
1.11567
2.59206
1.72896
-5.66452
-1.73495
2.04111
0.0232347
-1.48968
1.4057
-5.51278
1.64247
2.00703
0.0140162
0.267793
-2.31442
1.64797
1.14376
-0.124619
0.435425
-5.40826
-4.65382
1.95545
0.549681
-8.14338
0.586111
-10.7375
-6.74043
0.450067
0.787549
1.91639
2.31689
1.7401
2.50995
1.74426
-5.2689
1.20981
0.0412319
-0.941222
0.798435
0.0048416
0.159041
0.957224
1.34763
-0.119208
-5.24118
-1.27386
1.83133
-1.39069
-0.561445
2.08808
1.35822
-0.123222
2.92989
-5.99411
0.461179
0.349224
-5.22215
0.414451
-2.77562
1.77873
2.01842
1.81496
1.09762
-5.20191
1.72718
1.66468
1.62916
1.56625
1.52078
1.45056
-4.41569
1.68375
1.3968
1.89324
1.27967
-10.434
2.26778
-5.16845
-0.872196
-10.4748
1.26575
-4.97528
2.30768
-5.10884
0.480348
-5.02014
-5.78492
-4.88994
1.62972
-1.13075
0.155948
-4.74282
-6.92769
-0.65694
1.70077
-9.82624
-4.47258
1.77309
1.73681
-0.758498
-5.0615
1.87944
0.349929
-9.08695
0.0836566
0.668972
1.47938
-3.14466
0.04338
-0.78197
1.84176
-0.130841
-2.39009
-1.98748
0.916555
1.71143
0.16288
-5.40738
0.736684
1.93237
1.39598
-5.45482
1.67348
0.769467
1.42534
-0.300775
1.71279
-0.458088
0.0140968
-0.00535705
0.744016
-3.71387
2.54671
0.332854
0.253884
0.294343
-4.4669
2.21516
1.78412
1.49661
1.65258
0.31637
-0.0429708
0.532163
-2.0692
0.94278
-0.931035
0.0760473
1.20167
-4.15115
0.529127
3.10405
0.0106522
0.887339
0.922345
-4.77881
0.115039
1.33165
-0.139448
0.762944
1.45807
1.66221
1.74609
1.75375
0.0364495
1.96321
-4.6834
0.124911
0.722386
0.0581083
-0.547125
0.30885
1.9968
-3.97857
1.64621
-1.54792
-8.60543
0.401731
-3.79811
0.637896
0.00962643
0.336788
1.83264
0.300492
-0.415489
0.121256
0.394845
-0.175154
-0.369156
0.0133491
1.78863
0.145485
-1.16359
1.25374
0.20985
1.26452
-0.0671884
0.0855332
-0.0370385
0.0819164
0.374759
-2.9384
0.30194
0.0351242
0.0596677
0.996001
2.57613
1.20331
-3.68911
1.64902
-0.0219909
1.27047
-0.00739017
0.0636326
1.46474
-7.98861
0.0299504
-1.42833
-3.99901
-6.81861
1.68914
-0.163057
2.1093
0.505908
0.00420177
2.66248
2.5351
-0.196103
0.57613
-0.515996
-0.794624
1.88782
-1.8187
0.124891
-4.27324
-0.0983952
-3.14394
0.744211
1.10325
0.169354
0.0185266
0.211731
1.62174
-5.5948
-3.58969
1.07479
0.904088
2.51064
0.165232
0.655614
2.57932
2.61901
0.0032567
2.25253
1.30756
1.72531
0.43039
2.34911
1.78332
0.445407
0.0360176
-0.17228
1.27709
1.24674
0.00321101
0.0228867
-0.307311
3.19063