/*--------------------------------*- C++ -*----------------------------------*\
| =========                 |                                                 |
| \\      /  F ield         | OpenFOAM: The Open Source CFD Toolbox           |
|  \\    /   O peration     | Version:  2306                                  |
|   \\  /    A nd           | Website:  www.openfoam.com                      |
|    \\/     M anipulation  |                                                 |
\*---------------------------------------------------------------------------*/
FoamFile
{
    version     2.0;
    format      ascii;
    arch        "LSB;label=32;scalar=64";
    class       surfaceScalarField;
    location    "5";
    object      phi;
}
// * * * * * * * * * * * * * * * * * * * * * * * * * * * * * * * * * * * * * //

dimensions      [0 3 -1 0 0 0 0];

oriented        oriented;

internalField   nonuniform List<scalar> 
7520
(
-0.995162
0.794336
0.200826
-1.33531
-0.19217
1.52748
0.0271897
-1.90023
1.87304
0.232401
-0.0316446
-0.200756
0.0851404
1.48263
-1.56777
-0.0887799
0.0954616
-0.00668177
-0.305619
2.09649
-1.79087
-0.171198
-1.75795
1.92915
-1.44853
1.47572
0.843053
-0.0639882
-0.779065
0.0591036
-0.248141
0.189037
-0.276893
-1.67786
1.95476
0.71227
-0.10716
-0.60511
-0.0972504
0.134853
-0.0376025
-1.89424
0.90502
0.989221
0.11585
1.57995
-1.6958
-0.0102255
-0.0648535
0.075079
-0.238763
0.0878163
0.150947
0.0176973
0.0565216
-0.0742189
0.035098
-0.0453235
-0.404815
-0.277733
0.682548
-1.07761
1.19346
-0.0301225
-0.313212
0.343335
0.132108
-0.140874
0.00876564
0.0170333
-0.189535
0.172502
0.252491
-0.244419
-0.00807179
0.858023
1.11463
-1.97265
-0.0355358
0.315077
-0.279541
-0.0664639
0.0841612
0.196383
-0.0309568
-0.165426
-1.14917
1.74936
-0.600188
-0.0470789
-0.0178728
0.0649517
-1.8447
2.00948
-0.16478
-0.298239
0.290405
0.00783443
-0.26188
-1.27136
1.53324
-0.458445
0.986467
-0.528021
0.271823
-0.543982
0.272159
0.765488
-1.52112
0.755637
0.0906081
-0.31472
0.224112
-0.0443161
-0.100859
0.145175
-0.0278782
0.260279
0.369179
0.338536
-0.707715
0.286166
-0.0336757
2.13264
-1.60226
-0.530383
-0.56048
-0.607183
1.16766
-1.48826
1.61778
-0.129517
-0.0636444
0.0529814
0.010663
0.260966
-0.0769114
-0.184055
-1.34235
0.193174
0.272703
-0.0755279
-0.197175
1.79785
0.170897
-1.96874
-0.722082
0.253091
0.468991
0.187289
-0.178426
-0.00886316
1.05566
0.49383
-1.54949
0.0142349
-0.103015
-0.757609
0.129258
0.62835
0.398637
-1.25387
0.855235
-0.0412976
-0.122789
0.164087
-0.115087
0.0680077
-2.19368
1.10254
1.09114
1.2709
-0.57423
-0.696669
-0.016002
0.0341608
-0.0181588
-1.2764
1.01452
0.837241
-0.124971
0.00553494
0.181754
0.00398984
-0.10124
1.10706
-2.25364
1.14658
0.169183
1.62867
-1.23968
0.979672
0.260007
0.313995
-0.236727
-0.0772684
-0.504009
0.902646
0.234381
-0.9195
0.685119
0.338524
-0.0933508
-0.245173
0.410783
-0.448542
0.0377597
0.754282
-1.44488
0.690595
0.126605
-0.110757
-0.0158479
2.00788
-0.881264
-1.12661
0.405943
-0.765004
0.359061
1.69477
-1.19464
-0.500129
-0.815449
0.0578405
-1.48177
-0.711911
1.28031
-0.0455982
-1.23471
0.231935
-0.624218
0.392284
-0.119261
-0.178978
-0.161552
-0.0772116
0.213256
-0.0168738
0.0122753
-0.0498564
0.037581
0.991808
1.01607
-1.85577
2.07549
-0.219724
0.590695
0.680204
-0.958997
1.12637
-0.167374
0.00570246
-0.0330446
0.0273422
1.34103
-1.61792
0.241058
0.195033
-0.104425
0.457919
0.257304
-0.715224
0.00743914
0.0829997
-0.0904389
-0.551992
0.398899
0.153093
1.31159
-0.557307
-0.718572
0.623699
0.0948731
0.732361
-1.04337
0.31101
-0.08705
0.109752
-0.0227021
7.53142e-05
-0.00806781
0.0079925
2.42697
-1.38186
-1.0451
0.535201
-0.41343
-0.581732
-1.34847
0.844465
-1.92729
1.62167
0.163628
-0.0770004
-0.086628
-0.0625305
0.121634
-0.15712
0.155937
0.0011834
-0.165342
0.238745
-0.0734026
1.89104
-1.12555
0.186613
-0.078121
-0.108492
-0.758868
0.354053
-0.0224546
-0.0508101
0.0732647
-0.00553826
1.28585
-0.794836
0.485432
0.309404
1.31608
-2.02462
0.70854
0.0308694
0.101239
-0.179869
-0.542213
-0.388678
0.100214
0.288464
1.05415
-0.2111
-0.1375
0.0670334
0.0704664
-0.0420333
0.0884073
-0.046374
0.0106549
-0.0152627
0.00460781
0.693106
-1.79635
1.10324
0.384819
-0.414941
-0.348654
-0.0517799
0.400434
0.153958
0.0326546
0.0394098
-0.32312
0.28371
0.140602
0.0314119
-0.172014
-0.0627529
0.203355
-0.610198
-0.184637
-0.0489397
-0.600409
0.649349
-0.84575
1.83689
-0.991141
0.408377
-0.424197
0.0158194
-1.16629
-0.182181
-0.0332722
-0.0491769
0.0824491
1.40684
-0.351177
-0.640521
0.427812
0.212709
-0.000510017
0.114135
-0.113625
0.287581
-0.0743411
-0.21324
0.213476
-2.11371
0.326274
-1.81454
-2.21943
0.803989
1.41544
-0.835653
-0.404026
-1.26932
1.09037
0.178948
1.96909
0.206945
-2.17603
0.18028
-0.224596
-0.137116
1.2707
-1.13358
-0.253888
-0.372991
0.62688
0.0865994
-1.35592
-1.85198
0.00728423
-0.00213432
0.0144096
0.0622689
-0.118429
0.0561599
0.284625
-0.325923
0.912975
-0.180615
-0.153607
0.125729
-0.0451748
0.0131653
0.0320095
0.752921
-0.422469
-0.330452
-0.461079
-1.43316
-0.0119921
-0.241896
0.0311629
-0.5743
0.543137
0.197453
-0.0732527
-0.1242
-1.57697
0.936516
0.64045
0.663668
-0.578527
-0.0529748
0.444822
-0.391847
-0.223705
0.240738
0.517893
-0.24044
-0.277453
1.01096
-0.553037
0.236194
-0.311722
0.914977
0.263361
-1.17834
0.298388
-0.333923
-0.397235
-1.43686
1.83409
1.26826
0.676183
0.692917
-0.460983
-1.31784
0.859398
-0.709885
0.917316
-0.207431
0.0108517
-0.0362877
0.025436
0.277083
-0.322564
0.0454809
-1.52688
1.52134
-0.274497
-0.149197
0.423693
0.182868
0.014585
-0.853239
0.884402
0.525757
-1.05322
0.527466
-0.518352
-0.0336406
0.67259
-0.400766
0.137276
-0.0106712
-0.431468
0.223159
0.208309
0.0681162
-0.233459
-0.358394
-0.119194
0.477588
0.131267
0.207258
-0.80592
-0.638956
-0.753257
-0.823709
0.0235125
0.00531087
-0.0288234
1.67378
-0.617157
-1.05662
-1.2383
0.392548
-1.15476
2.13154
-0.976784
0.360605
0.157288
-0.337086
0.234212
0.102875
-0.77216
0.592291
0.574012
-1.13449
1.7479
-0.0558878
-1.69202
-1.47601
1.93016
-0.454152
-0.0228568
0.0851257
0.421
1.38751
-1.80851
0.0334785
-0.163222
0.129743
-0.124312
1.79435
-1.67004
0.00165465
0.108396
-0.110051
-0.890173
1.23263
-0.34246
-0.10924
-0.66292
0.0750115
-0.433405
0.282467
-0.168574
-1.65387
1.82244
-0.00442168
0.0609433
-1.60039
0.79447
0.176983
-0.21512
0.0381369
-0.00395147
-0.0380819
0.154665
1.55829
-1.71296
-0.573051
-0.556195
1.12925
-0.508631
0.398882
0.109748
2.50432
-1.628
-0.876324
0.445518
-1.01857
-0.0905891
0.107208
-0.0166186
0.111186
0.723707
-0.834893
0.0429358
-0.0466248
0.00368902
0.835315
0.801378
-1.63669
-0.225039
-0.493533
-0.0579216
0.16476
-0.106838
-0.934984
0.701088
0.233896
-0.0716782
0.0386794
0.0329989
1.58824
0.0855425
1.08667
-2.03391
0.947236
-2.83326
1.20837
1.6249
-1.19193
-1.64134
-0.375841
0.496978
-0.121137
0.392307
-0.384531
-0.00777508
0.682618
-1.58453
0.901916
0.0520858
1.0725
-1.12458
-0.905379
0.859781
1.12647
-0.211494
1.08853
1.18961
-2.27814
-0.176817
0.0824374
0.0943799
0.0393191
-0.974303
1.8781
-0.485664
-1.39243
0.132811
-0.0993321
0.114453
-0.0942322
0.0293787
1.06179
0.816302
0.183969
0.668326
-0.852295
0.357067
-0.0419904
-0.00574541
0.0622233
-0.0564778
0.307406
-0.384776
0.0773709
-1.81175
0.850367
0.961379
0.189886
0.202421
0.759135
-0.808075
0.466191
-0.0372913
-0.4289
0.131944
0.129022
-1.82216
1.78422
0.0379415
1.17255
-0.646793
0.052458
0.14353
-0.195988
-0.0356646
-0.169661
0.205326
0.117832
-0.211182
1.65893
-0.551868
0.01401
0.0572312
-0.0712412
0.0015352
-0.04671
-0.266063
0.0179219
0.905834
-0.64853
-0.640696
0.692782
-0.381883
-0.0495847
2.09649
0.0229272
-0.022646
-0.000281207
0.0147755
0.891059
-0.198703
0.128908
0.0697946
0.0296262
-0.0295509
-0.32769
0.696869
1.32115
-1.45827
0.412083
-0.366366
-0.0457169
0.311657
-1.20183
0.19616
-0.15675
-1.83399
1.66541
-0.146447
0.055858
-2.00518
0.218386
-0.218896
-0.0724669
-0.041504
0.113971
-0.600984
-1.21076
1.48937
0.937594
1.72171
-0.785195
-1.67786
0.0867466
-0.224246
0.0617966
0.121743
-0.18354
0.176207
-0.236157
0.0599498
-1.24315
0.635964
-0.192656
-0.263159
0.455815
0.335777
-0.399765
-0.113709
-1.92386
2.03757
0.996103
0.222054
-1.4999
1.27785
0.908885
1.10059
-0.730059
1.54788
-1.12688
-0.0607092
0.389026
-0.328317
-0.876093
0.745276
0.130817
-0.0314515
0.0454616
-0.0832084
0.32452
-0.241312
-0.261603
-0.259137
0.52074
-0.526739
1.795
-0.271363
-0.367781
0.639144
0.00126136
-0.0649058
0.265048
-1.22404
0.0340672
-0.0398126
0.0084116
-1.84145
0.988937
0.852514
0.362137
-0.469297
0.00871736
-0.0193052
0.427683
1.09406
1.41026
1.6517
-0.53262
-1.11908
0.116638
-0.0431296
-0.0735083
0.737236
0.957531
0.111764
-0.0499673
0.691713
-2.05674
1.36503
-0.0475149
0.060579
-0.0130641
0.528145
0.783444
-0.215191
-0.099529
0.738069
-0.5541
-0.582419
1.44044
0.153173
0.0104559
1.84759
-0.531511
0.14246
-0.135021
1.76582
-0.114122
0.0995384
0.397016
0.0150669
0.0173327
0.296663
-1.7564
-0.838769
0.977125
-0.138355
0.00573611
-0.116493
1.74946
0.0663107
-1.81578
-0.71362
0.442258
0.220917
0.066664
-0.304746
0.068019
0.0161143
-1.21075
1.54548
-1.56022
0.0147443
0.015658
-0.294087
0.27843
-0.750919
1.27906
-0.838052
1.53116
0.0442459
-0.0285879
0.783162
-0.29773
1.94292
-0.601892
0.00518998
0.11799
-0.12318
-0.064112
-0.101591
0.165703
0.113744
0.00289373
-0.140927
-0.738911
-0.254893
-0.0467478
0.301641
0.568032
1.26886
-1.7395
1.34226
0.108964
-0.457618
-0.771989
1.00637
-1.14241
1.3373
-0.194895
0.527883
-1.78012
1.65581
1.95245
-0.960643
1.32166
0.810984
-0.0667584
0.255954
1.28952
-1.28451
0.264623
1.01988
0.248402
-0.279359
0.342962
-0.153076
-0.209786
0.147033
-0.0837911
-1.51847
0.50263
-1.21862
0.71599
-1.19088
0.634988
0.555897
-0.159786
-0.759714
-0.0320783
0.0160764
0.0861085
-0.0140419
0.170524
-0.156482
-0.536572
0.483597
0.952707
0.999745
-1.47601
-0.0026299
0.0132848
1.61289
-1.43014
-0.18275
-0.417965
1.80548
-1.61459
2.5253
-0.91071
-0.765739
1.04019
-0.274447
0.118584
-1.39499
-0.096212
-0.28832
-0.270056
0.423612
-0.153556
-0.0207692
0.0127014
1.33668
0.704793
-1.27747
0.572677
-0.0199299
-1.56024
1.58017
-0.0518484
-0.105272
-0.00714617
-0.47471
0.481856
-0.670803
1.56892
-0.898115
0.196441
-0.136442
-0.059999
-0.450621
0.463399
-0.0127778
-1.97327
1.7811
2.08004
-0.440011
-1.64003
-0.126741
0.0863093
0.0404314
0.0124457
0.163761
0.112502
-0.630853
-0.841905
1.67722
-0.0392395
0.0167849
1.7479
-0.96691
1.0781
0.0550981
-0.0550981
-0.133236
0.209733
-2.0655
2.25522
-0.935867
-1.31935
-0.733764
0.847098
-0.113334
-0.04994
-0.301535
0.351475
1.01968
-1.17497
0.155292
-0.574542
-0.231834
0.806376
0.846299
-2.00054
1.15424
-0.0823752
-0.793718
-0.209344
0.145232
-0.20862
-0.576971
0.785591
0.757989
0.418739
-1.17673
-1.30252
-0.426174
0.672203
-0.246029
-0.811567
1.21767
-0.406104
1.44191
-1.28724
-0.0452821
-0.209611
0.00175099
-0.0266779
0.43746
-1.18008
1.03066
0.149421
-1.30574
1.84066
-0.534912
-0.0167052
0.129676
-0.112971
-1.49043
-0.763208
-0.0612133
-0.00525055
-1.62305
0.468291
-0.366772
0.283564
-0.227333
-0.538406
0.0266281
-0.074143
-0.746311
1.83484
0.0428336
-0.356046
-1.52483
0.123919
1.40091
0.91829
-0.852344
-0.0659466
-0.883539
0.173654
0.21235
-0.561489
0.349139
1.60761
-0.132078
-1.47554
-0.0249153
-0.0238421
0.0487574
-0.382987
0.765048
0.655637
-1.42069
-0.527973
1.43299
0.234323
0.655295
0.751541
-0.0929708
1.583
0.182825
-1.41332
1.39339
-0.0501637
-0.0542451
0.104409
-0.00587717
-0.148926
0.154803
-2.03443
0.419831
-0.0859096
0.424445
-0.611932
-0.226837
0.250121
0.855983
-0.291573
-0.56441
0.189072
0.0970946
-1.15575
1.8365
-0.680749
0.148113
-0.249703
-0.0690482
0.346132
0.247811
-0.517867
-0.210555
0.142888
0.067667
0.247184
-0.0438339
-0.20335
0.743058
-1.11153
0.368474
-0.023625
-0.0234628
0.0470878
-0.28588
0.318095
-0.0322156
0.103751
-0.44018
0.336429
0.30226
-0.0538584
0.0908067
0.35306
-0.443867
1.37433
-1.01879
-0.95386
-0.0535416
-0.451326
0.504868
0.0886923
-0.027749
-0.274326
-0.234304
1.11817
-0.262182
-0.0348777
-1.22922
1.2641
-0.358972
-0.0297066
-0.0194941
-0.590704
-0.229693
-0.220929
0.167153
-0.165499
-1.38954
-0.0345323
-0.0785844
0.113117
1.26396
-1.0006
1.07386
1.00619
0.405016
0.0611751
-0.168641
-1.58803
1.75667
0.692963
0.50467
-1.19763
-0.0897116
-1.0298
0.649141
0.380656
1.04211
-0.12382
0.00690189
0.0363815
-0.0432834
2.20465
-1.19917
-1.00548
0.135295
-0.301028
0.165733
0.686951
0.434369
-1.12132
0.0682918
0.100485
-0.168777
1.72287
0.0356646
-1.75854
-0.0348352
0.122652
-0.251035
0.293869
0.0499411
-0.00671703
-0.0432241
0.119096
-0.280648
0.048048
0.0242778
-0.0723258
-0.494647
-0.663541
1.15819
1.1093
0.498309
0.998666
-1.03354
0.670047
-1.34085
-1.84659
1.73288
0.0911062
-0.00269893
0.255788
-0.603012
0.347225
0.727609
0.994102
1.15139
-1.3528
0.201411
1.20793
-0.55263
-0.130029
0.0868991
0.101398
-0.374794
0.273395
-1.57255
-0.36108
1.93363
-0.412478
0.450034
-0.0375562
-0.00739575
0.0624939
0.272186
1.21044
-0.13486
-0.0419578
0.960068
-2.0118
1.05174
-0.777145
-0.340968
1.11811
1.59327
-0.506599
0.0613603
0.555715
-0.928706
-0.259753
0.0045227
0.25523
0.0190906
-0.184516
-0.482448
1.18724
0.00999531
0.0329405
-0.21597
0.119958
0.0960124
0.01939
1.00029
0.2213
-0.821709
-0.455785
-0.417434
0.517648
0.723609
-0.950942
-0.0702157
-0.00790533
-0.0937999
0.123179
-1.94035
0.921565
0.0357117
0.103747
-0.139459
-0.322682
0.242024
0.0806582
0.207686
0.864812
0.0344629
-0.000302074
-0.0397167
-1.65162
1.69134
0.126868
-0.70514
0.578272
-0.0137301
0.0608258
-0.0470957
-0.696974
1.1996
-0.13763
-0.362921
0.50055
-0.277712
0.490062
-0.441231
1.02648
-0.585251
-0.625504
0.530474
0.0950299
2.07031
-0.101225
-0.0401112
-0.200321
0.240433
-0.151794
-0.171326
-0.176127
-0.098848
1.13765
0.937845
0.261423
-1.38939
1.12797
-0.812353
-0.174717
0.98707
-0.0402168
0.154625
-0.114408
0.0839565
0.198731
-0.282688
-0.113052
-0.118479
0.231531
-0.00694719
0.0410143
-1.06455
-0.201601
0.0120655
-0.0643121
0.0244995
-0.122583
0.386824
-0.264241
-0.227196
0.261437
-0.0342418
-0.0176431
0.084597
-0.0669539
0.784595
-0.38743
-0.0697221
0.0198657
-0.185146
-0.599072
0.784218
1.1871
-0.979418
0.0169401
-0.357746
0.340806
-0.618829
-0.424542
-1.35236
1.52154
1.18286
0.0878335
-1.29178
0.821849
0.469931
0.213844
-0.0920826
-0.121761
1.75179
-1.75179
-1.60627
0.1245
-1.0591
-0.22309
-0.617433
0.840524
0.587585
-0.544905
-0.0426799
-0.221284
-0.196111
0.14248
0.0536317
0.00677993
0.19895
-0.20573
-0.478055
1.25106
-0.773007
0.211454
-0.193362
-0.018092
0.8105
-0.691915
-1.05035
0.238001
-0.0389355
-0.212024
0.25096
0.0375006
-1.32201
-0.525657
-1.23582
0.710159
0.691835
0.0191726
0.230539
-0.249712
-0.269623
0.327106
-0.0574832
-0.224801
0.166879
-0.0808779
-0.123044
0.0505774
0.0355208
-0.0275254
0.178977
-0.151451
-0.290456
-0.0843383
-0.26505
0.355857
0.0755806
-0.10409
0.0285097
-0.0630886
-0.109365
0.172453
-0.0169302
-0.0445871
0.0615173
-0.0633548
0.164573
-0.101219
-0.620908
1.3369
0.583347
-1.14065
0.557303
-0.149746
-0.0785233
0.228269
-0.0632449
-2.28005
2.34329
0.873338
-0.546217
-0.327122
0.459909
-0.0384427
-0.197714
-0.0566096
0.00579946
-0.0528689
0.188164
0.283956
-0.94004
0.656084
-0.460082
-1.36208
-0.204077
0.83396
-0.629883
0.0925978
0.0613603
0.401649
-0.269743
-0.131906
0.33443
-0.519576
-0.60019
0.0167316
-0.193216
0.176485
-0.523344
0.330688
-0.148916
0.576728
-0.24166
0.205996
-1.65511
0.273249
-0.288698
0.536509
0.0340305
-0.243374
0.383301
-0.109906
0.321672
-0.302499
-0.0834522
-1.3191
0.698188
1.98491
-0.190564
-1.65387
2.25643
-1.08692
-1.16951
-0.0909194
0.489819
-0.0787769
-0.736672
0.508261
-0.440145
-0.24181
-0.0179435
-0.591101
-0.404405
0.995506
-0.0266541
0.113358
-0.0867035
0.027367
-0.86302
-1.96357
-0.310305
-0.326193
0.636498
0.509027
-0.382159
-0.240485
-0.0374955
0.27798
0.462783
-0.0779645
0.160929
0.0529148
2.00091
-1.15462
-0.911507
0.320406
-0.2477
-0.0497848
0.297485
-0.0448215
-0.0980842
-1.07689
0.0914583
-0.285937
0.194479
-0.0816112
-0.0334753
0.910066
-1.16598
0.255919
-0.652502
-0.0390863
1.79087
0.0549616
-0.654034
1.28605
-2.04751
0.761464
-2.01032
1.37485
0.635461
0.147772
0.101601
-0.249373
0.154892
1.19162
-0.000846031
0.832862
-0.832016
-0.050772
0.108003
0.00766824
-0.134409
-0.0313592
-0.266233
0.297593
1.25017
-1.41882
0.192443
0.135848
-0.0539697
-0.081878
-1.45227
-0.154
-0.584356
-0.704902
0.65136
0.106863
0.00337301
-0.110236
-0.610007
0.285367
0.32464
-0.390835
0.330126
-1.08052
-0.555845
1.63637
-0.129107
0.242035
-0.291975
0.238373
-0.606141
0.367768
-0.393279
1.02827
-0.153912
-0.856215
0.122452
0.765459
-0.00632386
0.915326
-1.39338
-0.0558536
0.0466517
0.00920194
1.09211
-0.46961
-1.09816
-0.340201
-0.0726443
0.412845
-0.0531019
0.200135
-0.132855
-0.0504386
0.183294
0.20239
-0.279602
-0.19687
1.51802
-0.205856
0.302353
-0.0661585
-0.428548
0.409242
-0.178701
0.0756103
0.103091
0.23997
-0.108258
-0.131712
-0.14
-0.0405382
0.180538
0.220629
-0.0944123
-0.126217
-0.150516
0.104142
-0.212423
-0.0816646
-0.034466
1.16588
-0.266745
0.0788784
0.187867
-0.0743172
0.0724212
0.00189598
0.0723581
-0.4164
0.344042
0.138201
0.22133
-0.647504
0.0561671
0.357706
-0.0730807
-0.226345
0.00263994
-0.126971
-0.0362508
1.79635
-0.994969
0.0850242
-0.261986
0.176962
-1.57837
0.226005
-0.05974
0.0926275
-0.0328875
-0.0393856
-0.0322926
-0.635847
-1.37447
0.356434
-0.0580462
-0.8474
-1.20934
-0.00902837
-0.206942
-0.456903
0.695276
0.990084
-0.731279
-1.1074
1.36882
-1.91394
0.34139
-0.184793
0.0901732
0.0946198
0.138692
-0.177211
-0.392606
0.569817
-0.0153432
-0.055898
-0.456418
-0.854655
1.31107
-0.80983
-1.06947
1.8793
0.603808
0.349762
-0.95357
-0.00388229
0.292109
-0.275378
-0.2663
-0.251567
-0.169165
-0.102094
0.271259
0.254318
0.372562
0.273509
0.12814
0.193104
-0.599003
-0.0107586
0.0336858
-0.672547
0.880678
-0.208131
-0.141432
0.109194
-0.83451
0.00984016
-0.00452929
-0.801254
-0.0588965
0.342606
-0.716255
-0.0918199
-0.140288
-0.889347
-0.326806
1.21615
-0.163609
0.67187
0.195126
0.651971
-0.289971
-1.0119
-0.928458
-1.26743
1.42272
0.0750647
0.140315
0.0115343
-0.0621115
0.0505772
-0.628065
0.575466
0.0525995
0.698839
-0.808079
0.230828
-0.195116
-1.15934
-0.132437
-0.302556
0.330427
-0.0278704
1.11545
-0.372396
-1.45888
-0.112909
1.57179
-0.0675339
-0.222922
0.16832
0.157543
-0.325863
-0.230623
0.393644
0.141558
-0.0220375
0.0127046
0.00933295
-1.30708
0.821413
-0.0543434
0.0390002
-0.170684
-0.130344
-0.323481
-0.0305137
-0.039702
0.294493
0.295517
0.0609483
-0.104172
0.327191
1.45703
-0.680934
2.00259
1.01191
0.612657
-0.84449
-0.00479927
-1.45408
-0.153268
-0.32381
0.379581
-0.0557712
0.00403129
-0.019294
-0.105005
0.00804673
-0.0537991
0.121807
-0.0904693
1.60053
-1.51006
0.188916
-0.851836
-0.12265
-0.257531
-0.0683916
0.111425
-0.280438
0.354521
-0.0740832
-0.00434881
-1.44495
1.4493
0.633164
0.277907
0.309678
-0.657772
-0.573194
0.950568
-0.377374
-0.0196292
-0.0807449
0.322769
-0.487908
0.851336
-0.363427
-0.101033
-0.28676
0.387794
-0.166471
-0.618625
0.785097
-0.274735
-0.0591881
-2.02916
-0.0579181
0.180201
-0.175011
0.0245381
0.000802
-0.0551454
0.341386
-0.667579
2.18839
-0.944329
-1.24406
-0.0245903
0.423355
0.273489
-0.105169
-0.29942
0.106203
-0.171046
-0.0130087
-0.371207
0.251946
-0.289075
0.825961
-0.992433
0.135227
-0.091337
-0.0438901
-0.372234
-1.9383
1.04994
0.888364
-1.82138
1.75813
-1.18116
0.392037
0.789122
0.0985142
-0.0586407
-0.0398735
0.614286
0.503879
-0.124266
0.195306
-0.0334547
0.0120729
-0.0743476
-0.258931
-0.0108121
1.05049
1.1379
0.0811467
-0.0189235
1.52424
-1.3173
-0.0351108
-1.39285
1.42796
1.22376
-0.0578813
-0.289809
-0.0769633
0.19672
0.0202849
-0.247688
0.0619246
0.281037
0.538739
-1.61882
1.08008
0.0876714
2.4286
-1.45945
-0.969159
0.00193483
-0.303668
0.0021325
1.47759
0.043749
1.32712
-1.20262
1.07725
-1.88708
-1.24784
0.0102533
1.23758
-1.05987
-0.0355256
1.0954
-0.0371153
0.0616148
2.25748
-0.00097075
-2.25651
-1.38044
1.98757
-0.60713
0.0445997
0.216838
-1.0557
0.244131
-0.00801776
-0.138429
-1.34933
0.206923
-0.0058485
-0.00960193
0.0154504
-0.0878469
0.221658
-0.133811
0.140069
-0.486085
0.346016
0.525465
0.451659
-0.519868
-0.0901386
0.0795439
0.865275
-0.94765
-0.0650823
-0.0533465
-0.249759
0.0525845
-0.120241
1.50598
-1.38574
-0.420757
0.863976
-0.443219
0.0513804
-0.409797
0.358416
-0.908665
-1.56087
0.747487
0.81338
-0.000921889
0.837019
0.259149
-1.09617
-0.398233
0.216944
-0.24108
0.0241355
0.165006
-0.0352624
-0.244468
0.00398323
-0.285195
-1.35735
-0.100921
-0.393316
0.789241
-0.395925
-0.702318
-0.615526
1.75265
-0.763716
-0.0999162
0.183172
-1.38427
0.0374721
-1.39401
1.35654
-0.253772
0.0142023
0.23957
0.927658
-1.03746
0.109806
0.133681
-0.0195457
-0.0968553
-1.45013
0.74781
-0.612513
1.26165
-0.286704
0.0206409
0.292864
0.210282
0.0296879
0.811607
-0.36935
0.00314003
0.695699
-0.96158
0.419366
-1.88234
0.81287
1.22126
-1.2256
-1.46136
1.37089
-0.0971216
-1.46211
0.222474
1.23964
0.591905
0.242054
0.0326243
-0.91078
0.68769
-0.104147
-0.129021
0.233167
-1.52051
0.262996
1.25751
0.362366
0.765958
-1.12832
0.0386962
-1.30612
0.772664
0.109028
-0.881691
0.0610031
0.254154
-1.02614
-0.017959
-0.0114569
0.0501362
1.50157
-1.46591
0.115149
-0.997771
-0.563096
0.787764
-0.0279137
-1.21992
1.09459
-0.257568
-1.65581
-0.022055
-0.244399
-0.933939
0.329341
0.0689335
1.84659
0.249898
0.144649
-1.22154
0.132723
-0.101311
0.203377
-0.46498
0.326132
-0.543785
0.217653
0.279114
-0.0164817
-0.262632
0.0875877
-0.287909
-0.00449924
0.311905
-1.11601
1.16006
-0.0440491
-0.728139
1.10925
-1.82747
0.718222
-0.714492
-0.0562966
0.0892955
-1.47869
0.137007
1.34168
-0.364781
0.892664
-0.66073
0.688097
0.160507
0.952282
0.540462
-0.996247
-0.824819
-0.169772
0.994591
-0.672658
-1.23537
0.778954
-0.120255
0.123285
-0.00302989
0.0439623
-0.091058
0.97146
-1.45391
-0.367496
-0.407073
0.774568
-0.164821
0.13277
0.0320507
-1.07342
0.454799
0.0361708
0.0246519
-0.225408
0.410841
2.00627
0.251208
-0.796316
0.79547
-0.25971
0.0890266
-1.10984
1.81004
-0.700196
-0.0738688
0.0624836
0.0747923
0.364532
-0.0211975
0.961584
1.16996
0.642617
-0.940347
0.302724
-1.93072
-0.162909
0.128377
0.128072
-1.12867
-0.209594
-0.956391
-0.205245
0.0516386
0.78408
-0.373239
-1.25674
0.530415
0.987609
0.180594
-1.66471
0.293292
1.37142
-0.0818887
0.475533
0.670884
-1.17299
-0.303016
0.739625
-0.321617
-0.418008
0.854272
-0.281601
-0.572671
-0.173796
0.0373535
0.622457
-0.64591
0.0234526
-1.17901
0.18808
0.990929
0.857426
0.169056
0.000611802
0.106251
0.74264
-0.52131
-1.8489
0.68068
1.16822
-1.82244
1.46136
0.853271
0.78752
-1.64079
0.784797
-0.726956
1.80793
-0.604577
-1.20335
-1.03441
0.166951
-0.0800515
-0.0473683
-0.101455
0.183893
-0.0344002
0.11213
-0.0777295
-0.240791
-0.207752
-1.58002
-0.177926
0.0616528
-0.093012
-0.0316056
-0.0150192
1.01567
-0.482311
-0.533362
0.768873
-0.483506
-0.109519
0.121965
-0.104756
1.25615
-0.277092
0.0233197
-0.321902
-0.751522
-1.46059
0.571241
-0.0711467
-0.0697268
0.12065
0.0847557
0.0952962
-0.0837618
-0.503397
-0.154306
0.0906968
-0.0766408
-0.014056
0.175167
-1.15674
-0.128888
1.28563
-0.0377285
0.0385305
0.0650594
1.05578
1.01162
-2.06739
-0.383251
0.987059
0.20897
-0.083241
0.61744
-0.867727
-0.667861
1.53559
-0.939335
-0.980808
0.576403
0.296833
-0.196497
-0.100335
0.646803
-1.26396
-0.144671
1.60044
-0.491192
-0.175178
0.100837
-0.396925
-0.743724
0.0648455
1.9782
-1.73288
-0.245318
-0.875905
-0.584684
-0.104742
0.159597
0.064712
-1.02247
-0.210519
1.23299
0.230713
0.442527
-0.54356
-1.65642
-1.65455
0.690204
0.964344
-0.156087
-0.00479678
0.160883
0.9514
-0.559612
-0.391788
0.102219
-0.156018
0.0753984
0.0805381
0.89612
-1.97664
0.760178
0.0940938
-0.320191
-0.591316
0.114425
-0.00106762
0.144287
-0.0813541
-1.07538
0.0324129
0.356613
-0.531693
0.505015
-0.0847955
-0.0112006
0.0959961
0.983127
0.824805
0.570176
0.0596145
0.691489
-0.545668
-0.145822
1.78012
-1.48683
-0.132317
-0.48384
0.139785
0.0252203
0.208986
0.0159711
-0.167423
0.00322026
-0.123475
0.581562
0.0590934
-1.79548
-0.0192405
-0.136846
-0.0691791
0.00706757
1.04007
-0.844944
0.88414
-0.463901
-0.420239
0.00383167
0.10592
-0.00942023
0.00357173
0.395857
0.0920779
-0.295428
-0.724964
-0.386569
-2.21872
0.87498
1.34374
-0.0411498
0.00810523
0.026759
0.0999466
0.11331
-0.268716
-0.292773
0.492524
-1.36025
0.259681
-0.959044
2.01482
0.623467
-0.0716643
-0.551803
-0.678513
-0.492527
-0.0523784
0.0864141
-1.10575
0.471019
-0.713417
0.242398
-0.196267
0.114372
0.0818943
-0.135263
1.27209
1.25322
-1.42052
1.48683
-1.67655
1.20489
0.471666
1.06313
-2.02217
2.17514
-1.08108
-1.04433
-1.00311
-0.0185484
0.189073
-0.0564643
-0.418246
-1.55274
0.0906252
-0.0643364
-1.28847
1.22804
-1.97258
0.744541
-0.050985
0.231265
-0.457551
0.239753
-0.144723
1.03707
1.39154
-1.85517
0.74533
-0.17459
-0.764745
-1.35133
0.208883
-0.0945104
1.82138
-1.9226
-0.135733
-1.10787
0.108052
1.18764
-0.422595
-1.51672
1.61401
-0.0972808
0.442376
1.90092
0.433595
-0.0697873
-0.363808
1.85413
-0.776881
0.228063
-0.28644
0.739521
-0.759016
0.0832442
0.127038
0.481077
0.94877
-1.42985
-0.608937
-0.455343
1.04215
-1.06327
0.0211204
-0.241246
-0.0446908
-1.73494
0.74417
0.990771
1.11267
-0.185014
-0.321583
0.0324681
0.845638
-0.851962
0.275316
-0.541616
-0.223991
0.226631
-0.628083
0.450872
-1.14384
-0.822711
1.96655
-0.258159
0.163747
-0.106173
-0.174475
1.03093
-0.908474
0.0712892
1.3584
-2.03934
-0.0550765
-0.354475
0.221722
-1.20114
0.0940439
0.700292
0.422459
0.0334189
-0.61039
-1.47708
0.369679
0.0839959
0.312984
-0.39698
0.0675919
-0.308903
1.15988
1.09655
1.24827
-0.992354
0.0277301
-0.204102
-0.180675
0.435096
-0.156799
-0.122803
-0.688498
-0.949551
2.01268
-0.223778
0.222856
-0.638941
-1.14223
1.78118
-2.08891
0.708474
-0.0646774
0.28726
0.0567814
-1.456
-0.0688238
-0.170963
0.641982
-1.01201
-1.20671
1.9782
0.557556
-1.38127
1.00882
-0.557163
-0.214853
-0.0147084
-0.260669
-0.237863
0.254803
-1.63345
0.211801
-0.784995
1.07156
-2.02111
-0.779964
-0.251099
0.0797729
-0.0817234
-1.435
0.847083
-0.938903
1.35196
0.798316
-1.4934
0.695079
1.47646
-1.28838
1.95476
-0.938283
-1.02553
1.96382
0.555151
1.2748
-1.04409
-0.660029
-0.994519
-0.834728
-0.841826
0.453627
-0.642705
1.50056
-0.857855
-0.111746
1.36336
-1.25162
-0.998695
-0.948356
1.94705
0.909657
0.132493
0.222771
0.367391
-0.455203
0.297276
0.157926
-0.00784382
-0.241859
0.502081
-1.37799
-0.751939
-0.386495
-0.24157
-0.261838
0.202942
-0.313758
0.998878
-1.9869
0.883034
1.10387
-0.0309299
-1.64681
1.67774
0.0327631
-0.242166
0.0364357
0.612255
-1.84999
1.84999
-0.0415983
-0.0136493
0.0552476
-0.64291
1.06165
0.167075
0.041808
-0.775534
-0.326543
0.699104
-1.42052
-0.0474637
-1.25654
0.289629
1.29356
-1.25606
-1.18435
0.161878
-0.289207
0.280771
0.00843605
0.111004
0.511453
0.316785
-0.037671
-0.944883
-1.19623
0.187909
1.00832
-1.38807
-0.213664
-0.613414
-1.21406
-0.0336737
0.0116361
0.157121
-0.290447
-0.00897285
-0.0106921
0.0716404
0.3713
-0.269709
-0.358373
-0.703152
1.29217
-0.589022
0.30789
0.200535
-0.229213
0.396512
-0.167299
-0.43108
0.171943
0.419798
-0.529726
0.109928
-1.13068
1.83308
-0.979808
-1.26046
-1.67757
0.232613
-1.30434
0.0485991
1.02287
1.18178
0.13101
-1.06495
1.14569
-0.11503
-0.307764
0.0210604
0.653262
0.60386
0.180937
2.00688
-0.93532
-1.05187
-0.812127
1.864
1.1359
-0.0129334
-1.12297
0.127216
-0.0547949
-0.188393
0.171688
0.14152
1.33568
-1.4772
-1.28917
1.2256
0.063562
1.28917
-1.37089
0.209289
-0.260274
-0.812535
1.06669
0.0756135
0.259917
-0.155775
-1.66611
0.166204
1.54849
-0.750178
-0.338285
-0.0596569
0.135267
-0.426908
0.941667
0.252003
-0.08627
0.624988
-0.988416
0.172823
-0.232822
-0.57198
-0.0522388
0.697198
-2.06923
0.508986
-0.0694542
0.426618
-0.357164
-1.04003
-0.932549
0.0726306
0.61427
0.558279
-0.870639
0.0743239
-0.0922216
-0.317575
0.100291
-2.08646
1.04213
0.0360179
-0.0157875
-0.286712
0.088317
0.206176
-0.03118
-1.41661
0.69465
-1.47855
0.783895
0.0574424
0.241593
-0.299036
0.211909
-0.0901657
-1.02994
1.31957
0.622038
0.365021
1.33016
-1.17299
0.181204
0.0397129
1.6792
-1.96234
0.28314
-0.109695
-0.496446
-0.822455
-0.0592363
0.366248
-0.438893
0.302897
-0.412803
-1.17449
-0.0696272
-0.0396423
0.10927
-1.47786
0.198307
1.27955
0.332512
-0.400046
0.0845379
0.240087
-0.324624
1.1744
-1.20231
-0.328439
0.311957
0.616016
0.224508
-0.354302
0.326431
0.303178
-0.241818
0.1696
0.661999
-0.831599
-0.426047
-0.0600381
-0.932842
-1.01599
1.94883
-0.104662
-0.243487
0.420449
-1.00733
1.75813
0.370739
-0.232046
0.0470474
0.0464787
-0.00264459
2.05307
-1.00258
-1.23275
0.761873
-0.550071
-0.609303
1.77752
0.355687
-0.26361
-0.0900209
0.0826251
0.287494
-0.0996274
-0.281357
0.179264
-0.246967
-0.102295
-0.188152
1.07629
-0.314268
0.402585
0.305604
-0.0750647
0.035949
0.268571
0.012466
0.486812
-0.756521
0.20358
-0.23297
0.0293904
-0.339175
0.353377
0.176497
0.896351
-1.07285
-0.233121
0.104101
0.464293
-0.627902
1.64536
-1.07733
1.0116
0.904411
0.104267
0.557252
-1.07484
0.344946
-0.422911
-0.351687
1.13737
0.863547
-1.50886
1.50886
1.7273
-0.819454
1.0845
-0.00186664
1.50406
-1.50219
0.932023
1.01242
0.867919
-2.01176
0.16149
-1.15392
-1.33634
-0.223745
-1.41262
1.63637
-0.401538
-0.121806
0.0698541
0.985679
0.149777
-0.258035
-0.937035
1.60578
-0.668746
-0.173982
0.257226
-0.0252168
0.0306225
1.01149
2.51864
-1.00292
-1.51572
1.60419
-1.46718
1.12108
0.216227
0.0408985
0.0033474
0.0065083
1.55178
0.574026
1.09902
0.737481
0.0204495
0.191146
-0.211595
-0.338991
0.208646
0.175999
-0.187797
0.011798
0.156796
-0.21074
0.0539446
0.51872
-0.439176
0.329785
-0.471218
-0.305668
0.392415
0.0186553
-0.255679
0.0343953
-0.57707
0.531607
0.0454637
-0.0853301
0.0687212
0.0166089
1.9226
-1.56024
0.318885
-0.168448
-0.150437
-1.50157
-0.334844
0.261763
-0.996088
1.92811
0.254389
-0.32278
2.02385
-1.15594
0.241939
-0.308097
-0.152222
-0.374172
-1.35531
-0.0610736
1.61191
1.30811
-1.08639
-0.105805
0.136674
-0.0657288
-1.49449
-0.28799
0.279918
0.238502
-0.361153
-0.358386
0.284302
-0.075245
-1.34248
1.30737
-1.46871
1.48345
-1.16147
-0.465013
0.419297
0.652866
0.378768
-0.38958
-0.0534416
0.0577628
0.343293
-0.401056
-0.344933
1.40673
-0.974739
-1.00414
-1.97733
-0.0766683
0.0729836
0.00368467
-0.00163953
1.43452
-1.43288