/*--------------------------------*- C++ -*----------------------------------*\
| =========                 |                                                 |
| \\      /  F ield         | OpenFOAM: The Open Source CFD Toolbox           |
|  \\    /   O peration     | Version:  2306                                  |
|   \\  /    A nd           | Website:  www.openfoam.com                      |
|    \\/     M anipulation  |                                                 |
\*---------------------------------------------------------------------------*/
FoamFile
{
    version     2.0;
    format      ascii;
    arch        "LSB;label=32;scalar=64";
    class       volVectorField;
    location    "5";
    object      U;
}
// * * * * * * * * * * * * * * * * * * * * * * * * * * * * * * * * * * * * * //

dimensions      [0 1 -1 0 0 0 0];

internalField   nonuniform List<vector> 
5098
(
(2.59331 1.04147 0)
(2.13521 0.106646 -3.58281e-20)
(2.51932 0.0922167 -2.49019e-21)
(1.51739 -0.680443 8.23267e-19)
(2.07398 -0.701022 0)
(0.879013 -0.423882 0)
(2.39632 0.0252282 -6.18818e-21)
(2.45434 -0.249129 1.53238e-21)
(2.64063 0.0627217 -5.39522e-20)
(2.02841 -0.239715 1.40109e-19)
(0.24476 -0.985385 0)
(2.2388 -0.0166711 1.9227e-19)
(2.50035 -0.433675 -1.21848e-20)
(0.919374 -0.446782 0)
(2.06485 -0.282022 8.68737e-20)
(1.9683 0.0358818 3.47534e-22)
(0.269354 -0.431517 -3.118e-20)
(-0.513069 -0.852282 0)
(-0.342461 0.367551 4.83478e-19)
(0.180398 -0.334045 3.53308e-20)
(1.83616 0.565237 -7.91934e-20)
(1.90172 0.040903 1.21739e-21)
(2.08642 -0.808006 0)
(0.729159 0.0791955 3.0671e-20)
(-1.79944 0.755362 0)
(1.46625 -0.582815 0)
(1.97685 0.0333982 1.33432e-19)
(1.83845 -0.777319 2.23004e-19)
(-0.179235 0.579683 -1.45867e-18)
(1.67388 -0.735965 0)
(2.40506 -0.210014 -1.23748e-19)
(0.70324 -0.340854 0)
(2.09107 0.0697571 -1.4638e-19)
(0.823072 -0.775464 0)
(2.5411 0.281465 -4.82924e-20)
(3.34994 0.202651 1.53284e-18)
(1.86108 -0.450074 1.60284e-19)
(1.95959 0.0223285 -2.61668e-21)
(1.33113 -0.429786 5.94448e-19)
(1.37274 -0.638441 0)
(1.52409 -0.694275 -3.8853e-19)
(1.47339 -1.86019 -1.81489e-18)
(1.481 -0.588693 0)
(2.58058 -0.18446 6.03835e-20)
(2.46493 0.708106 3.83145e-20)
(2.05383 0.060254 7.03539e-21)
(0.0707642 -0.444087 2.27935e-20)
(1.06171 -0.355574 0)
(2.39455 -0.225538 0)
(1.52194 -0.645402 8.76848e-20)
(2.24665 0.125296 5.02308e-20)
(1.63764 0.44581 -4.86812e-19)
(-1.53282 1.00832 -5.49277e-21)
(2.09383 -0.0597848 1.89209e-19)
(0.942618 -0.470847 -3.64134e-19)
(1.55767 0.124658 0)
(1.81986 0.294371 -2.61226e-19)
(1.62224 -0.665736 0)
(0.832778 -0.40955 0)
(1.88967 0.0133592 -2.23539e-20)
(1.32033 -0.328079 5.44104e-20)
(-0.30358 0.000313286 -1.22439e-19)
(2.5575 0.328896 0)
(2.45457 -0.408816 0)
(-1.78019 1.25879 2.64947e-18)
(0.79368 -0.397938 4.51727e-19)
(2.14793 0.0212662 7.55643e-21)
(2.29311 0.117647 6.77485e-21)
(2.08938 -0.249245 1.95777e-19)
(1.66371 -0.698798 2.58857e-19)
(1.89671 0.231765 1.59482e-20)
(1.40494 -0.433606 -7.4603e-21)
(1.90909 -0.793932 0)
(1.15678 -0.547704 0)
(1.66964 -0.0431943 2.20661e-20)
(1.11006 -0.543405 -4.20146e-19)
(1.656 0.236511 0)
(1.53767 0.205358 4.5431e-19)
(2.5553 -0.231527 7.05699e-20)
(1.59583 0.186786 0)
(1.72513 -0.0202032 0)
(3.79937 -1.07294 1.02356e-18)
(1.71744 -0.279798 5.58585e-19)
(0.800134 -0.829229 -1.38403e-21)
(-0.557863 -0.902703 1.84943e-19)
(1.51444 -0.66852 2.72679e-19)
(0.0294362 0.326098 -2.74001e-19)
(1.67281 0.216554 1.65836e-21)
(2.60316 -0.243409 5.87463e-20)
(1.27727 -0.361401 7.47727e-20)
(2.28439 -0.27321 -8.76856e-21)
(0.287225 -0.14155 8.84495e-19)
(2.40243 -0.0919573 -2.33158e-19)
(1.53721 -0.665072 -4.38993e-19)
(1.31297 -0.45613 1.04873e-19)
(1.38529 -0.400069 -5.93378e-21)
(1.03484 -0.519592 -3.56649e-19)
(1.51353 0.291841 3.35512e-19)
(1.61709 -0.0235573 1.18987e-20)
(2.02001 -0.481213 -1.3533e-19)
(1.63528 -1.2417 -1.08976e-19)
(0.996227 -0.491258 -4.33164e-19)
(-0.0363354 -0.100711 3.57609e-20)
(2.29944 0.29958 -1.26646e-20)
(1.53254 0.199458 -5.164e-19)
(2.38206 1.16842 0)
(1.94625 0.274014 2.7695e-19)
(2.28343 0.0880006 2.87397e-21)
(0.997979 -0.399781 8.04496e-20)
(0.0805052 -0.839419 0)
(1.03868 -0.500014 -9.50326e-19)
(1.42009 0.651238 7.08287e-19)
(1.86804 0.01495 -2.76162e-19)
(-0.696339 1.02005 2.05252e-19)
(1.74973 0.65015 1.13036e-19)
(0.331339 -0.43086 0)
(3.73578 -1.33525 1.84361e-18)
(2.69543 1.45632 0)
(1.95346 0.252706 7.73969e-21)
(0.76047 0.021002 -4.72027e-19)
(1.70703 0.4316 3.99743e-19)
(1.64393 2.11783 -3.05949e-20)
(2.05019 -0.278183 -8.89075e-20)
(0.357605 -0.560682 -1.53734e-18)
(-0.171983 0.624846 -1.1355e-18)
(0.0384691 -0.102416 2.17765e-22)
(2.18567 -0.0845983 1.59622e-19)
(2.07104 -0.773949 -2.80087e-19)
(1.3613 -0.135788 -1.24228e-19)
(-0.656465 0.935346 -3.80535e-19)
(-1.48828 -0.28069 -1.10067e-18)
(1.08827 -0.480055 -5.9448e-19)
(1.11914 -0.479318 4.97945e-19)
(2.59478 1.50601 -1.32988e-19)
(1.41092 -1.01937 -2.3246e-19)
(2.69492 -0.703004 3.64645e-19)
(2.07817 2.63141 7.25702e-19)
(1.91488 0.286239 1.88149e-19)
(0.853185 -0.417385 0)
(2.08091 -0.0803355 -6.09204e-19)
(1.59732 0.558561 -3.22202e-19)
(1.24699 -0.2994 -7.741e-21)
(1.73644 -0.789688 4.3193e-19)
(2.48306 0.0465762 -1.33339e-20)
(2.07059 0.07701 -4.76593e-20)
(2.20573 0.260323 0)
(2.0959 -0.253643 2.01074e-19)
(1.91943 -0.737937 0)
(2.649 -0.0455659 3.67077e-19)
(1.62171 -0.744879 1.6721e-19)
(3.06562 -2.44612 -6.73149e-19)
(2.39034 0.46241 0)
(1.93746 -0.735277 8.90088e-20)
(2.04286 -0.0033745 0)
(0.0122271 0.208872 -3.48924e-19)
(0.786743 -0.297374 -1.96312e-19)
(1.62634 -0.657076 -4.62851e-19)
(1.57642 -1.2144 -6.97163e-20)
(1.46952 -0.687138 -3.17743e-19)
(-0.378932 0.356371 1.51442e-18)
(1.94425 -0.429283 -4.39693e-19)
(2.04983 -0.269999 -1.20272e-19)
(0.68563 0.282484 -5.01122e-19)
(1.80966 -0.152295 -3.46246e-19)
(-1.20578 -0.161692 -2.45033e-19)
(2.48223 -0.176776 -1.25306e-19)
(2.03222 -0.77279 -3.03819e-19)
(2.32789 -0.576555 0)
(-1.82167 0.588675 4.56317e-19)
(1.69367 -0.554049 -5.04358e-19)
(1.58233 -0.388645 4.30006e-21)
(1.53286 -0.621633 -2.98528e-19)
(2.21745 0.516309 1.05678e-19)
(1.83926 -0.750403 3.99125e-19)
(2.63048 -0.00895227 0)
(1.9848 0.00359476 0)
(1.72541 -0.270736 -2.17005e-19)
(3.46305 0.244268 -4.98862e-20)
(1.77133 -0.139011 4.76156e-19)
(0.225514 0.14286 0)
(1.80737 2.30538 0)
(3.88466 -1.52681 -1.18192e-18)
(1.75811 -0.546564 6.222e-19)
(-1.23278 -0.177747 0)
(1.83405 -0.160115 0)
(2.7685 0.724173 5.05959e-19)
(1.55469 0.313106 0)
(1.88673 -0.433187 5.52898e-19)
(0.976934 -0.47746 8.16758e-19)
(-1.32206 2.00784 -5.63661e-19)
(1.54332 0.779505 0)
(1.54587 -0.234567 1.18532e-19)
(1.9322 -0.810714 0)
(1.67103 -0.0591985 2.82792e-20)
(2.44165 -0.213378 1.36794e-20)
(0.159543 0.0286536 -9.40376e-19)
(4.16391 -0.497673 6.46177e-19)
(2.83547 -0.77203 0)
(1.99528 0.0249001 -6.86882e-21)
(1.71998 -0.536474 -9.1935e-20)
(-2.05477 0.431279 -2.02801e-18)
(1.70848 0.359691 6.08527e-21)
(2.4269 0.706908 4.24428e-21)
(2.23399 0.00430342 4.94151e-21)
(1.52822 -0.00289006 2.16961e-19)
(0.759439 -0.305762 -1.40474e-19)
(2.5896 0.0279169 -1.80584e-20)
(1.15508 -0.528619 0)
(2.30736 -0.0940614 0)
(1.25211 -0.608975 -4.54971e-19)
(1.93153 -0.159546 -1.76487e-19)
(1.7417 0.323653 3.24444e-19)
(1.65948 -0.247684 -1.18406e-19)
(2.11243 0.0574395 -1.62485e-19)
(2.09155 -0.061626 -2.17551e-19)
(0.432192 0.396572 -4.19054e-19)
(1.7145 -0.0901168 0)
(-0.0321665 -0.932425 -1.80978e-19)
(0.192222 0.077838 1.65394e-19)
(1.98942 -0.0103847 1.23736e-19)
(2.3125 -0.282203 -3.29152e-20)
(1.57314 -0.303054 0)
(2.15931 0.0406201 1.32744e-20)
(2.29427 -0.325787 1.69866e-19)
(-0.614618 0.615641 2.74148e-19)
(1.99683 -0.163699 0)
(0.355825 -0.0716959 0)
(1.9268 0.0362682 0)
(1.97732 -0.480189 0)
(1.6925 -0.677478 9.31076e-21)
(1.85805 0.456027 0)
(0.56915 -0.231231 -5.1212e-19)
(4.13241 -1.02893 -8.09399e-19)
(2.03391 0.0197751 -4.34182e-21)
(2.65921 -0.074457 -6.87528e-20)
(2.44324 -0.0356336 0)
(1.47693 1.58455 -1.51678e-19)
(-1.59953 1.11121 -3.08261e-18)
(3.10601 -0.289423 0)
(1.87285 0.030577 3.39562e-19)
(3.40229 -1.13397 -3.5441e-18)
(2.23365 0.569603 0)
(2.39652 0.0916447 0)
(1.00181 -0.214232 8.67538e-19)
(1.82987 0.509132 -4.12312e-19)
(2.32713 -0.111522 -2.12137e-19)
(1.03404 -0.490823 9.66752e-20)
(-0.0412872 -0.781148 -9.93479e-20)
(0.235838 -0.492146 0)
(2.37983 -0.119123 5.9461e-20)
(2.15006 0.806573 -6.39031e-20)
(1.84384 -0.774334 4.14834e-19)
(0.480055 -0.323776 6.96503e-19)
(-2.01195 0.8129 1.37338e-18)
(1.92364 0.0566703 -2.54328e-19)
(-1.6584 1.46133 2.87057e-18)
(1.46577 -0.909958 2.01175e-19)
(1.11789 -0.357695 -7.9813e-20)
(1.09033 -0.376334 -3.64645e-19)
(1.88051 0.0159207 2.93948e-21)
(2.71452 0.672676 7.81381e-20)
(-1.59734 1.18719 1.19975e-18)
(-1.95675 0.856036 8.10724e-19)
(1.85664 -0.803288 0)
(1.97125 0.00814729 -1.85305e-21)
(-0.588395 -0.0299266 6.90913e-20)
(-0.393282 0.280084 -1.75961e-18)
(0.231713 -1.07475 0)
(1.41046 -0.387731 0)
(1.81164 0.0243881 -3.13006e-20)
(-1.36449 1.89511 6.8562e-19)
(1.87189 0.105522 5.99628e-21)
(-0.123188 0.216374 -7.93722e-19)
(1.45192 -0.30353 0)
(1.09613 -0.435199 2.4271e-21)
(0.112428 -0.148016 4.99686e-20)
(1.39358 -2.3217 -1.52492e-18)
(3.07758 -2.17477 0)
(2.22186 -0.715513 0)
(1.96368 -0.115604 0)
(-1.6287 0.256871 -6.60602e-19)
(2.42201 -0.157353 1.57984e-19)
(-0.916666 0.879684 -1.14648e-18)
(2.45534 -0.133699 -1.75571e-19)
(1.93957 -0.526723 7.25982e-21)
(0.684985 -0.470453 0)
(1.95902 0.0354966 0)
(2.29128 0.309945 -3.88994e-20)
(2.46894 -0.157198 1.01049e-19)
(1.80879 -0.0418913 -2.92507e-19)
(0.347809 -0.495689 0)
(-0.557151 0.875802 6.08623e-19)
(1.03096 0.00677499 -2.53734e-19)
(2.44 0.545152 3.24944e-20)
(1.95852 -0.624913 4.30022e-19)
(1.00244 -0.136764 -6.43397e-20)
(2.49215 0.095071 0)
(2.43079 -0.192984 -1.08804e-19)
(2.00385 0.0253973 0)
(2.01616 0.0943402 -1.56871e-19)
(2.23062 0.293168 3.17594e-20)
(2.61624 0.029898 1.2124e-19)
(1.57532 -0.381713 5.79654e-19)
(1.86882 0.457101 2.2862e-19)
(-0.544618 0.0258492 -1.11349e-19)
(1.77095 -0.717511 -2.49821e-19)
(2.60889 1.92367 -1.60019e-19)
(2.03822 -0.00925284 0)
(1.80245 -0.435216 0)
(0.0582198 -0.485699 0)
(2.28325 -0.282258 4.25276e-20)
(0.236212 -0.267686 6.98166e-20)
(0.81062 -0.403482 4.79811e-19)
(1.8355 -0.0113889 -5.04724e-20)
(2.54251 -0.429515 -5.06608e-20)
(0.109422 0.120945 6.83453e-19)
(2.00239 2.42286 -7.5402e-20)
(2.22998 0.0561066 -1.3275e-20)
(2.23956 -0.155492 5.85867e-19)
(0.837089 -0.348975 0)
(2.69936 -0.238962 -8.3063e-20)
(-0.488421 0.682398 -1.39532e-18)
(2.96202 -0.140858 -5.43779e-19)
(0.533991 -0.196045 -3.69805e-22)
(1.6384 0.022825 8.88103e-21)
(1.31062 -0.399936 3.9916e-19)
(2.21141 0.860786 0)
(1.99058 0.117839 -9.52801e-20)
(1.00931 -0.406825 -8.50538e-19)
(1.92825 0.239516 -7.38254e-21)
(1.2479 -0.605867 0)
(2.26923 -0.150162 -1.70217e-19)
(0.997491 -0.479744 2.69024e-19)
(2.26285 -0.711691 -1.42762e-19)
(1.68952 -0.705165 -3.51161e-19)
(2.36594 0.0806905 -4.28594e-20)
(2.37155 -0.359397 9.45749e-21)
(0.933402 -0.462157 5.31804e-19)
(2.11742 -0.109277 2.42793e-19)
(1.81632 -0.385849 0)
(1.75815 -0.801564 -4.08762e-19)
(1.6431 -0.700062 -1.05906e-18)
(2.59543 -0.249882 2.74043e-20)
(1.95539 0.0821015 4.0668e-20)
(1.96672 1.22781 0)
(1.58459 0.0723321 0)
(2.02011 -0.026968 -1.94893e-19)
(0.565123 0.371934 3.51723e-19)
(2.73859 1.3831 0)
(2.29337 -0.0631673 1.6821e-19)
(1.49468 -0.665738 -4.17431e-21)
(0.873475 0.433282 -6.16543e-19)
(0.830778 -0.354709 -4.53757e-19)
(-1.9249 0.307075 7.1367e-19)
(1.8266 -0.0151459 2.79381e-20)
(-1.78695 0.0978392 2.08352e-18)
(2.64808 -0.70104 -3.21449e-19)
(2.19455 0.0346158 0)
(1.38739 -0.0969175 -1.06969e-19)
(1.51078 -0.427191 0)
(1.96445 0.104731 -4.63596e-19)
(1.97378 -0.433766 0)
(2.12101 -0.0287321 -1.66381e-19)
(1.72501 0.30309 1.92761e-21)
(2.80249 -0.157569 -4.67985e-20)
(1.07451 -0.412526 4.8111e-19)
(1.97727 0.0585653 -3.78752e-19)
(2.01164 0.318085 -4.05981e-19)
(1.94816 -0.839548 0)
(-1.13246 1.26382 0)
(1.14913 -0.450989 -4.75067e-19)
(2.74037 -0.173933 0)
(3.44599 0.458026 -8.76636e-19)
(1.28946 -0.0804785 0)
(1.55166 -0.453774 9.985e-21)
(-0.301014 -0.0455144 1.07641e-19)
(1.74027 -0.567835 7.39191e-19)
(0.5756 -0.242685 -3.30553e-20)
(2.31335 -0.544869 0)
(1.74952 0.299115 7.65736e-22)
(1.80254 -0.0014788 -2.45653e-19)
(0.0924765 -0.157989 -5.04958e-21)
(1.92809 0.056242 -2.14392e-19)
(2.55448 -0.0173276 -7.87408e-20)
(2.65505 0.0314988 -3.47451e-20)
(3.18173 0.930289 3.48454e-19)
(2.52293 0.386259 -6.14232e-20)
(-1.73401 1.18996 -6.40472e-19)
(1.67027 -0.490636 0)
(-0.0208342 -0.0957896 -4.6546e-20)
(1.97172 0.100961 -1.66455e-19)
(2.51189 -0.24795 0)
(1.98862 0.0695879 1.40805e-19)
(1.11023 -0.535869 -3.5717e-19)
(1.64696 1.34735 1.41352e-19)
(3.88928 0.213617 0)
(1.34776 -0.63873 1.28995e-19)
(1.45317 1.19909 0)
(2.17528 0.0440052 3.58344e-20)
(2.22246 -0.302715 -1.29906e-19)
(-0.423783 -0.0782423 1.13798e-18)
(0.988241 -0.0159165 0)
(1.60963 0.269011 2.30706e-19)
(2.02246 0.0393439 1.50156e-19)
(0.375321 -0.346352 0)
(1.72621 0.0129839 0)
(1.97648 -0.162654 0)
(-0.427104 0.183938 3.0469e-19)
(0.290873 -0.092891 -3.38047e-20)
(2.62058 -0.146939 0)
(2.04062 0.0398382 0)
(1.50754 -0.590327 6.79983e-20)
(-2.23452 1.6649 0)
(2.36447 0.422906 7.339e-21)
(2.88343 1.25365 1.93679e-19)
(2.03999 0.166879 7.77668e-21)
(1.8193 0.41217 -4.89476e-21)
(0.87711 0.524035 7.09345e-19)
(2.91966 1.41859 -2.05939e-19)
(2.35486 -0.251814 7.78031e-21)
(1.97789 -0.0787691 1.63532e-19)
(1.5747 -0.119236 -2.59549e-19)
(1.91488 -0.333315 2.81318e-21)
(1.99543 0.0258466 0)
(-1.76731 0.0353793 -1.98991e-18)
(0.108505 0.0958865 0)
(1.228 -0.542362 5.34703e-20)
(1.83003 -0.672932 0)
(2.25778 -0.19143 0)
(1.25245 -0.598852 -3.01037e-19)
(2.05711 0.0438599 -8.79085e-21)
(-0.287641 0.495096 -1.59515e-18)
(2.01783 -0.0031258 8.80684e-21)
(1.78141 -0.691444 4.02981e-19)
(3.03857 1.15105 2.22447e-19)
(0.569922 -0.160488 1.36549e-18)
(2.3427 0.10709 2.48148e-20)
(2.04435 -0.818358 1.63351e-19)
(1.94665 0.0368902 -2.60364e-19)
(3.08661 0.297459 0)
(1.79808 -0.0970891 -4.95138e-19)
(1.78742 -0.471617 4.11328e-19)
(2.02379 0.15686 -5.70951e-19)
(0.317507 -0.307893 -1.10087e-20)
(1.56676 1.36425 -1.38391e-19)
(2.84076 1.31472 2.96104e-19)
(3.11538 -0.546714 0)
(2.03233 -0.210906 0)
(0.646337 0.457462 -6.2538e-19)
(2.04878 -0.12688 1.02563e-19)
(0.151243 -0.552291 0)
(2.2802 -0.141581 -1.48031e-19)
(2.01918 -0.0194797 -3.11702e-19)
(0.417255 -0.468563 -7.70879e-21)
(0.289756 -0.780518 8.59368e-20)
(2.66417 -0.0386988 -7.51932e-21)
(1.03156 -1.88152 6.4166e-20)
(2.35618 -0.366387 -3.38971e-19)
(1.91025 -0.445793 2.89217e-19)
(3.34878 0.963082 7.95351e-19)
(1.49374 -0.608076 3.77764e-19)
(1.92941 0.194167 -8.15912e-22)
(0.973666 0.355409 5.18952e-19)
(2.11817 2.0943 0)
(1.67585 -0.456821 2.37155e-19)
(-0.282985 -0.847313 0)
(-1.16832 1.26184 -2.83765e-18)
(2.70373 -1.7916 0)
(-0.45637 0.0886024 -3.66338e-19)
(1.58561 -0.677807 -5.33815e-19)
(1.93676 0.741807 -3.37451e-19)
(2.01686 -0.831972 0)
(1.15277 -0.812511 0)
(3.00858 -0.347317 0)
(1.96308 0.107474 1.18738e-19)
(2.39969 0.882456 -1.80634e-18)
(0.111004 0.241187 1.27269e-18)
(1.55696 -0.288586 -8.13996e-21)
(3.47765 0.9766 -8.96754e-19)
(2.06043 0.295991 0)
(1.19195 2.13833 1.9844e-19)
(2.47866 1.38915 1.28425e-19)
(1.06934 1.28227 -2.92775e-19)
(1.50218 -0.702006 3.48692e-19)
(2.54901 -0.171134 4.60138e-21)
(1.1241 -0.546897 6.04404e-19)
(2.23456 0.405499 0)
(2.23644 -0.295073 1.23302e-19)
(1.13696 -0.322092 8.95941e-20)
(1.84875 -0.0327621 2.51446e-20)
(3.43333 0.619006 -4.71673e-19)
(1.84221 -0.674366 0)
(2.49737 0.763413 0)
(3.46451 0.166577 0)
(0.373008 -0.220361 0)
(1.93282 -0.00437678 0)
(1.38869 -0.508941 1.6109e-19)
(3.697 0.917998 6.33161e-19)
(1.41526 -0.578791 4.48004e-19)
(2.06606 0.0549865 2.55075e-19)
(-0.582368 -0.598065 0)
(2.01103 -0.842331 3.08787e-21)
(-0.448096 0.166866 0)
(-0.268229 -1.14456 -2.94015e-19)
(-0.530217 0.39323 6.63084e-19)
(4.04345 0.447994 -3.48101e-19)
(1.98486 0.12595 2.8882e-19)
(1.99983 0.243736 -9.10877e-20)
(4.1412 -0.110366 -5.33569e-19)
(2.45199 0.0187255 0)
(-0.110481 0.560049 1.0798e-18)
(1.97222 0.0391989 0)
(1.52299 0.923116 1.71995e-20)
(2.48209 -0.162389 0)
(2.12023 0.249345 -1.12893e-19)
(2.05129 -0.0999748 0)
(0.869094 -0.32316 -3.20353e-19)
(-2.54928 1.37788 2.18749e-18)
(2.26625 -0.177425 -1.21667e-19)
(1.36325 0.424987 4.63937e-19)
(-0.695944 0.28061 -6.39241e-19)
(2.04363 -0.676246 0)
(0.97124 -0.178652 -1.22764e-18)
(1.86266 0.237984 1.66153e-21)
(3.59135 0.653411 -1.20094e-18)
(1.88841 0.00539971 5.36847e-21)
(3.99647 -0.986613 2.01069e-18)
(3.21527 0.738703 0)
(1.72394 -0.774376 -8.72791e-20)
(1.41172 -0.644707 0)
(2.52882 -0.223163 1.46509e-20)
(0.409713 -0.0969684 7.80311e-20)
(-1.11522 -0.632977 0)
(2.39818 0.422702 0)
(1.45525 -1.13728 -1.48459e-19)
(2.45891 0.762845 0)
(1.75669 1.91358 3.94531e-20)
(3.00858 0.94462 -3.48401e-19)
(-0.196494 0.366494 -8.86863e-19)
(0.345411 -0.602293 -2.2736e-20)
(1.99316 0.0258532 -8.92961e-21)
(0.802731 -0.468664 1.05744e-20)
(-2.29141 1.29452 -1.39638e-18)
(1.85927 0.0307465 5.22451e-19)
(0.341041 -0.389949 8.76462e-21)
(-0.357577 0.0643042 0)
(2.48098 0.0931672 -1.05851e-19)
(1.38795 -1.16583 1.56992e-19)
(0.328424 0.296705 8.39073e-20)
(3.46539 0.698516 9.25077e-19)
(2.85066 1.69809 0)
(1.78276 -0.502207 -4.1316e-19)
(1.17282 0.166635 -8.74389e-21)
(2.712 0.725769 -9.88004e-20)
(2.61517 -0.0865901 -3.61261e-19)
(0.475284 -0.969977 2.74721e-20)
(-1.39301 -0.354914 1.45863e-18)
(1.43577 -0.567917 -1.08036e-19)
(0.137585 -0.648256 1.37096e-20)
(2.57409 -0.223112 -3.33879e-19)
(0.294991 -0.907161 -3.07998e-20)
(1.93877 -0.60808 0)
(1.88817 -0.126899 -4.8208e-19)
(-0.727826 0.242578 0)
(0.882802 -0.61962 1.97468e-20)
(-0.571925 -0.339674 2.29149e-19)
(0.183776 -0.153927 1.01017e-18)
(1.93001 0.266861 -1.70454e-21)
(-1.65811 0.637987 7.80854e-20)
(-0.163891 -0.316996 0)
(2.14586 -0.792222 4.43333e-19)
(2.11739 -0.836476 1.17785e-19)
(-0.51101 -0.128628 -8.58229e-19)
(1.75333 0.536791 0)
(1.68208 0.5005 0)
(0.141648 0.42368 0)
(1.45684 -0.650009 -3.46489e-20)
(1.93081 -0.0381659 -4.63283e-19)
(1.33184 0.210525 0)
(1.75187 -1.39394 0)
(2.28747 0.175681 -7.87378e-21)
(2.61733 -2.3601 -5.57861e-20)
(2.12492 0.307138 -3.34631e-19)
(1.57592 -0.369687 2.10396e-20)
(1.74186 0.0352217 4.0938e-20)
(1.93059 0.00506227 -3.74444e-20)
(1.83572 0.301684 -4.25073e-21)
(1.94988 0.545428 -2.67132e-20)
(1.89684 1.29407 0)
(-2.15718 1.23824 5.18436e-21)
(-0.495532 1.11092 0)
(0.996734 0.213794 0)
(2.88955 0.248169 -5.20382e-19)
(-0.863442 -0.6979 0)
(2.49874 0.367015 0)
(1.89414 -0.0895496 7.41425e-19)
(1.82854 -0.807607 0)
(2.02997 0.300492 4.14852e-19)
(3.33588 0.685993 4.68648e-19)
(3.33276 0.578497 1.64445e-19)
(1.93246 0.226154 8.75317e-22)
(1.07557 1.47958 2.56989e-19)
(2.16137 -0.831488 5.47595e-21)
(1.91208 -0.765416 -1.08057e-20)
(1.1277 -0.43166 4.63891e-19)
(0.71824 -0.510749 0)
(0.912731 -0.449758 0)
(-1.54556 0.264709 -9.61352e-19)
(-2.40114 1.27595 -2.98562e-18)
(1.10806 -0.749951 0)
(0.624286 -0.479207 -8.48381e-21)
(-1.6746 1.0975 0)
(0.209889 0.130973 1.16369e-18)
(1.08163 -0.499091 -6.02212e-19)
(3.35387 0.468312 -2.1779e-20)
(3.24281 0.668195 3.72021e-19)
(1.18691 -0.396852 9.39618e-20)
(2.56365 -0.160979 1.69391e-19)
(2.27238 1.01866 0)
(2.39186 0.944142 0)
(1.04253 0.0674301 0)
(0.167474 -0.482418 -6.43854e-19)
(1.38468 -0.513915 0)
(2.26335 0.71607 0)
(1.86621 0.0375044 0)
(2.43335 -0.37039 -7.28812e-20)
(-0.748725 1.19831 3.78001e-19)
(1.99118 -0.766563 -2.29336e-19)
(1.44207 -0.649929 1.03917e-19)
(1.29543 -0.169056 0)
(-1.30101 -0.803689 0)
(1.96159 -0.590427 -3.92283e-19)
(1.5711 0.569773 6.87606e-19)
(-2.00182 0.702358 -7.25876e-19)
(2.36081 0.358715 -3.19318e-21)
(1.70461 -0.439422 4.349e-19)
(0.962182 0.543341 -1.11197e-18)
(-2.41293 1.40217 0)
(1.18631 1.43685 -5.91496e-19)
(0.322807 0.47944 -6.90261e-19)
(3.3634 0.489035 0)
(2.23979 -0.0690023 0)
(1.7218 -0.0968741 0)
(2.0194 0.0325567 -4.53794e-19)
(1.45033 0.321759 -4.7627e-19)
(1.62094 0.154213 0)
(2.95824 1.40536 1.63685e-18)
(1.75943 -0.785873 4.08564e-19)
(2.44357 -0.363636 8.475e-20)
(-0.901414 0.0545203 2.19749e-19)
(2.02033 -0.265535 0)
(2.36546 0.044098 5.87863e-20)
(1.75215 -0.409552 0)
(1.3206 -1.27796 -1.57581e-19)
(1.69992 -0.769914 0)
(2.09301 -0.756716 5.17082e-19)
(1.42378 -0.306899 -3.57657e-22)
(2.06574 0.166954 -9.0989e-21)
(2.46942 -0.377164 0)
(1.78569 -0.761746 0)
(1.56328 -0.665723 -5.56213e-19)
(2.31647 0.362755 -8.10666e-21)
(0.0263606 -1.21232 1.20956e-19)
(0.831052 -0.398355 4.70348e-19)
(1.88892 -0.0500902 0)
(1.57126 0.225599 -7.20608e-19)
(2.31683 -0.0135677 -4.13896e-20)
(1.44251 -0.724592 -4.8633e-20)
(2.05678 0.213268 -1.3021e-20)
(2.08223 0.249039 0)
(1.15518 -0.327887 6.59988e-19)
(0.937557 0.275825 -7.1614e-19)
(3.69446 0.68155 1.0246e-20)
(1.7707 0.256354 -8.12966e-19)
(-0.710307 -0.0647222 1.60972e-19)
(-0.918673 -0.0845498 -1.79353e-18)
(1.51634 -0.309522 -7.43526e-20)
(2.06161 -0.0621789 -4.30139e-20)
(1.21863 0.382721 1.40138e-18)
(-0.426364 0.415847 6.86209e-21)
(-0.820467 -0.232186 3.16491e-19)
(-0.286707 -0.976482 3.03761e-19)
(1.76371 -0.00188501 4.51864e-20)
(2.37362 -0.221763 0)
(2.44486 0.506774 1.92105e-18)
(1.12606 -0.548257 2.74012e-19)
(1.6639 -0.196785 2.5792e-19)
(-0.331291 0.352966 0)
(1.60555 -0.342131 -6.93112e-20)
(1.9596 0.025236 8.00534e-22)
(2.08499 0.059402 0)
(-2.26933 1.71815 9.99851e-19)
(0.843792 -1.81619 6.75942e-20)
(1.18655 -0.011312 0)
(1.00631 -0.373851 0)
(1.5296 -0.651033 -6.57839e-20)
(1.4249 -0.851015 -1.97763e-20)
(2.84462 0.226674 1.87127e-19)
(-0.046623 -0.389097 0)
(1.97159 0.0376732 -4.16328e-19)
(2.17421 -0.751165 -9.80852e-20)
(2.15776 -0.732699 3.08086e-20)
(1.18067 -0.45186 5.84213e-19)
(-0.91443 -0.432134 -3.57862e-19)
(-0.513369 -1.10188 2.82118e-19)
(3.65482 0.649038 -8.874e-21)
(2.55325 -2.1534 0)
(2.30373 0.938561 -1.31077e-18)
(1.56016 -0.61611 2.77837e-19)
(2.09006 2.14216 1.99698e-19)
(0.780918 0.700577 0)
(1.1154 -0.193718 -5.81509e-19)
(1.17854 -0.493979 -7.09316e-19)
(-1.42008 0.0037889 6.04278e-19)
(-0.475589 0.919992 -1.18413e-18)
(2.33732 1.54902 0)
(-0.197571 0.0642627 -8.07255e-19)
(2.27025 0.542918 0)
(-0.616302 1.4336 -8.23013e-19)
(-0.392582 -0.398445 1.42393e-18)
(-1.0377 1.68531 0)
(-1.14954 -0.423702 1.91458e-19)
(1.57076 -0.0593866 -1.05902e-19)
(-0.326203 0.473705 4.96368e-19)
(1.65679 -0.651097 5.06907e-19)
(-1.74789 0.476389 -1.78324e-18)
(1.14885 -0.520945 0)
(2.03499 0.0353557 1.46396e-19)
(0.54641 -0.0127809 0)
(2.24454 0.177219 -3.00235e-21)
(-0.331761 -0.568902 -1.4065e-18)
(0.526895 -0.194857 3.05257e-19)
(2.09659 0.283588 0)
(1.86968 -0.746926 -3.90757e-19)
(2.96083 -0.170601 1.51374e-19)
(-0.848317 -0.877107 8.22728e-19)
(1.00813 -1.72372 0)
(-0.842687 -0.849446 -7.31384e-19)
(3.53199 0.552874 -9.74959e-19)
(1.60578 0.21571 9.22529e-19)
(1.96498 -0.506554 0)
(2.38428 -0.210628 3.08478e-19)
(-0.93267 -0.0714298 1.01644e-18)
(-1.24714 1.47313 -1.93586e-19)
(2.17671 -0.577906 1.58548e-19)
(-0.49401 -0.189547 0)
(1.78951 -0.327432 -3.99304e-20)
(1.97543 0.144308 4.13785e-22)
(2.52447 -0.364291 1.35317e-19)
(2.27452 0.0147172 0)
(-1.01282 -0.888299 6.52158e-19)
(1.64136 -0.423741 -6.38303e-22)
(1.25053 -0.359627 7.25827e-20)
(2.00272 0.493626 0)
(2.01856 -0.783765 -1.82401e-19)
(-1.54045 0.146684 1.20159e-18)
(1.71959 -0.392118 -5.43646e-19)
(-0.133527 0.291695 0)
(1.4915 -0.301413 -4.28778e-20)
(2.04242 -0.761766 1.48077e-19)
(-0.937581 -0.0807041 -3.62219e-19)
(0.998977 -0.045361 0)
(0.142174 0.00205264 1.74077e-18)
(1.53323 -0.687261 0)
(-1.83433 0.0812505 1.55166e-18)
(1.48138 -1.02046 0)
(1.87054 -0.0865256 -2.73283e-19)
(2.131 -0.236105 -2.84341e-19)
(2.93132 1.33053 -8.20256e-19)
(1.53066 -0.547463 0)
(1.969 -0.843797 -2.85101e-19)
(1.98082 0.0220255 0)
(2.38542 0.39704 0)
(2.05049 -0.847724 9.53146e-20)
(-1.37538 -0.562786 6.9944e-19)
(0.521829 -0.0116106 1.91562e-19)
(2.11204 -0.570866 -9.36938e-20)
(1.71553 0.326779 2.99358e-19)
(0.882397 -0.525609 2.51849e-20)
(2.0444 0.235237 1.5628e-19)
(-2.35676 1.52001 -2.38117e-19)
(2.22734 -2.13323 0)
(2.4472 0.198764 0)
(-2.51285 1.3035 0)
(0.69022 -1.02937 8.41483e-20)
(1.14939 -0.394936 -4.09853e-19)
(1.50044 0.14862 0)
(-0.0765391 -0.178972 1.48891e-19)
(2.29523 -0.160828 -1.992e-19)
(-0.394905 -0.151596 -1.05618e-19)
(1.37417 -0.483799 -1.34162e-19)
(2.13746 -0.852851 0)
(-0.436173 0.589848 1.50823e-18)
(-2.00985 1.50838 -2.17855e-18)
(-0.826861 1.83729 0)
(-0.679548 -0.223597 -1.00252e-18)
(1.91889 0.0525704 -3.21484e-21)
(2.70707 -0.143385 7.69855e-20)
(1.92811 0.0722886 2.7461e-19)
(2.83207 1.09217 -3.77424e-19)
(2.42471 0.198402 8.72437e-21)
(-0.880217 0.606272 0)
(1.92433 -0.756939 0)
(0.0266722 -0.14125 1.04214e-19)
(-0.354189 1.11353 0)
(1.6036 -0.306921 -7.00671e-20)
(2.1325 -0.763492 -2.79872e-19)
(0.953894 -0.447077 4.93233e-19)
(2.15174 -0.119924 -1.11084e-19)
(1.75881 0.350166 -2.97793e-19)
(1.52029 -0.601215 -2.729e-19)
(1.60731 -0.63535 -5.08097e-19)
(1.42376 -0.76529 0)
(1.71059 -0.661237 4.84941e-19)
(1.94563 -0.0243611 0)
(2.52062 -0.394828 -6.13738e-21)
(2.0249 1.3708 1.03673e-20)
(1.2645 -0.262899 5.1209e-20)
(2.22932 -0.393323 -2.48684e-19)
(0.114723 0.252385 -9.71679e-19)
(-2.29757 1.42638 0)
(1.42596 -1.70542 -8.05812e-20)
(0.219379 -1.72605 -1.34519e-18)
(2.09086 0.501629 -1.69218e-19)
(1.81698 -0.728247 4.54317e-19)
(2.09328 0.029038 -4.58209e-21)
(-0.493933 0.907221 3.96368e-19)
(1.77233 -0.748078 -1.20467e-19)
(0.285255 0.177309 0)
(-0.324662 -0.254831 2.82085e-19)
(1.76851 -0.359947 2.86838e-19)
(2.00138 0.014969 -9.71184e-23)
(1.14729 -0.497568 1.04058e-18)
(-0.0821639 -0.00468872 -1.07991e-20)
(1.71038 0.628373 0)
(0.64841 -0.909628 -2.54757e-20)
(-1.01429 -1.04323 -7.45826e-20)
(1.06217 -0.318087 -7.82219e-19)
(0.864709 -0.937957 2.25619e-20)
(2.77668 0.873743 -3.72564e-19)
(2.11567 0.409688 5.5999e-21)
(0.924621 -0.372045 3.53675e-19)
(1.8003 -0.370488 0)
(2.56398 0.135683 -1.64611e-19)
(2.33568 -0.0344743 -5.34143e-21)
(3.15412 0.84559 -3.76051e-19)
(-0.0281857 0.395982 0)
(3.464 0.920268 3.6877e-20)
(-0.411155 1.41667 7.88441e-19)
(1.59731 -0.689765 1.07915e-18)
(0.0435288 -0.491381 1.03458e-20)
(1.62729 1.1462 -8.66e-19)
(-0.674629 0.834896 3.07227e-18)
(1.9775 -0.747999 4.63456e-19)
(2.12622 0.0213344 -3.90641e-21)
(0.621643 -0.291284 -8.48158e-21)
(2.6569 -0.00199923 4.05105e-20)
(-0.393556 -0.0302763 0)
(2.00294 0.0341559 0)
(2.33612 0.501845 0)
(1.76095 -0.674895 -4.23213e-19)
(1.53578 -1.08691 1.56955e-19)
(-0.443322 -0.225298 0)
(1.21132 -0.358507 -1.69757e-19)
(-1.01466 1.39281 0)
(3.79078 -0.228072 0)
(-0.832631 0.0336805 0)
(2.07417 0.00263161 0)
(0.0569655 0.0810398 -5.43674e-19)
(-2.26184 1.66691 0)
(3.67681 -1.52941 1.02292e-18)
(1.48511 0.0200611 0)
(1.9497 0.142619 0)
(1.96254 0.207402 2.7742e-21)
(-2.46754 1.44286 0)
(2.23967 -1.56551 0)
(-0.0858248 -0.465611 0)
(2.39979 0.0728292 2.21907e-20)
(2.61625 0.367738 0)
(2.1386 -0.83605 -1.26948e-20)
(1.52688 -0.376015 3.04133e-21)
(-0.893505 0.727592 -5.61882e-19)
(1.99405 0.0578995 6.58949e-19)
(-0.157525 -0.0402468 4.70044e-21)
(1.05948 0.997355 -5.85935e-19)
(1.46973 0.747436 0)
(2.39276 -0.360108 9.29758e-21)
(1.63046 -0.129834 -2.51824e-19)
(1.57282 1.7963 1.37557e-19)
(1.86248 0.40355 4.1788e-19)
(0.75029 -0.257615 -7.41821e-19)
(1.49622 -0.651349 -4.21963e-19)
(3.1346 -2.00782 1.78523e-19)
(1.22179 -1.94014 0)
(2.29568 -0.509489 2.56906e-20)
(1.57258 -1.93767 9.49963e-20)
(2.62114 0.28333 -8.68471e-20)
(-1.92845 0.650283 0)
(1.81473 0.0323455 -3.0783e-19)
(3.06049 0.752901 -1.11962e-18)
(1.3352 -0.525497 5.41093e-19)
(1.20627 -0.541719 -6.51944e-19)
(1.64004 -0.756141 0)
(1.74956 -0.767622 0)
(3.2701 -1.85171 8.8155e-19)
(2.27819 -0.388226 -1.5937e-19)
(3.33701 0.324414 -6.2586e-19)
(1.81332 -0.0158649 2.5699e-20)
(1.18768 -0.322203 -1.57474e-19)
(1.69994 -0.505229 4.61582e-19)
(2.47207 0.249714 0)
(2.40906 0.274965 2.42876e-20)
(-1.7835 1.71652 -2.60133e-18)
(2.10184 -2.05227 6.9538e-19)
(1.00568 -0.206634 1.06674e-20)
(-0.379275 -0.539966 8.28054e-19)
(3.33708 0.377184 5.22629e-19)
(2.54313 0.699793 7.5435e-20)
(2.38194 0.593258 0)
(0.246079 -1.21739 0)
(2.20145 -0.838809 -3.75171e-21)
(1.12511 -0.222755 0)
(1.85919 -0.397859 1.92575e-19)
(1.68603 0.258173 5.19997e-19)
(1.67852 0.46628 -1.5132e-19)
(1.5759 -0.638946 1.10103e-18)
(1.99573 0.15401 -2.1566e-22)
(1.61013 -0.0170089 0)
(1.85165 0.00853196 -6.38494e-21)
(-0.798116 -0.00798426 -8.7969e-19)
(2.14279 0.249829 0)
(2.60679 -0.378321 0)
(1.89874 -0.765356 1.6905e-19)
(1.89341 0.552319 2.25031e-19)
(1.04911 -0.124408 0)
(2.64345 -0.983892 1.77968e-20)
(2.63654 -0.0078623 1.72687e-19)
(2.33407 0.29997 2.40499e-20)
(1.78075 0.479076 4.46791e-19)
(0.339473 -0.709153 -4.65036e-20)
(1.54569 -0.459689 0)
(0.34686 0.0307883 -2.43362e-18)
(0.497522 -0.212102 1.107e-18)
(1.96181 -0.0137056 1.7125e-20)
(-0.140781 0.776262 -9.89288e-19)
(1.78886 -0.738643 3.20776e-20)
(2.61785 0.331365 2.33232e-19)
(2.26436 -2.17416 0)
(1.98262 0.183884 2.53927e-21)
(1.80867 0.0617892 9.59402e-20)
(2.16443 -0.0327093 -1.71322e-19)
(2.15588 0.425394 -1.17123e-19)
(2.18601 -0.795999 0)
(0.406928 -0.558142 0)
(2.46834 0.0105402 0)
(2.27937 0.413631 -5.67394e-20)
(1.02498 -0.477501 7.74433e-19)
(2.44863 1.83743 -1.08783e-19)
(1.4677 -0.073487 0)
(-2.42555 1.15647 -4.6135e-19)
(0.504007 -1.09817 6.95719e-20)
(-1.88039 0.915009 0)
(1.90412 0.27203 -1.35368e-19)
(1.62688 0.252185 -1.73857e-19)
(2.87073 -0.360684 -8.98256e-20)
(2.0446 0.188065 -8.62253e-21)
(0.649745 -0.217318 0)
(2.16386 0.187828 -1.5612e-19)
(2.01495 -0.424512 0)
(2.0469 -0.265958 9.20033e-21)
(0.962863 0.124428 0)
(2.19344 0.878599 7.13797e-20)
(1.67758 -0.670667 -4.95538e-19)
(2.36847 0.854104 0)
(1.82134 -0.0759222 -4.75388e-19)
(2.05794 0.228606 1.23854e-20)
(1.74055 -0.363036 0)
(1.11414 -0.525133 0)
(0.475778 0.269529 -9.31329e-20)
(2.48832 -0.223966 -1.4088e-20)
(1.26001 -1.58058 -8.64556e-20)
(0.522354 -0.3519 -3.90968e-20)
(2.61267 -0.176264 -9.33651e-22)
(1.746 0.0193024 7.14163e-19)
(1.78887 0.396951 -1.92708e-21)
(2.05199 0.546965 0)
(3.41844 0.823781 5.12861e-19)
(1.68929 -0.768914 0)