/*--------------------------------*- C++ -*----------------------------------*\
| =========                 |                                                 |
| \\      /  F ield         | OpenFOAM: The Open Source CFD Toolbox           |
|  \\    /   O peration     | Version:  2306                                  |
|   \\  /    A nd           | Website:  www.openfoam.com                      |
|    \\/     M anipulation  |                                                 |
\*---------------------------------------------------------------------------*/
FoamFile
{
    version     2.0;
    format      ascii;
    arch        "LSB;label=32;scalar=64";
    class       surfaceScalarField;
    location    "1.8";
    object      phi;
}
// * * * * * * * * * * * * * * * * * * * * * * * * * * * * * * * * * * * * * //

dimensions      [0 3 -1 0 0 0 0];

oriented        oriented;

internalField   nonuniform List<scalar> 
7520
(
-0.979139
0.692593
0.286545
-1.40483
-0.131005
1.53583
-0.0508551
-1.62916
1.68002
0.256387
-0.0343621
-0.222025
-0.175297
1.40237
-1.22708
-0.101524
0.109221
-0.00769692
-0.248601
2.07407
-1.82547
-0.0204961
-1.55732
1.57781
-1.24754
1.19668
0.983484
0.155673
-1.13916
-0.228862
-0.119887
0.348749
-0.14216
-1.83581
1.97797
0.743946
-0.0720922
-0.671854
-0.113445
0.156138
-0.0426926
-1.76343
0.979877
0.783551
0.174284
1.58804
-1.76232
-0.176618
-0.0421338
0.218752
-0.0316964
0.305416
-0.273719
0.0645652
0.0491827
-0.113748
0.0728258
-0.249444
-0.492815
-0.213088
0.705903
-1.0617
1.23599
-0.0348312
-0.335854
0.370685
0.182168
-0.168275
-0.0138931
-0.0271132
0.0945904
-0.0674772
0.276301
-0.272359
-0.00394163
0.837451
1.14036
-1.97781
-0.0385112
0.340701
-0.30219
0.026104
0.0384611
0.228986
-0.0365172
-0.192469
-1.06277
1.77362
-0.710854
-0.0553827
-0.0212391
0.0766217
-1.74115
1.95517
-0.214023
-0.337063
0.402541
-0.0654784
-0.124141
-1.25748
1.38162
-0.666552
0.865656
-0.199104
0.299155
-0.589198
0.290043
0.886246
-1.59421
0.707969
0.0938399
-0.350589
0.256749
-0.0516154
-0.117465
0.16908
-0.0307787
0.287166
0.538099
-0.0306582
-0.507441
0.315792
-0.0394908
1.8778
-1.15965
-0.71815
-0.403752
-0.716845
1.1206
-1.52526
1.67562
-0.150357
0.0327295
0.132928
-0.165658
0.306128
-0.09505
-0.211078
-1.35901
0.296246
0.298652
-0.0808915
-0.21776
1.75318
0.170657
-1.92384
-0.708568
0.218712
0.489856
-0.0769763
0.0788214
-0.00184514
0.998617
0.486105
-1.48472
0.016228
-0.117752
-0.783003
0.0830684
0.699935
0.344899
-1.23678
0.891886
-0.0446789
-0.134101
0.17878
-0.13644
0.0810571
-2.31647
1.09885
1.21762
1.75216
-1.17276
-0.579397
-0.0202389
-0.0530715
0.0733104
-1.1016
0.977456
0.922083
-0.178137
0.0087532
-0.0857295
0.00444571
-0.117891
1.09179
-2.1318
1.04001
0.215408
1.53777
-1.27494
1.0101
0.264839
0.34081
-0.257333
-0.0834764
-0.522948
0.867847
0.704883
-0.960228
0.255344
0.365218
-0.100728
-0.26449
0.332318
-0.50017
0.167852
0.839959
-1.66376
0.823801
0.144523
-0.126357
-0.0181661
2.34458
-0.902207
-1.44237
0.465525
-0.800655
0.335131
1.58265
-1.37215
-0.210503
-0.881269
0.0982653
-1.51524
-0.801227
0.691302
0.0705826
-0.761885
0.26872
-0.669181
0.400461
-0.0125144
-0.324548
0.318748
-0.350444
0.248862
-0.0198761
0.03002
-0.0435301
0.0135101
1.27717
1.06741
-1.53268
1.75512
-0.222445
1.16848
0.583679
-1.0206
1.14632
-0.125713
-0.0575581
0.133894
-0.0763358
1.39718
-1.53934
0.26429
0.216845
-0.123005
0.951559
-0.424407
-0.527152
0.00785195
0.0964141
-0.104266
-0.569908
0.368512
0.201396
1.56458
-0.724617
-0.767047
0.663293
0.103754
0.830003
-0.790763
-0.0392401
-0.0994621
0.125293
-0.0258307
0.0748044
-0.123238
0.0484331
2.13019
-1.35677
-0.77342
0.548593
-0.501949
-0.47719
-1.36661
0.843665
-1.82641
1.57781
0.19471
-0.0885382
-0.106172
-0.319359
0.0904968
-0.179914
0.178562
0.00135275
-0.382076
0.455474
-0.073398
1.90705
-1.0208
-0.0151033
0.0464024
-0.0312991
-0.801407
0.308592
0.08905
0.137534
-0.226584
0.00663098
0.684671
-0.745262
0.377252
0.36801
1.17669
-2.05469
0.877999
0.0628007
0.119367
-0.15636
-0.552208
-0.31748
0.0275694
0.289911
1.53612
-0.552639
-0.150433
0.422679
-0.272246
0.144971
-0.0338277
-0.111143
0.118542
-0.113457
-0.00508425
0.676443
-1.78079
1.10434
0.411442
-0.446273
-0.349726
-0.0875094
0.437236
-0.0889109
0.0738076
0.108997
0.275961
-0.384958
0.167145
0.0353828
-0.202527
-0.0700974
0.237242
-0.630758
-0.114504
0.240468
-0.66632
0.425852
-0.683744
1.37291
-0.689167
0.337204
-0.38002
0.0428166
-1.15034
-0.216272
-0.0379994
-0.0567471
0.0947465
1.40232
-0.403702
-0.633349
0.462173
0.171175
-0.00458107
0.148733
-0.144152
0.318713
-0.0833291
-0.235384
0.214945
-1.84411
0.300138
-1.8254
-2.08196
0.896288
1.18567
-0.87844
-0.396503
-1.22015
0.80558
0.414571
1.613
0.218673
-1.83167
0.203224
-0.25484
0.193634
0.499765
-0.693398
-0.43427
-0.717113
1.15138
-0.134688
-1.08546
-1.75392
0.0127706
0.0221735
0.00784649
0.0752178
-0.148706
0.0734884
0.309156
-0.353835
0.670123
0.15988
-0.172308
0.141529
0.0159114
-0.0195355
0.00362415
0.801312
-0.459909
-0.341403
-0.560947
-1.20248
0.23926
-0.67353
0.0768246
-0.619315
0.542491
-0.175813
-0.0936949
0.269508
-1.55647
0.79073
0.765744
0.409362
-0.584659
-0.0682858
0.486355
-0.418069
0.14309
-0.170203
0.551453
-0.253175
-0.298277
0.989445
-0.0378855
0.259343
-0.340235
0.970721
0.185616
-1.15634
0.32062
-0.359131
-0.33617
-1.35287
1.68904
1.27698
0.667465
0.727329
-0.458609
-1.08002
0.413472
-0.68807
0.944314
-0.256244
-0.0133549
-0.0272931
0.0406479
0.27094
-0.331017
0.0600771
-0.825853
0.832484
-0.295806
-0.154419
0.450225
-0.24273
0.0669173
-0.841644
0.918469
0.391522
-0.974715
0.583194
-0.497971
-0.0719367
0.722881
-0.423726
0.156754
-0.012231
0.354729
-0.182323
-0.172406
-0.00446777
-0.377608
-0.530411
-0.250878
0.781289
0.140769
0.224449
-0.785118
-0.878642
-0.863128
-0.693345
-0.0641057
-0.030615
0.0947207
0.99309
-0.516839
-0.476251
-0.879812
0.196068
-1.16059
2.10057
-0.939983
0.38539
0.166063
0.303597
-0.261502
-0.0420956
-0.736804
0.580445
0.648992
-1.05274
1.77285
-0.0676972
-1.70515
-1.60844
2.18875
-0.580311
-0.0302823
0.1055
0.446008
1.19417
-1.64018
0.0375603
-0.188524
0.150963
-0.125322
1.82558
-1.70026
0.00123302
0.126796
-0.128029
-0.903506
1.27224
-0.368733
-0.0593502
-0.677454
0.0633615
-0.593773
0.270797
-0.227558
-1.63765
1.86521
-0.159881
0.209064
-1.74672
0.9616
0.339269
-0.0242138
-0.315055
-0.0470367
0.192007
0.181049
1.53497
-1.71602
-0.554938
-0.601694
1.15663
-0.533459
0.438067
0.0953915
2.27914
-1.46548
-0.813663
0.497745
-1.05268
0.0167811
-0.031467
0.0146859
0.135107
0.731281
-0.866389
0.0668938
-0.0694468
0.00255302
0.840938
0.776977
-1.61792
-0.240722
-0.526326
-0.0692181
0.195542
-0.126324
-0.937451
0.669376
0.268075
-0.0946058
0.0487309
0.0458749
0.818363
0.174727
1.09883
-2.00669
0.907865
-2.49865
1.13637
1.36228
-1.04927
-1.44938
-0.381683
0.437754
-0.0560704
-0.331407
0.325792
0.00561501
0.439648
-1.16768
0.728028
-0.00387569
1.11532
-1.11144
-0.510482
0.581064
1.08651
-0.115787
0.977695
0.989266
-1.96696
-0.217225
0.111561
0.105664
-0.0180923
-0.919359
1.81375
-0.418461
-1.39529
0.152835
-0.115274
0.0199101
-0.27164
0.229506
0.984725
0.829029
0.276783
0.579064
-0.855847
0.386138
-0.0454365
0.0484513
-0.255261
0.20681
-0.286216
0.324675
-0.038459
-1.8363
0.885537
0.950759
-0.150257
-0.181149
0.845182
-0.604714
0.791089
0.00557231
-0.796661
0.151479
0.154649
-1.92876
1.9119
0.01685
1.08517
-0.69365
-0.0183273
-0.0682199
0.0865472
0.00852275
0.0702168
-0.0787396
0.129514
-0.230242
1.72877
-0.636979
0.0570281
-0.189316
0.132288
0.00179544
0.0141159
-0.429981
0.310094
0.469635
-0.894042
-0.710093
0.706218
0.295531
0.0591981
2.07407
-0.0140392
0.00703281
0.00700643
-0.764909
1.23454
-0.233741
0.153948
0.079793
0.175998
-0.101194
0.0290907
0.509008
0.856362
-0.662728
0.447275
-0.391843
-0.0554322
0.336595
-1.2401
-0.121592
0.230589
-1.65404
1.42648
0.0644843
-0.0477032
-1.67453
0.257321
-0.261902
-0.133025
-0.0835792
0.216604
-0.63466
-1.20164
1.17963
0.950553
1.67944
-0.888713
-1.83581
0.344591
-0.495025
-0.129263
-0.167486
0.296749
0.185868
-0.283598
0.0977296
-1.22784
0.510997
-0.20592
-0.279249
0.485169
1.11725
-0.961573
-0.147306
-1.78375
1.93105
0.910491
0.257399
-1.54431
1.28691
0.944147
1.01102
-0.902329
1.38482
-0.938808
-0.0435129
0.40993
-0.366417
-0.885068
0.794268
0.0907998
0.104076
-0.0470478
-0.0892299
0.349609
-0.260379
-0.315874
-0.19475
0.510624
-0.515105
1.79208
-0.284996
-0.401936
0.686932
0.243003
-0.210274
0.231775
-1.25238
-0.181145
0.229596
0.00975915
-1.92927
1.05591
0.873359
0.424547
-0.496639
0.00881863
-0.0660043
0.403208
0.968351
1.31079
1.60527
-0.528385
-1.07688
0.141945
-0.0496705
-0.0922745
0.968
0.61465
-0.197644
0.0683811
0.547222
-1.63993
1.0927
0.135919
-0.192937
0.0570185
0.646194
0.918382
-0.247817
-0.102772
0.762967
-0.486184
-0.559667
1.39712
0.183832
0.0108777
1.91607
-0.739379
0.161795
-0.153943
1.746
-0.140736
0.114835
0.42727
0.0200044
0.0193574
0.321452
-1.65575
-0.915463
1.01919
-0.10373
0.00657197
-0.132929
1.83407
-0.0253214
-1.80875
-0.758398
0.473402
0.245963
0.07275
-0.332072
0.0747389
-0.206149
-1.166
1.55444
-1.54399
-0.0104483
0.0725607
-0.398365
0.325805
-0.976577
1.62277
-0.88939
1.56583
0.13948
-0.0669196
0.763602
-0.38635
1.9631
-0.565917
0.00511949
0.140652
-0.145772
-0.135315
-0.047923
0.183238
0.139582
0.00236256
0.182006
-0.830417
0.147665
0.121082
-0.268747
0.535956
0.836955
-1.75791
1.42174
0.149793
-0.499519
-0.372099
1.07698
-1.11825
1.30954
-0.191291
0.56059
-1.97671
1.85139
2.15771
-0.880542
0.907335
0.970469
-0.082262
0.273932
1.2805
-1.31826
0.224469
1.09379
0.277427
-0.313944
-0.380042
0.229784
-0.243667
0.17357
0.209154
-1.36881
0.741615
-1.11435
0.37273
-1.74234
0.85496
0.887379
-0.486635
-0.473593
0.101486
-0.121725
0.0895834
-0.0857204
0.444504
-0.358783
-0.579437
0.511151
1.19776
0.959947
-1.60844
0.0529418
0.0655999
1.63159
-1.42822
-0.203369
-0.457837
1.65201
-1.24793
2.09333
-0.845401
-0.819943
0.982601
-0.162659
0.277578
-1.37917
0.0858537
0.239938
-0.283458
0.45473
-0.171272
-0.101684
-0.0215535
1.39776
0.51146
-1.23364
0.722182
-0.0607724
-1.54578
1.60655
-0.0593235
-0.120591
0.0576045
-0.475736
0.418131
-0.777113
1.0866
-0.309484
0.221371
-0.154208
-0.0671626
-0.0903608
0.803151
-0.71279
-1.87351
1.74251
1.82175
-0.517991
-1.30375
0.648795
-0.573017
-0.0757783
-0.0144718
0.20034
0.151314
-0.649285
-0.828049
1.66899
0.13062
-0.0415701
1.77285
-0.970266
1.10537
-0.0301834
0.0301834
-0.336598
0.232731
-1.76541
2.2585
-0.948441
-1.31006
-0.47333
0.83661
-0.36328
0.0194752
0.154098
-0.173573
1.04223
-1.12185
0.0796156
-0.472088
-0.337361
0.809449
0.939541
-1.98682
1.04728
-0.0447849
-0.840283
-0.255063
0.119747
-0.291513
-0.496522
0.788036
0.7054
0.510388
-1.21579
-1.29468
-0.408193
0.705485
-0.297292
-0.484379
1.34749
-0.863113
1.49804
-1.31699
-0.0982115
0.245877
-0.104595
-0.191438
0.523755
-1.12827
0.733607
0.394664
-1.50249
1.68922
-0.186733
-0.0192394
0.150043
-0.130804
-1.34736
-0.784437
-0.0096901
0.0357942
-1.70409
0.543501
-0.393752
0.304522
-0.368413
-0.45153
-0.106535
0.242454
-0.671041
1.64874
0.0477829
-0.383637
-1.50891
0.127235
1.38167
0.445939
-0.80823
0.362291
-0.87648
0.18841
0.222551
-0.597783
0.375232
1.60752
-0.212696
-1.39482
-0.0140844
-0.11857
0.132655
-0.324079
0.567218
0.431948
-0.999166
-0.393065
1.37294
0.295592
0.681
0.721318
-0.0286367
1.51572
0.230277
-1.43045
1.36968
-0.204667
-0.039063
0.24373
-0.258596
-0.0541387
0.312734
-1.73738
0.489447
-0.325871
0.295213
-0.63269
-0.282773
0.262972
0.916365
-0.450941
-0.465424
0.210348
0.105443
-1.05327
1.88172
-0.828449
0.200959
-0.248882
-0.0927079
0.363648
0.275901
-0.559359
-0.0773002
-0.243711
0.321011
-0.100088
0.0669314
0.0331571
0.584981
-0.68211
0.0971285
0.00823522
0.055133
-0.0633682
-0.312341
0.347585
-0.0352445
0.287129
-0.678204
0.391074
0.338535
-0.0611081
0.0391803
0.394047
-0.433227
0.98687
-1.01191
-0.965894
-0.60707
-0.0143147
0.621385
0.164198
0.0448659
-0.307885
-0.225574
1.03084
-0.114474
-0.0259984
-1.21952
1.24552
-0.323569
0.00608904
-0.115157
-0.515601
-0.416215
0.325854
0.189895
-0.188662
-1.29333
-0.0402899
-0.0908563
0.131146
1.21166
-1.02604
1.04602
0.775725
0.800028
-0.00893963
-0.227041
-1.64795
1.87499
0.418093
0.672591
-1.09068
-0.322691
-0.986737
0.502464
0.484273
0.839964
-0.394025
-0.0935899
-0.0886946
0.182284
2.23298
-1.24612
-0.986857
0.145595
-0.334517
0.188922
0.422984
0.664822
-1.08781
0.079505
0.109809
-0.189314
1.626
0.0412109
-1.66721
0.285998
0.0194177
-0.273651
0.321434
0.0792736
0.0389264
-0.1182
0.388782
-0.0700337
0.0292256
0.0344743
-0.0636999
-0.756754
-0.439831
1.19659
1.19061
0.416908
1.07255
-1.09855
0.216825
-0.993938
-1.85638
1.70907
-0.180422
0.146595
0.333567
-0.615828
0.282261
0.845386
0.834057
1.15316
-1.31836
0.165203
1.24346
-0.562461
-0.159809
0.110138
-0.0538327
0.191268
-0.137436
-1.42927
-0.257049
1.68632
-0.374059
0.462324
-0.0882651
-0.00210702
-0.0280764
0.516063
0.88631
-0.15594
-0.0612855
1.14353
-2.10969
0.966165
-0.978576
0.0953111
0.883265
1.72743
-0.628605
-0.00749075
0.444156
-1.16127
-0.286151
0.00533024
0.280821
0.0227941
-0.215263
-0.655495
1.16695
0.0205169
0.0463769
0.251955
0.0889498
-0.340905
0.115162
0.927072
-0.110922
-0.555398
-0.337745
-0.423316
0.450886
0.56302
-0.931433
-0.0128046
0.059207
-0.047973
0.277479
-1.89937
0.887453
0.0242218
0.203826
-0.228048
0.135124
-0.100317
-0.0348068
0.263163
0.852154
-0.0619901
0.00891858
-0.0167902
-1.57704
1.59383
-0.140925
-0.458231
0.599156
-0.0525442
0.0772153
-0.024671
-0.338821
1.08044
-0.218085
-0.305452
0.523538
-0.298815
0.521366
-0.750516
1.71157
-0.961055
-0.872128
0.545903
0.326226
1.68301
-0.0700107
-0.29461
-0.0620859
0.356696
0.357476
-0.0815145
-0.192854
-0.287232
0.999086
0.756034
0.490669
-1.30088
0.810213
-0.811084
-0.190042
1.00113
0.108644
-0.31161
0.202966
0.117345
0.27241
-0.389755
0.520877
0.125705
-0.646582
0.0430605
-0.224205
-0.911163
0.0963154
-0.00172498
0.135418
0.0941779
-0.135145
0.417097
-0.281952
-0.251958
0.292031
-0.0400724
-0.0699776
-0.0350183
0.104996
0.776176
-0.414637
-0.0350494
-0.0084807
-0.354368
-0.396171
0.750539
1.21767
-0.954507
-0.03431
-0.349226
0.383536
-0.314014
-0.476749
-1.29954
1.51495
0.662643
-0.162878
-1.23062
0.785903
0.444712
0.265552
-0.111415
-0.154137
1.78517
-1.78517
-1.6724
0.157159
-0.911931
-0.155768
-0.693049
0.848817
0.535544
-0.56154
0.0259952
0.0812909
0.142453
-0.20066
0.0582074
-0.0440634
0.242607
-0.198544
-0.559001
1.17807
-0.619073
-0.26808
-0.0610299
0.32911
0.806421
-0.528844
-1.09126
0.280171
-0.0440775
-0.238163
0.282241
-0.0119822
-1.30628
-0.696252
-1.11349
0.417238
0.862795
-0.0470257
0.238503
-0.191477
-0.291893
0.356715
-0.0648217
-0.258695
0.189477
-0.0897194
-0.227531
0.0945064
0.0408637
-0.0424163
-0.132263
0.17468
0.158745
0.0325237
-0.322473
0.361653
0.1734
-0.221844
0.0484442
0.03939
0.0409433
-0.0803334
-0.0497283
0.204975
-0.155247
-0.0718571
0.191758
-0.119901
-0.784195
1.15693
0.714111
-1.04676
0.332646
-0.176264
-0.0833883
0.259652
-0.0255401
-1.91574
1.94128
0.848325
-0.62303
-0.225296
0.346377
-0.08502
-0.198578
0.248002
-0.110468
-0.0630307
0.208626
0.358349
-0.897589
0.53924
-0.484755
-1.444
-0.27283
0.936495
-0.663665
0.0428381
-0.131749
0.43142
-0.29042
-0.141
0.160627
-0.514996
-0.573863
-0.32458
0.377995
-0.0534153
-0.554534
0.348613
-0.103136
0.56531
0.14041
-0.131887
-1.38189
0.025126
-0.294075
0.569975
-0.0318033
-0.22326
-0.207782
0.0703462
0.2704
-0.317426
-0.0875936
-1.13847
0.354272
1.94601
-0.120432
-1.63765
2.18416
-1.05747
-1.12669
-0.141407
0.509918
-0.144163
-0.737106
0.528906
-0.533374
-0.266279
-0.0198719
-0.578842
-0.48807
1.06691
-0.0591658
-0.110943
0.170109
0.0325829
-0.911023
-1.80054
-0.343339
-0.338084
0.681423
0.290323
-0.431248
-0.265554
-0.0415077
0.307062
0.49841
-0.0869678
0.192542
0.0730106
1.96387
-1.02432
-0.984287
0.405445
-0.268221
-0.0538407
0.322062
-0.0480511
-0.00869869
-1.11315
-0.311481
-0.0729553
0.384437
-0.0974622
-0.0389776
0.907508
-1.21782
0.310309
-0.649341
-0.0402979
1.82547
0.31023
-0.706401
1.15472
-2.03198
0.87726
-1.96236
1.21313
0.749221
0.177013
0.111334
-0.288347
0.156896
1.09557
0.0569125
0.82283
-0.879743
-0.0338664
-0.15545
0.165206
0.48359
-0.0425568
-0.328548
0.371105
1.23406
-1.4611
0.451327
-0.183691
0.227483
-0.0437913
-1.52308
-0.149325
-0.653612
-0.883329
0.276259
0.123971
0.00366886
-0.12764
-0.665966
0.347766
0.318201
-0.410933
0.36742
-1.11153
-0.588163
1.69969
-0.127913
-0.108273
0.127749
0.47027
-0.532175
0.0619048
-0.858253
1.71321
-0.183588
-0.870925
0.397595
0.58036
0.264821
0.72251
-1.28151
0.0856533
-0.143165
0.0575115
1.29936
-0.198354
-1.02872
-0.363265
-0.0824449
0.445709
-0.0562295
0.229799
-0.0553911
0.275156
-0.219765
-0.283186
-0.0672581
0.156148
0.700214
-0.382611
0.328783
-0.0694397
-0.419321
0.353317
-0.17739
0.0262683
0.151122
0.275729
-0.103874
-0.171855
-0.165385
-0.0431145
0.208499
-0.208969
-0.0318098
0.240779
0.0520548
-0.163198
-0.269226
-0.129139
0.0837923
1.20296
0.320564
-0.128818
-0.191746
0.333758
-0.0913346
-0.242423
-0.162018
0.427147
-0.265129
-0.361775
0.284974
-0.693166
0.00970186
0.38689
-0.0777349
0.196615
-0.0535252
-0.149065
-0.0394582
1.80817
-1.03119
0.723477
-0.956187
0.23271
-1.56455
0.265015
-0.0642191
-0.154606
0.218825
-0.0495009
-0.0451049
-0.821353
-1.141
0.383455
-0.0628359
-0.787381
-0.852546
0.344216
-0.0922607
0.0167476
0.453523
1.10898
-0.793503
-0.832819
1.32349
-1.60482
0.175548
0.369606
-0.177611
-0.191995
-0.131388
-0.199447
-0.409278
0.608724
0.164071
-0.0317832
-0.680821
-0.64089
1.32171
-0.917728
-0.984194
1.90192
0.597914
0.456784
-1.0547
-0.0123263
-0.283231
-0.0413487
-0.272083
-0.287275
-0.19789
-0.106417
0.304307
0.790981
0.360402
0.292472
0.138947
-0.251385
-0.637414
0.0349369
-0.0489761
-0.367902
1.32397
-0.956065
-0.153801
-0.242857
-1.60877
-0.0570017
0.0263867
-0.560695
-0.132958
-0.252001
-0.817947
0.213233
-0.183748
-0.941602
-0.324786
1.26639
-0.279733
0.808638
0.494508
0.342102
-0.317728
-0.991089
-0.908279
-1.26986
1.34947
0.0865763
0.0742446
0.0322276
-0.0941404
0.0619128
-0.665823
0.606087
0.0597361
0.744751
-0.804102
0.30215
-0.277929
-1.14505
-0.0855639
0.156793
-0.177582
0.0207893
0.610621
-0.0256398
-1.40858
-0.0291128
1.4377
0.0438546
0.11489
0.0525178
0.331975
-0.384493
-0.265984
0.442843
0.10575
0.0950992
0.0350331
-0.130132
-1.26578
0.847314
0.154657
0.00941398
-0.197091
-0.137427
-0.353001
-0.0252748
0.0124702
-0.126601
-0.344341
-0.0596122
-0.0585878
0.426926
1.48498
-0.747041
1.65438
0.996932
0.49583
-0.83319
-0.0307464
-1.37784
0.629521
-0.347611
0.408362
-0.0607502
-0.0901496
-0.0233078
-0.0379694
0.0271348
-0.0627434
0.143801
-0.101508
1.51717
-1.41566
0.154851
-0.832305
-0.129886
-0.280732
-0.0731026
-0.126041
-0.303414
0.381888
-0.0784734
0.0134777
-1.47554
1.46206
0.649253
0.198328
0.337216
-1.13281
-0.580691
0.999675
-0.418984
0.0968664
0.0509887
-0.151305
-0.597911
0.535535
0.062376
0.379954
-0.508781
0.128827
-0.186314
-0.567715
0.754029
-0.295768
-0.0633623
-1.94121
0.0948929
0.206353
-0.201234
0.0499222
0.184593
-0.0299357
0.367351
-0.705435
2.16856
-0.922645
-1.24592
-0.0269171
0.456288
0.346003
-0.293486
0.24532
0.132675
-0.2021
-0.00897867
-0.3983
0.385785
-0.481054
0.783326
-0.969641
0.163186
-0.10758
-0.0556061
-0.391047
-1.76142
0.890441
0.870984
-1.72183
1.69629
-1.10582
0.515096
0.590722
-0.810945
-0.0226608
0.833606
0.376574
0.654265
0.119903
0.213484
0.849182
0.788836
0.0416566
-0.277818
-0.0126017
0.99152
1.17704
-0.263309
0.00804768
1.3537
-1.13503
-0.053297
-1.40004
1.45334
1.11268
0.0902798
-0.311913
-0.0818384
-0.147825
0.1004
-0.281278
-0.14624
-0.233802
0.172343
-1.08391
0.911566
-0.206614
2.24657
-1.42035
-0.826215
0.00220536
0.152996
0.00110151
0.705374
0.12711
1.61508
-1.45793
0.999501
-1.91723
-1.22637
0.00682053
1.21955
-0.847858
0.252599
0.595259
0.256056
-0.161878
1.95336
0.0430349
-1.9964
-1.09034
1.61872
-0.528382
0.0523421
0.239689
-1.22388
0.739502
0.00889861
0.0555856
-1.35309
0.234839
0.010181
-0.0310386
0.0208576
-0.159839
0.222343
-0.0625048
0.0703488
-0.447761
0.377412
0.602133
0.417061
-0.5219
-0.144067
0.0144375
0.866908
-0.911692
-0.0774802
-0.0712261
-0.275094
0.0573339
0.0834248
0.719038
-0.802463
0.0462411
0.534446
-0.580688
0.0691589
-0.473127
0.403968
-0.55167
-1.43295
0.578078
0.854876
-0.0297929
0.84245
0.279715
-1.12216
-0.615367
0.246425
-0.270904
0.0244789
0.1892
-0.0382363
-0.270534
0.00497931
-0.309729
-0.788799
0.126071
-0.441535
0.844728
-0.403192
-0.813635
-0.26639
1.88369
-0.827783
-0.104266
0.201555
-1.28659
-0.0231597
-1.29314
1.3163
0.106534
-0.0327788
-0.0737551
0.774347
-0.515568
-0.258779
0.171903
-0.02317
0.191837
-1.19181
0.378177
-0.692605
1.19507
-0.0697584
-0.360223
0.316642
0.250907
0.0248214
0.855605
-0.382203
0.0604051
0.684346
-0.93445
0.382242
-1.89815
0.913959
1.47917
-1.46569
-1.60816
1.50665
0.162992
-1.43078
0.222799
1.20798
0.606697
0.329798
0.035844
-0.901206
0.745438
-0.148701
-0.128199
0.2769
-1.14264
0.35227
0.790368
0.350916
0.583213
-0.934129
-0.0218563
-1.248
0.779599
0.0524515
-0.83205
0.264761
0.606932
-0.979031
0.0984402
-0.0155721
0.0643031
1.59063
-1.54942
-0.0970398
-0.985593
-0.447361
0.639712
-0.0171726
-1.2092
1.14655
-0.304101
-1.85139
0.0155822
-0.181317
-0.975021
0.352275
0.238416
1.85638
0.217691
0.0565026
-1.16965
0.155602
-0.120219
0.137324
-0.453198
0.328369
-0.598444
0.270075
-0.147712
0.00851324
0.139199
0.312841
-0.374927
-0.0397747
-0.246441
-1.12409
1.17717
-0.0530746
-0.733098
0.821987
-1.37885
0.556862
-0.832104
-0.0684838
0.114359
-1.47836
0.103191
1.37517
-0.39139
0.95198
-0.682369
0.714951
0.157587
0.937414
0.639923
-0.977668
-0.825996
-0.201028
1.02702
-0.818843
-1.23232
0.551497
-0.137393
0.141116
-0.00372309
0.0790954
-0.103766
0.797411
-1.45291
0.0336184
-0.551194
0.517576
-0.326188
0.242267
0.0839206
-1.03214
0.464425
0.040783
0.0275625
-0.249588
0.431879
1.82584
0.127524
-0.779401
0.836314
-0.293917
0.0968257
-0.828616
1.46686
-0.638242
-0.0863204
0.0709964
0.0857574
0.392155
-0.0214696
0.888293
1.21228
0.534204
-0.920554
0.340546
-1.80602
-0.185626
0.145336
0.0536044
-1.07965
-0.268733
-0.949083
-0.230767
0.0584589
0.814157
-0.382278
-0.69171
-0.0455186
0.745733
0.203204
-1.75495
0.364585
1.39036
-0.0451853
0.488028
0.387259
-1.34935
-0.259092
0.783912
-0.34684
-0.437073
0.912752
-0.309135
-0.603616
-0.196841
0.0426332
0.686829
-0.6633
-0.0235295
-1.70222
0.765002
0.937222
0.955621
0.75595
0.000809979
0.123161
0.810776
-0.525803
-1.45813
0.571098
0.88703
-1.86521
1.60816
0.560996
0.810987
-1.37198
0.849501
-0.751236
1.7193
-0.758495
-0.960805
-1.09473
0.202404
-0.0922659
0.0643517
-0.105044
0.216606
-0.0514562
0.143345
-0.0918884
-0.275969
-0.224201
-1.32448
-0.23284
0.0661602
-0.108717
-0.0379596
-0.0314872
1.04891
-0.381222
-0.667685
0.82545
-0.477685
-0.154695
0.140224
-0.100467
1.25362
0.108805
-0.00227135
-0.253753
-0.778387
-1.49128
0.549682
-0.0583484
-0.109926
0.130543
0.0791209
0.131197
-0.0989697
-0.515466
-1.02509
0.11994
-0.093484
-0.026456
0.203423
-0.590977
-0.925423
1.5164
0.166559
0.0180342
0.0382369
1.02892
0.974253
-2.00317
-0.491403
1.08932
0.235537
-0.0940074
0.433541
-1.02884
-0.632387
1.66123
-0.946802
-1.03621
0.548144
0.30215
-0.115496
-0.186654
0.27829
-0.795129
-0.209194
1.22255
-0.400563
-0.198463
0.115134
-0.278662
-0.768095
0.0350609
1.89876
-1.70907
-0.18969
-0.885428
-0.605856
0.193616
0.186685
0.0699743
-1.04348
-0.244401
1.28788
0.268587
0.453622
-0.0736682
-1.60779
-2.00492
0.795263
1.20966
-0.181694
-0.00554416
0.187238
0.988856
-0.581705
-0.40715
0.122734
-0.185478
0.0857875
0.0927741
0.906682
-2.01821
0.805249
0.107503
-0.386375
-0.597912
-0.141249
0.0303056
0.169041
0.757105
-1.34808
0.0190392
0.390891
-0.502952
0.311515
-0.118603
-0.0420442
0.160647
0.725582
0.993719
0.544623
0.0516396
0.288393
-0.428596
0.140203
1.97671
-1.61212
0.231365
-0.569154
0.16112
0.02808
0.142311
0.0232789
0.151401
0.00434965
-0.141742
0.60201
0.0497428
-1.69605
-0.0226795
-0.159014
-0.0821778
-0.0119626
1.04112
-0.546607
0.888871
-0.573379
-0.315493
0.0044522
0.120841
0.00353866
0.00664233
0.403916
-0.0883012
0.121458
-0.381565
-0.300545
-2.00473
0.902911
1.10181
0.136092
-0.00219848
-0.0245863
0.114658
0.134205
-0.279487
-0.318297
0.431581
-1.46043
-0.111915
-0.95333
1.98225
0.627933
-0.154325
-0.473607
-0.780844
-0.4261
-0.13544
0.10157
-1.11727
0.428149
-0.720207
0.292058
-0.327972
0.283648
0.0443241
-0.0632107
1.12756
0.965766
-1.63745
1.61212
-1.45204
0.848485
0.603553
1.02444
-1.97777
2.04625
-1.0779
-1.00968
-0.950234
-0.101598
0.546102
-0.125386
-0.35035
-1.51335
0.0825765
-0.0229508
-1.29541
1.2556
-2.03353
0.777931
-0.0576182
0.260843
-0.542798
0.628298
-0.302072
0.895557
1.35101
-1.49602
0.6674
-0.113899
-0.832903
-1.34815
0.305103
-0.0214549
1.72183
-1.79184
-0.0901095
-1.31514
0.042287
0.818372
-0.251154
-1.47063
1.64489
-0.174262
0.325392
1.61589
0.461011
-0.0648161
-0.396194
1.90097
-0.901469
0.251922
0.136502
0.634009
-0.749166
0.108946
0.141961
0.0937343
0.867084
-0.960818
-0.721229
-0.434081
1.0499
-1.06113
0.0112358
-0.383305
0.31035
-1.65005
0.875095
0.774951
0.629949
0.144397
-0.746604
0.125768
0.854773
-0.589952
0.309487
-0.581571
0.183303
-0.236828
-0.666151
0.466705
-0.996068
-0.913695
1.90976
0.272825
-0.304635
0.300583
-0.370617
1.02595
-0.628354
0.0692128
0.989715
-1.73676
0.112311
0.280907
0.245629
-1.20014
0.000380758
0.692213
0.10186
0.113002
-0.609524
-1.36455
0.53173
0.119925
-0.512547
0.392622
0.0735861
-0.333965
1.07421
1.10995
1.29402
-0.983716
-0.0297027
0.150858
0.173817
0.478162
0.30319
-0.370448
-0.729603
-0.952878
1.97732
0.167218
-0.197011
-0.812976
-1.05464
1.86761
-1.5829
0.492562
-0.0770716
-0.445689
0.18056
-1.40867
-0.100242
-0.228772
0.656921
-1.05724
-0.947484
1.89876
0.676848
-1.37019
1.06975
-0.652692
-0.259389
-0.386253
0.344905
-0.272551
0.238241
-1.64987
0.247229
-0.827919
1.02518
-1.97806
-0.810406
0.291526
-0.373041
-0.0274629
-1.44317
0.849459
-0.636226
1.38284
0.921233
-1.68068
0.75945
1.72955
-0.964548
1.97797
-0.949845
-0.987876
1.93772
0.427991
1.28658
-1.01799
-0.795882
-1.20904
-0.891014
-0.561024
0.472754
-0.735637
1.65854
-0.922899
-0.128541
1.3665
-1.23796
-1.01275
-0.943892
1.95664
0.898038
0.151861
0.288876
0.392865
-0.990761
0.310593
0.680168
0.0517063
-0.300588
0.513838
-1.39927
-0.837539
-0.407221
-0.258602
0.260033
-0.392991
-0.829457
1.0848
-1.96147
0.954885
1.00659
-0.0694656
-1.61128
1.68075
0.112331
-0.281863
0.0833186
0.575509
-1.84552
1.84552
-0.0604886
-0.0034327
0.0639213
-0.596893
1.10728
0.301014
0.00408883
-0.820456
-0.669146
1.02955
-1.63745
-0.0541311
-1.29068
0.320412
1.24247
-1.25445
-1.20252
0.159046
0.272249
-0.364717
0.092468
0.166434
0.520396
-0.161481
0.013769
-0.954083
-1.16276
0.141239
1.02152
-1.39578
-0.0663247
-0.360352
-1.0185
-0.0447244
0.139824
0.176213
-0.14709
0.39241
-0.11087
0.0512573
0.38049
-0.295952
-0.370199
-0.743105
1.57417
-0.831067
0.366841
0.21433
-0.217055
0.42609
-0.209035
-0.398294
0.203543
0.442275
-0.573045
0.13077
-0.901267
1.49884
-0.937842
-1.46772
-1.65839
0.18285
-1.08937
0.0570141
0.991959
1.24102
0.0541103
-1.02913
1.10738
-0.373772
-0.393613
0.323855
0.650317
0.611253
0.238248
1.97299
-0.947815
-1.00317
-0.901266
1.90444
1.15475
-0.0206343
-1.13411
-0.195966
0.104632
-0.213625
0.194385
0.131637
1.3457
-1.47734
-1.47919
1.46569
0.0135003
1.47919
-1.50665
0.229053
-0.286671
-0.490288
1.09722
0.0948246
-0.155755
-0.00744236
-1.66538
0.121074
1.73593
-0.814699
-0.435603
-0.110413
0.136682
-0.453234
1.06348
0.276305
-0.0873832
0.703223
-0.640847
0.192254
-0.259417
-0.600291
-0.06889
0.159987
-2.04773
0.501951
-0.0752856
0.455932
-0.380647
-1.08018
-0.953356
0.0936105
0.470386
0.614785
-0.890176
0.110775
-0.114488
-0.358639
0.110203
-1.99548
0.985809
0.0933967
-0.0835598
-0.233866
-0.0476124
-0.0789882
0.0984175
-1.401
0.852931
-1.55539
0.702462
0.0649448
0.265275
-0.330219
-0.60686
0.439374
-1.00911
1.32952
0.574214
0.515104
1.3695
-1.34935
0.200705
0.0452581
1.66209
-1.87093
0.208837
-0.318803
-0.213372
-0.851782
0.0197315
0.390187
-0.472632
-0.191811
0.262157
-0.924918
-0.192466
-0.0176387
0.210104
-1.48567
0.242838
1.24283
-0.217196
0.261051
-0.0421231
-0.174954
0.217077
1.17697
-1.19414
0.220676
-0.212162
0.665906
0.182911
0.220264
-0.199475
-0.166379
0.0346297
0.242575
0.632733
-0.875308
-0.454386
0.00662547
-0.960919
-1.03617
1.99708
0.167931
-0.725231
0.957942
-0.80466
1.69629
-0.182111
0.0507232
0.0658644
0.0538669
0.00532265
1.98926
-0.997742
-1.22555
0.818845
-0.571617
-0.533383
1.42041
-0.178485
0.0901838
0.0902376
-0.0923446
-0.541011
0.349265
-0.316707
0.21029
-0.167594
-0.451773
0.304683
1.04928
0.1471
-0.194712
0.267663
-0.02916
0.0431327
-0.455928
0.222126
0.508891
-0.804844
0.225008
-0.258788
0.0337801
0.142345
-0.175124
0.342198
0.776058
-1.11826
-0.272088
0.14389
0.374687
-0.65442
1.31813
-0.782172
0.983526
0.864267
0.0586427
0.55814
-1.02123
0.367867
-0.454834
-0.252999
1.02579
0.938076
-1.6034
1.6034
1.60068
-0.884632
1.11641
-0.0454911
1.5131
-1.46761
0.907149
1.0373
0.926588
-1.92266
0.125055
-1.0947
-1.35403
-0.207771
-1.47676
1.68453
-0.424644
-0.12989
0.0839763
0.711458
0.191906
-0.29578
-0.972519
1.79522
-0.822705
-0.1845
0.293447
-0.00308232
0.333563
0.506401
2.19842
-0.823381
-1.37504
1.57077
-1.46758
1.10353
0.206008
0.144153
-0.00467226
-0.0220406
1.55701
0.569871
1.02251
0.859216
0.0238314
0.211974
-0.235806
-0.375162
0.237736
0.195765
-0.209764
0.013999
0.174782
-0.236379
0.0615971
0.458564
-0.444127
0.352173
-0.505973
-0.156605
0.501196
0.0377133
0.0936264
-0.0123354
-0.440305
0.644309
-0.204004
0.111217
-0.104897
-0.00632012
1.79184
-1.44093
-0.433577
0.209342
0.224235
-1.59063
-0.36032
0.282585
-1.00055
1.9077
0.275232
-0.348334
1.93393
-1.00734
0.263127
-0.332566
-0.172842
-0.636929
-1.31499
-0.122362
1.56316
1.29257
-1.04695
-0.109227
0.172028
-0.0644319
-1.47956
-0.313911
0.309969
0.261908
-0.391795
-0.384206
0.305733
-0.1043
-1.34775
1.29445
-1.48736
1.47692
-1.1915
-0.501765
0.446333
0.685319
0.405518
-0.41812
-0.0759569
0.0680755
0.366542
-0.434617
-0.42225
1.40697
-0.989581
-0.971664
-1.93802
-0.0959164
0.0919088
0.00400755
0.00564773
1.41767
-1.42332
0.844506
-0.718435
0.33959
-0.400341
1.61602