/*--------------------------------*- C++ -*----------------------------------*\
| =========                 |                                                 |
| \\      /  F ield         | OpenFOAM: The Open Source CFD Toolbox           |
|  \\    /   O peration     | Version:  2306                                  |
|   \\  /    A nd           | Website:  www.openfoam.com                      |
|    \\/     M anipulation  |                                                 |
\*---------------------------------------------------------------------------*/
FoamFile
{
    version     2.0;
    format      ascii;
    arch        "LSB;label=32;scalar=64";
    class       volVectorField;
    location    "1.8";
    object      U;
}
// * * * * * * * * * * * * * * * * * * * * * * * * * * * * * * * * * * * * * //

dimensions      [0 1 -1 0 0 0 0];

internalField   nonuniform List<vector> 
5098
(
(2.57705 0.612419 0)
(2.17237 0.263471 -2.89456e-20)
(2.09102 0.00323919 -2.75962e-21)
(1.66894 -0.749574 6.4972e-19)
(1.87576 -0.281334 0)
(1.00834 -0.488654 0)
(2.31195 0.0263319 -1.74565e-20)
(2.15396 -0.0724573 7.54205e-22)
(2.13163 -0.0142563 -5.44004e-20)
(3.13008 0.319694 -1.78169e-19)
(1.50511 -0.766234 0)
(2.31982 0.0684231 1.38845e-19)
(2.71654 -0.334811 -2.66395e-21)
(1.06214 -0.522328 0)
(1.87814 -0.0407445 4.08492e-20)
(2.011 0.0437422 -8.90903e-22)
(1.37928 -0.757373 -1.09654e-19)
(1.60764 -0.781838 0)
(-0.707778 0.259232 6.10974e-19)
(1.30857 -0.706367 1.23752e-19)
(1.89183 0.380436 -6.11911e-20)
(1.99274 -0.0311916 3.44014e-22)
(2.24405 -0.853841 0)
(0.94588 -0.0666282 2.61492e-20)
(0.876319 -0.425286 0)
(1.61032 -0.662858 0)
(1.98334 0.120861 9.82947e-20)
(1.98327 -0.836667 1.65257e-19)
(-0.372235 0.077259 -1.84839e-18)
(1.9515 -0.850478 0)
(2.42186 0.0353491 -8.22548e-20)
(0.832927 -0.409782 0)
(1.9688 -0.0621204 -1.16098e-19)
(1.36598 -0.814561 0)
(2.30276 0.038839 -4.23171e-20)
(2.74169 -0.533771 8.98607e-19)
(2.01113 -0.491815 1.23455e-19)
(2.12176 -0.0462009 -7.41315e-21)
(1.47763 -0.517028 4.81826e-19)
(1.593 -0.73482 0)
(1.68736 -0.766597 -3.04984e-19)
(1.71932 -0.814464 -1.84162e-19)
(1.62481 -0.667512 0)
(2.2379 0.284144 6.31949e-20)
(2.39193 0.344766 5.31226e-20)
(2.17512 0.106808 4.77394e-21)
(1.44003 -0.774744 3.89848e-20)
(1.23276 -0.449001 0)
(2.45795 -0.0789885 0)
(1.66617 -0.715416 6.92754e-20)
(2.25782 0.124633 2.71719e-20)
(1.63696 0.341006 -3.87844e-19)
(0.808555 -0.424893 1.02094e-21)
(1.96423 -0.119321 1.43768e-19)
(1.07293 -0.535949 -2.92117e-19)
(1.65774 3.85301e-05 0)
(1.79025 0.246012 -2.01078e-19)
(1.76875 -0.728053 0)
(0.984987 -0.489485 0)
(2.01221 0.000960039 -6.84966e-21)
(1.92419 0.253359 -2.08332e-20)
(0.831243 -0.425883 -1.26957e-19)
(2.33212 0.111866 0)
(2.7277 -0.317579 0)
(0.834701 -0.445679 2.79709e-19)
(0.922997 -0.465771 3.68858e-19)
(1.95036 -0.0279526 7.86912e-21)
(2.05783 -0.00274303 3.49863e-21)
(2.14454 -0.259917 1.50122e-19)
(1.80592 -0.757237 2.00953e-19)
(1.8712 0.158332 1.59265e-20)
(1.41236 0.317154 -6.91103e-21)
(2.06542 -0.853283 0)
(1.20703 -0.934885 0)
(1.9699 0.0956955 2.8869e-21)
(1.26725 -0.61914 -3.32514e-19)
(1.95256 0.0504429 0)
(1.63112 0.116893 3.67912e-19)
(2.51052 0.253385 2.73778e-20)
(1.71243 0.106536 0)
(1.78744 0.056947 0)
(2.08086 -0.812237 1.55123e-19)
(1.79099 -0.345402 4.40516e-19)
(1.36809 -0.747746 -1.90204e-20)
(1.61039 -0.763782 6.51788e-20)
(1.76242 -0.771946 1.00206e-19)
(0.204682 0.152799 -2.46189e-19)
(1.97699 0.110976 5.75875e-21)
(2.19691 -0.0761328 1.70126e-20)
(1.89019 0.124508 -1.92384e-20)
(2.31776 -0.197045 -6.0538e-21)
(-1.12873 0.140784 6.1156e-19)
(2.12554 0.0698615 -1.6476e-19)
(1.68328 -0.732749 -3.46387e-19)
(1.46487 -0.546919 8.51007e-20)
(1.20108 0.777141 1.02537e-19)
(1.1943 -0.594826 -2.75605e-19)
(1.54627 0.162143 2.70346e-19)
(1.98859 -0.0223822 4.72575e-21)
(2.15091 -0.512083 -9.78342e-20)
(1.66356 -0.481732 -3.97499e-20)
(1.13661 -0.558993 -3.46248e-19)
(0.359266 -0.472355 -7.75768e-20)
(2.04081 0.0528244 -1.72751e-20)
(1.60178 0.100235 -4.1817e-19)
(2.44435 0.861098 0)
(1.94183 0.224068 2.12026e-19)
(2.2366 0.00887577 -8.35542e-21)
(1.18838 -0.500244 6.67231e-20)
(1.53536 -0.788154 0)
(1.18878 -0.571042 -7.42576e-19)
(2.58079 0.679674 8.88342e-19)
(1.90093 -0.0909751 -2.10639e-19)
(-0.366922 -0.46227 6.84873e-20)
(1.86401 0.501 8.66679e-20)
(-1.49389 1.45362 0)
(2.03584 -0.778573 2.72921e-19)
(2.77384 1.04801 0)
(2.00158 0.0607679 8.6522e-21)
(0.97595 -0.10297 -4.00812e-19)
(1.70386 0.36912 3.1851e-19)
(1.66961 1.68686 -9.41043e-20)
(2.98467 0.342079 1.14345e-19)
(1.63388 -0.974338 -1.46583e-19)
(-0.936668 -0.5193 -1.04973e-18)
(0.827683 -0.433411 1.41131e-20)
(2.12893 -0.0271015 1.18759e-19)
(2.22788 -0.818792 -1.76584e-19)
(1.46211 -0.23577 -1.00978e-19)
(-0.377768 -0.566632 -1.70838e-19)
(1.61308 -0.785575 -1.32578e-19)
(1.27756 -0.579561 -4.88489e-19)
(1.30127 -0.577536 4.08595e-19)
(2.68218 1.13445 -1.41073e-19)
(1.55132 -0.445227 -1.24181e-19)
(2.0306 -0.334575 1.34912e-19)
(2.11875 2.18416 5.12846e-19)
(1.97536 0.248981 1.38884e-19)
(0.984386 -0.484332 0)
(2.04929 -0.0879351 -4.72048e-19)
(1.63782 0.439002 -2.58063e-19)
(1.58722 -0.365922 8.67612e-20)
(1.93275 -0.874993 3.10069e-19)
(2.25532 -0.0069982 -1.21599e-20)
(2.07765 -0.0224828 -3.18265e-20)
(2.07616 0.0593037 0)
(2.14335 -0.293439 1.57402e-19)
(1.73947 -0.224116 0)
(2.16951 -0.0361439 1.52781e-19)
(1.85481 -0.846798 1.11327e-19)
(1.83688 -0.70755 -9.54771e-20)
(3.79876 -0.29154 0)
(1.80637 -0.278284 3.96863e-20)
(2.01121 0.101792 0)
(0.195472 0.0696175 -3.06156e-19)
(0.975005 -0.39786 -1.65475e-19)
(1.76659 -0.716782 -3.61058e-19)
(1.66302 -0.431133 -2.98112e-20)
(1.6528 -0.769318 -2.50061e-19)
(-0.0857444 -0.159535 2.02301e-18)
(2.0494 -0.468415 -3.35969e-19)
(1.90613 -0.0454293 -6.08667e-20)
(3.81596 -0.0199898 -6.80799e-19)
(1.86955 -0.231504 -2.7227e-19)
(1.58178 -0.774326 -6.601e-20)
(2.43325 0.0525715 -7.98102e-20)
(1.74943 -0.277225 -1.24257e-19)
(2.52178 -0.578397 0)
(1.16114 -0.563517 8.95525e-20)
(1.81012 -0.6072 -3.94784e-19)
(1.33425 0.631921 -7.4209e-20)
(1.67076 -0.691402 -2.36098e-19)
(2.25039 0.342528 5.81089e-20)
(1.97889 -0.806827 2.93713e-19)
(2.30154 0.0386296 0)
(2.01653 -0.0138837 0)
(1.7761 -0.342021 -1.70926e-19)
(2.72662 -0.481622 -3.87311e-20)
(1.80197 -0.190883 3.75198e-19)
(0.397689 0.00382077 0)
(2.06279 2.38023 0)
(2.09948 -0.717741 -2.38947e-19)
(1.86455 -0.59151 4.82854e-19)
(1.56493 -0.772474 0)
(1.8487 -0.241137 0)
(2.66895 0.466575 5.26099e-19)
(1.55534 0.211705 0)
(2.01585 -0.488106 4.21012e-19)
(1.11315 -0.543779 6.44693e-19)
(1.1145 -1.66402 -1.15409e-19)
(3.06454 0.851734 0)
(2.04454 -0.375996 -7.61177e-20)
(2.08564 -0.867614 0)
(1.95512 0.104603 1.23494e-20)
(2.44121 0.036301 8.7303e-21)
(-0.711309 -0.161265 -4.41076e-19)
(2.27082 -0.799226 1.80453e-19)
(2.01065 -0.375585 0)
(2.025 -0.00964585 -7.32595e-21)
(1.82843 -0.588735 -7.15057e-20)
(1.63668 -0.776711 -2.39145e-19)
(1.68168 0.316732 4.83207e-21)
(2.4202 0.433219 1.01777e-20)
(2.12975 0.0076956 4.10445e-21)
(1.84164 -0.0418062 1.74653e-19)
(0.941376 -0.402325 -1.18244e-19)
(2.12811 0.000562507 -1.21139e-20)
(1.33407 -0.624056 0)
(2.40413 -0.0593116 0)
(1.45579 -0.702535 -3.12952e-19)
(2.01011 -0.149556 -1.37119e-19)
(1.70789 0.245869 2.55529e-19)
(2.50818 -0.220002 7.12413e-20)
(2.10677 0.10123 -1.17855e-19)
(2.05164 0.0312193 -1.01765e-19)
(1.58089 0.238185 -4.74682e-19)
(1.89426 0.00825086 0)
(1.55415 -0.781241 -1.27308e-19)
(-1.11202 -0.305047 1.46333e-19)
(2.02732 -0.00162621 9.92658e-20)
(2.35781 -0.213838 -2.20484e-20)
(1.65288 -0.402329 0)
(1.97382 -0.0514069 1.37945e-20)
(2.37713 -0.267369 1.15317e-19)
(0.0565771 -0.286296 5.02531e-20)
(2.12214 -0.186217 0)
(0.52281 -0.159339 0)
(2.01007 -0.0215655 0)
(2.10788 -0.515718 0)
(1.98604 -0.777693 -1.98089e-21)
(1.81925 0.314821 0)
(0.736499 -0.323025 -4.36896e-19)
(2.18987 -0.746941 -1.82935e-19)
(1.92494 0.0208403 2.48106e-21)
(2.32242 0.0090175 -6.13519e-20)
(2.14529 0.0532227 0)
(1.56243 1.27386 -1.42599e-19)
(1.40663 -1.01911 -3.44664e-19)
(2.35094 -0.40142 0)
(1.84658 -0.0338656 2.72772e-19)
(2.01053 -0.911847 -5.09435e-19)
(2.2093 0.382762 0)
(1.98606 0.068492 0)
(1.17644 -0.318936 7.2099e-19)
(1.84768 0.34859 -3.18604e-19)
(2.28481 -0.0222258 -1.50494e-19)
(1.1898 -0.57302 7.84533e-20)
(1.54521 -0.774773 -9.78666e-20)
(1.48281 -0.811898 0)
(2.26443 -0.0652045 4.36697e-20)
(2.20493 0.574376 -2.78925e-20)
(1.99673 -0.837377 3.00861e-19)
(-1.74212 1.64931 1.18457e-18)
(1.5142 -0.863647 1.42303e-19)
(1.98782 0.0494537 -1.9015e-19)
(1.3693 -1.11073 3.25023e-19)
(1.54858 -0.374647 1.0756e-19)
(2.15602 -1.18455 3.89966e-19)
(1.26232 -0.467169 -3.00928e-19)
(1.97807 -0.0526527 -1.26937e-21)
(2.57833 0.359884 7.35743e-20)
(0.765874 -0.482525 1.3475e-19)
(0.814445 -0.38008 1.39276e-19)
(2.02559 -0.871217 0)
(2.1181 0.0434945 -2.17406e-21)
(1.2455 -0.631338 4.50162e-20)
(0.0677568 -0.139037 -2.38806e-18)
(1.52542 -0.743719 0)
(1.47287 1.11825 0)
(1.87563 -0.0655749 -2.48928e-20)
(1.10186 -1.49023 1.43703e-19)
(1.96945 0.024382 1.69148e-20)
(0.103597 -0.172744 -1.05959e-18)
(1.8325 1.04727 0)
(1.28095 -0.531156 2.45803e-21)
(0.711461 -0.643504 -4.42551e-20)
(1.71277 -0.790445 -1.7216e-19)
(1.85814 -0.635801 0)
(2.40505 -0.742691 0)
(2.00996 -0.195122 0)
(1.65026 -0.770449 -8.18315e-20)
(2.1373 -0.0842201 7.91636e-20)
(0.283492 -0.489188 -2.0323e-19)
(2.1111 0.0509336 -8.79751e-20)
(2.37424 -0.609101 -8.14796e-20)
(1.26835 -0.900594 0)
(1.96868 -0.00846965 0)
(2.02977 0.0651534 -4.04839e-20)
(2.42298 0.0590143 6.43469e-20)
(2.0233 -0.00262484 -2.13138e-19)
(1.70152 -0.970603 0)
(1.11714 -1.49798 1.16966e-18)
(1.21159 -0.128265 -2.10344e-19)
(2.36928 0.306921 3.89176e-20)
(2.08127 -0.659 3.14261e-19)
(3.24247 0.0168971 1.90844e-19)
(2.5171 -0.0117157 0)
(2.47414 -0.076757 -6.8211e-20)
(2.04688 -0.00685703 0)
(1.97683 -0.0675584 -1.13386e-19)
(2.06242 0.0649345 3.1703e-20)
(2.37393 -0.0608951 7.88079e-20)
(1.68624 -0.482293 4.63588e-19)
(1.94601 0.343407 1.74327e-19)
(1.099 -0.562404 -7.16039e-20)
(1.90905 -0.773203 -1.88993e-19)
(2.71074 1.62821 -1.63877e-19)
(2.09295 -0.0340315 0)
(1.92638 -0.487057 0)
(1.48673 -0.794184 0)
(2.30388 -0.156171 2.98876e-20)
(-1.13202 1.16175 1.30201e-19)
(0.927108 -0.459737 3.83228e-19)
(1.96253 0.0406718 -1.3149e-20)
(2.74809 -0.320683 -7.27544e-21)
(0.269335 -0.00497473 6.01939e-19)
(1.98005 2.12699 -5.67038e-20)
(1.97456 -0.0441372 -1.12951e-20)
(2.13633 -0.151842 4.20616e-19)
(1.02309 -0.449169 0)
(2.48956 0.268632 -4.17338e-20)
(0.656902 -0.69575 -2.77088e-18)
(2.379 -0.14361 -2.72423e-19)
(-2.02948 0.591385 4.50443e-20)
(1.92916 0.11642 -2.25161e-21)
(1.45631 -0.48836 3.25492e-19)
(2.19436 0.558075 0)
(1.94685 0.0946961 -7.21779e-20)
(1.19541 -0.503779 -7.0469e-19)
(2.01396 0.0288953 -8.15334e-21)
(1.43215 -0.688932 0)
(2.24185 -0.0873738 -1.23479e-19)
(1.14943 -0.558509 2.18174e-19)
(2.44756 -0.739668 -6.18715e-20)
(1.83226 -0.763992 -2.71162e-19)
(2.14075 0.108016 -3.35814e-20)
(2.53428 -0.24474 1.11224e-20)
(1.06514 -0.526567 4.20762e-19)
(2.27083 0.0111412 1.81399e-19)
(1.96471 -0.43175 0)
(1.94593 -0.881552 -2.93379e-19)
(1.78768 -0.76014 -8.21492e-19)
(2.55763 0.206282 1.17068e-20)
(1.95951 0.0981344 3.1032e-20)
(3.17641 1.53421 0)
(1.92935 0.0125273 0)
(2.09628 0.0279315 -1.47121e-19)
(1.4545 0.691792 4.82942e-19)
(2.7944 0.969863 0)
(2.4538 0.0051194 1.15539e-19)
(1.76767 -0.781461 -3.9006e-21)
(1.08687 0.20968 -5.25713e-19)
(1.00964 -0.44808 -3.80422e-19)
(1.65603 -0.778963 8.73121e-20)
(1.86059 0.0658798 8.59917e-21)
(1.67924 -0.772984 3.04248e-19)
(1.96334 -0.356785 -1.07886e-19)
(2.31206 -0.080189 0)
(1.5098 -0.213748 -8.68833e-20)
(1.52328 0.242622 0)
(1.88659 0.129069 -3.44712e-19)
(2.12283 -0.464605 0)
(2.22206 -0.0754075 -1.2337e-19)
(1.97506 0.0561188 -9.87471e-21)
(2.27961 0.232805 -5.32844e-20)
(1.25547 -0.507441 3.96974e-19)
(1.93892 0.150223 -2.8228e-19)
(2.21235 0.590472 -3.09865e-19)
(2.20621 -0.939222 0)
(1.41442 -1.15341 0)
(1.3284 -0.545923 -3.89985e-19)
(2.2489 0.282313 0)
(3.11486 -0.209228 -7.57978e-19)
(1.9324 0.212322 0)
(1.3481 0.255098 9.25865e-21)
(1.01916 -0.520928 1.12159e-19)
(1.84967 -0.61545 5.7478e-19)
(1.38736 -0.511787 3.96045e-20)
(2.4922 -0.544201 0)
(1.98872 0.0938242 5.81674e-21)
(1.88796 0.0152925 -1.92291e-19)
(0.890566 -0.47249 -1.62147e-20)
(1.95753 0.0791339 -1.65633e-19)
(2.40324 -0.111304 -4.42755e-20)
(2.21643 0.0828686 -3.75399e-20)
(3.19225 0.397141 3.62165e-19)
(2.34915 0.0825246 -7.61382e-20)
(1.41191 -0.986956 -6.45304e-20)
(1.79679 -0.557481 0)
(0.479223 -0.540582 6.72111e-20)
(1.98246 0.0691962 -1.25197e-19)
(2.57061 0.108861 0)
(2.02058 0.0426597 1.05261e-19)
(1.26807 -0.610531 -2.78966e-19)
(1.7165 1.04172 1.19074e-19)
(2.52076 -0.93452 0)
(1.51573 -0.717525 1.02601e-19)
(2.73844 -1.68805 0)
(2.042 -0.0222072 2.66544e-20)
(1.91206 -0.0304732 -5.90462e-20)
(3.00398 0.0643081 1.92186e-18)
(1.18134 -0.163954 0)
(1.64203 0.209297 1.85496e-19)
(1.88888 0.0337971 1.1044e-19)
(-1.04713 1.17174 0)
(1.87511 0.0282878 0)
(2.08701 -0.241097 0)
(0.200134 -0.0969808 1.49864e-19)
(1.34554 -0.275801 2.70442e-20)
(2.21685 -0.107393 0)
(1.96993 0.0584869 0)
(1.47008 -0.0795137 3.68768e-20)
(1.07749 -0.813483 0)
(2.28904 0.326204 -1.14338e-21)
(2.92122 0.787728 2.00911e-19)
(2.02485 0.0254338 7.45593e-21)
(1.92756 0.342961 -4.46159e-21)
(1.09973 0.273284 6.04338e-19)
(3.04157 0.98509 -2.19158e-19)
(2.46032 -0.100935 5.05018e-21)
(2.03326 -0.0168758 1.26702e-19)
(1.67566 -0.223326 -2.0821e-19)
(1.98732 0.35176 2.98079e-21)
(2.04549 -0.0192887 0)
(1.67125 -0.769523 -2.96543e-19)
(-1.07892 0.0014033 0)
(0.814532 -0.875198 -2.69835e-19)
(1.7091 -0.160507 0)
(2.21025 0.351963 0)
(1.44565 -0.690942 -2.22563e-19)
(1.97765 -0.0495196 -9.85934e-21)
(-0.283555 -0.157588 -2.09864e-18)
(2.09608 -0.00603195 9.39319e-21)
(1.91182 -0.745533 3.05567e-19)
(3.0619 0.637313 2.27658e-19)
(-1.7905 0.450185 2.04018e-18)
(2.14435 0.0663469 1.80521e-20)
(2.2057 -0.87248 1.00709e-19)
(1.98962 0.0496643 -1.89105e-19)
(2.45042 -1.13555 0)
(1.80317 -0.144896 -3.90185e-19)
(1.90256 -0.516267 3.18041e-19)
(2.01694 0.0103035 -4.29694e-19)
(1.1774 -0.657865 -9.47826e-20)
(1.6509 1.06141 -1.19797e-19)
(2.90858 0.882615 3.08806e-19)
(2.19966 -0.444133 0)
(1.89479 -0.0310902 0)
(2.22146 0.606902 -7.90139e-19)
(2.0455 -0.110732 7.85377e-20)
(1.48538 -0.792168 0)
(2.23027 -0.0418087 -1.04385e-19)
(2.00102 -0.0733083 -2.28029e-19)
(1.37216 -0.786111 -5.76925e-20)
(1.50374 -0.795124 2.1558e-19)
(2.18428 0.131333 1.13369e-21)
(1.70682 -0.82995 2.72472e-21)
(2.51472 -0.287435 -2.00435e-19)
(2.05299 -0.506483 2.17702e-19)
(3.35985 0.39556 7.96393e-19)
(1.6371 -0.68424 2.99695e-19)
(2.003 0.0452842 -7.8465e-22)
(1.14832 0.131118 4.33926e-19)
(2.14254 2.09614 0)
(1.80396 -0.527052 1.87015e-19)
(1.57861 -0.774365 0)
(0.0554419 -0.661365 -7.39816e-19)
(1.80549 -0.800937 0)
(0.789933 -0.386625 -2.80791e-19)
(1.73252 -0.74181 -4.17764e-19)
(3.39582 0.604443 -3.65534e-19)
(2.24631 -0.915453 0)
(1.24621 -0.645572 0)
(2.20283 -0.284479 0)
(1.99333 0.157727 8.08577e-20)
(2.59029 -1.38039 -9.13181e-19)
(0.879343 0.106775 1.40869e-18)
(1.62968 -0.382717 -7.50785e-21)
(3.46426 0.272006 -8.89081e-19)
(1.98956 0.28958 0)
(1.28867 1.70884 2.31541e-19)
(2.52838 1.00019 1.41476e-19)
(2.50519 -1.93215 -2.77152e-19)
(1.73354 -0.8044 2.39133e-19)
(2.28569 0.322821 3.63584e-21)
(1.30052 -0.628449 4.63735e-19)
(2.25428 0.316223 0)
(1.92596 -0.0291413 6.00707e-20)
(2.12596 -0.998527 -5.6136e-19)
(2.01149 -0.137553 2.39365e-20)
(3.22307 0.00217951 -4.26068e-19)
(1.69981 -0.232684 0)
(2.52519 0.45688 0)
(2.3323 -1.09128 0)
(-1.46522 0.32607 0)
(1.98984 -0.0139092 0)
(1.537 -0.598443 1.30022e-19)
(3.70195 0.0326225 6.98411e-19)
(1.56831 -0.662276 3.58052e-19)
(2.07928 0.00630811 1.86663e-19)
(1.60484 -0.77278 0)
(2.19316 -0.908937 2.63881e-21)
(-0.618927 0.565827 0)
(1.59999 -0.753048 -1.21925e-19)
(-0.321478 0.287941 8.76817e-19)
(3.57055 -0.642445 -3.65786e-19)
(1.96209 0.154498 2.0948e-19)
(2.13376 0.22545 -7.54003e-20)
(2.60393 -0.714536 -2.283e-19)
(2.3732 0.0515484 0)
(-0.664295 -0.834134 9.84088e-19)
(2.02239 0.0602934 0)
(1.64475 0.669179 1.92871e-20)
(2.40871 0.0494296 0)
(2.00628 0.201499 -9.0545e-20)
(2.15295 -0.0755221 0)
(1.06032 -0.424062 -2.68068e-19)
(1.28682 -0.6232 2.44298e-19)
(1.97985 -0.0172771 -6.20923e-20)
(1.41677 0.261012 3.77712e-19)
(0.357982 -0.17936 -3.07563e-19)
(1.83763 -0.201755 0)
(1.15329 -0.29368 -1.02036e-18)
(1.99768 0.0739098 4.36555e-21)
(3.13734 -0.705336 -9.52174e-19)
(2.10593 -0.0657945 -3.06763e-21)
(2.1368 -0.744883 4.20977e-19)
(4.18649 0.200191 0)
(1.90905 -0.855914 -6.45619e-20)
(1.65115 -0.750275 0)
(2.44718 0.125298 8.39018e-21)
(0.582621 -0.19266 6.74178e-20)
(1.64907 -0.768964 0)
(2.27436 0.137922 0)
(1.54894 -0.455051 -8.08599e-20)
(2.4065 0.451096 0)
(1.82045 1.55872 8.2268e-20)
(2.94354 0.40791 -3.59677e-19)
(-0.316025 -0.330752 -2.69423e-19)
(1.47159 -0.807944 -9.15923e-20)
(1.97354 -0.000751686 -7.08956e-21)
(1.27 -0.904366 -1.88711e-20)
(0.957476 -0.46728 -1.51994e-19)
(1.94004 -0.0834596 4.12003e-19)
(1.34573 -0.749912 6.5499e-20)
(0.610664 -0.306907 0)
(2.39675 0.102128 -8.97917e-20)
(1.48553 -0.481421 1.17967e-19)
(0.517541 0.131841 7.32985e-20)
(3.17504 -0.520119 7.98821e-19)
(2.95736 1.31942 0)
(1.90115 -0.548381 -3.19498e-19)
(1.98139 0.150206 7.42421e-22)
(3.99591 0.495189 -1.14796e-19)
(2.03964 -0.0204217 -1.7118e-19)
(1.46148 -0.762406 5.35939e-20)
(1.63011 -0.776082 1.76441e-19)
(1.58373 -0.651214 -8.64086e-20)
(1.51406 -0.805842 1.75654e-21)
(2.15537 -0.137448 -1.35525e-19)
(1.50596 -0.783157 -6.00473e-20)
(1.7761 -0.118789 0)
(1.96104 -0.169268 -3.75957e-19)
(1.27715 -0.507264 0)
(1.37737 -0.78901 -9.8007e-20)
(2.84038 -0.868522 4.43932e-19)
(-1.15719 0.92035 1.97953e-18)
(1.99011 0.0454683 -1.98854e-21)
(0.735602 -0.355302 1.75127e-20)
(-0.827973 1.25063 0)
(2.3172 -0.835774 2.52219e-19)
(2.34862 -0.912353 4.68909e-20)
(0.110213 0.394241 -1.7355e-18)
(1.8273 0.467952 0)
(1.70475 0.428095 0)
(0.299855 0.239157 0)
(1.40651 -0.192455 -3.57341e-20)
(1.88269 -0.0803532 -3.6907e-19)
(1.43216 0.0821511 0)
(1.7119 -0.47429 0)
(2.22481 0.123085 -4.06714e-21)
(1.78789 -0.704612 -4.49357e-22)
(2.00831 0.245799 -2.4732e-19)
(1.92756 -0.395245 -1.13071e-19)
(1.9128 0.0699093 1.93645e-20)
(1.96837 -0.0523232 -2.32523e-20)
(1.96846 0.0695818 -1.40944e-20)
(2.09949 0.363084 -2.02262e-20)
(1.96262 0.978364 0)
(0.963864 -0.449788 8.26673e-22)
(-0.0987908 -1.38297 0)
(1.16086 0.0372035 0)
(2.62953 -0.0196403 -3.47125e-19)
(1.625 -0.782346 0)
(2.34476 0.0726979 0)
(1.93464 -0.150805 5.78889e-19)
(2.04417 -0.894719 0)
(2.06355 0.188982 3.12834e-19)
(3.07625 -0.244802 4.22038e-19)
(3.01388 -0.0178009 1.32337e-19)
(2.01014 0.0306768 9.55085e-22)
(1.25506 1.06602 2.21808e-19)
(2.35337 -0.887689 2.48004e-21)
(2.21925 -0.873087 -1.04542e-21)
(1.30424 -0.525152 3.81747e-19)
(1.33888 -0.900523 0)
(1.05589 -0.525447 0)
(1.39179 -0.68266 -2.21374e-19)
(1.28816 -0.626042 -3.22391e-19)
(1.13014 -0.699796 0)
(1.35292 -0.857219 1.36199e-19)
(0.834467 -0.415876 0)
(-1.01362 -0.459026 1.62527e-18)
(1.25653 -0.593813 -4.92798e-19)
(2.94895 -0.376202 -1.65846e-20)
(3.12283 0.1998 3.65605e-19)
(1.34803 -0.483293 7.70207e-20)
(2.16576 -0.0309263 8.57075e-20)
(2.35717 0.773127 0)
(2.42001 0.585301 0)
(1.20242 -0.0669377 0)
(-1.15186 1.57483 -1.05773e-18)
(1.53616 -0.604637 0)
(2.26523 0.421512 0)
(1.99035 0.119027 0)
(2.83079 -0.340129 -9.46885e-21)
(-0.252446 -0.875908 2.05627e-19)
(2.1429 -0.818017 -1.54417e-19)
(1.35645 -0.2434 8.4149e-20)
(1.9081 0.130874 0)
(1.64983 -0.758153 0)
(2.08049 -0.62034 -2.86622e-19)
(1.62434 0.421199 5.52618e-19)
(1.10622 -0.527634 -1.22165e-19)
(2.01401 0.0455422 -7.66824e-21)
(1.81474 -0.513487 3.41451e-19)
(1.16474 0.287644 -9.44677e-19)
(1.40344 -0.719293 0)
(1.30251 1.15892 -5.35004e-19)
(0.483475 0.247356 -6.07939e-19)
(2.8983 -0.223767 0)
(2.23994 -0.074401 0)
(1.79198 -0.0574462 0)
(2.06285 0.0648623 -3.43399e-19)
(1.49678 0.182571 -3.86308e-19)
(1.68755 0.0583774 0)
(3.95173 1.11298 1.87167e-18)
(1.92802 -0.858667 3.03263e-19)
(2.62499 -0.18372 3.9762e-20)
(1.25107 -0.631908 9.23329e-20)
(2.16329 -0.310949 0)
(2.04818 0.0710463 4.50963e-20)
(1.86563 -0.467338 0)
(1.47835 -0.552389 -1.12998e-19)
(1.87003 -0.842936 0)
(2.25747 -0.796665 3.26297e-19)
(1.80607 -0.348736 3.50236e-21)
(2.02054 0.033904 -8.43455e-21)
(2.67687 -0.246258 0)
(1.93092 -0.822324 0)
(1.70699 -0.730139 -4.37872e-19)
(2.28642 0.270093 1.26267e-21)
(1.57544 -0.74158 5.80105e-20)
(0.984197 -0.478296 3.89405e-19)
(1.89558 -0.102515 0)
(1.62603 0.136169 -5.75632e-19)
(2.25191 0.00141941 -1.9578e-20)
(1.48995 -0.227365 -3.35502e-20)
(2.03045 0.0366599 -1.02007e-20)
(2.02999 0.041679 0)
(1.31322 -0.41466 5.41807e-19)
(1.13504 0.0692868 -6.02496e-19)
(3.42585 -0.264987 9.5558e-21)
(1.84252 0.16181 -6.30235e-19)
(1.27996 -0.650679 8.22797e-20)
(3.20509 -0.314485 -2.97544e-18)
(1.97229 -0.391641 6.07135e-20)
(2.09241 -0.0618321 -3.37191e-20)
(2.577 0.337211 1.54914e-18)
(-0.243784 0.00555174 -1.26342e-20)
(1.48545 -0.744024 1.5089e-19)
(1.58236 -0.755252 1.24946e-19)
(1.88023 -0.0137259 2.80601e-20)
(2.38485 -0.0825398 0)
(2.70562 -1.30371 9.20459e-19)
(1.30275 -0.632813 2.09087e-19)
(1.80006 -0.29614 2.05673e-19)
(-0.548356 0.569837 0)
(1.70805 -0.435839 -5.53603e-20)
(1.98136 0.00734358 -5.74663e-22)
(1.91443 0.00139202 0)
(1.05782 -0.713484 1.05653e-19)
(1.56486 -0.648161 3.36256e-20)
(2.04944 0.0754332 0)
(1.19004 -0.469667 0)
(1.53998 -0.14434 -3.56684e-20)
(1.5417 -0.33951 -1.05135e-20)
(2.57462 -0.00287299 1.26036e-19)
(-0.851946 0.947139 0)
(2.08091 -0.0427891 -3.29656e-19)
(1.94537 -0.245237 -3.91129e-20)
(2.32987 -0.766779 1.71929e-20)
(1.35295 -0.546935 4.78601e-19)
(1.58618 -0.781806 -1.19716e-19)
(1.62588 -0.759001 7.45992e-20)
(3.42808 -0.263054 -8.27497e-21)
(1.81514 -0.601381 0)
(3.1264 0.499733 -1.41601e-18)
(1.69474 -0.680608 2.19672e-19)
(2.15448 1.75997 1.7603e-19)
(0.976743 0.443297 0)
(1.2808 -0.314766 -4.80712e-19)
(1.35925 -0.595289 -5.80358e-19)
(1.58941 -0.773183 1.48357e-19)
(-0.550176 -0.86469 -7.60978e-19)
(2.7937 1.68334 0)
(0.423118 0.104885 -8.80323e-19)
(2.27136 0.285008 0)
(0.776787 -1.83407 -1.14458e-18)
(1.52883 0.640487 1.97239e-18)
(1.35472 -1.538 0)
(1.63644 -0.784621 5.18926e-20)
(1.67755 -0.173307 -8.48113e-20)
(-0.663719 -0.268577 1.65575e-19)
(1.79237 -0.708166 3.95246e-19)
(1.29847 -0.634276 -3.67864e-19)
(1.32601 -0.618 0)
(2.09213 -0.0154957 1.0688e-19)
(4.02944 -0.808885 0)
(2.23409 0.101823 -1.95802e-21)
(-0.639852 1.56406 -2.20204e-18)
(0.688686 -0.281494 2.60789e-19)
(2.01492 0.0484584 0)
(2.01174 -0.800178 -2.87843e-19)
(2.32844 -0.275687 7.71849e-20)
(1.64211 -0.763269 1.93245e-19)
(1.52287 -0.640295 0)
(1.63162 -0.768888 -1.71996e-19)
(3.72675 -0.360741 -1.06102e-18)
(1.70625 0.104557 7.36385e-19)
(1.8505 -0.135443 0)
(1.98753 -0.0512222 1.56757e-19)
(1.78458 0.699208 1.8877e-18)
(0.0320268 -0.860053 -1.07513e-19)
(2.32417 -0.569488 1.03126e-19)
(1.36081 -0.694267 0)
(1.8024 -0.00531356 -1.53561e-20)
(1.99757 0.0227782 2.88172e-22)
(2.75819 -0.217668 2.72485e-20)
(2.17333 -0.049476 0)
(1.64031 -0.765714 8.74471e-20)
(1.76133 -0.49611 -3.80509e-23)
(1.40239 -0.444993 5.92811e-20)
(4.25094 -0.207247 0)
(2.16946 -0.83419 -1.17121e-19)
(1.5516 -0.749923 2.57527e-19)
(1.80871 -0.477506 -4.27427e-19)
(0.537852 -0.0348743 0)
(2.3857 0.894412 9.71402e-20)
(2.19805 -0.807501 9.78292e-20)
(1.43498 -0.721193 -1.53756e-19)
(1.95016 0.18623 0)
(-0.658736 0.0685987 6.93096e-19)
(1.52442 -0.20861 0)
(1.60236 -0.797544 1.6937e-19)
(1.61667 -0.41445 0)
(1.96203 -0.147041 -2.13639e-19)
(2.19817 -0.171222 -2.10421e-19)
(3.48476 0.830523 -9.54658e-19)
(1.51316 -0.0123636 0)
(2.163 -0.918258 -1.78455e-19)
(1.87365 -0.0022062 0)
(2.32359 0.238899 0)
(2.31047 -0.94003 3.52477e-20)
(1.64161 -0.770808 9.52059e-20)
(0.712107 -0.122817 1.64642e-19)
(2.23409 -0.590148 -6.37795e-20)
(1.78374 0.206911 2.348e-19)
(1.29026 -0.851399 -6.65642e-20)
(2.03014 0.144355 1.15268e-19)
(1.35909 -0.782463 -2.48307e-20)
(1.77535 -0.791027 0)
(2.35262 0.0652463 0)
(1.3913 -0.650645 0)
(1.43486 -0.740171 2.33141e-19)
(1.31601 -0.48222 -3.37042e-19)
(1.53881 0.00806249 0)
(1.08613 -0.569155 2.53567e-19)
(2.25757 -0.0802932 -1.43843e-19)
(1.29111 -0.664791 -9.26807e-20)
(1.52043 -0.573493 -1.08144e-19)
(2.33762 -0.914696 0)
(-0.271115 -0.311895 4.58636e-19)
(0.861539 -0.639124 -2.49514e-19)
(1.3338 -1.72562 0)
(-0.345501 0.746889 -1.30701e-18)
(1.996 -0.0100673 1.38835e-21)
(2.22376 0.16936 9.21227e-20)
(1.93305 0.00196598 2.12148e-19)
(2.83646 0.6077 -3.92619e-19)
(2.25688 0.121452 9.3066e-21)
(2.77941 -1.13588 0)
(2.0712 -0.808666 0)
(0.940289 -0.496019 2.56689e-19)
(-0.545067 -0.980383 0)
(1.67879 -0.399688 -5.59919e-20)
(2.29642 -0.804376 -1.61609e-19)
(1.12641 -0.537152 4.07336e-19)
(1.94561 -0.0753417 -5.72573e-20)
(1.78749 0.266575 -2.34581e-19)
(1.65598 -0.673398 -2.1653e-19)
(1.74422 -0.694037 -3.99346e-19)
(1.45258 -0.28895 0)
(1.84228 -0.716661 3.75101e-19)
(1.94081 0.0274738 0)
(2.72939 -0.264257 -9.82295e-21)
(2.10865 1.04338 6.43022e-21)
(2.23476 1.2007 -1.15874e-19)
(2.34658 -0.34103 -1.69358e-19)
(-1.36449 -0.211422 -1.10611e-18)
(1.15983 -0.586375 0)
(1.61786 -0.556454 -3.08972e-20)
(1.68162 -0.778763 -1.45992e-19)
(2.06858 0.421804 -1.21475e-19)
(1.95473 -0.783926 3.39893e-19)
(1.99155 0.0548298 -3.80588e-21)
(-0.681376 -0.522013 3.36925e-19)
(2.06296 -0.858314 -2.7248e-20)
(0.472476 0.0472722 0)
(1.36824 -0.711355 2.72578e-19)
(1.88734 -0.416544 2.26281e-19)
(2.03541 -0.0557989 -3.28252e-22)
(1.33427 -0.598333 8.52022e-19)
(-0.224007 0.495496 5.24498e-20)
(1.75248 0.513471 0)
(1.41644 -0.757154 -9.77235e-20)
(1.64137 -0.759282 -1.30269e-20)
(1.22914 -0.411059 -6.46551e-19)
(1.36902 -0.749412 1.14145e-19)
(3.69287 0.395943 -4.09424e-19)
(2.0072 0.341348 4.70166e-21)
(1.11256 -0.471338 2.94847e-19)
(1.88466 -0.388839 0)
(2.29379 -0.00149667 -1.08816e-19)
(2.10701 -0.0712895 -2.32965e-21)
(2.96099 0.293474 -3.67898e-19)
(3.51494 -1.90248 0)
(3.39199 0.230602 5.62717e-20)
(0.482205 -1.59361 1.08132e-18)
(1.74365 -0.752699 8.45842e-19)
(3.83334 -1.36832 2.07055e-20)
(2.46379 -1.69529 -3.95039e-19)
(0.0349115 -0.595717 7.64085e-19)
(2.12578 -0.798802 3.22553e-19)
(2.02397 -0.00380238 -5.94464e-21)
(-1.91403 1.38854 -7.80936e-20)
(2.38998 -0.0637095 1.80122e-20)
(2.96176 0.0838499 0)
(2.01051 0.0494346 0)
(2.27835 0.222794 0)
(1.89115 -0.725762 -3.23326e-19)
(1.65031 -0.442917 6.84771e-20)
(0.172075 1.01577 0)
(1.36634 -0.443232 -1.3921e-19)
(1.43723 -1.25578 0)
(2.4333 -0.766243 0)
(1.75774 0.0310122 0)
(2.01594 0.0805253 0)
(-0.435579 -0.127306 -2.06246e-19)
(1.22734 -0.841521 0)
(2.01923 -0.6668 1.91484e-19)
(1.88044 0.0975451 0)
(1.98258 0.0408371 0)
(1.99667 0.235589 4.26304e-21)
(1.28048 -0.696173 0)
(1.84058 -0.529107 0)
(-0.835953 1.63941 0)
(1.99155 0.0828834 2.52162e-20)
(2.04794 0.175924 0)
(2.4028 -0.91942 -3.92773e-21)
(1.93248 0.346222 1.60068e-21)
(0.314179 -0.369453 -8.48641e-20)
(2.02306 -0.0135956 4.89173e-19)
(-0.276953 0.0954618 -9.27976e-20)
(1.18984 0.652146 -5.05057e-19)
(1.59912 0.513023 0)
(2.54822 -0.236028 9.79037e-21)
(1.74601 -0.239984 -2.00812e-19)
(1.69897 1.44549 1.22897e-19)
(1.8457 0.333047 3.18783e-19)
(0.935478 -0.355844 -6.27677e-19)
(1.64545 -0.724204 -3.34101e-19)
(1.90073 -0.772351 2.5599e-20)
(1.58759 -0.597627 0)
(2.68599 -0.543194 -2.34623e-20)
(1.64085 -0.576506 3.64514e-20)
(2.47048 0.0567413 -6.42331e-20)
(1.24364 -0.597923 0)
(1.85528 0.00761628 -2.42536e-19)
(3.7358 0.0716562 -1.24724e-18)
(1.49711 -0.617652 4.37081e-19)
(1.38349 -0.636318 -5.29619e-19)
(1.82384 -0.83602 0)
(1.90144 -0.830419 0)
(1.90421 -0.637694 1.79942e-19)
(2.43804 -0.357226 -1.01376e-19)
(2.77418 -0.378629 -4.08635e-19)
(1.89342 -0.0324568 5.19986e-21)
(1.34659 -0.411101 -1.29557e-19)
(1.81873 -0.569429 3.61182e-19)
(2.35958 0.130379 0)
(2.28061 0.156075 2.75045e-20)
(0.567426 -0.747286 -3.94372e-19)
(1.71618 -0.563742 1.63491e-19)
(1.30956 -0.255869 -8.4089e-20)
(-0.695875 1.52697 1.38039e-18)
(2.71658 -0.298173 3.4115e-19)
(2.47114 0.351993 8.71675e-20)
(2.28965 0.328855 0)
(1.54188 -0.739158 0)
(2.40439 -0.893689 1.19672e-21)
(1.28946 -0.336288 0)
(1.92751 -0.416286 1.47888e-19)
(1.74491 0.166256 4.16645e-19)
(1.67107 0.400327 -1.21825e-19)
(1.71566 -0.701227 8.66038e-19)
(2.0087 0.0440888 -1.87342e-22)
(1.90718 -0.0362112 0)
(1.98371 -0.0629732 -3.31157e-21)
(1.8038 0.0520391 -1.71282e-18)
(2.12471 0.206046 0)
(2.84875 -0.195767 0)
(2.04248 -0.819609 1.20928e-19)
(1.90673 0.463148 1.67253e-19)
(1.22986 -0.261232 0)
(1.92775 -0.3752 7.9499e-21)
(1.96558 0.0944117 9.32495e-20)
(2.32414 0.238196 4.23231e-21)
(1.74559 0.367784 3.46384e-19)
(1.48598 -0.812479 -1.18687e-19)
(1.50041 0.125796 0)
(-1.68991 -0.0365682 -3.75969e-18)
(0.641969 -0.28918 9.44977e-19)
(2.14975 0.0294849 1.23785e-20)
(-0.65376 -0.873124 -1.37248e-18)
(1.9268 -0.79579 2.42174e-20)
(2.43412 0.123624 1.77233e-19)
(1.74042 -0.771785 0)
(1.88599 0.17607 4.40745e-21)
(1.86519 0.00298207 7.55628e-20)
(2.32969 -0.0169045 -1.27271e-19)
(2.20842 0.310467 -6.44048e-20)
(2.3581 -0.836149 0)
(1.47067 -0.831425 0)
(2.2855 0.021166 0)
(2.30068 0.24012 -2.23421e-20)
(1.20428 -0.572568 6.37216e-19)
(2.58416 1.50992 -1.16975e-19)
(1.59528 -0.191263 0)
(1.32884 -0.605788 -5.86351e-20)
(1.4831 -0.738466 9.79806e-20)
(1.47396 -0.902759 0)
(1.92764 0.279967 -9.81855e-20)
(1.72726 0.136014 -1.38985e-19)
(2.18673 -0.294913 -3.46577e-20)
(2.01583 0.0467582 -6.96017e-21)
(0.828448 -0.311921 0)
(2.17989 0.190319 -9.37794e-20)
(2.14199 -0.425642 0)
(2.11383 -0.239623 7.96209e-21)
(1.14682 -0.032354 0)
(2.24652 0.641016 3.11431e-20)
(1.81351 -0.728628 -3.83613e-19)
(2.45535 0.547668 0)
(1.8189 -0.145087 -3.74603e-19)
(2.01578 0.0487491 1.11959e-20)
(1.79125 -0.034777 0)
(1.27474 -0.605905 0)
(0.668569 0.102826 -8.13612e-20)
(2.45212 0.0837751 -8.22426e-21)
(1.52102 -0.584363 -4.59514e-20)
(1.10419 -0.778014 3.61224e-20)
(2.2046 -0.076545 1.98911e-21)
(3.94272 -0.774503 1.15894e-18)
(1.73754 0.339909 -1.51148e-21)
(1.94509 0.425142 0)
(3.23728 -0.0192884 4.91557e-19)
(1.87244 -0.84974 0)