/*--------------------------------*- C++ -*----------------------------------*\
| =========                 |                                                 |
| \\      /  F ield         | OpenFOAM: The Open Source CFD Toolbox           |
|  \\    /   O peration     | Version:  2306                                  |
|   \\  /    A nd           | Website:  www.openfoam.com                      |
|    \\/     M anipulation  |                                                 |
\*---------------------------------------------------------------------------*/
FoamFile
{
    version     2.0;
    format      ascii;
    arch        "LSB;label=32;scalar=64";
    class       surfaceScalarField;
    location    "2.1";
    object      phi;
}
// * * * * * * * * * * * * * * * * * * * * * * * * * * * * * * * * * * * * * //

dimensions      [0 3 -1 0 0 0 0];

oriented        oriented;

internalField   nonuniform List<scalar> 
7520
(
-0.992918
0.712708
0.28021
-1.37012
-0.156478
1.5266
-0.0608481
-1.6155
1.67634
0.253025
-0.0337696
-0.219255
-0.164591
1.40066
-1.23607
-0.0983596
0.10579
-0.00743084
-0.271876
2.09048
-1.81861
-0.01171
-1.57793
1.58964
-1.29014
1.22929
1.07395
-0.0353837
-1.03857
-0.234341
-0.119089
0.35343
-0.170367
-1.83609
2.00646
0.748588
-0.0982359
-0.650352
-0.111017
0.152973
-0.0419556
-1.76258
0.962412
0.800164
0.180662
1.58388
-1.76454
-0.169957
-0.0387425
0.208699
-0.0295656
0.30591
-0.276344
0.0762686
0.0327391
-0.109008
0.0669771
-0.236934
-0.462083
-0.224871
0.686954
-1.06834
1.249
-0.0332857
-0.332534
0.36582
0.180628
-0.163938
-0.0166894
-0.0237271
0.0903837
-0.0666566
0.273887
-0.269884
-0.00400279
0.824387
1.15055
-1.97493
-0.0382829
0.336563
-0.29828
0.00556944
0.0706992
0.220688
-0.0351164
-0.185572
-1.0896
1.76587
-0.67627
-0.054094
-0.02074
0.0748341
-1.75194
1.97183
-0.219895
-0.337117
0.410234
-0.0731173
-0.160745
-1.23745
1.39819
-0.690215
0.89984
-0.209626
0.295432
-0.578861
0.28343
0.835297
-1.59083
0.75553
0.0938184
-0.343881
0.250063
-0.0497961
-0.113177
0.162973
-0.0305262
0.283551
0.52963
0.00172155
-0.531352
0.313279
-0.0393927
1.91472
-1.19543
-0.719286
-0.387701
-0.718016
1.10572
-1.54523
1.68061
-0.135383
0.0341512
0.126604
-0.160756
0.300734
-0.0928199
-0.207914
-1.36672
0.277121
0.296003
-0.0800662
-0.215937
1.72675
0.183457
-1.91021
-0.707615
0.232256
0.475359
-0.060706
0.0559149
0.00479112
1.01859
0.517873
-1.53647
0.0158988
-0.114258
-0.78047
0.0990574
0.681412
0.365034
-1.25016
0.885126
-0.0427996
-0.133224
0.176023
-0.133386
0.0792919
-2.28121
1.10799
1.17322
1.72739
-1.1649
-0.562487
-0.0180438
-0.0479254
0.0659693
-1.18709
1.02634
0.898307
-0.149719
-0.0158736
-0.0448324
0.0043455
-0.115363
1.09714
-2.13026
1.03312
0.153681
1.57307
-1.2899
1.02193
0.26797
0.336383
-0.254896
-0.0814872
-0.51483
0.879863
0.591325
-0.804852
0.213527
0.360678
-0.099457
-0.261221
0.411351
-0.509954
0.0986028
0.772411
-1.62332
0.850913
0.140163
-0.122576
-0.0175874
2.36416
-0.892999
-1.47116
0.459651
-0.79717
0.337519
1.65709
-1.38838
-0.26871
-0.882606
0.102136
-1.51106
-0.770144
0.68187
0.132507
-0.814377
0.271699
-0.668719
0.39702
-0.00125559
-0.335861
0.319659
-0.349225
0.239763
-0.0190752
0.0281855
-0.0424607
0.0142752
1.28595
1.07821
-1.5926
1.78935
-0.196748
1.18306
0.544331
-1.00763
1.14785
-0.140224
-0.0251793
0.178589
-0.15341
1.40842
-1.57879
0.262233
0.213286
-0.119468
0.609257
-0.261563
-0.347694
0.00785317
0.0926527
-0.100506
-0.563647
0.374189
0.189458
1.53224
-0.759829
-0.760549
0.658958
0.101591
0.842389
-0.814617
-0.027772
-0.0964082
0.121502
-0.0250934
0.0711813
-0.0809093
0.00972791
2.15055
-1.35835
-0.792199
0.558709
-0.503552
-0.489366
-1.34373
0.828896
-1.85969
1.58782
0.190889
-0.0870564
-0.103832
-0.323369
0.0890281
-0.174213
0.17289
0.0013236
-0.348229
0.425011
-0.0767825
1.89367
-1.05837
0.109192
0.016647
-0.125839
-0.793129
0.331046
0.0406006
0.116629
-0.157229
-0.0386639
0.720534
-0.751893
0.386749
0.365144
1.18405
-2.05109
0.867044
0.0640658
0.116562
-0.149641
-0.557974
-0.323958
0.0330843
0.290874
1.51687
-0.442917
-0.201273
0.441581
-0.240308
0.112175
0.0856354
-0.197811
0.106807
-0.102179
-0.00462858
0.687905
-1.79134
1.10343
0.407889
-0.441175
-0.345658
-0.0827963
0.428454
-0.0390278
0.14822
0.121191
0.245542
-0.366734
0.163845
0.0347345
-0.19858
-0.0689563
0.232802
-0.632923
-0.11897
0.214534
-0.66741
0.452875
-0.682708
1.40511
-0.722402
0.346764
-0.385988
0.0392235
-1.15393
-0.1898
-0.0369559
-0.0555246
0.0924805
1.38407
-0.365473
-0.63829
0.449285
0.189005
-0.00441515
0.14202
-0.137605
0.312463
-0.0812427
-0.23122
0.231608
-1.8471
0.282923
-1.82815
-2.06599
0.877836
1.18815
-0.883656
-0.406241
-1.20813
0.835067
0.373065
1.68692
0.270169
-1.95709
0.198153
-0.247949
0.17654
0.525413
-0.701953
-0.459752
-0.628565
1.08832
-0.130296
-1.07784
-1.7655
0.0135603
0.0201276
0.00805798
0.0736848
-0.144174
0.070489
0.306073
-0.348872
0.689249
0.15314
-0.168907
0.138381
0.0146371
-0.0149689
0.000331734
0.790465
-0.451785
-0.338679
-0.553086
-1.20949
0.142554
-0.602306
0.0633488
-0.602384
0.539035
-0.178715
-0.089493
0.268208
-1.58581
0.827081
0.758729
0.421817
-0.586407
-0.0653884
0.4771
-0.411711
0.143059
-0.166786
0.546454
-0.249899
-0.296555
0.700633
-0.0913765
0.257866
-0.337932
0.96573
0.207534
-1.17326
0.316327
-0.354609
-0.307024
-1.41344
1.72047
1.28653
0.65791
0.725865
-0.454166
-1.11447
0.424251
-0.682127
0.927473
-0.245345
-0.0115665
-0.0271484
0.0387149
0.273795
-0.331899
0.0581042
-0.873191
0.834527
-0.294735
-0.152484
0.44722
-0.242519
0.0638046
-0.838275
0.901624
0.401853
-0.981741
0.579888
-0.50967
-0.0539768
0.714924
-0.419493
0.151995
-0.0118313
0.388284
-0.277049
-0.111234
0.0105125
-0.358741
-0.418414
-0.24214
0.660555
0.139204
0.221474
-0.780045
-0.843279
-0.858612
-0.727198
-0.0512953
-0.117048
0.168343
1.05109
-0.549437
-0.501653
-0.921406
0.238698
-1.17962
2.13197
-0.952346
0.383047
0.163407
0.277108
-0.25064
-0.0264678
-0.750522
0.600881
0.663139
-1.05084
1.77731
-0.0874883
-1.68982
-1.5888
2.15825
-0.569446
-0.0290008
0.102686
0.459768
1.26073
-1.7205
0.0368433
-0.185387
0.148544
-0.149552
1.88242
-1.73286
0.00135755
0.122023
-0.12338
-0.879715
1.25498
-0.375264
-0.0532743
-0.697247
0.101256
-0.51967
0.31049
-0.24864
-1.62502
1.87366
-0.136072
0.168812
-1.7334
0.953356
0.34166
-0.0229666
-0.318693
-0.146984
0.259159
0.14274
1.55408
-1.69682
-0.549496
-0.604196
1.15369
-0.535851
0.432629
0.103222
2.31414
-1.49603
-0.818112
0.499581
-1.04908
-0.0741292
0.0603763
0.0137529
0.118788
0.750549
-0.869337
0.0634665
-0.0660723
0.00260583
0.78819
0.815147
-1.60334
-0.231519
-0.529031
-0.0664845
0.187705
-0.121221
-0.938275
0.670268
0.268007
-0.0906713
0.0471712
0.0435001
0.832056
0.219034
1.11068
-2.01773
0.907048
-2.56807
1.17293
1.39514
-1.13426
-1.43381
-0.383415
0.435765
-0.0523499
-0.339043
0.278192
0.0608512
0.429547
-1.19734
0.767793
0.00112538
1.10827
-1.1094
-0.50345
0.635957
1.10855
-0.142822
1.00714
0.993161
-2.0003
-0.214354
0.10943
0.104924
-0.00661421
-0.931661
1.80962
-0.4138
-1.39582
0.149855
-0.113012
0.0182904
-0.266917
0.228174
0.959767
0.84985
0.266322
0.580731
-0.847052
0.381158
-0.0445951
0.0969191
-0.285329
0.18841
-0.28575
0.29251
-0.00675999
-1.81793
0.869
0.948933
-0.216555
-0.122488
0.853126
-0.638592
0.661372
-0.0173663
-0.644005
0.148681
0.152053
-1.92604
1.87027
0.0557673
1.11217
-0.710316
-0.0378854
-0.0161811
0.0540665
0.0104085
0.0683965
-0.078805
0.127322
-0.226779
1.71373
-0.61659
0.0531307
-0.180238
0.127107
0.000505935
0.0141312
-0.435202
0.316113
0.449667
-0.71123
-0.699483
0.700608
0.268393
0.119891
2.09048
-0.0212475
0.0109445
0.010303
-0.715506
1.16517
-0.229309
0.151054
0.0782548
0.14961
-0.0784283
0.0116285
0.518002
0.87514
-0.6986
0.439148
-0.388073
-0.0510747
0.350885
-1.2306
-0.100531
0.221722
-1.66736
1.41872
-0.00266217
-0.071467
-1.67906
0.248226
-0.252641
-0.117928
-0.0862256
0.204154
-0.617824
-1.20011
1.17876
0.971788
1.70858
-0.8815
-1.83609
0.325587
-0.52686
-0.0998289
-0.028277
0.128106
0.181821
-0.272924
0.0911027
-1.2482
0.530185
-0.204967
-0.274485
0.479451
0.82342
-0.858803
-0.0744411
-1.84134
1.91578
0.907261
0.216594
-1.52318
1.30658
0.958705
1.01313
-0.887228
1.38726
-0.927496
-0.0406501
0.403959
-0.363309
-0.885544
0.803007
0.0825362
0.0969184
-0.0437877
-0.0874771
0.345314
-0.257837
-0.305833
-0.202569
0.508402
-0.524707
1.81124
-0.283366
-0.39011
0.673476
0.240965
-0.206814
0.252377
-1.26
-0.196753
0.293672
0.00938229
-1.92065
1.06533
0.855321
0.393792
-0.492028
0.00856107
-0.0592092
0.405974
0.967935
1.3462
1.6286
-0.541676
-1.08693
0.138647
-0.0490363
-0.0896107
0.997744
0.659348
-0.0815621
-0.0182668
0.607309
-1.67841
1.0711
0.22346
-0.257417
0.0339563
0.598954
0.933287
-0.241719
-0.102162
0.759567
-0.493246
-0.574035
1.39842
0.180225
0.0106637
1.91029
-0.726248
0.157218
-0.149365
1.72563
-0.0970305
0.112899
0.421158
0.01799
0.0184566
0.317926
-1.67623
-0.900695
1.02585
-0.125157
0.00633774
-0.128914
1.82864
0.00260595
-1.83125
-0.742255
0.458888
0.24096
0.0715032
-0.32799
0.0730944
-0.187333
-1.20105
1.55661
-1.57091
0.0142997
0.0618368
-0.384204
0.322367
-0.978177
1.57713
-0.862992
1.5509
0.12287
-0.0610333
0.766302
-0.379553
1.94764
-0.539219
0.00510415
0.134758
-0.139862
-0.12817
-0.0498599
0.17803
0.136247
0.00240041
0.176577
-0.812658
0.130124
0.120068
-0.250191
0.546654
0.858456
-1.73601
1.42899
0.140828
-0.486486
-0.372555
0.96388
-1.11526
1.30926
-0.194007
0.558946
-1.94763
1.79808
2.17619
-0.89024
0.88289
1.03183
-0.0806285
0.297272
1.25933
-1.40085
0.320236
1.08061
0.271005
-0.306121
-0.383476
0.16692
-0.238972
0.170016
0.245434
-1.44086
0.716878
-1.14974
0.432867
-1.74205
0.806153
0.935894
-0.33082
-0.474032
0.0949721
-0.113016
0.0883122
-0.0282605
0.377342
-0.349081
-0.568589
0.503201
1.20221
0.973973
-1.5888
0.0488087
0.0579987
1.63033
-1.42902
-0.201304
-0.454289
1.71502
-1.24281
2.12159
-0.878774
-0.80565
0.985192
-0.179542
0.17946
-1.36655
0.0316182
0.246574
-0.277127
0.447646
-0.170519
-0.066843
-0.0140663
1.36714
0.557617
-1.27034
0.712718
-0.0168007
-1.54653
1.56333
-0.057524
-0.116689
0.0598723
-0.481786
0.421913
-0.838725
1.17719
-0.33847
0.216501
-0.150701
-0.0658004
-0.118483
0.904133
-0.785651
-1.86202
1.70554
1.82288
-0.44819
-1.37469
0.562495
-0.4116
-0.150895
-0.0126008
0.194422
0.155819
-0.665489
-0.853015
1.6412
0.0566295
-0.0160289
1.77731
-0.99699
1.11578
-0.0268001
0.0268001
-0.270401
0.224294
-1.8169
2.25543
-0.93339
-1.32204
-0.510226
0.805819
-0.295593
0.0552422
0.0908075
-0.14605
1.0614
-1.13527
0.0738692
-0.482248
-0.320641
0.802889
0.931355
-1.98424
1.05288
-0.0369478
-0.848596
-0.244528
0.116358
-0.284054
-0.505441
0.789496
0.716251
0.478783
-1.19503
-1.27346
-0.420079
0.702244
-0.282165
-0.410247
1.33318
-0.922938
1.49503
-1.35229
-0.104325
0.234448
-0.172163
-0.101959
0.51331
-1.12793
0.773157
0.354771
-1.59834
1.75252
-0.15418
-0.0187496
0.144812
-0.126063
-1.36962
-0.760647
-0.0167882
0.0223577
-1.69961
0.51999
-0.388915
0.301438
-0.346875
-0.458775
-0.0505905
0.274051
-0.651891
1.65903
0.0465619
-0.379096
-1.49416
0.112274
1.38188
0.479894
-0.890863
0.410969
-0.875849
0.193722
0.217458
-0.592524
0.375067
1.63024
-0.179528
-1.45072
-0.0113104
-0.109824
0.121134
-0.323543
0.603222
0.44438
-1.0476
-0.384933
1.34735
0.288939
0.650504
0.733564
-0.0259512
1.532
0.193638
-1.40242
1.38562
-0.197389
-0.0353971
0.232786
-0.261996
-0.0517979
0.313794
-1.77298
0.530171
-0.312754
0.314476
-0.634236
-0.266458
0.263139
0.903277
-0.422204
-0.481073
0.208874
0.104405
-1.05196
1.88307
-0.831112
0.190838
-0.240698
-0.0887464
0.362542
0.26924
-0.546367
-0.0769283
-0.246536
0.323464
-0.0172368
0.0951117
-0.0778748
0.589937
-0.715326
0.125389
0.0080769
0.0493676
-0.0574445
-0.30874
0.34404
-0.0353001
0.267913
-0.65214
0.384227
0.330296
-0.0592911
0.0173461
0.43259
-0.449937
1.03686
-1.02871
-0.946225
-0.680666
-0.0160359
0.696701
0.13071
0.0381015
-0.301151
-0.2347
1.04483
-0.141553
-0.0962703
-1.1817
1.27797
-0.328525
0.00456683
-0.110629
-0.522294
-0.447474
0.328991
0.184698
-0.18334
-1.35291
-0.0387433
-0.0874498
0.126193
1.23715
-1.02961
1.05146
0.771418
0.825981
-0.16461
-0.217503
-1.62541
1.84291
0.463455
0.656525
-1.11998
-0.292861
-0.991058
0.519405
0.471653
0.916182
-0.436288
-0.0749348
-0.156107
0.231042
2.26217
-1.26529
-0.996874
0.143525
-0.329209
0.185683
0.474911
0.631205
-1.10612
0.0790824
0.10838
-0.187463
1.62011
0.0256672
-1.64578
0.287962
0.0179472
-0.269677
0.316239
0.104339
-0.0289248
-0.0754142
0.390452
-0.0707931
0.0317571
0.00466872
-0.0364258
-0.74022
-0.505413
1.24563
1.10307
0.52717
1.03641
-1.13268
0.214136
-1.05286
-1.81543
1.74099
-0.13595
0.221586
0.318596
-0.61817
0.299574
0.848495
0.860086
1.12923
-1.28609
0.156865
1.22861
-0.578104
-0.15565
0.106614
-0.0393073
0.166882
-0.127575
-1.39858
-0.303064
1.70164
-0.374981
0.45516
-0.080179
-0.00177875
-0.0250214
0.464396
0.936265
-0.154513
-0.0598406
1.13169
-2.11731
0.985621
-0.979993
0.0590654
0.920927
1.69823
-0.587541
-0.0411351
0.499219
-1.12778
-0.281206
0.00539064
0.275815
0.0218317
-0.207403
-0.639254
1.19687
0.019348
0.0441185
0.246514
0.0868119
-0.333326
0.0820019
0.979401
-0.0881311
-0.579279
-0.327919
-0.419769
0.452853
0.589861
-0.936736
-0.114958
0.131605
-0.0451776
0.273352
-1.9034
0.874689
0.0367168
0.193506
-0.230223
0.114935
-0.0888137
-0.0261216
0.257743
0.850529
-0.0555216
0.00759614
-0.02264
-1.58165
1.60429
-0.127194
-0.49215
0.619344
-0.0533634
0.0758282
-0.0224648
-0.391217
1.1081
-0.20964
-0.310632
0.520272
-0.29831
0.515768
-0.708428
1.68661
-0.978182
-0.833937
0.560433
0.273504
1.69346
-0.00654087
-0.301633
-0.0608796
0.362512
0.344257
-0.0987148
-0.190802
-0.287948
1.01163
0.777724
0.474715
-1.30933
0.834614
-0.816277
-0.198053
1.01433
0.20561
-0.226001
0.0203908
0.107859
0.287465
-0.395325
0.32436
0.23453
-0.558891
0.113326
-0.310079
-0.919405
0.0926433
-0.00225956
0.194634
0.0990386
-0.131584
0.411339
-0.279755
-0.246505
0.285031
-0.0385258
-0.193044
0.00551578
0.187529
0.796393
-0.406034
-0.0343103
-0.00815042
-0.312954
-0.438733
0.751687
1.21439
-0.956646
-0.0324742
-0.343465
0.375939
-0.337393
-0.477224
-1.34188
1.49556
0.677734
-0.152321
-1.27323
0.847256
0.425975
0.258125
-0.107837
-0.150288
1.77652
-1.77652
-1.67744
0.166378
-0.915095
-0.196117
-0.654202
0.850319
0.542051
-0.56045
0.0183994
0.0756279
0.00930124
-0.144832
0.135531
-0.0402357
0.231443
-0.191207
-0.599126
1.19104
-0.591913
-0.270142
-0.0583576
0.3285
0.814565
-0.635105
-1.08503
0.268753
-0.0428457
-0.232439
0.275285
-0.120577
-1.28027
-0.68629
-1.15344
0.467145
0.858331
-0.0531573
0.244738
-0.191581
-0.287854
0.350472
-0.0626188
-0.2504
0.183916
-0.0879178
-0.218878
0.10095
0.0399613
-0.0382184
-0.132276
0.170494
0.132852
0.0340302
-0.354899
0.372245
0.173188
-0.213637
0.0404483
0.0201034
0.0351599
-0.0552632
-0.184417
0.260652
-0.0762357
-0.0707892
0.188157
-0.117368
-0.761072
1.19394
0.701739
-1.06722
0.365478
-0.173129
-0.0814828
0.254612
-0.0494182
-1.91775
1.96717
0.849895
-0.620955
-0.22894
0.346342
-0.0809877
-0.191936
0.201633
-0.0850042
-0.0623133
0.205839
0.348329
-0.897584
0.549255
-0.463535
-1.4625
-0.240398
0.916402
-0.676003
0.126144
-0.165172
0.426305
-0.286759
-0.139546
0.215686
-0.52864
-0.558987
-0.316524
0.362046
-0.0455226
-0.54783
0.342863
-0.126001
0.575287
0.140239
-0.129831
-1.39466
0.0363104
-0.299298
0.568537
-0.0244563
-0.220072
-0.16549
0.0379156
0.269662
-0.32282
-0.0876737
-1.18058
0.419512
2.01859
-0.136179
-1.62502
2.21667
-1.07468
-1.14199
-0.126991
0.50118
-0.145563
-0.737043
0.533938
-0.523425
-0.261448
-0.0197578
-0.595645
-0.467979
1.06362
-0.0558846
-0.105626
0.16151
0.0216949
-0.905351
-1.86398
-0.333653
-0.333492
0.667145
0.311759
-0.438953
-0.260681
-0.0407215
0.301403
0.492117
-0.0842277
0.182383
0.0757428
1.96849
-1.03713
-0.968051
0.372406
-0.26497
-0.0530681
0.318038
-0.0465062
-0.0255261
-1.10975
-0.313524
-0.0739989
0.387523
-0.0952699
-0.0381161
0.904949
-1.22581
0.320862
-0.641351
-0.0420833
1.81861
0.263921
-0.702654
1.15726
-2.02925
0.871988
-1.96181
1.21217
0.749636
0.175409
0.108993
-0.284403
0.150602
1.13144
0.0483264
0.814594
-0.86292
-0.0318671
-0.148371
0.260689
0.301805
-0.0221946
-0.311787
0.333981
1.2499
-1.4674
0.398623
-0.180849
0.222412
-0.0415625
-1.51722
-0.160218
-0.650473
-0.992421
0.311755
0.119285
0.00357567
-0.12286
-0.651911
0.341173
0.310737
-0.403515
0.362865
-1.10968
-0.561724
1.67141
-0.145388
-0.0454619
0.100704
0.474318
-0.540496
0.0661776
-0.890531
1.69668
-0.179876
-0.852464
0.342238
0.62315
0.229976
0.692871
-1.292
0.0526324
-0.0628566
0.0102242
1.29525
-0.238435
-0.997636
-0.360533
-0.0785827
0.439116
-0.0556415
0.225657
-0.0521556
0.273696
-0.22154
-0.281707
-0.0675173
0.147978
0.727163
-0.363201
0.325507
-0.0676404
-0.416838
0.357629
-0.175425
0.022597
0.152828
0.272061
-0.105248
-0.166814
-0.162013
-0.0430446
0.205057
-0.210453
-0.0274038
0.237857
-0.0509054
-0.146905
-0.262284
-0.12192
0.00917667
1.21162
0.175009
-0.0583999
-0.116609
0.269046
-0.124476
-0.14457
-0.0795091
0.424015
-0.344506
-0.359635
0.27994
-0.70002
0.0969246
0.381543
-0.0754702
0.192354
-0.0492949
-0.146201
-0.0391857
1.85759
-1.04244
0.587268
-0.915713
0.328445
-1.57106
0.229183
-0.0670757
-0.137183
0.204259
-0.0477604
-0.0429109
-0.813696
-1.14811
0.378133
-0.0618064
-0.840278
-0.838131
0.340065
-0.0935507
0.00840484
0.465914
1.13042
-0.786914
-0.82977
1.30449
-1.64914
0.250562
0.295557
-0.238423
-0.0571346
-0.143076
-0.189245
-0.409008
0.598253
0.15709
-0.0299828
-0.653679
-0.655384
1.30906
-0.908161
-0.9915
1.89966
0.607123
0.423192
-1.03031
0.000785018
-0.260517
-0.0560069
-0.260215
-0.286151
-0.194461
-0.103685
0.298146
0.655023
0.433294
0.2894
0.136905
-0.248671
-0.63295
0.00608329
-0.0273308
-0.530068
1.51759
-0.987527
-0.151775
-0.236734
-1.59896
-0.152183
0.0351357
-0.588543
-0.152348
-0.214386
-0.812841
0.17425
-0.180081
-0.899207
-0.353392
1.2526
-0.266119
0.800057
0.42581
0.380009
-0.312523
-0.984104
-0.919292
-1.27778
1.35165
0.0837907
0.0837406
0.0324742
-0.0921659
0.0596917
-0.657817
0.598889
0.0589276
0.739603
-0.792877
0.318238
-0.281521
-1.12774
-0.145492
0.139352
-0.12504
-0.0143121
0.634515
-0.0445785
-1.42188
-0.0731949
1.49508
0.0240793
0.108773
0.0512331
0.340846
-0.392079
-0.261047
0.443235
0.115474
0.0893763
0.0316157
-0.120992
-1.26135
0.847547
0.149069
0.00802067
-0.192992
-0.136217
-0.347145
-0.0879271
-0.0270306
-0.0833473
-0.356558
-0.00422545
-0.0711888
0.401225
1.46905
-0.802202
1.68509
1.0125
0.513033
-0.833675
-0.0123615
-1.40952
0.52997
-0.342795
0.402664
-0.0598689
-0.0814593
-0.0207196
-0.126649
0.0291141
-0.0614505
0.140742
-0.0669585
1.49575
-1.4288
0.126645
-0.823893
-0.129058
-0.279
-0.0698719
-0.0795044
-0.300056
0.377214
-0.0771584
0.00709569
-1.45005
1.44296
0.657909
0.210934
0.331117
-1.24557
-0.593635
0.995415
-0.401779
0.0371691
0.0261388
-0.114952
-0.59445
0.55369
0.0407604
0.348249
-0.499692
0.151443
-0.155337
-0.607427
0.762764
-0.292246
-0.0623634
-1.9495
0.0752388
0.199896
-0.194792
0.0486798
0.177118
-0.0280486
0.356635
-0.690128
2.18975
-0.91682
-1.27293
-0.0797182
0.445398
0.352894
-0.301661
0.229874
0.132172
-0.199
-0.00891402
-0.405264
0.404008
-0.44971
0.815353
-0.97069
0.159648
-0.105487
-0.0541603
-0.385619
-1.83176
0.946768
0.884993
-1.74714
1.69772
-1.13008
0.504228
0.62585
-0.676641
-0.117409
0.79405
0.418241
0.626588
0.030177
0.210816
0.821798
0.888097
0.00718462
-0.27397
-0.0127892
0.990026
1.19972
-0.269012
-0.0163172
1.36622
-1.09605
-0.0385438
-1.39864
1.43719
1.1662
0.0454214
-0.30889
-0.0800256
-0.123593
0.200149
-0.275944
-0.0681508
-0.315325
0.170204
-1.12433
0.954122
-0.0384721
2.28131
-1.44705
-0.834264
-0.0205788
0.135058
-0.0442505
0.751982
0.0825452
1.60879
-1.44242
1.00996
-1.91812
-1.23536
0.0364893
1.19887
-0.863882
0.23625
0.627633
0.280233
-0.181194
1.97044
0.0614776
-2.03192
-1.11827
1.62698
-0.508706
0.0505041
0.234527
-1.19142
0.781178
0.0232999
-0.0259621
-1.34412
0.228862
0.00547477
-0.0284881
0.0230133
-0.157669
0.225055
-0.0673858
0.0885321
-0.45557
0.367038
0.576908
0.448943
-0.520614
-0.131296
0.0159959
0.881634
-0.918581
-0.0762255
-0.0679483
-0.272525
0.0565882
0.0621668
0.746531
-0.808698
0.029633
0.552733
-0.582366
0.0706846
-0.455883
0.385198
-0.564817
-1.42384
0.596375
0.827468
-0.0265464
0.840338
0.265128
-1.10547
-0.56735
0.243024
-0.266714
0.0236906
0.186207
-0.0376636
-0.265471
0.00478979
-0.305691
-0.814149
0.115548
-0.427131
0.830534
-0.403404
-0.819728
-0.294737
1.86503
-0.799698
-0.100534
0.197746
-1.31064
-0.0158256
-1.30971
1.32554
0.0669344
-0.0862104
0.019276
0.779628
-0.538204
-0.241424
0.166625
-0.0246051
0.213157
-1.25104
0.431316
-0.68781
1.20721
-0.0706463
-0.364556
0.311947
0.247412
0.0246494
0.849741
-0.390853
0.0458943
0.693709
-0.929874
0.3719
-1.90161
0.91011
1.44441
-1.43731
-1.5706
1.50364
0.257085
-1.44392
0.228813
1.21511
0.628935
0.287466
0.0353383
-0.900623
0.704506
-0.142389
-0.129467
0.271856
-1.15034
0.345399
0.804939
0.317762
0.644326
-0.962088
-0.0117169
-1.26606
0.803229
0.0500275
-0.853256
0.268617
0.538105
-0.91066
0.210062
-0.0148724
0.0620436
1.5734
-1.54774
0.0592951
-1.00902
-0.414821
0.646144
-0.0239928
-1.21136
1.14304
-0.302698
-1.79808
-0.0380069
-0.254568
-0.918696
0.34872
0.237955
1.81543
0.275053
0.0808292
-1.19058
0.152396
-0.117662
0.142486
-0.448319
0.330215
-0.583363
0.253148
-0.133999
-9.7338e-05
0.134096
0.320614
-0.381493
-0.0739591
-0.211791
-1.10652
1.15012
-0.0436004
-0.74102
0.891503
-1.43913
0.547624
-0.826982
-0.0667891
0.110289
-1.42856
0.0722159
1.35634
-0.370005
0.928951
-0.693877
0.715572
0.150455
0.92906
0.632573
-0.960492
-0.812292
-0.210395
1.02269
-0.817075
-1.2076
0.553925
-0.134181
0.138079
-0.00389705
0.0798473
-0.102312
0.842798
-1.48205
0.0265915
-0.561138
0.534546
-0.31983
0.247409
0.0724207
-1.09743
0.489998
0.0399547
0.0269656
-0.246221
0.430248
1.83022
0.140228
-0.784485
0.832811
-0.288368
0.0953765
-0.855643
1.47945
-0.623804
-0.0851611
0.0690793
0.0829152
0.387673
-0.0218537
0.911813
1.22015
0.548036
-0.927589
0.322742
-1.81877
-0.180071
0.141328
0.0881148
-1.11773
-0.269068
-0.956744
-0.225879
0.056972
0.815667
-0.385419
-0.715905
-0.0169872
0.74415
0.198914
-1.7199
0.329812
1.39009
-0.0505724
0.493807
0.456094
-1.32054
-0.268261
0.785247
-0.358464
-0.426783
0.889978
-0.298803
-0.591174
-0.192088
0.0413869
0.670633
-0.652307
-0.0183264
-1.71804
0.739502
0.978543
0.955403
0.731207
0.000776996
0.118508
0.807888
-0.527947
-1.44497
0.546623
0.898351
-1.87366
1.5706
0.643701
0.796079
-1.43978
0.836393
-0.734257
1.76316
-0.75362
-1.00954
-1.08136
0.197668
-0.0910546
0.0600776
-0.105042
0.214473
-0.048995
0.139261
-0.0902665
-0.266075
-0.243879
-1.37244
-0.205491
0.0723903
-0.0945849
-0.0365015
-0.0295708
1.04688
-0.405543
-0.641336
0.827457
-0.486284
-0.150934
0.138333
-0.150231
1.27946
0.0329867
0.0339477
-0.269245
-0.82818
-1.47523
0.576026
-0.0539135
-0.110025
0.128693
0.108735
0.128761
-0.0962872
-0.501973
-1.05463
0.115784
-0.0909518
-0.0248323
0.19897
-0.547164
-0.965277
1.51244
0.16108
0.0160372
0.145157
1.0327
0.963493
-1.9962
-0.467828
1.07495
0.230142
-0.0917609
0.479528
-0.992044
-0.651373
1.64342
-0.923447
-1.03347
0.565491
0.299881
-0.12808
-0.171801
0.281045
-0.830482
-0.199881
1.23855
-0.347051
-0.193093
0.111851
-0.297137
-0.77008
0.02822
1.89021
-1.74099
-0.149222
-0.884954
-0.590279
0.190545
0.182613
0.0683244
-1.04972
-0.205127
1.25485
0.257645
0.455685
-0.107436
-1.59401
-1.98231
0.793896
1.18841
-0.175163
-0.00534483
0.180508
0.982492
-0.583707
-0.398785
0.120325
-0.181776
0.0834022
0.0894876
0.921992
-2.03167
0.788927
0.10105
-0.35898
-0.609071
-0.133312
0.0276865
0.165871
0.788838
-1.336
0.0187629
0.385196
-0.566923
0.464963
-0.0958711
-0.0220539
0.117925
0.746233
1.01693
0.543655
0.0520329
0.409749
-0.403735
-0.00601426
1.94763
-1.61782
0.232133
-0.580281
0.159049
0.0271587
0.142212
0.0204411
0.150053
0.00498811
-0.13917
0.560785
0.0466676
-1.71832
-0.0217993
-0.153364
-0.0799875
-0.0121783
1.00097
-0.575161
0.884919
-0.553973
-0.330946
0.00428326
0.117218
-0.00195793
0.0074327
0.407128
-0.130066
0.052191
-0.423325
-0.292001
-2.01709
0.911223
1.10587
0.204423
-0.0258333
0.0100185
0.111001
0.128762
-0.277035
-0.315489
0.455969
-1.44801
-0.094849
-0.955525
1.98823
0.629361
-0.148073
-0.481288
-0.787958
-0.441364
-0.119086
0.0995965
-1.07003
0.43636
-0.70777
0.271409
-0.329468
0.288501
0.0409674
-0.0608513
1.1303
0.991282
-1.61522
1.61782
-1.47329
0.886029
0.587259
1.02444
-1.97996
2.03912
-1.07119
-1.01416
-0.944508
-0.0411209
0.418463
-0.121304
-0.360482
-1.49099
0.0470622
-0.0163509
-1.26974
1.27298
-2.05401
0.781031
-0.0560856
0.254238
-0.540217
0.550334
-0.276831
0.942362
1.33895
-1.51409
0.658446
-0.12178
-0.801667
-1.33412
0.305533
-0.0170326
1.74714
-1.75368
-0.0951139
-1.27743
0.0414266
0.842134
-0.238912
-1.47822
1.63785
-0.159626
0.360806
1.60636
0.45378
-0.0651873
-0.388593
1.89948
-0.889516
0.248251
0.0848305
0.647379
-0.758008
0.107729
0.139683
0.0819625
0.91019
-0.992153
-0.713438
-0.456562
1.03477
-1.06854
0.0337628
-0.385106
0.311107
-1.6964
0.874916
0.821485
0.655778
0.12385
-0.762642
0.115786
0.857565
-0.627589
0.302866
-0.563082
0.184056
-0.233351
-0.657893
0.468648
-1.00487
-0.906825
1.9117
0.272823
-0.300227
0.299449
-0.370242
1.0068
-0.664565
0.0449416
1.00268
-1.80489
0.104995
0.355864
0.217925
-1.17457
0.0137606
0.698947
0.128103
0.106288
-0.611729
-1.35042
0.520655
0.0540388
-0.515896
0.461857
0.0722291
-0.330066
1.09541
1.12126
1.29439
-0.973532
-0.0148968
0.119556
0.172954
0.471043
0.299225
-0.366742
-0.71934
-0.955092
1.97953
0.166157
-0.192704
-0.811301
-1.06061
1.87191
-1.59406
0.475789
-0.0750819
-0.465602
0.121096
-1.39658
-0.0975792
-0.227084
0.663444
-1.03041
-0.986681
1.89021
0.655454
-1.38265
1.07155
-0.622605
-0.241102
-0.378897
0.32289
-0.268132
0.235658
-1.63006
0.231745
-0.82538
1.02704
-1.98214
-0.818087
0.265106
-0.363821
-0.0412733
-1.43695
0.861981
-0.687732
1.38525
0.909326
-1.66483
0.755507
1.72495
-0.985452
2.00646
-0.950094
-0.991268
1.94136
0.417907
1.26936
-1.01171
-0.800661
-1.18165
-0.863079
-0.610208
0.476988
-0.768619
1.64357
-0.874954
-0.122859
1.35829
-1.23543
-1.02847
-0.919145
1.94761
0.905699
0.129074
0.287273
0.399628
-0.788437
0.591609
0.196829
0.0415731
-0.282271
0.516718
-1.40167
-0.831533
-0.401391
-0.256426
0.228611
-0.380959
-0.71153
0.925057
-1.96387
0.952336
1.01153
-0.0858987
-1.58493
1.67083
0.107067
-0.269521
0.0783142
0.595795
-1.84367
1.84367
-0.0587881
-0.00819781
0.0669859
-0.6255
1.10428
0.306826
-0.00129286
-0.815541
-0.625011
1.0583
-1.61522
-0.0456899
-1.29534
0.298352
1.19805
-1.31863
-1.18801
0.138283
0.23349
-0.354067
0.120577
0.157285
0.513349
-0.149178
0.0151792
-0.944457
-1.18023
0.16578
1.01446
-1.3815
-0.0644181
-0.440006
-0.999121
-0.041673
0.131049
0.172618
-0.154688
0.384563
-0.0451586
0.0409331
0.367401
-0.289656
-0.368237
-0.73086
1.59345
-0.862593
0.373291
0.217313
-0.226141
0.426914
-0.200773
-0.400072
0.197503
0.435268
-0.561874
0.126607
-0.89735
1.55354
-0.909835
-1.49069
-1.6629
0.212851
-1.10151
0.0558154
1.02735
1.23482
0.126489
-1.04518
1.09465
-0.321495
-0.397491
0.326845
0.639907
0.619419
0.216974
1.97572
-0.948677
-1.00222
-0.892483
1.8947
1.1646
-0.0197838
-1.14482
-0.143406
0.0189296
-0.207755
0.189005
0.126747
1.35969
-1.48644
-1.46237
1.43731
0.0250543
1.46237
-1.50364
0.225548
-0.281634
-0.496399
1.0345
0.092181
-0.0477376
-0.0991676
-1.65572
0.132543
1.73866
-0.829336
-0.423702
-0.115651
0.138248
-0.450795
1.05213
0.273152
-0.0874685
0.702871
-0.662111
0.189633
-0.255433
-0.589948
-0.0787715
-0.0108971
-2.05796
0.511435
-0.0723345
0.447972
-0.375638
-1.09367
-0.96034
0.0960662
0.494499
0.61767
-0.896725
0.11224
-0.111497
-0.344386
0.107918
-2.00141
0.987248
0.0644499
-0.0927413
-0.230078
-0.0833549
7.63e-06
0.184224
-1.42535
0.86877
-1.54473
0.675959
0.0632514
0.260974
-0.324225
-0.412561
0.384284
-1.01754
1.3159
0.598995
0.475956
1.37217
-1.32054
0.196903
0.0440563
1.64064
-1.87482
0.234172
-0.320391
-0.220105
-0.84704
-0.00621685
0.387577
-0.46616
-0.179217
0.217132
-0.967465
-0.186871
-0.0124458
0.199317
-1.48354
0.235288
1.24825
-0.199572
0.223651
-0.0365195
-0.165132
0.201652
1.19124
-1.21523
0.195841
-0.195938
0.660784
0.189535
0.172749
-0.187061
-0.0763113
-0.0888606
0.23083
0.642862
-0.873692
-0.442901
-0.0126694
-0.963511
-1.02515
1.98866
0.0697059
-0.678819
1.00726
-0.847906
1.69772
-0.093225
-0.0498509
0.063036
0.0510421
-0.0611713
1.99114
-1.00111
-1.2164
0.803463
-0.571718
-0.516152
1.4145
-0.12667
-0.00339634
0.0830142
-0.084793
-0.405297
0.288688
-0.309533
0.205848
-0.227469
-0.44539
0.290702
1.03879
0.0676082
-0.150963
0.271753
-0.027015
0.0423409
-0.482028
0.166703
0.506048
-0.795704
0.221051
-0.25374
0.0326886
0.0441067
-0.130317
0.304062
0.826598
-1.13066
-0.264978
0.135511
0.388989
-0.655108
1.33735
-0.790699
0.980933
0.850775
0.0727015
0.568284
-1.03791
0.364834
-0.449061
-0.265852
1.03351
0.934973
-1.58697
1.58697
1.62115
-0.870334
1.12271
-0.0818457
1.52788
-1.44603
0.907562
1.03688
0.925818
-1.93069
0.16598
-1.13667
-1.35679
-0.217874
-1.42036
1.63823
-0.42084
-0.12699
0.0820864
0.713258
0.185554
-0.290801
-0.980442
1.77365
-0.79321
-0.179699
0.287428
-0.000140274
0.379889
0.536294
2.22861
-0.856521
-1.37209
1.53354
-1.46133
1.10179
0.207469
0.12144
0.00142979
-0.0252604
1.57934
0.580713
1.02613
0.856945
0.0228531
0.208208
-0.231061
-0.368563
0.232346
0.19224
-0.205488
0.0132483
0.171614
-0.231344
0.0597305
0.456309
-0.440313
0.348097
-0.499872
-0.190744
0.516331
0.0378096
0.0854309
-0.00980297
-0.569104
0.759702
-0.190597
0.101885
-0.0961541
-0.0057311
1.75368
-1.43592
-0.433242
0.252483
0.180759
-1.5734
-0.354733
0.279263
-1.0253
1.93286
0.273383
-0.343255
1.93552
-1.00971
0.26204
-0.32968
-0.1678
-0.530652
-1.32143
-0.126323
1.60153
1.26211
-1.04419
-0.10528
0.169346
-0.107417
-1.46349
-0.311337
0.307334
0.260402
-0.38946
-0.379187
0.302029
-0.102481
-1.32744
1.28889
-1.49895
1.51325
-1.18523
-0.494167
0.443092
0.668535
0.399621
-0.412411
-0.0725927
0.0655876
0.36124
-0.426828
-0.401801
1.36157
-0.988853
-0.973365
-1.94396
-0.0931337
0.0890938
0.0040399
0.0246315
1.39253
-1.41716
0.861554
-0.746006
0.33431
-0.394179