/*--------------------------------*- C++ -*----------------------------------*\
| =========                 |                                                 |
| \\      /  F ield         | OpenFOAM: The Open Source CFD Toolbox           |
|  \\    /   O peration     | Version:  2306                                  |
|   \\  /    A nd           | Website:  www.openfoam.com                      |
|    \\/     M anipulation  |                                                 |
\*---------------------------------------------------------------------------*/
FoamFile
{
    version     2.0;
    format      ascii;
    arch        "LSB;label=32;scalar=64";
    class       volVectorField;
    location    "2.1";
    object      U;
}
// * * * * * * * * * * * * * * * * * * * * * * * * * * * * * * * * * * * * * //

dimensions      [0 1 -1 0 0 0 0];

internalField   nonuniform List<vector> 
5098
(
(2.60407 0.668125 0)
(2.15597 0.218049 -2.55485e-20)
(2.05769 -0.0106596 -3.00289e-21)
(1.6491 -0.742168 6.76056e-19)
(1.87956 -0.298404 0)
(0.976569 -0.473142 0)
(2.30621 0.0269074 4.02423e-21)
(2.19775 -0.0132286 7.70801e-22)
(2.21389 -0.0217963 -5.48126e-20)
(2.94926 -0.14624 -1.56758e-19)
(1.53919 -0.766188 0)
(2.37514 0.0155534 1.53647e-19)
(2.64836 -0.417035 -5.48231e-21)
(1.0416 -0.511992 0)
(1.88013 -0.0530745 3.29118e-20)
(2.02157 -0.00279087 8.26182e-23)
(1.3338 -0.721055 -8.85406e-20)
(1.62189 -0.773969 0)
(-0.791647 0.155014 5.97718e-19)
(1.24044 -0.660986 9.99321e-20)
(1.87574 0.452593 -6.51844e-20)
(1.97413 -0.01156 1.54953e-21)
(2.21725 -0.850563 0)
(0.929666 -0.0857941 2.67589e-20)
(0.853015 -0.398149 0)
(1.59664 -0.657989 0)
(1.98031 0.110478 1.11107e-19)
(1.95982 -0.825285 1.74313e-19)
(-0.458277 0.158712 -1.79832e-18)
(1.8804 -0.821318 0)
(2.42153 -0.0109099 -9.06391e-20)
(0.81334 -0.399762 0)
(1.95196 0.058759 -1.2197e-19)
(1.39569 -0.792448 0)
(2.35533 0.156597 -2.90858e-20)
(2.85753 -0.560195 9.61147e-19)
(1.98392 -0.50318 1.3076e-19)
(2.0833 0.00409336 -3.93822e-21)
(1.44962 -0.497999 4.99628e-19)
(1.53751 -0.71091 0)
(1.66333 -0.758078 -3.17643e-19)
(1.72829 -0.91579 -1.82484e-19)
(1.61063 -0.662913 0)
(2.25841 0.29754 6.96146e-20)
(2.38899 0.364492 4.22492e-20)
(2.17095 0.0617815 5.59221e-21)
(1.40045 -0.739553 3.23582e-20)
(1.21182 -0.439471 0)
(2.45185 -0.123635 0)
(1.6514 -0.710531 7.2075e-20)
(2.31925 0.127446 3.68362e-20)
(1.62936 0.396548 -4.08426e-19)
(0.508305 -0.352024 -1.84773e-21)
(1.98159 -0.0707095 1.54073e-19)
(1.04138 -0.520807 -3.02841e-19)
(1.65075 0.0502134 0)
(1.80286 0.215732 -2.19025e-19)
(1.74451 -0.72455 0)
(0.96245 -0.478389 0)
(1.97197 0.0294806 6.26706e-22)
(1.89348 0.237901 -3.3161e-20)
(0.756443 -0.384302 -1.07153e-19)
(2.42052 0.136923 0)
(2.65822 -0.408061 0)
(0.481539 -0.387654 2.51294e-19)
(0.902445 -0.455245 3.81428e-19)
(1.92944 -0.0374458 9.72555e-21)
(2.08075 0.143117 6.55592e-21)
(2.15852 -0.270541 1.54957e-19)
(1.78185 -0.753068 2.09836e-19)
(1.91275 0.204013 1.49869e-20)
(1.22486 0.20608 -1.09647e-20)
(2.0382 -0.842869 0)
(1.43756 -0.739861 0)
(1.95436 0.150817 -1.26623e-20)
(1.2294 -0.601448 -3.45734e-19)
(1.9936 0.0284668 0)
(1.60501 0.116086 3.84385e-19)
(2.61128 0.220117 2.26493e-20)
(1.6878 0.0695217 0)
(1.76003 0.0346084 0)
(2.11748 -0.979196 1.67623e-19)
(1.78988 -0.354037 4.64169e-19)
(1.43628 -0.746228 -1.51853e-20)
(1.61436 -0.759279 5.68574e-20)
(1.70008 -0.745992 1.28232e-19)
(0.192079 0.152244 -2.53391e-19)
(1.99694 0.0779194 4.96703e-21)
(2.25524 -0.144338 2.74932e-20)
(1.8877 0.230507 -2.16423e-20)
(2.33234 -0.21806 -6.68719e-21)
(-1.80641 0.691092 8.93977e-19)
(2.155 0.072699 -1.89184e-19)
(1.66798 -0.727736 -3.60438e-19)
(1.43873 -0.528095 8.81794e-20)
(0.797417 0.464388 2.19897e-19)
(1.15052 -0.574873 -2.87805e-19)
(1.52223 0.209049 2.84172e-19)
(1.90805 0.0332807 -2.35945e-21)
(2.12973 -0.510613 -1.04799e-19)
(1.71548 -0.521456 -3.9199e-20)
(1.10327 -0.543188 -3.59231e-19)
(0.261288 -0.216383 -4.14767e-20)
(2.05532 0.0544103 -2.13511e-20)
(1.61867 0.122169 -4.36935e-19)
(2.48529 0.896597 0)
(1.91443 0.239831 2.31175e-19)
(2.17541 0.067167 4.29198e-21)
(1.16488 -0.488741 6.87518e-20)
(1.55888 -0.78522 0)
(1.15154 -0.554215 -7.74064e-19)
(2.42776 0.695626 8.68794e-19)
(1.88209 -0.0899749 -2.23105e-19)
(-1.15879 -0.203098 1.14373e-19)
(1.84207 0.596929 9.17066e-20)
(-0.917117 1.01553 0)
(2.05139 -0.917538 2.85898e-19)
(2.79527 1.07806 0)
(1.98744 0.0714097 1.47538e-20)
(0.961662 -0.118638 -4.10399e-19)
(1.71097 0.367339 3.35424e-19)
(1.67913 1.72971 -1.12614e-19)
(2.88519 0.096084 1.03394e-19)
(1.56415 -1.11545 -1.49937e-19)
(-1.55978 0.0317174 -1.46249e-18)
(0.744572 -0.385629 1.10603e-20)
(2.11221 -0.0715339 1.35809e-19)
(2.20206 -0.815308 -1.93568e-19)
(1.44451 -0.237538 -1.05156e-19)
(-1.18965 -0.161728 -2.82823e-19)
(1.47898 -0.832896 -1.16493e-19)
(1.25284 -0.568107 -5.04329e-19)
(1.27698 -0.565194 4.22027e-19)
(2.67823 1.1602 -1.34468e-19)
(1.53863 -0.492711 -1.13437e-19)
(2.10009 -0.377698 1.30189e-19)
(2.11592 2.24478 4.99663e-19)
(1.941 0.259566 1.56982e-19)
(0.961502 -0.4746 0)
(2.05375 -0.0849521 -5.03452e-19)
(1.63168 0.494511 -2.69444e-19)
(1.51897 -0.351009 7.30988e-20)
(1.89345 -0.856802 3.2952e-19)
(2.26967 0.0132906 -1.35423e-20)
(2.0618 -0.003628 -3.87874e-20)
(2.07321 0.073474 0)
(2.19326 -0.296841 1.62451e-19)
(1.76574 -0.280907 0)
(2.29885 -0.0966509 1.79835e-19)
(1.80028 -0.823646 1.2023e-19)
(1.87047 -0.77463 -9.37169e-20)
(3.4376 0.117103 0)
(1.76776 -0.307178 3.30458e-20)
(1.96714 0.0809549 0)
(0.179616 0.0760494 -3.14103e-19)
(0.948259 -0.379122 -1.69915e-19)
(1.74137 -0.71526 -3.76706e-19)
(1.67358 -0.483719 -2.78408e-20)
(1.61875 -0.755741 -2.60289e-19)
(-0.0447799 -0.129514 1.91099e-18)
(2.02581 -0.461185 -3.53719e-19)
(1.91409 -0.0737262 -5.06993e-20)
(3.31782 0.322544 -6.13395e-19)
(1.85851 -0.219639 -2.83487e-19)
(1.58857 -0.749728 -5.70874e-20)
(2.47738 -0.0142322 -8.79239e-20)
(1.75641 -0.302705 -1.14182e-19)
(2.47557 -0.576524 0)
(1.14623 -0.532933 7.46836e-20)
(1.78633 -0.603612 -4.12612e-19)
(0.888123 0.382397 -1.58767e-19)
(1.65907 -0.688004 -2.45666e-19)
(2.2476 0.387786 7.11915e-20)
(1.95411 -0.795526 3.10474e-19)
(2.3714 -0.040333 0)
(1.97587 0.012603 0)
(1.78229 -0.368454 -1.80568e-19)
(2.80441 -0.499538 -4.54027e-20)
(1.77257 -0.179965 3.9428e-19)
(0.378485 0.012095 0)
(2.03851 2.38902 0)
(2.11945 -0.83721 -2.47643e-19)
(1.85576 -0.5937 5.0577e-19)
(1.56947 -0.744845 0)
(1.86054 -0.197227 0)
(2.6897 0.481447 5.02222e-19)
(1.58129 0.244172 0)
(1.97593 -0.460705 4.46276e-19)
(1.08011 -0.528106 6.70682e-19)
(0.756091 -1.92856 -1.74932e-19)
(2.86274 0.894006 0)
(1.8232 -0.469335 -1.6007e-20)
(2.05948 -0.859169 0)
(1.89101 0.0461408 -8.77106e-22)
(2.47486 -0.024996 9.84002e-21)
(-1.51081 0.363043 -7.15523e-19)
(2.37213 -0.862384 1.93395e-19)
(2.11511 -0.483073 0)
(2.05311 0.0136253 -4.4871e-21)
(1.81469 -0.586432 -7.45505e-20)
(1.47144 -0.802086 -2.00436e-19)
(1.73407 0.279316 5.08335e-21)
(2.45197 0.376987 1.22809e-20)
(2.13452 0.00732178 4.64211e-21)
(1.76202 -0.0208287 1.81979e-19)
(0.916366 -0.386126 -1.21502e-19)
(2.30734 0.0899937 -1.07495e-20)
(1.31113 -0.612736 0)
(2.35377 -0.0912785 0)
(1.40318 -0.678564 -3.35826e-19)
(2.00314 -0.23189 -1.44545e-19)
(1.75852 0.20736 2.70752e-19)
(2.13851 -0.352684 1.44664e-20)
(2.13947 0.0336014 -1.4443e-19)
(2.03624 -0.0084864 -9.71766e-20)
(1.42841 0.206326 -4.66943e-19)
(1.9094 0.051739 0)
(1.57405 -0.780485 -1.08795e-19)
(-1.71718 0.447455 2.00302e-19)
(2.06337 0.0601088 1.12546e-19)
(2.36913 -0.221685 -2.42599e-20)
(1.65141 -0.377174 0)
(2.02583 0.0120053 1.85589e-20)
(2.41653 -0.237768 1.24429e-19)
(-0.65033 -0.0657801 8.01684e-20)
(2.09885 -0.163046 0)
(0.497683 -0.149062 0)
(1.95346 0.0453849 0)
(2.09813 -0.520511 0)
(1.91275 -0.751934 -1.15294e-22)
(1.84717 0.318686 0)
(0.708287 -0.306228 -4.47572e-19)
(2.2972 -0.841118 -1.90557e-19)
(1.90706 0.0476422 1.00629e-21)
(2.39052 0.0698934 -6.3233e-20)
(2.19072 0.145121 0)
(1.57067 1.25979 -1.52772e-19)
(1.14943 -1.20859 -3.63862e-19)
(2.41212 -0.454577 0)
(1.85271 -0.0352023 2.83223e-19)
(2.03513 -1.08534 -5.53666e-19)
(2.26646 0.398967 0)
(2.02221 0.0393511 0)
(1.16479 -0.311744 7.42065e-19)
(1.82722 0.436844 -3.41636e-19)
(2.28567 -0.0103566 -1.7387e-19)
(1.16791 -0.563199 8.12554e-20)
(1.56669 -0.771814 -8.26861e-20)
(1.46484 -0.784332 0)
(2.2792 -0.000493295 4.46396e-20)
(2.18556 0.586119 -3.23659e-20)
(1.97071 -0.825013 3.18976e-19)
(-1.72519 1.93181 1.06212e-18)
(1.28722 -0.957023 1.24219e-19)
(1.99504 0.027087 -2.06707e-19)
(1.12155 -1.34834 3.52701e-19)
(1.56912 -0.454991 9.85765e-20)
(1.67007 -0.81244 1.27952e-19)
(1.24014 -0.457671 -3.10378e-19)
(1.95294 0.0325764 -9.10519e-21)
(2.68995 0.353271 7.20411e-20)
(0.282461 -0.401603 1.41933e-19)
(0.809236 -0.364873 1.12723e-19)
(1.99528 -0.85936 0)
(2.0475 0.0151435 -1.55647e-21)
(1.18349 -0.594374 3.84507e-20)
(0.0812041 -0.118723 -2.24857e-18)
(1.54861 -0.749915 0)
(1.15691 0.744118 0)
(1.86731 -0.0516699 -2.58236e-20)
(0.781382 -1.6903 2.17672e-19)
(1.98501 0.0435115 -3.8994e-21)
(0.06938 -0.236079 -1.00246e-18)
(1.85797 1.13481 0)
(1.25685 -0.521526 2.46066e-21)
(0.662416 -0.479756 -1.31594e-20)
(1.69213 -0.884501 -1.6544e-19)
(1.89957 -0.71076 0)
(2.36532 -0.747106 0)
(2.01054 -0.170258 0)
(1.50958 -0.79887 -7.04619e-20)
(2.14837 -0.00793755 7.93117e-20)
(-0.443092 -0.325591 -3.14292e-19)
(2.10037 0.00461384 -8.81564e-20)
(2.2796 -0.582261 -6.86266e-20)
(1.24057 -0.796281 0)
(1.93423 -0.00632321 0)
(2.04671 0.0650054 -4.58808e-20)
(2.45244 0.0520025 7.068e-20)
(2.00571 -0.042628 -2.35112e-19)
(1.67147 -1.11227 0)
(0.734363 -0.613219 1.34636e-18)
(1.16547 -0.1091 -2.16915e-19)
(2.3709 0.282991 4.47194e-20)
(2.05526 -0.642342 3.342e-19)
(2.77109 -0.212265 7.89306e-20)
(2.45444 0.0971585 0)
(2.46383 -0.0157853 -7.68703e-20)
(2.06304 -0.0119061 0)
(2.0231 -0.111915 -1.22851e-19)
(2.03504 0.0611106 3.62529e-20)
(2.30972 -0.14128 7.53271e-20)
(1.66735 -0.478791 4.81534e-19)
(1.9411 0.371673 1.90751e-19)
(1.03318 -0.523892 -6.11885e-20)
(1.88434 -0.76633 -1.98581e-19)
(2.67303 1.65071 -1.5601e-19)
(2.11751 -0.0459804 0)
(1.90584 -0.466868 0)
(1.46825 -0.768408 0)
(2.34863 -0.252078 3.30305e-20)
(-1.07553 1.65093 1.17935e-19)
(0.897079 -0.445439 3.97673e-19)
(1.93358 0.062822 -7.41827e-22)
(2.67233 -0.396107 -2.23769e-20)
(0.251411 0.00282496 6.17936e-19)
(1.97994 2.16839 -5.15361e-20)
(1.98757 -0.0642144 -1.57606e-20)
(2.19569 -0.188645 4.66423e-19)
(0.998566 -0.434923 0)
(2.59765 0.221617 -3.46464e-20)
(0.399078 0.178501 -2.93255e-18)
(2.4001 -0.309445 -2.55946e-19)
(-2.30254 1.03315 1.41399e-20)
(1.96176 0.0453932 -7.38875e-21)
(1.4298 -0.469324 3.36798e-19)
(2.18865 0.592179 0)
(1.98384 0.141956 -8.06888e-20)
(1.1721 -0.49293 -7.26248e-19)
(2.00026 0.0481573 -1.3809e-20)
(1.38568 -0.669255 0)
(2.20396 -0.155902 -1.35798e-19)
(1.12573 -0.548421 2.25987e-19)
(2.40756 -0.743335 -7.53614e-20)
(1.80895 -0.758876 -2.83393e-19)
(2.23304 0.123832 -3.84713e-20)
(2.52413 -0.317707 1.03318e-20)
(1.03216 -0.51078 4.37531e-19)
(2.20084 -0.052277 1.87151e-19)
(1.91226 -0.396676 0)
(1.90915 -0.865182 -3.11808e-19)
(1.76406 -0.756143 -8.57756e-19)
(2.62157 0.152474 1.18093e-20)
(1.98584 0.0592542 3.33144e-20)
(3.02232 1.5022 0)
(1.86895 0.149877 0)
(2.05057 0.00519906 -1.6446e-19)
(1.28132 0.659003 4.54823e-19)
(2.80124 1.0064 0)
(2.35719 0.0559946 1.3249e-19)
(1.69609 -0.750731 -4.00805e-21)
(1.05053 0.208994 -5.38373e-19)
(0.986262 -0.435759 -3.9121e-19)
(1.49588 -0.806432 7.29609e-20)
(1.88045 0.0268151 -8.18396e-22)
(1.56467 -0.778782 2.56494e-19)
(2.01046 -0.351737 -1.09414e-19)
(2.24305 -0.0638746 0)
(1.47913 -0.181331 -9.05514e-20)
(1.35956 0.178231 0)
(1.90793 0.0736332 -3.8572e-19)
(2.07828 -0.486032 0)
(2.19558 0.00776605 -1.3654e-19)
(1.98438 0.0613783 -1.09712e-20)
(2.32498 0.30449 -6.21863e-20)
(1.23147 -0.497539 4.09443e-19)
(1.94525 0.14932 -3.0447e-19)
(2.10623 0.0731356 -2.93566e-19)
(2.147 -0.917539 0)
(1.19848 -1.40799 0)
(1.30368 -0.534982 -4.02784e-19)
(2.38019 0.305789 0)
(3.17706 -0.0547158 -7.95054e-19)
(1.92512 0.222134 0)
(1.12805 0.100461 1.46928e-20)
(0.945014 -0.47782 9.46404e-20)
(1.83839 -0.613552 6.00782e-19)
(1.26121 -0.580303 1.59209e-20)
(2.45156 -0.539718 0)
(1.99892 0.0847513 1.03213e-20)
(1.84522 0.0467649 -2.08179e-19)
(0.799116 -0.420391 -1.308e-20)
(1.94783 0.0751995 -1.76727e-19)
(2.23666 -0.0749871 -3.48246e-20)
(2.2342 0.0923713 -4.0651e-20)
(3.17219 0.484732 3.55137e-19)
(2.47109 0.341169 -4.41383e-20)
(1.14783 -1.16743 -5.87301e-20)
(1.7555 -0.542537 0)
(0.357604 -0.321438 2.72826e-20)
(1.96058 0.153107 -1.36526e-19)
(2.59951 0.0449035 0)
(1.97781 0.0607617 1.1632e-19)
(1.22864 -0.592798 -2.9084e-19)
(1.73091 1.06158 1.24695e-19)
(2.70189 -1.04769 0)
(1.48391 -0.703489 1.06572e-19)
(3.13649 -1.80516 0)
(1.95105 -0.0447343 3.15847e-20)
(1.96594 -0.136898 -5.68438e-20)
(2.31783 0.543027 1.69243e-18)
(1.14171 -0.142658 0)
(1.6702 0.194784 1.95245e-19)
(1.88362 0.0630485 1.26845e-19)
(-0.505328 0.619457 0)
(1.85325 0.0639635 0)
(2.08346 -0.206091 0)
(0.176043 -0.0852238 1.29044e-19)
(0.996573 -0.369273 6.27555e-21)
(2.28795 -0.116699 0)
(1.96588 0.0146028 0)
(1.42626 -0.18418 3.41499e-20)
(0.582051 -0.814594 0)
(2.35949 0.278129 -1.84855e-22)
(2.915 0.832846 1.95517e-19)
(2.02071 0.0392356 9.70573e-21)
(1.903 0.346172 -5.16564e-21)
(1.05361 0.276417 6.18865e-19)
(3.02824 1.0373 -2.13403e-19)
(2.42625 -0.164314 5.77581e-21)
(2.04975 -0.138518 1.36158e-19)
(1.66172 -0.191689 -2.17367e-19)
(1.95444 0.459647 2.04996e-21)
(2.02905 0.00757955 0)
(1.56264 -0.77696 -2.49783e-19)
(-1.72462 0.424671 0)
(0.938965 -0.713996 -1.43887e-19)
(1.70007 -0.248975 0)
(2.3057 0.402102 0)
(1.39641 -0.666541 -2.34788e-19)
(2.00443 -0.00591442 -1.78796e-20)
(-0.280064 0.0131161 -1.99404e-18)
(2.12181 -0.00488718 5.75321e-21)
(1.88852 -0.740501 3.20824e-19)
(3.03541 0.690788 2.24197e-19)
(-2.09419 1.10211 2.31199e-18)
(2.11459 0.0428246 2.2094e-20)
(2.17866 -0.866666 1.10733e-19)
(1.96386 0.0222013 -2.21253e-19)
(2.67888 -1.26807 0)
(1.78384 -0.118759 -4.10142e-19)
(1.87787 -0.519538 3.34771e-19)
(2.04732 0.00828489 -4.48336e-19)
(1.09808 -0.598558 -7.40826e-20)
(1.66789 1.0452 -1.23934e-19)
(2.90715 0.925399 3.00876e-19)
(2.31438 -0.455638 0)
(1.84965 -0.0380097 0)
(1.95063 0.659702 -7.71921e-19)
(2.0126 -0.119614 8.55166e-20)
(1.47573 -0.774424 0)
(2.25186 -0.138571 -1.18376e-19)
(1.98683 -0.00704164 -2.55823e-19)
(1.33002 -0.743722 -4.57066e-20)
(1.52319 -0.788074 1.76855e-19)
(2.22936 0.202159 -1.61718e-22)
(1.6664 -0.938663 3.90186e-21)
(2.49225 -0.32491 -2.22985e-19)
(2.04771 -0.491556 2.31317e-19)
(3.35447 0.472356 7.90909e-19)
(1.62483 -0.67951 3.11688e-19)
(2.00359 0.0408979 -1.37492e-21)
(1.08954 0.149245 4.46992e-19)
(2.14298 2.11051 0)
(1.761 -0.512656 1.95371e-19)
(1.59547 -0.775346 0)
(-0.755258 -0.332769 -1.23321e-18)
(1.84221 -0.888665 0)
(0.720304 -0.348198 -2.38928e-19)
(1.7118 -0.737771 -4.35521e-19)
(3.19569 0.662985 -3.41784e-19)
(2.19465 -0.898018 0)
(1.36358 -0.645388 0)
(2.37474 -0.334729 0)
(1.97579 0.0709099 9.80657e-20)
(2.91315 -1.56466 -1.17521e-18)
(0.509362 0.0371588 1.36862e-18)
(1.64669 -0.347056 -7.56643e-21)
(3.4545 0.42113 -8.79138e-19)
(1.96493 0.261507 0)
(1.29886 1.74488 2.46944e-19)
(2.55723 1.03017 1.33958e-19)
(2.54737 -1.92326 -3.75859e-19)
(1.67805 -0.780068 2.56789e-19)
(2.38425 0.418452 3.06214e-21)
(1.2531 -0.60681 4.84684e-19)
(2.27653 0.358149 0)
(1.88896 -0.0469416 5.52194e-20)
(1.84232 -0.974024 -2.34221e-19)
(1.93737 0.00884594 2.24334e-20)
(3.27497 0.081241 -4.3508e-19)
(1.70965 -0.277286 0)
(2.50269 0.466754 0)
(2.52051 -1.22164 0)
(-2.05507 0.884215 0)
(2.00977 -0.0260297 0)
(1.51323 -0.586399 1.34953e-19)
(3.80407 0.172567 7.0545e-19)
(1.55165 -0.658248 3.71855e-19)
(2.04098 0.0577009 2.03434e-19)
(1.61788 -0.768822 0)
(2.15936 -0.899243 2.63505e-21)
(-0.582982 0.0139969 0)
(1.60451 -0.754754 -1.05922e-19)
(-0.351636 0.187622 8.28474e-19)
(3.76088 -0.448047 -3.91013e-19)
(1.92635 -0.0484927 2.23184e-19)
(2.11924 0.450623 -6.40694e-20)
(2.75455 -0.798257 -2.51192e-19)
(2.35288 0.100471 0)
(-1.23617 -0.135962 1.37568e-18)
(2.02769 0.103548 0)
(1.63669 0.744408 1.89912e-20)
(2.46068 0.0359616 0)
(1.97781 0.18546 -9.99496e-20)
(2.13267 -0.153766 0)
(1.03464 -0.407386 -2.75684e-19)
(1.04906 -0.61855 1.86021e-19)
(1.96939 -0.0697139 -4.98942e-20)
(1.38387 0.27748 3.94561e-19)
(0.319831 -0.159385 -2.64965e-19)
(1.86128 -0.284958 0)
(1.14057 -0.286165 -1.05008e-18)
(1.98676 0.0967419 6.778e-21)
(3.25182 -0.680104 -1.02637e-18)
(2.02059 -0.0263229 -1.24421e-21)
(2.16101 -0.828712 4.38935e-19)
(4.21092 0.324515 0)
(1.87265 -0.83789 -6.812e-20)
(1.58978 -0.723297 0)
(2.52945 0.0707579 9.15895e-21)
(0.555 -0.180851 6.8946e-20)
(1.61246 -0.760953 0)
(2.39673 0.356828 0)
(1.56767 -0.496238 -7.28667e-20)
(2.44264 0.428361 0)
(1.79987 1.57004 9.94972e-20)
(2.96847 0.499358 -3.53376e-19)
(-1.20704 0.0616051 -4.4604e-19)
(1.46686 -0.790063 -7.4108e-20)
(1.90147 -0.0114041 -5.20163e-21)
(1.27499 -0.837382 -1.07418e-20)
(0.76673 -0.45047 -1.168e-19)
(1.93632 -0.0288365 4.35469e-19)
(1.28617 -0.7027 5.18923e-20)
(0.546279 -0.271815 0)
(2.37204 0.103145 -6.87052e-20)
(1.53213 -0.56113 1.05345e-19)
(0.514463 0.122558 7.51188e-20)
(3.25685 -0.434825 8.38336e-19)
(2.94537 1.36013 0)
(1.8771 -0.553836 -3.36401e-19)
(1.97155 0.238872 1.6857e-21)
(3.86303 0.567211 -1.08432e-19)
(2.14419 -0.00379914 -1.81197e-19)
(1.50387 -0.765478 4.43335e-20)
(1.50885 -0.819744 1.54175e-19)
(1.56701 -0.64595 -8.97517e-20)
(1.52773 -0.796598 2.03255e-21)
(2.18663 -0.117105 -1.57866e-19)
(1.52991 -0.781309 -4.96698e-20)
(1.794 -0.169703 0)
(1.98704 -0.170393 -3.94503e-19)
(0.976179 0.309592 0)
(1.38553 -0.770498 -6.82869e-20)
(2.50754 -0.13244 4.33447e-19)
(-1.34618 1.51686 1.84413e-18)
(1.99752 0.0613278 -3.34836e-21)
(0.710641 -0.332795 1.47475e-20)
(-1.02302 1.73297 0)
(2.28514 -0.834922 2.82913e-19)
(2.29626 -0.896451 5.82054e-20)
(-0.243198 1.19238 -1.6022e-18)
(1.88123 0.443426 0)
(1.69311 0.437436 0)
(0.298291 0.23422 0)
(1.41216 -0.311019 -3.48761e-20)
(1.91293 -0.118335 -3.8626e-19)
(1.39616 0.0765952 0)
(1.74968 -0.52191 0)
(2.2162 0.168755 -7.62028e-21)
(1.8176 -0.74455 1.07365e-21)
(2.07702 0.122509 -2.56881e-19)
(1.87004 -0.370969 -1.02952e-19)
(1.87667 0.0351372 2.91448e-20)
(1.98319 -0.0434224 -1.41384e-20)
(1.98097 0.0726407 -2.27349e-20)
(2.00477 0.475783 -2.17693e-20)
(1.94803 1.03786 0)
(0.816717 -0.444204 2.19949e-21)
(-0.511125 -0.671489 0)
(1.10649 0.0403312 0)
(2.65042 -0.0631881 -3.61934e-19)
(1.63383 -0.764551 0)
(2.36122 0.19158 0)
(1.92336 -0.159773 6.08356e-19)
(1.99731 -0.876916 0)
(1.91539 -0.0551485 3.13744e-19)
(3.19328 -0.134403 4.31878e-19)
(3.09617 0.0832447 1.36432e-19)
(2.01192 0.0320331 1.49299e-21)
(1.29616 1.07742 2.29946e-19)
(2.31327 -0.880599 2.95747e-21)
(2.14341 -0.846061 -2.63704e-21)
(1.27879 -0.515115 3.93969e-19)
(1.32688 -0.829815 0)
(1.03372 -0.514388 0)
(1.3835 -0.649986 -1.88163e-19)
(1.07124 -0.620738 -2.4557e-19)
(1.27156 -0.688993 0)
(1.31795 -0.788301 1.01304e-19)
(0.615861 -0.379065 0)
(-1.47736 0.407256 1.98641e-18)
(1.23382 -0.581175 -5.09373e-19)
(3.04967 -0.257169 -1.7406e-20)
(3.14079 0.274011 3.64121e-19)
(1.32177 -0.474479 7.95721e-20)
(2.2252 -0.0327623 8.56877e-20)
(2.34816 0.756598 0)
(2.43388 0.612329 0)
(1.1585 -0.059945 0)
(-0.826179 1.36011 -9.22862e-19)
(1.51473 -0.595524 0)
(2.2492 0.455696 0)
(1.96705 0.0845178 0)
(2.7266 -0.406028 -2.58422e-20)
(-0.895766 -0.61583 3.30532e-19)
(2.11614 -0.808974 -1.66603e-19)
(1.39526 -0.359793 8.05761e-20)
(1.90137 0.0926906 0)
(1.56688 -0.775451 0)
(2.05288 -0.606999 -3.04804e-19)
(1.60911 0.495812 5.76589e-19)
(1.09981 -0.504447 -9.89048e-20)
(2.02132 0.0688627 -9.30615e-21)
(1.81031 -0.493201 3.56979e-19)
(1.10507 0.318099 -9.68827e-19)
(1.08856 -0.709921 0)
(1.33526 1.13781 -5.56365e-19)
(0.488663 0.24101 -6.24858e-19)
(3.00367 -0.085152 0)
(2.41965 -0.032844 0)
(1.75415 -0.0901725 0)
(2.05086 0.0189182 -3.78257e-19)
(1.45924 0.214703 -4.04597e-19)
(1.69515 0.0343058 0)
(3.85854 1.18813 1.82561e-18)
(1.89764 -0.843822 3.19703e-19)
(2.62851 -0.265402 4.81027e-20)
(1.20036 -0.598679 7.98782e-20)
(2.14818 -0.282635 0)
(2.13103 0.0573462 2.7847e-20)
(1.83552 -0.448874 0)
(1.50634 -0.607037 -1.01027e-19)
(1.83796 -0.829027 0)
(2.22792 -0.796702 3.57704e-19)
(1.75374 -0.316027 3.0326e-21)
(2.02525 0.0419637 -1.12659e-20)
(2.62799 -0.304382 0)
(1.90722 -0.812582 0)
(1.68917 -0.727528 -4.55918e-19)
(2.32526 0.241211 2.04125e-22)
(1.58474 -0.748093 5.03682e-20)
(0.962666 -0.467936 4.01361e-19)
(1.90032 -0.129352 0)
(1.62128 0.121155 -6.1003e-19)
(2.26634 0.0295208 -2.94663e-20)
(1.47276 -0.314324 -3.15343e-20)
(2.02462 0.0393265 -1.36024e-20)
(2.02607 0.0399302 0)
(1.29277 -0.414454 5.59335e-19)
(1.08564 0.0743659 -6.17893e-19)
(3.55115 -0.10295 9.83887e-21)
(1.81521 0.210494 -6.73471e-19)
(1.22977 -0.619038 7.08513e-20)
(2.67982 0.192839 -2.70108e-18)
(1.81377 -0.29065 -2.79747e-21)
(2.09159 -0.16265 -3.64368e-20)
(2.44368 0.277377 1.48419e-18)
(-0.235786 0.0215896 -4.13768e-21)
(1.4648 -0.723135 1.30244e-19)
(1.59378 -0.757937 1.08734e-19)
(1.87439 0.0031418 1.70615e-20)
(2.39978 -0.0771527 0)
(3.07595 -1.40016 1.1378e-18)
(1.25492 -0.609667 2.18777e-19)
(1.75618 -0.284187 2.14813e-19)
(-0.78535 0.308257 0)
(1.66372 -0.43987 -5.7605e-20)
(1.94002 0.0386036 4.10864e-22)
(1.94831 -0.0438045 0)
(0.552462 -0.686104 9.94402e-20)
(1.57854 -0.674469 2.96025e-20)
(2.02681 0.176408 0)
(1.16687 -0.456917 0)
(1.50738 -0.231464 -3.30316e-20)
(1.55947 -0.423662 -9.84882e-21)
(2.57645 -0.0841722 1.299e-19)
(-0.27505 0.392941 0)
(2.10268 -0.0674207 -3.49341e-19)
(1.90984 -0.301653 -3.82083e-20)
(2.29624 -0.770912 1.94207e-20)
(1.3281 -0.533142 4.94611e-19)
(1.5925 -0.764114 -1.03723e-19)
(1.61874 -0.751712 6.54969e-20)
(3.55056 -0.16981 -8.52118e-21)
(1.85553 -0.659692 0)
(3.04395 0.522953 -1.39626e-18)
(1.6795 -0.67988 2.2858e-19)
(2.12471 1.79331 1.70647e-19)
(0.978456 0.428918 0)
(1.26432 -0.300137 -4.95835e-19)
(1.33662 -0.580357 -6.00007e-19)
(1.59718 -0.744298 1.27424e-19)
(-1.10939 -0.317578 -1.17105e-18)
(2.73048 1.67097 0)
(0.136236 -0.179959 -8.55883e-19)
(2.28378 0.389123 0)
(0.47316 -1.1597 -1.48399e-18)
(0.830218 0.759585 1.62448e-18)
(1.07943 -1.90549 0)
(1.64287 -0.764365 4.48843e-20)
(1.66797 -0.164435 -8.90589e-20)
(-1.42916 0.157843 2.95257e-19)
(1.76651 -0.704271 4.12453e-19)
(1.2915 -0.602096 -3.08674e-19)
(1.30459 -0.605964 0)
(2.07875 0.0159424 1.15804e-19)
(3.95483 -0.278981 0)
(2.24159 0.20052 -2.23807e-21)
(-0.548798 1.43712 -1.90886e-18)
(0.66098 -0.266598 2.66935e-19)
(2.01455 0.0520308 0)
(1.98444 -0.789234 -3.04194e-19)
(2.41498 -0.413942 7.33202e-20)
(1.61401 -0.756823 1.68932e-19)
(1.54434 -0.671164 0)
(1.61916 -0.758945 -1.50347e-19)
(3.73861 -0.0870901 -1.07049e-18)
(1.71195 0.119181 7.78875e-19)
(1.82096 -0.13681 0)
(2.03036 -0.118338 1.24332e-19)
(1.21698 1.27975 1.57396e-18)
(-0.684182 -0.625536 -1.79238e-19)
(2.28365 -0.593424 1.12749e-19)
(1.31633 -0.664303 0)
(1.77937 -0.036245 -1.03321e-20)
(1.9986 0.0363192 5.39663e-22)
(2.69734 -0.261281 5.60646e-20)
(2.21328 -0.0509599 0)
(1.54237 -0.793538 7.82822e-20)
(1.71862 -0.504818 -2.94988e-22)
(1.37345 -0.435744 6.13141e-20)
(4.14918 0.09991 0)
(2.14398 -0.826143 -1.2776e-19)
(1.5533 -0.719971 2.18909e-19)
(1.81493 -0.441656 -4.46537e-19)
(0.325925 -0.0187086 0)
(2.71333 0.9947 2.61476e-19)
(2.17185 -0.80162 1.06058e-19)
(1.40214 -0.692094 -1.33001e-19)
(1.92758 0.186916 0)
(-1.43271 0.419921 1.12834e-18)
(1.50238 -0.280167 0)
(1.46155 -0.854382 1.48574e-19)
(1.6291 -0.473612 0)
(1.94847 -0.151055 -2.251e-19)
(2.1408 -0.240269 -2.28641e-19)
(3.41304 0.902661 -9.28514e-19)
(1.44777 -0.114273 0)
(2.12602 -0.906201 -1.95483e-19)
(1.94308 0.0308658 0)
(2.32799 0.26792 0)
(2.25097 -0.920327 4.48753e-20)
(1.53046 -0.801908 8.32888e-20)
(0.69168 -0.122603 1.68364e-19)
(2.21175 -0.578334 -6.89222e-20)
(1.75097 0.219052 2.52274e-19)
(1.31067 -0.821835 -4.33316e-20)
(2.13523 0.321405 1.1769e-19)
(0.970008 -0.787513 -2.10074e-20)
(1.80375 -0.85499 0)
(2.37362 0.138564 0)
(1.19157 -0.647498 0)
(1.47952 -0.753095 1.89828e-19)
(1.29106 -0.47455 -3.47837e-19)
(1.57196 0.075701 0)
(1.00675 -0.521952 2.1053e-19)
(2.20283 -0.0727529 -1.56284e-19)
(1.2342 -0.628516 -7.86165e-20)
(1.49637 -0.560044 -1.12271e-19)
(2.29704 -0.905653 0)
(-1.03285 -0.0189753 7.531e-19)
(0.326076 -0.577138 -2.69836e-19)
(1.09381 -2.12922 0)
(-0.531508 0.473907 -1.23093e-18)
(1.99174 -0.0427666 9.95841e-21)
(2.23232 0.245014 1.06097e-19)
(1.95148 0.0634827 2.26364e-19)
(2.8049 0.688433 -3.82333e-19)
(2.33585 0.183173 5.61212e-21)
(2.31716 -0.199323 0)
(2.04221 -0.797592 0)
(0.855896 -0.44539 2.09937e-19)
(-1.12152 -0.357659 0)
(1.66446 -0.390425 -5.83895e-20)
(2.26671 -0.805741 -1.80716e-19)
(1.10261 -0.525754 4.20118e-19)
(1.90927 -0.0479627 -4.83121e-20)
(1.81144 0.224044 -2.48534e-19)
(1.64453 -0.66943 -2.25195e-19)
(1.7204 -0.695288 -4.15947e-19)
(1.47512 -0.386542 0)
(1.81898 -0.710541 3.92246e-19)
(1.91698 0.00943243 0)
(2.68277 -0.340362 -9.95074e-21)
(2.08497 1.09288 8.49079e-21)
(2.54665 0.95144 -3.11856e-19)
(2.32573 -0.386335 -1.90498e-19)
(-1.80573 0.3617 -1.40634e-18)
(0.887296 -0.569385 0)
(1.63432 -0.599548 -2.84352e-20)
(1.61035 -0.886074 -1.36134e-19)
(2.09909 0.491141 -1.23256e-19)
(1.93019 -0.774096 3.57909e-19)
(2.05586 0.090972 -4.30441e-21)
(-1.31024 -0.0735155 4.97101e-19)
(1.99007 -0.830655 -4.24752e-20)
(0.462464 0.0464263 0)
(1.32602 -0.680171 2.30455e-19)
(1.83337 -0.399207 2.36059e-19)
(2.06059 -0.0172352 -2.66641e-22)
(1.31026 -0.585408 8.80671e-19)
(-0.412738 1.1532 3.85188e-20)
(1.72883 0.496262 0)
(1.46573 -0.762348 -7.88353e-20)
(1.56652 -0.771893 -1.13712e-20)
(1.21137 -0.402849 -6.66568e-19)
(1.44631 -0.742974 8.95199e-20)
(3.491 0.502936 -3.96278e-19)
(2.07115 0.493307 3.41375e-21)
(1.0882 -0.458815 3.03542e-19)
(1.85015 -0.38184 0)
(2.35746 0.0371443 -8.84164e-20)
(2.1512 -0.121217 -2.61793e-21)
(3.06184 0.383855 -3.68699e-19)
(3.42289 -1.35837 0)
(3.41492 0.335172 4.92034e-20)
(-0.0565443 -0.922083 1.41052e-18)
(1.72231 -0.749355 8.81564e-19)
(3.54467 -0.73083 2.32747e-20)
(2.71745 -1.85685 -5.51403e-19)
(-0.698082 -0.367892 1.27491e-18)
(2.09761 -0.787147 3.45778e-19)
(2.04167 -0.0359181 -6.31942e-21)
(-1.70922 1.63028 -4.69954e-20)
(2.3743 -0.108856 2.12575e-20)
(2.36839 0.318668 0)
(2.00091 0.0861237 0)
(2.3662 0.34163 0)
(1.86825 -0.722282 -3.39056e-19)
(1.63732 -0.473787 6.44092e-20)
(-0.0188074 1.56841 0)
(1.34049 -0.439182 -1.43787e-19)
(1.24227 -1.57623 0)
(2.505 -0.795578 0)
(1.27749 0.823119 0)
(1.99071 0.086214 0)
(-1.23132 0.131991 -3.41405e-19)
(0.772073 -0.868249 0)
(2.0665 -0.801098 1.94258e-19)
(1.80862 0.109628 0)
(1.98094 0.0522556 0)
(1.96446 0.276179 5.49953e-23)
(0.960489 -0.69608 0)
(1.86398 -0.596665 0)
(-0.795254 1.8106 0)
(2.04906 0.0488367 2.55209e-20)
(2.04967 0.211534 0)
(2.3421 -0.900896 -5.33351e-21)
(1.86655 0.44057 8.4943e-22)
(-0.333406 -0.142931 -1.19823e-19)
(2.0428 0.0149528 5.46439e-19)
(-0.270178 0.0626447 -7.1918e-20)
(1.19297 0.661588 -5.17584e-19)
(1.53634 0.581096 0)
(2.53193 -0.302488 7.96216e-21)
(1.71337 -0.244531 -2.09751e-19)
(1.69298 1.43793 1.282e-19)
(1.88128 0.301737 3.45007e-19)
(0.908869 -0.336607 -6.43759e-19)
(1.63018 -0.718098 -3.47441e-19)
(1.91651 -0.836882 2.61379e-20)
(1.60061 -0.646374 0)
(2.54343 -0.50331 -8.23907e-21)
(1.6271 -0.63095 3.35452e-20)
(2.46022 0.12275 -6.27716e-20)
(1.24214 -0.570366 0)
(1.85147 0.00448822 -2.57946e-19)
(3.53578 0.325922 -1.20199e-18)
(1.47443 -0.60991 4.53171e-19)
(1.36277 -0.627826 -5.48488e-19)
(1.78675 -0.820401 0)
(1.87637 -0.821379 0)
(1.96829 -0.698666 1.85239e-19)
(2.38643 -0.360555 -1.12766e-19)
(2.87053 -0.3583 -4.24539e-19)
(1.89573 -0.00725212 6.90948e-23)
(1.32016 -0.410577 -1.33686e-19)
(1.79921 -0.551641 3.77569e-19)
(2.40906 0.198651 0)
(2.32916 0.198155 1.95688e-20)
(-0.0862514 -0.650648 -5.55692e-19)
(1.71628 -0.634051 1.51567e-19)
(1.25323 -0.248779 -7.29123e-20)
(-0.828741 1.72919 1.16277e-18)
(2.84119 -0.208919 3.54426e-19)
(2.49937 0.404803 7.61486e-20)
(2.37485 0.296562 0)
(1.56048 -0.744573 0)
(2.36138 -0.885297 4.53666e-22)
(1.27148 -0.32776 0)
(1.94084 -0.408257 1.55943e-19)
(1.76455 0.178251 4.38952e-19)
(1.66301 0.378068 -1.2733e-19)
(1.69652 -0.701781 9.01893e-19)
(2.015 0.0448038 -2.7617e-22)
(1.89253 -0.0334781 0)
(1.988 -0.0132674 -2.71364e-21)
(1.50601 0.742928 -1.60084e-18)
(2.13715 0.307177 0)
(2.83991 -0.307916 0)
(2.01399 -0.808158 1.28668e-19)
(1.89394 0.517065 1.82149e-19)
(1.20382 -0.236126 0)
(1.96462 -0.433216 -7.16634e-22)
(2.13613 0.0371591 9.46165e-20)
(2.34283 0.255037 1.26464e-20)
(1.79622 0.344122 3.72229e-19)
(1.50341 -0.803667 -9.73452e-20)
(1.39887 0.0574896 0)
(-1.89537 0.644638 -4.22765e-18)
(0.618513 -0.275483 9.68012e-19)
(2.15228 0.010022 1.35999e-20)
(-1.16411 -0.118927 -1.68499e-18)
(1.90378 -0.787368 2.54418e-20)
(2.41781 0.091722 1.66398e-19)
(1.77846 -0.812168 0)
(1.88907 0.16775 2.75163e-21)
(1.84553 0.0224957 7.98287e-20)
(2.32556 -0.0477392 -1.35083e-19)
(2.14485 0.462149 -7.88886e-20)
(2.32397 -0.835219 0)
(1.4603 -0.803319 0)
(2.30423 -0.015657 0)
(2.29953 0.338389 -4.03204e-20)
(1.17938 -0.560236 6.5776e-19)
(2.53622 1.52366 -1.10169e-19)
(1.56933 -0.136322 0)
(1.22791 -0.602679 -4.49056e-20)
(1.51827 -0.75042 8.23211e-20)
(1.23624 -1.03191 0)
(1.9246 0.26048 -1.11705e-19)
(1.70198 0.181868 -1.46366e-19)
(2.25591 -0.377484 -3.70177e-20)
(2.01615 0.0546336 -9.34586e-21)
(0.799818 -0.293781 0)
(2.1131 0.0902558 -1.15063e-19)
(2.0806 -0.45031 0)
(2.11437 -0.291364 7.59985e-21)
(1.09487 -0.0319274 0)
(2.22265 0.651985 3.61376e-20)
(1.78899 -0.722984 -4.01068e-19)
(2.4059 0.527303 0)
(1.80326 -0.123501 -3.95628e-19)
(2.01596 0.0513416 1.44322e-20)
(1.75957 -0.0587661 0)
(1.24706 -0.59695 0)
(0.666127 0.0851655 -8.33848e-20)
(2.53025 0.01771 -9.52655e-21)
(1.55167 -0.613381 -4.19934e-20)
(1.09941 -0.716246 1.37241e-20)
(2.13305 -0.074096 1.0246e-21)
(3.51092 -0.206183 1.08806e-18)
(1.76795 0.287687 -1.62381e-21)
(2.0922 0.470011 0)
(3.33492 0.10731 4.91477e-19)
(1.83588 -0.832473 0)
(1.62367 -0.742575 -3.79688e-19)