/*--------------------------------*- C++ -*----------------------------------*\
| =========                 |                                                 |
| \\      /  F ield         | OpenFOAM: The Open Source CFD Toolbox           |
|  \\    /   O peration     | Version:  2306                                  |
|   \\  /    A nd           | Website:  www.openfoam.com                      |
|    \\/     M anipulation  |                                                 |
\*---------------------------------------------------------------------------*/
FoamFile
{
    version     2.0;
    format      ascii;
    arch        "LSB;label=32;scalar=64";
    class       volScalarField;
    location    "5.1";
    object      p;
}
// * * * * * * * * * * * * * * * * * * * * * * * * * * * * * * * * * * * * * //

dimensions      [0 2 -2 0 0 0 0];

internalField   nonuniform List<scalar> 
13486
(
18.5076
19.9371
2.65087
-103.774
-25.5521
4.22713
-39.1688
-12.1507
0.4487
17.3615
-40.7784
0.999084
19.0872
8.43611
-22.3819
17.7675
-21.1195
-18.2415
-0.488448
16.9068
-164.37
18.558
19.6587
-42.5188
14.9081
-37.8971
-20.2377
-9.17631
-0.354339
-11.1946
-188.68
-11.8533
-18.6415
-4.20892
-11.6982
-5.5375
-5.74359
5.16125
5.04008
3.44724
-65.3145
20.6406
3.41759
14.4416
14.4617
1.31309
-20.9371
-2.55312
-3.51103
-5.41257
13.8615
6.65308
2.87492
6.52931
-13.2991
-23.5971
-1.14369
6.30024
-17.9572
-15.9213
-50.2606
-18.0877
-19.78
-166.267
-58.9778
-9.1131
-85.8178
22.0188
-0.0485156
14.0621
-80.679
-13.1346
6.85302
-18.475
-5.2354
-0.871865
-14.2288
-24.0374
-22.1141
-0.360743
-2.54954
21.4245
-20.7398
2.81205
18.4305
25.3036
-8.05006
13.8665
16.2291
21.067
-5.65137
-15.9834
15.5166
18.1386
-0.8126
-2.86167
-20.7589
-68.8237
3.52889
-21.1463
-5.01417
8.90326
-74.2309
8.22146
28.1419
-21.1482
13.1015
3.96293
-21.7026
-22.2593
-5.30903
-23.0791
6.52973
4.83367
27.3977
-4.56628
15.5523
-1.84358
7.04652
-11.1063
-12.4202
-47.7637
1.73988
5.186
-5.30332
7.1605
-5.95052
9.10937
-0.190068
-41.9187
7.95586
-20.655
-18.5197
-17.083
13.7409
17.0649
35.9151
-21.147
-6.438
-9.01238
-12.1669
1.96916
-3.57234
1.26484
3.95108
-22.0933
2.59328
37.4471
-6.00049
-0.47625
12.4557
-30.0567
-3.01726
22.0917
10.563
2.37225
-31.4343
-87.7788
0.579706
-149.388
-2.09017
0.580363
-11.1675
19.9732
7.10439
5.88043
9.66781
35.2619
2.25229
-16.8878
-20.0204
10.5034
13.3427
-7.79902
-4.72704
-67.9622
9.40022
-13.2819
12.8228
-3.38986
0.495404
5.17501
-7.18676
-21.4679
1.66609
-8.99206
0.31779
-7.80824
-70.603
-1.23265
-5.9086
1.93535
6.38783
28.7564
4.80662
-37.8536
-39.148
-2.31228
10.348
6.44704
-186.068
8.97665
5.07024
-38.7502
-160.402
5.16925
-34.2125
10.6973
6.30798
2.08182
-8.28299
-43.0161
16.6903
13.1853
4.20609
-1.34932
-11.5089
20.9515
12.8774
-6.49346
-21.0614
-6.01311
-7.99121
-2.42653
4.96363
14.298
2.81034
-132.694
-0.220178
-2.92045
0.391773
-124.267
-13.1639
21.9927
-133.705
12.2131
-5.36921
2.59224
12.7747
-3.84675
-20.0115
13.2906
5.22309
9.82972
2.54561
15.2634
-2.086
-23.9952
-17.8478
15.0392
-28.1623
28.0811
-6.70799
5.11037
1.64931
-62.1861
-10.5418
-1.28136
-80.9215
-20.3666
17.7459
1.80072
-21.676
-63.1793
-28.8657
-22.1961
-0.224723
-192.765
7.47093
-7.27415
24.921
13.5358
-11.8853
2.73348
14.4534
-22.2139
1.66037
7.42038
4.38644
2.98437
6.24831
-0.953704
13.7345
-48.689
-43.9973
-21.1086
-10.7269
-1.13676
5.06872
7.7991
-127.679
-15.5111
-1.95939
13.6286
-4.54391
-6.77984
-2.54325
3.18519
13.4111
-50.0035
-10.3549
-40.6893
4.22984
-12.1097
1.02472
-41.4072
-117.297
-2.16732
-1.15755
-8.52262
-5.84751
-106.479
11.6702
-21.5301
-54.1441
17.3421
-21.5076
16.4726
11.2095
-0.770149
-8.13741
-5.79478
12.9019
18.7589
35.3369
-5.64034
-12.7751
-1.37142
3.80864
-14.6743
13.8846
-17.8686
-5.82687
24.4539
-40.6783
-2.68484
27.3009
-29.1553
13.409
-1.82949
-0.299542
18.7863
-16.1434
-7.55366
-27.3906
-2.1426
-5.11862
25.2378
-6.92438
-13.9105
-2.80421
4.10407
2.9596
-20.3644
13.3115
-2.92336
-18.8497
-5.94296
-3.91549
-39.0201
-0.562689
-2.59215
16.6786
13.5939
-12.0419
-1.11617
-6.23685
-19.5105
17.3142
-5.45969
3.03086
-4.582
5.81387
-25.8275
6.56466
13.6934
12.9217
-6.21813
-52.7565
-9.07601
6.65805
-20.7905
21.8547
25.2825
-19.8527
1.62095
6.95228
13.2955
-20.7848
-176.607
15.9446
-11.7347
11.512
14.0708
25.2838
-31.8601
-104.341
-25.3286
-20.8528
-11.6098
-20.8126
17.4339
3.19165
-85.0324
-36.8783
0.270144
17.9283
-13.2618
-3.51048
19.7479
12.4919
11.6696
-12.3383
13.6326
12.9058
27.9363
-21.1145
-28.6288
-18.6275
-4.06735
12.9307
-46.8827
25.5361
13.7131
0.76274
-7.45717
9.19369
13.9387
-20.574
10.1682
18.7331
3.43088
11.3505
5.86084
-33.8725
-22.198
22.4219
-9.97904
-7.57781
21.6251
-20.4874
-11.6076
-16.6417
-13.0174
-5.01337
8.4188
27.5726
19.0756
-9.35864
-1.93356
-28.6432
13.6017
16.6854
-5.73598
3.84609
13.3721
-17.3966
-72.0792
-50.2239
-26.795
12.0308
12.3425
-2.78382
10.086
-136.185
15.3741
-2.32832
31.6151
14.8829
4.79941
-15.0377
-8.65777
-0.647149
27.0274
3.61081
-17.4738
0.281197
-2.5548
-21.5151
3.51298
13.5608
7.35758
4.418
19.905
-7.35585
-20.9303
13.1197
-174.752
34.8601
13.1773
13.9252
13.4775
-62.9391
3.37558
29.9906
-32.2268
18.1363
-46.8855
9.61018
-187.258
1.67878
3.35857
-21.2725
16.7652
-5.03036
-28.9869
0.0158167
3.60704
25.1084
8.39414
2.11639
-4.15715
-4.97942
4.92693
-30.3776
13.7084
-18.1122
21.7751
-42.9308
11.5283
21.1206
-20.9299
-7.21879
-2.37283
-167.141
-20.5512
-1.7501
-24.6708
2.27948
15.5082
-19.9656
-34.5229
-20.0433
-1.80923
12.3951
9.16846
-21.5181
-71.071
-44.7671
-78.8873
-10.7389
-52.2028
3.80485
-4.07038
23.9106
-5.472
16.8824
-27.5064
-28.22
2.44478
10.8361
-30.0075
9.29589
2.82255
-52.6822
-5.52804
5.70505
-23.0655
-19.4733
13.9097
14.0751
12.0645
19.0645
3.13175
13.3453
9.17223
11.3182
4.93719
12.7832
-19.907
17.3578
-5.48289
-0.465773
-20.9887
12.3133
-20.6164
2.83171
26.8186
17.8259
-78.1821
-77.3219
11.7434
4.00122
4.34616
18.1793
-48.2724
-24.4
6.16465
16.2878
8.26116
10.3149
-81.1391
18.0788
-5.31989
5.24741
13.4529
-17.0184
1.23352
23.102
-12.0028
2.45611
-7.04757
10.5604
-1.32943
17.5888
-4.11142
-1.38037
-0.670915
4.33189
-10.2819
24.9248
9.84766
24.397
-140.532
9.13303
-7.60364
-18.9632
-25.782
14.7967
27.3051
-88.2671
-21.8449
-14.0091
-7.47432
15.0165
-23.5961
8.35631
1.89203
-19.9134
-18.73
-25.0237
13.2321
-3.04042
13.263
-4.53949
21.4855
2.45127
-137.442
-27.3
-7.5281
9.99433
-41.4788
10.2391
-21.2961
11.9118
-1.62165
1.42116
-51.3587
21.7709
0.629326
-6.72328
20.4299
13.8006
-20.9073
-5.85942
-4.09113
7.18759
-6.56539
5.23693
-73.8582
10.4787
4.1964
9.85686
1.47599
21.1053
5.02507
-82.6349
12.3188
-41.3199
3.2563
-11.9833
13.4615
12.4104
-20.4326
2.96557
-4.17653
3.40666
12.3413
9.92129
2.66002
2.82726
-78.598
5.78149
18.9968
-83.4734
-8.19346
2.88523
23.6551
-10.1466
8.48881
24.4392
2.78493
-18.2738
7.8154
-20.8385
16.7631
4.28862
13.4045
-125.026
-17.7485
-44.815
-2.16953
-21.0083
13.3553
26.0396
-3.3103
-28.9814
2.29369
19.2874
-12.7872
11.6931
-52.6859
27.8727
-20.3926
-1.99959
-6.16647
13.7286
16.1024
18.4125
-8.22958
-171.365
20.4995
13.3178
-34.831
4.54492
-64.9065
-5.60514
-10.9695
13.12
-14.1207
2.7595
17.2302
-35.0165
5.98487
-13.1528
-22.3448
-3.38378
7.53264
10.0526
17.2445
-107.017
1.9846
-18.5202
-166.463
2.61785
-2.76935
-3.34887
13.4278
9.74112
3.808
4.62678
-122.24
-21.7247
-5.0983
1.00622
-103.398
-42.7921
-0.496296
-62.7031
-6.73057
19.4782
-16.4159
-27.3676
20.4373
17.7252
-78.1017
-42.8938
-1.45369
-19.8843
3.9381
-13.2453
8.32447
-24.1583
-20.9372
11.3414
13.462
1.5821
7.06261
-28.5667
4.83056
-4.92272
18.4356
-1.76164
-89.289
20.1605
16.2765
-25.81
-60.269
1.44847
-47.4512
-0.863078
4.33987
-10.0079
-79.4261
5.00238
13.1359
24.792
9.38712
3.61124
6.28864
12.9141
16.3055
19.587
-0.0359248
10.5855
24.2105
-35.1337
-0.907178
8.05816
0.866125
22.29
2.24396
23.8238
-1.1061
2.51979
1.07216
5.15422
-7.22966
15.2015
26.0331
13.5621
12.8511
-19.8064
2.56357
-1.51655
-24.4522
-2.03947
13.9084
4.31853
-83.4437
-54.2328
12.5492
-9.75818
-17.5628
-25.6306
-4.20927
-17.9516
-32.3737
-75.6075
11.5243
-166.127
18.1548
-125.208
-18.1927
3.54619
12.9873
-25.1838
8.53809
-56.5487
16.064
-26.379
-15.023
2.6783
-1.30211
10.8543
13.4444
1.73713
13.0189
-5.47026
-2.03915
-20.2764
5.07327
-5.33649
8.74991
-9.71401
-44.9279
-85.2842
18.2489
-10.5901
-85.8448
-43.2015
10.3624
-60.4114
-9.82928
1.44617
-19.1343
-10.8125
-12.6369
-53.2014
20.0243
13.3971
5.31682
11.8723
12.1435
-5.77668
14.3527
8.38015
4.30209
18.6088
0.228679
4.79304
1.08372
5.53433
-4.52168
15.1503
10.8529
-40.6081
13.4015
-17.0805
-4.96331
26.6683
5.04611
-7.27563
13.2696
-1.74221
7.11165
0.792219
-142.246
10.2556
5.254
2.92299
4.98494
-4.05467
7.75218
-19.0412
-0.66117
13.3673
0.145648
23.9687
15.7943
12.1287
1.16446
18.1571
-3.41546
3.51765
-14.8256
4.18779
-108.261
-0.973093
-19.0293
-14.4796
-50.7939
8.39842
-25.8212
-29.7308
-85.9973
-110.286
4.24471
14.6121
-11.4088
-6.4601
-16.8241
12.8402
24.7017
2.42606
-61.5278
13.6735
-113.142
9.52627
-147.306
2.09118
6.98029
7.52065
21.1553
-2.11754
13.0033
-8.91919
13.9193
3.91551
16.0645
-30.9602
-23.027
9.72282
-87.7388
-1.98645
-4.95146
-75.7213
18.908
12.8863
17.655
15.0454
17.5433
9.10621
-2.11399
-0.252281
12.99
12.7492
1.21163
2.51531
-8.34756
11.4933
-5.64449
1.50102
-18.2689
35.4251
3.191
5.2426
25.0595
17.963
-1.05543
-75.4348
4.62469
13.3229
-62.7044
-2.9814
-18.2868
3.0471
12.9906
13.3735
3.5189
0.701371
13.785
-1.08849
-1.57049
15.7752
-2.84445
-4.97282
-25.2916
2.85884
-7.13199
15.3734
24.0427
-10.0122
-127.048
-15.7896
-8.14944
10.0329
1.2565
21.798
7.94093
29.8515
8.73438
-0.101854
10.8552
-21.4319
-21.1556
-60.6178
10.428
3.7557
-16.0111
-171.328
11.8309
14.8159
-0.615547
-21.2927
-19.0524
-18.8376
-6.86864
-5.74619
-1.50421
-2.9514
10.7764
13.6418
17.2119
3.06593
0.122912
-17.3556
-9.14802
3.17763
-83.277
19.2277
-1.93877
-158.599
9.50007
-17.4679
-8.20051
-55.5187
-1.51488
14.8324
-58.6831
-18.2903
-6.78372
-4.96867
-22.3191
3.43341
-4.08708
0.746247
13.5124
7.76452
-17.598
13.665
5.13176
16.2823
14.0331
12.5752
-4.1267
5.47179
21.3993
30.753
1.56753
-30.2973
14.081
-3.78505
21.5197
-16.0439
-16.6028
-51.2088
2.18464
7.2365
-20.7947
12.7873
8.20679
-8.92007
-51.97
-13.7141
3.94566
26.2758
-26.858
14.603
-20.9049
23.9114
21.3386
2.89431
-6.81874
-83.2582
25.6519
-1.29831
28.8757
-15.708
-8.59423
11.9606
3.95855
-28.6306
-17.8543
-12.7818
16.9428
-52.6012
-27.2421
17.9532
16.7139
5.47684
-7.90386
-20.6503
10.0638
2.96824
6.94203
12.3048
-1.90773
-42.1363
14.7267
-7.31483
-12.0536
-12.4923
16.304
7.21146
-57.3964
-116.268
0.275914
14.0324
19.5328
-2.1777
-6.17396
-7.94241
26.5918
-28.6268
-11.2852
21.7068
13.7819
-0.513604
-4.17995
-99.9199
-16.8095
-13.4128
-29.2623
-0.65901
-55.0932
6.49155
-5.1105
-19.793
-20.9935
-21.0728
-69.8523
-20.8285
-23.7773
30.6687
15.4048
-31.1299
-19.2773
-10.5719
9.99215
-0.755728
29.6176
-17.9851
-7.25498
13.881
-9.80683
-56.7843
-13.3078
-14.4137
8.33886
31.1627
0.953534
3.32725
-45.0274
2.10416
-15.6828
-5.77204
2.98511
14.8738
17.8676
13.6878
-180.862
1.95904
3.46867
-0.809777
12.8011
-1.63049
14.4525
28.05
23.5263
-10.0869
13.8438
16.0683
-7.18545
11.6567
7.50187
22.7609
11.3011
6.50893
16.3898
13.0759
-11.8395
-2.67465
17.1568
-15.9141
-0.262667
-28.3955
-21.4718
3.90413
9.55515
10.9125
-4.91235
20.8356
20.2816
-12.1323
-17.21
1.3028
-70.1402
3.46097
16.6688
15.457
-17.9934
12.9683
-1.10328
-4.21127
-0.582792
-46.9927
-59.314
-10.235
31.4494
-24.5267
-27.4163
19.2125
3.62508
2.75368
11.7915
2.29804
14.2382
-42.9736
-8.52297
-1.83614
-11.3094
-17.582
-13.8485
25.4837
17.821
5.89446
38.6515
19.9102
-18.3325
7.76374
-29.297
2.66669
21.0443
-147.339
4.76792
-3.37388
-23.9954
-18.023
10.6484
-73.6454
-3.86306
16.8403
31.45
-19.4482
-3.16944
-0.45375
1.61136
1.67753
-128.341
19.9994
10.9735
-0.492353
10.3635
-13.0065
-41.7111
-21.3633
23.3506
-37.2914
28.6011
-96.6048
-4.41945
-20.8948
-31.1252
-17.9214
-3.92119
4.63642
10.1617
-6.84702
10.2387
-111.595
-0.405902
4.72335
-18.0448
-8.38046
-14.0555
-0.911999
6.34207
-129.494
-46.5933
-2.95197
-1.98182
26.7415
13.2186
-6.82152
-1.46544
36.9635
4.41934
-21.09
-6.45219
5.8232
14.4322
0.286399
14.7319
-8.59258
-9.01954
-14.5336
-0.17454
1.20232
19.9892
-17.6068
-27.4153
-21.1422
23.9906
-61.7141
-1.51811
12.7526
-75.6863
-8.11712
14.1824
-23.9197
-19.55
-140.799
14.0494
5.25139
12.4258
-16.5279
-18.2841
-22.8349
-22.5289
-13.7623
-0.119902
-4.3396
-12.9618
-1.41382
-79.6266
-19.5685
-34.6709
17.5047
-159.203
24.4059
-32.5747
4.72114
-11.3324
-11.1119
13.5455
-5.7386
21.3445
0.21005
-13.4674
-26.2785
10.861
-17.8276
13.6561
-1.21499
23.1791
15.151
-0.483551
10.398
21.1012
2.39967
10.1346
-8.52267
-137.873
-7.29961
-19.6622
5.81296
-19.3559
-19.2966
2.07798
-32.5635
1.35773
-66.8664
-10.3006
-17.4199
-8.54585
22.6841
1.41747
-0.46093
3.44352
13.3157
-33.5629
-3.41242
3.29397
2.95621
1.58759
3.10861
-2.4257
13.2632
13.5763
0.0708168
15.0933
15.5472
5.43881
-8.61712
5.17501
10.6478
-2.07405
-7.85473
-17.925
-95.6021
-7.38868
-100.89
-3.18758
5.4711
4.39037
-18.6861
-5.64303
-59.5019
-79.8594
-17.4408
10.8888
-23.0683
14.0608
35.7049
12.0651
7.33501
12.5752
8.97554
1.29486
2.38247
-12.5271
-86.9427
3.28166
11.3368
0.687953
19.9527
2.2325
13.5638
-9.60004
-6.51578
-20.7872
-27.7243
30.4865
-120.807
13.3675
13.6411
14.7405
2.86522
10.924
-1.52632
-20.5812
1.54726
-20.2311
-22.4036
11.4447
13.8105
-13.1502
13.7073
16.264
-71.0169
-77.3895
4.65022
4.95913
16.8018
12.3757
16.9006
-6.54026
1.3188
-10.3809
-8.45769
-7.65767
17.1766
28.1291
-15.2705
-26.7907
-20.6262
-4.84322
3.11233
3.1825
-35.5656
-40.9195
-7.91913
-64.7577
-18.296
34.7171
11.2851
-8.25267
-193.055
-30.0527
-24.497
-20.8243
-33.2813
-30.5576
19.0823
12.2683
-11.343
29.0548
-7.59428
-27.4871
4.34879
-24.0321
2.78524
-14.1516
10.3836
-0.101161
-5.21963
-8.7827
9.56713
-20.8363
-150.761
17.0917
-56.819
7.90405
-21.1724
13.699
10.7029
-56.6822
13.1553
7.97267
17.0594
21.5944
2.6848
2.89209
32.0776
-21.2384
-3.72816
-46.3821
-78.9699
19.5824
-104.063
24.3427
12.2047
-6.45798
-17.4499
-20.0809
15.9813
-94.0993
-23.677
0.256623
7.55734
-10.9657
12.9968
8.40019
-10.4822
24.0111
-17.4327
-35.7856
18.2991
-3.0569
16.4492
-31.9253
35.5195
6.5915
-56.4486
17.223
-2.55547
13.4825
1.55096
7.02568
2.26989
-10.0338
-16.6625
3.35125
1.78189
-171.968
-14.358
1.08258
11.0109
11.6588
-125.799
2.38828
-35.3834
12.7045
-1.96993
-71.0982
14.9864
-41.3119
13.8355
14.4355
-21.0379
18.6414
-62.1905
30.2404
4.41907
-59.7904
0.92206
-13.3991
19.1176
15.9448
-62.1578
12.1753
15.4341
-29.8345
4.77691
1.88781
7.55566
-31.1105
-21.0644
-20.786
-151.626
13.5716
-15.8156
-75.8408
-7.27079
16.9482
12.9874
20.1429
-15.4587
12.2708
4.2507
1.03853
12.4463
-108.828
-136.615
23.7598
3.47085
-6.00098
-15.2794
-24.3922
-99.7375
13.3074
-21.0258
-2.62419
16.1818
-12.2763
12.1427
-16.6156
-3.51149
27.0859
-9.70978
17.0573
-8.18691
-104.543
10.1487
1.37853
18.4978
27.0163
5.87995
-0.57456
29.3373
10.9559
18.2643
-22.2175
-16.1681
-23.9507
-6.61089
-89.9618
-20.6705
-4.26502
-20.8024
-4.90208
-1.27987
-18.765
-12.7262
-104.802
-17.2165
18.4914
-34.8843
-2.84086
13.078
13.1001
2.7362
3.67298
-61.1505
-20.936
-18.8337
-4.5173
18.6303
-76.2108
17.0346
-21.7704
13.4711
-23.7245
-19.6336
-46.9119
7.02606
13.5095
9.32079
-1.90532
13.9347
-20.568
13.7332
22.6087
-36.1711
-36.464
-73.2726
15.1173
7.49264
-39.4782
-16.2868
6.08854
4.06162
-21.9083
0.154164
-13.1186
-3.14156
13.5411
7.29087
8.903
-80.8798
19.5011
-30.5793
9.63977
-1.93504
14.0836
7.95993
12.8377
-0.369433
-69.8584
-117.153
-22.4026
-14.8417
-89.2151
-64.3806
-9.03877
-100.082
14.7138
5.45643
13.3537
-155.409
-42.9353
-9.53385
7.15183
7.93672
-19.4443
3.97457
0.952907
-89.3263
-82.6599
-34.1379
-1.35507
13.4944
6.7151
2.34013
-14.4808
2.69838
-88.0068
-9.20275
-26.3368
13.1628
-2.94065
-118.459
11.4503
2.14104
9.28455
24.8381
22.497
-10.5261
-116.776
12.2648
-6.80137
12.9843
0.756064
-62.0472
-61.5434
-44.829
-15.8725
0.814434
-55.3622
32.4165
-10.1452
6.73684
-3.38292
-22.2333
8.15565
-90.3718
2.36912
7.8763
3.66745
14.9373
-19.1353
13.0666
-10.2362
-38.9373
-142.829
-23.2498
-68.2253
5.77449
26.4504
12.4496
-28.8824
-53.6882
16.8441
-20.7227
-111.592
-3.41919
3.60934
-46.9402
-60.8708
-73.5593
-10.8779
-1.96146
-4.86276
-22.6851
1.15377
14.6177
-6.91903
-11.8969
15.7529
6.88755
-42.0121
4.68763
2.76165
0.380841
29.9383
-3.58103
-3.76431
-3.70777
-1.59944
-6.97207
1.13935
-20.7081
-7.65918
1.7613
-10.7409
-70.0282
-40.5343
16.4608
0.659713
9.00632
-6.45974
-4.55743
27.1201
-134.329
6.67878
5.86348
11.7112
7.53563
-2.84574
-19.5909
24.2475
14.8831
14.5366
4.19572
-79.6387
15.5264
8.08347
21.4641
-38.1926
15.348
15.4788
14.9199
1.5726
-20.7499
10.1462
-22.3675
-12.5769
12.3351
9.44852
7.2707
16.9082
2.72605
19.9215
-11.9755
7.25224
5.69376
-3.10452
-36.4966
13.6031
-6.69925
13.3144
30.1333
14.4375
-0.135802
-8.33044
-3.36218
13.5517
8.22613
-20.8949
-1.02453
-65.6817
14.3541
-46.7021
18.1623
9.50022
37.0057
23.3189
-18.2055
-22.9515
-43.2834
6.90632
23.4309
0.0374498
5.45346
4.19564
33.8838
14.1247
-2.74765
31.2366
-2.70261
10.6516
-2.22366
5.87631
1.57877
1.62393
6.73024
11.3951
8.62875
-22.0783
0.553541
-25.6425
-7.63537
-58.5728
-14.2871
24.2063
16.3778
2.39468
-41.2705
0.394008
8.33151
0.092748
-0.515233
12.8274
17.3393
-13.3353
-164.592
14.438
-9.5538
-97.0344
20.9619
-10.629
-3.03592
-8.05837
27.6545
-103.299
17.0506
-45.87
31.3194
-12.7227
-16.4712
-18.893
3.83936
1.30859
13.2525
6.46186
-66.7903
-13.0585
-100.501
13.7362
5.36053
6.04171
-109.286
-26.3824
-48.383
5.71765
-26.0712
-125.095
-33.9667
13.556
28.4236
-24.5491
-95.3458
-1.15159
-98.2887
11.8603
-3.37342
-20.0657
-44.7466
-16.4509
17.9697
-62.1633
1.42014
-0.369577
-26.9632
-77.7171
8.96874
13.9437
8.49856
13.7671
26.2891
-50.1509
32.6777
-15.0507
29.511
-64.8562
-4.55594
24.3723
11.919
-51.1541
-5.48395
9.09632
-0.230859
-113.444
-21.1239
2.67175
-10.752
-17.5185
-3.75981
1.0535
11.1243
5.75048
-79.9243
11.3268
-10.5113
-6.93153
-109.424
7.0746
-14.9071
-141.177
-7.67979
27.6894
14.0692
28.3066
-1.44555
-19.1985
12.2603
0.0124684
-18.2408
13.774
11.6115
30.8715
14.1728
17.2883
-24.9139
-17.1966
29.7836
28.7116
15.7276
-0.235076
-74.373
-22.3226
0.128944
-16.6086
-10.6549
22.5731
-160.528
8.77525
-37.9646
29.0101
-1.80802
7.63191
-125.087
-4.27703
23.2254
34.2649
31.8431
2.72804
14.6012
-26.0703
-13.4014
15.3882
32.4062
-80.9519
-19.1857
-13.0294
0.959671
2.03618
3.61452
0.90395
1.69104
2.19516
-1.54457
-46.4219
10.7643
14.4688
-49.6138
8.67741
-126.702
-0.0311746
22.235
-38.4939
-16.2856
-48.156
12.2563
15.3211
-43.8222
-54.8164
-138.148
-0.526972
35.5351
-21.2305
-22.8961
-73.0133
5.23434
-86.448
-47.5054
-61.9341
-23.1392
-136.378
-18.4251
0.65484
-18.217
14.9097
-28.0982
7.29185
34.1697
8.68932
0.413664
1.74359
8.53611
-17.1289
-5.16266
22.729
10.7691
0.592203
-12.5786
7.10892
10.2954
-95.5672
-57.4122
-7.66713
23.0107
-8.39094
13.5875
6.47456
18.8593
5.25549
-117.083
-1.04178
12.9414
-6.95039
14.8066
-2.46754
30.2346
-86.2912
2.49533
-35.2069
15.3694
-58.7374
-7.33875
-84.1336
3.04349
-38.7408
-77.3577
-113.824
6.92498
-2.02292
-36.1934
0.243449
1.01864
-22.6519
-2.71961
-92.756
12.6695
28.5112
-5.51533
-18.3102
-1.59096
3.23993
-13.7243
6.2242
-0.692336
-21.2676
-15.2248
-10.973
-36.923
7.11904
8.09431
-83.991
-37.6197
-1.94603
12.9935
10.9684
-37.5774
3.4463
-30.3113
-16.8211
-10.1622
-6.71807
-42.7648
18.516
-158.102
-28.8476
-15.5869
-42.8312
-23.3788
-52.4965
37.3772
-11.1874
-12.6983
17.1737
28.8282
22.386
-109.978
-2.36598
13.0785
8.49146
-11.4604
28.5383
-4.21817
-11.0674
36.9839
5.97667
-44.5735
8.4318
21.1561
13.7698
-1.61012
23.6817
13.6081
0.896879
2.83589
11.9559
1.15508
-20.8042
25.9307
15.7537
5.54289
-62.3564
-30.1931
-10.4846
-130.412
-4.21638
0.15522
1.39591
15.2467
2.41172
-20.6767
23.7039
24.6192
-26.9928
-2.69089
-0.74669
-11.1693
-18.522
13.4846
-96.0957
-7.04898
18.7049
28.9685
-20.7897
5.37854
9.98578
9.10216
-13.7357
-0.91759
-31.3851
-2.80794
-28.6285
6.80215
-26.6688
-11.1446
1.87279
-97.2918
11.1561
-83.5922
-0.898319
10.2709
-16.7211
-110.024
-20.9524
3.56382
-1.87429
-1.3888
11.3309
-75.8901
-8.70882
-21.1757
-0.254476
11.7364
-23.6163
28.9233
-75.1292
32.9803
-3.01593
-7.1474
2.48374
14.06
-3.41555
-13.3006
3.38118
7.05851
2.87495
-10.2127
38.1892
9.10558
-24.3425
-8.25098
-15.7678
-11.015
2.2982
-5.39046
13.6514
-166.093
-117.789
-20.3646
-45.3026
0.00448407
-19.5402
13.0865
-3.05403
22.6437
30.0889
-20.9369
-21.1766
5.5418
-2.62649
23.8524
-67.4586
7.14152
11.289
13.6554
-135.957
-100.47
5.98815
8.41437
-8.18893
-146.548
-44.6299
-0.745678
-1.88128
-12.4008
5.23245
-11.6605
-11.2913
2.91435
-102.195
-125.955
-5.25659
-21.8888
30.1607
-17.9942
13.8095
-7.51843
-9.299
5.20657
-19.5765
10.1217
-67.3722
-17.4982
23.4947
11.4194
6.64533
-20.0305
32.6317
-92.3932
-16.1838
-173.678
-22.3312
-57.347
-166.027
20.4237
6.32475
-2.49725
11.1512
-109.877
-49.1524
-5.22981
-1.98733
-11.5653
6.76121
11.8369
3.70496
-31.6749
-18.7661
-60.9554
-11.459
-3.20099
-4.11161
31.0351
13.6075
-56.7915
-24.6634
9.43698
21.4565
-14.6507
-18.6314
-21.2393
17.0332
-0.701532
-12.3155
14.9478
-55.9541
23.0676
-3.3426
15.7975
-26.3697
-10.6678
-30.0078
-153.288
-24.3644
10.7022
-19.9751
-46.5771
7.74422
-101.964
4.65481
17.0646
13.6668
16.261
13.5727
-11.05
2.89297
6.90533
0.393321
-1.56064
7.36527
-14.9763
23.6936
-88.8967
15.5524
-34.3123
28.3229
-111.365
-1.31058
26.3684
-91.9183
-17.5731
-21.903
16.0181
26.322
12.6545
-5.02355
13.1561
11.3689
-31.8028
13.9318
-125.064
13.5536
-94.0647
-162.839
-21.4507
-21.5774
10.9566
-30.8939
-22.8223
-7.5748
25.5147
6.23545
7.4535
-21.7334
-5.35528
-12.9719
0.992315
13.6234
1.31419
-22.7694
31.8576
7.43194
22.4839
12.6519
-58.8313
0.491801
-4.87333
-10.8834
-1.06
-8.09041
-9.84299
3.59675
0.93788
-145.991
32.5514
16.3121
-10.8603
-68.3191
0.190929
-132.794
15.2002
9.5807
1.67294
-121.681
9.62561
2.80148
-6.56355
-17.1662
-15.5772
4.11741
23.1011
-20.0814
26.3667
34.9676
27.7894
-4.67942
10.6427
-29.0621
12.7828
9.84636
17.3013
4.18764
15.2374
33.7423
15.0414
-19.9402
-61.9047
-15.7779
33.9137
-6.49827
-73.8999
-43.3095
18.2462
24.0812
7.04372
-11.0556
4.088
20.45
-20.532
1.04274
-47.3548
11.4681
9.00182
-49.7562
-4.5632
-23.535
-26.1617
-100.305
-10.2382
-14.0285
10.2519
6.42641
3.36462
1.7313
-33.4724
-24.0203
-34.6251
-29.6584
-23.1658
-19.6702
14.2256
21.0599
-95.5631
23.8371
14.8181
25.1926
3.57635
-85.113
4.22198
-20.8773
16.9292
-30.9363
16.1637
15.2508
8.34
16.5926
-1.4201
11.9165
-9.5318
11.9351
-7.39478
-17.4971
-39.4144
0.351177
11.5131
-85.748
-128.349
-84.0697
27.5689
10.2261
13.0531
-8.81022
19.488
-11.5397
1.09015
-5.49528
-8.83883
1.4985
-116.248
-20.8414
-3.43392
-20.832
-3.61528
-61.4264
-3.38672
-24.1267
-18.0294
-3.45756
25.8134
29.9296
22.5448
-85.3936
1.15026
-30.1354
2.05091
23.1014
9.41708
11.2305
-75.5122
-7.86617
-9.01921
5.46055
13.6854
4.37856
4.47435
-21.2054
4.44896
-20.9406
13.0504
4.68953
13.0247
-23.3181
1.87839
-112.852
-22.3907
-21.8554
-10.1406
24.2305
-13.2054
-7.25841
-48.6213
8.64577
13.6568
6.71045
12.8541
-23.0547
20.1489
27.2917
-141.58
4.75814
15.8154
-115.723
-54.7852
6.51065
15.4414
17.2472
-23.8359
-18.4477
8.32446
25.4644
-23.7133
-71.2596
4.97187
20.3143
6.14687
-6.50088
-102.998
11.518
13.675
13.1393
4.66525
-12.4731
4.61131
32.6932
-19.2734
-9.93293
5.96484
-22.8401
6.45609
-6.25852
-26.7733
-20.1886
-131.249
13.0839
-152.648
-21.6077
10.7725
15.2226
2.23999
-9.84785
-57.2599
2.33554
-21.4762
-30.4456
-7.74476
-7.16862
-30.2101
18.7175
3.25232
6.39745
-0.747353
22.0225
16.5875
-13.0698
12.5245
-21.458
14.0537
0.832172
-9.71159
-38.0567
14.4336
-2.47445
-7.12014
0.588916
-2.22779
12.0175
-35.4432
-12.1113
-100.636
-0.20321
12.5628
-26.255
27.425
-20.6735
-20.7815
-72.2703
16.4056
3.96671
9.70977
-17.4469
19.7705
-68.9063
-15.5123
4.97102
-24.3435
14.6893
-6.12055
0.362357
-10.9127
-14.3054
13.8335
-21.013
-108.193
-2.42988
-31.5655
-31.6394
-7.14191
22.323
-5.30699
-30.3968
9.8717
-20.0656
16.7067
-38.0317
6.61404
19.241
14.2761
-6.97272
-135.332
-60.2316
5.82938
11.0549
12.4451
-27.4866
-61.8773
1.33588
-25.621
13.353
34.9889
1.52336
12.2075
16.3771
9.91687
14.5406
-63.6379
-18.5725
-87.9157
12.8321
33.51
2.51513
-1.59337
12.781
-7.82296
-5.80047
-9.87831
6.62998
-3.61826
27.4374
-80.335
-19.6737
31.2636
13.1922
-2.29039
4.95448
10.4384
-1.29578
-115.078
-69.4872
4.67101
-19.0241
-17.081
10.6827
-82.1591
-76.6571
-41.7107
-0.161706
0.774968
4.01834
8.51587
10.227
10.7676
-16.2575
4.85013
1.86399
26.0514
19.0684
-22.431
-8.21634
7.31445
14.7188
3.71925
-7.60731
-6.90849
8.10091
-4.65938
22.2521
6.44739
1.74132
-32.2943
0.425634
7.1562
-15.3864
15.1762
7.1565
2.99105
-46.9287
2.26106
-19.6583
3.49191
-18.967
19.5648
-44.7024
-23.8202
17.5599
-26.6838
-13.326
-33.4571
23.6328
-32.376
-4.81343
10.5757
-21.7853
19.1313
13.87
-19.0761
14.2221
-0.204641
6.4244
-17.7922
-31.5273
3.03311
18.8791
-8.60982
-25.5147
-23.8778
-14.1891
-15.6935
-34.7525
-20.9748
1.40252
10.9122
13.2233
8.22037
4.66689
-10.9845
14.9559
9.89872
-22.8697
10.7365
-15.5913
-12.8791
5.99243
-3.33667
13.6894
-94.2919
-38.8236
-40.3518
11.3904
-78.0323
-19.0388
1.71121
-87.598
-20.7858
-22.4829
-33.6618
2.96934
-16.2051
-6.74086
-22.5293
14.3046
14.0515
-21.1651
16.9328
-59.7644
21.5243
-18.2178
6.87899
-2.17631
5.35467
-3.05283
-17.0684
-17.6348
14.6278
18.6089
23.7114
-33.6346
-20.8963
-66.9041
2.64029
1.2728
-21.4629
-37.0892
-21.29
-3.10954
-29.0535
-16.6085
-53.3729
7.60845
20.0783
-1.28637
7.29365
13.4011
-8.04217
-20.3478
23.2837
29.3755
-18.9614
5.05884
6.21567
-1.7572
-106.796
16.1539
18.2549
-19.5949
-29.9124
-84.731
-66.2929
-0.8011
-21.4026
2.10606
16.6386
-20.6422
16.4056
-27.8774
-22.5494
14.6253
0.745271
-21.408
8.09513
18.5811
-21.4956
2.00862
-22.6546
-20.4527
-21.236
24.3954
-18.0832
4.86648
-34.1103
9.5787
-21.195
-1.98958
-19.9722
-52.2925
-7.42532
5.86911
-28.774
-20.1093
1.90093
-2.88596
-49.0379
-24.2556
-26.0233
-14.506
-6.90431
12.5113
-19.8759
15.5644
-30.311
0.728581
-67.5162
-6.85145
-67.4914
-22.7678
-54.9777
-4.32098
11.102
-4.21073
5.9178
-14.7516
-2.14308
-58.6933
13.487
-45.2442
12.8607
-4.03474
-169.145
-8.80037
39.3188
-146.374
-21.7143
-20.6271
-19.905
12.9745
-5.86847
-7.90268
-7.71414
-23.2292
-31.8211
-17.7043
-20.5923
-0.655839
-29.8816
7.93818
-23.0518
5.1927
2.26558
-62.6201
-27.4343
-1.11979
8.99181
-20.9874
-59.0144
12.202
-11.6488
-21.0855
5.46616
-34.278
-15.0625
3.033
10.3937
-102.149
13.0781
-20.9457
-36.3399
-41.283
-34.9817
-14.8283
-25.6084
15.7206
11.589
13.1013
-66.2469
36.8587
-65.4247
17.6626
14.6167
-22.2025
11.1419
9.28781
13.3921
-14.5213
-62.385
-41.3042
-34.2551
12.6823
10.0977
-23.029
-32.0321
-19.7881
18.5952
6.26841
-31.8543
7.97037
12.2267
-5.41026
-6.36854
-0.829951
13.7543
13.3858
-11.8765
15.8676
15.6301
-2.42612
-88.8357
9.39149
12.9099
7.01217
-8.86655
-14.7177
-51.2193
-34.1793
-75.9927
17.7016
-1.05261
6.08334
-8.19021
-19.3874
-129.973
2.65754
-86.8193
-16.6104
9.56571
12.706
-49.9407
10.0373
-7.31598
-0.0501027
3.04228
7.30516
4.03882
-2.9331
14.1567
17.0051
12.3371
-23.8244
14.1585
9.93466
13.6931
15.4758
-61.2753
-11.9088
-115.48
-13.3509
10.2205
26.4712
-85.7113
33.3965
-71.726
-19.2899
4.28362
9.60893
-20.9375
4.76634
-20.9663
-87.8212
5.53767
-110.612
-24.9028
6.03053
0.0244328
31.663
6.56576
-13.7899
-151.83
1.08208
12.0126
-160.563
-56.5786
-59.1796
-4.78753
-18.3037
-15.8697
13.5786
-15.629
11.6507
-9.67919
-8.63127
-10.6917
3.66933
-3.55148
-21.1648
20.6445
-16.1394
-31.4665
23.0523
-60.1847
-3.73082
12.5975
5.93327
-73.571
16.237
8.60067
13.1259
-10.8005
11.6276
0.408681
19.6024
12.5411
-68.1177
5.01831
-8.8183
-47.5871
7.5941
-2.30429
4.15092
-88.3721
32.4215
2.16195
-89.1304
15.2683
-35.1649
3.77968
-97.148
-25.5543
-19.1977
-42.1088
-4.48645
-3.95871
1.72245
-67.7146
-6.98199
-61.6643
-8.00308
-183.271
2.56286
14.498
-75.3914
-98.0706
-5.35429
-5.62014
-17.672
11.1398
16.3954
-50.9006
11.4068
-13.4025
13.5775
23.3579
-21.613
13.871
-2.95338
11.2865
13.0905
9.13815
1.76849
-159.348
9.4158
16.4658
-100.46
-14.674
-29.5892
-18.9018
12.8987
-63.2218
-15.0463
-66.4482
12.9533
-20.9973
1.56485
-8.19769
14.6886
2.46986
-19.6913
-0.94652
3.52541
17.5476
19.9978
26.917
10.3415
33.3051
17.232
35.1386
0.941081
-5.89797
21.4067
-39.533
4.54715
4.32995
-17.7118
17.9668
0.296918
-13.7139
26.7142
7.38659
-55.3796
12.5101
11.4947
15.7517
-21.2086
14.833
27.8411
-28.7796
-18.5086
-11.0671
-1.96362
-25.2239
8.17263
4.49593
17.1839
12.8813
-82.0654
8.30506
-4.59157
-17.897
-18.9049
-76.9093
4.90545
-21.5984
13.2527
7.56952
-21.1832
-0.833087
-3.57051
4.61037
-70.9595
-20.052
7.34432
9.10288
-21.2313
4.60695
16.2254
0.830195
-86.641
13.6962
-5.08957
12.218
-21.3702
16.6313
10.3217
-26.9972
4.62772
6.35617
-2.73562
10.7829
-20.9716
31.4064
-7.04772
-21.9711
6.75466
0.770922
-20.8854
-13.9132
-19.2745
-18.197
-14.8209
-17.5535
4.64272
2.64861
34.1504
-11.162
-51.4983
-2.87473
-7.94486
-16.2752
-2.61393
2.34534
16.6654
-22.0829
-2.43586
-21.0645
-15.9551
-1.60521
0.614144
14.1754
-1.31012
1.33684
-16.1915
11.3749
-18.2464
0.310868
-21.476
5.62478
-1.88316
17.3386
-21.6238
-10.5893
-21.1653
4.38055
-22.2484
4.46242
11.7561
9.05951
17.8801
-17.8808
-13.4643
11.7947
-88.7021
14.5239
12.4419
-3.90869
10.7295
-7.32909
10.5778
2.40134
-9.81073
-35.1195
15.8627
-159.647
13.2723
-0.1655
34.4114
5.68687
9.72877
10.7343
7.85448
0.650282
11.1271
-8.36298
-4.874
-25.2284
4.09953
3.58084
-4.1949
-23.4454
-83.1285
0.20681
-32.6339
-21.001
-13.1255
13.9727
-162.771
13.8578
8.43022
27.7832
25.8237
11.5679
-5.91544
11.3717
-21.0792
17.8157
-1.36735
8.09706
-5.959
12.5592
5.48509
3.72865
-79.8153
-9.73756
-3.30164
-17.2268
-2.38026
12.3374
-64.109
-5.09593
-16.0865
5.12126
12.0786
3.40295
11.6716
7.76869
5.22669
1.80054
8.81291
2.29021
-10.6703
16.6462
4.22775
19.1383
-28.899
14.5617
5.86321
-24.6454
-48.5701
-72.6461
-10.2696
-32.8815
-117.245
13.4192
18.1617
15.7434
15.8546
13.9976
13.4361
12.1122
2.47372
12.4887
-34.654
8.82981
1.78189
-39.8944
23.5307
-2.13288
-22.2237
14.4944
17.2574
22.3092
-56.9096
-11.0213
-62.3499
-17.5618
12.3319
-42.6507
-75.428
16.8946
28.3901
-20.4021
-29.1594
-34.2399
11.5637
2.38903
8.64458
-0.855483
-1.83213