/*--------------------------------*- C++ -*----------------------------------*\
| =========                 |                                                 |
| \\      /  F ield         | OpenFOAM: The Open Source CFD Toolbox           |
|  \\    /   O peration     | Version:  2306                                  |
|   \\  /    A nd           | Website:  www.openfoam.com                      |
|    \\/     M anipulation  |                                                 |
\*---------------------------------------------------------------------------*/
FoamFile
{
    version     2.0;
    format      ascii;
    arch        "LSB;label=32;scalar=64";
    class       volVectorField;
    location    "5.1";
    object      U;
}
// * * * * * * * * * * * * * * * * * * * * * * * * * * * * * * * * * * * * * //

dimensions      [0 1 -1 0 0 0 0];

internalField   nonuniform List<vector> 
13486
(
(6.89038 -1.60264 9.13715e-21)
(7.12344 0.0609895 5.68346e-21)
(10.6262 0.306417 0)
(11.7154 -6.29991 -7.33643e-20)
(11.4529 -0.931248 -1.29875e-20)
(8.98431 0.497419 -8.29348e-22)
(12.4696 1.53764 1.4468e-22)
(9.85899 -3.17753 5.29477e-21)
(8.99027 -1.60018 0)
(7.43111 1.46758 0)
(-2.70109 6.08779 -1.40214e-20)
(8.36969 0.0487657 0)
(6.5112 -2.3626 -8.87795e-21)
(8.50523 1.98546 -2.15824e-21)
(10.9455 0.876217 -7.8465e-21)
(7.34548 1.51536 -5.99238e-21)
(0.633004 -0.302588 6.99696e-21)
(4.78311 7.07463 -1.72116e-20)
(7.84666 0.0552432 -2.82344e-24)
(7.33146 -0.915905 -9.29824e-21)
(7.53319 -5.12767 -5.03591e-20)
(6.57213 -2.41027 1.14376e-20)
(7.16823 0.0260007 -4.55283e-21)
(13.7353 -0.00644712 0)
(7.75968 1.20654 2.00097e-21)
(13.646 -0.213986 -7.22165e-21)
(-0.186692 0.216208 7.83183e-21)
(10.7428 -0.224 8.21942e-21)
(7.39185 -3.25254 0)
(11.0361 -0.943328 -6.71855e-21)
(0.243717 3.4106 -4.9038e-20)
(9.27816 1.88667 6.57981e-21)
(11.5383 0.752147 7.6243e-21)
(10.069 -0.639459 0)
(9.886 -2.98646 0)
(4.65806 0.425899 3.59945e-21)
(5.88538 5.54541 -4.44756e-21)
(7.66696 -3.5258 1.60582e-21)
(6.37138 -1.6545 7.81634e-22)
(8.78857 -0.961142 1.29384e-21)
(14.2453 -2.33833 0)
(5.90554 -2.82616 -1.11153e-20)
(8.68491 -0.194836 0)
(7.82921 1.01377 -9.1513e-21)
(7.81661 1.03059 3.71734e-21)
(8.38686 0.0541273 5.94284e-22)
(-0.846647 0.16517 1.3533e-20)
(7.95578 -4.22894 7.49033e-22)
(5.82875 5.42086 3.09955e-21)
(10.1975 0.316537 2.25461e-21)
(7.97919 0.0014551 6.51981e-21)
(6.08234 -0.206045 0)
(7.80131 0.506158 -1.79166e-21)
(7.94032 -2.88674 -2.92171e-21)
(2.76918 7.71818 0)
(11.2022 -1.16517 6.91396e-21)
(7.88254 4.06443 6.54695e-22)
(6.87203 -0.804184 4.28325e-21)
(11.6388 0.848237 9.31807e-21)
(2.84372 6.06357 0)
(-3.05421 4.11314 -1.94045e-20)
(3.62451 5.43129 0)
(12.8762 3.00128 -5.80362e-21)
(7.05317 -4.0268 -6.11122e-22)
(-0.571073 -4.28467 0)
(4.61899 5.71178 -3.25004e-21)
(8.19296 -6.41474 -5.33486e-20)
(6.6494 -0.765047 3.64336e-21)
(8.99553 -1.71047 -4.54679e-23)
(7.89394 0.734533 -3.38591e-21)
(9.29739 -5.50378 6.16045e-20)
(3.83667 6.6776 -6.4641e-22)
(8.52292 -0.589735 1.76486e-21)
(-1.59474 -1.00701 -5.44719e-21)
(2.89288 5.66777 -8.64706e-22)
(8.30202 4.09416 -8.53468e-23)
(6.70992 6.223 4.95215e-21)
(11.1084 0.877893 3.25998e-21)
(-0.72364 0.879479 -7.46243e-21)
(9.85838 -3.58605 0)
(7.64842 0.0319851 -1.41409e-21)
(6.90429 0.249668 -3.84904e-22)
(11.742 2.84636 6.32338e-22)
(10.5637 -0.278701 -4.3614e-22)
(6.90162 -1.61912 -1.7722e-20)
(5.69759 3.28279 0)
(8.40862 -6.4652 -2.57122e-21)
(7.95906 0.0497572 -1.046e-20)
(7.66615 0.0632018 -4.54441e-21)
(6.77707 2.065 -8.35614e-21)
(7.96872 2.03506 2.43951e-21)
(10.4518 -2.34209 4.25073e-21)
(7.18286 -1.92496 2.03871e-21)
(7.27559 -0.502813 2.68548e-22)
(8.89209 -2.56902 -3.51656e-23)
(9.23348 -4.19091 -3.31109e-22)
(-0.593666 0.486696 0)
(2.99717 -6.42835 2.26368e-20)
(8.77484 -0.908756 -2.53999e-21)
(0.719595 -0.291363 3.27485e-24)
(4.77462 0.417592 0)
(8.48484 1.96249 -8.6352e-22)
(2.05482 -6.90744 7.70587e-22)
(5.78815 -0.430572 -5.12967e-21)
(5.31391 2.91333 0)
(0.736275 -0.23688 -3.74906e-24)
(8.02393 -0.124674 -2.62583e-23)
(6.7399 -1.98163 1.52246e-21)
(-0.620923 0.415458 9.33619e-21)
(10.2414 -4.58179 0)
(8.38529 -3.84749 0)
(10.4433 2.77607 1.41141e-20)
(7.97716 -2.81607 1.62228e-22)
(7.914 1.62732 1.60056e-22)
(5.60654 -1.3223 0)
(8.20273 -3.81634 1.70153e-21)
(7.65914 1.28731 0)
(10.1539 -0.600216 0)
(8.48601 -0.560132 0)
(8.50842 7.51323 -4.29019e-21)
(3.94022 6.6265 5.32478e-21)
(-3.74823 4.56187 0)
(8.67529 -2.35254 0)
(5.71062 -1.66981 -2.55831e-21)
(9.22594 -3.02898 0)
(6.80372 -0.515789 0)
(9.63049 -0.425153 -6.21688e-23)
(8.29129 0.203361 4.05741e-21)
(9.07227 -0.462006 -1.0972e-22)
(5.17402 -4.01436 -8.21913e-21)
(5.84477 -0.0168064 6.24212e-22)
(-1.18431 0.0925688 -3.47074e-21)
(-0.811896 -0.0264454 8.88388e-21)
(-0.785203 0.190152 7.24947e-21)
(7.99121 -0.00527209 -1.02407e-21)
(7.53543 0.692518 -6.39153e-21)
(4.07751 0.725324 -4.26568e-21)
(10.2046 -4.18022 0)
(8.00191 7.18032 1.76228e-21)
(9.75857 -2.34531 1.22619e-21)
(10.9724 0.792656 -7.00811e-21)
(7.54388 0.605868 1.56989e-21)
(8.55701 1.16789 0)
(9.2491 -3.35824 0)
(8.46456 -0.165107 5.28785e-22)
(12.8935 1.86191 -1.30218e-20)
(9.61144 -4.32268 -6.18928e-22)
(1.70984 1.69391 0)
(10.2019 0.453435 0)
(7.61111 -3.03616 0)
(8.00902 0.00334465 1.32966e-22)
(11.7279 0.397585 0)
(6.68894 0.244128 1.47995e-21)
(6.78553 0.237828 -3.34474e-21)
(8.23382 0.749537 0)
(11.9003 0.209105 0)
(10.9491 -4.48661 0)
(7.85032 2.34496 3.66022e-20)
(8.49752 -3.23136 5.23543e-22)
(8.86162 -1.30738 -9.90018e-20)
(9.59148 0.191751 6.21515e-22)
(8.51637 -3.17376 -4.73234e-22)
(7.78441 3.72021 -3.31491e-21)
(5.2737 -2.65525 4.69322e-21)
(6.78134 -0.614915 0)
(8.80637 2.10436 1.6493e-21)
(8.36992 1.74432 5.85057e-21)
(3.80751 -1.67712 -1.62841e-20)
(10.1419 -4.2557 9.13341e-22)
(-0.825967 0.0757533 1.9495e-21)
(-1.42424 -0.636537 -9.03581e-23)
(8.23107 0.659199 3.32854e-21)
(7.97394 0.0762923 -9.66193e-21)
(9.63393 0.320453 -1.91831e-22)
(10.556 -2.21494 -8.55047e-22)
(-9.59077 -3.82527 0)
(8.2392 2.79874 -4.62556e-21)
(11.1434 1.20502 8.9841e-21)
(8.05458 -0.138641 -8.79095e-21)
(8.59141 1.05794 0)
(9.06679 -1.05216 1.82299e-22)
(7.85218 1.32945 3.77152e-22)
(9.4823 0.648848 4.98818e-23)
(-3.26582 1.19262 0)
(8.93716 -1.17382 4.12458e-22)
(10.4254 -0.177696 -3.70258e-21)
(7.03955 -1.5938 -9.82329e-23)
(10.4723 -0.858836 -1.57255e-21)
(14.5147 -3.35208 0)
(7.54765 -3.59678 6.53948e-22)
(6.32214 6.52667 0)
(10.1519 0.371219 0)
(7.09363 -1.37551 0)
(5.96313 1.37109 -8.37143e-21)
(7.56833 -1.78027 0)
(-3.49391 6.61571 -3.83867e-21)
(-0.0676332 -3.04726 1.9701e-20)
(9.69372 0.113384 4.43766e-22)
(6.91118 -3.35325 -1.29136e-21)
(8.77283 1.95499 1.55328e-21)
(-2.06255 1.43894 5.01484e-20)
(8.35667 0.255831 -1.2756e-22)
(7.61875 -3.59499 -1.86083e-21)
(11.6516 -3.98817 -8.31616e-21)
(8.6138 0.0804758 1.20338e-19)
(7.53493 -1.40403 2.26549e-21)
(4.55062 9.87031 -1.57635e-20)
(8.17542 -0.498674 5.45572e-21)
(7.17728 -1.09348 0)
(9.09952 -0.906154 0)
(10.6672 -0.397891 5.3297e-21)
(13.8222 -1.85935 1.63593e-20)
(7.37913 -0.817029 8.53188e-21)
(7.9831 -0.0926367 -2.52549e-23)
(8.99852 0.597745 9.56422e-22)
(10.076 -2.75304 1.61637e-22)
(11.1066 -0.722178 0)
(6.83305 1.9702 1.90676e-20)
(7.53208 -1.92534 0)
(10.2756 2.75362 0)
(0.798188 -0.336451 -1.33333e-20)
(10.3261 0.544611 0)
(9.6721 -2.37036 -3.15927e-21)
(10.3258 0.240198 0)
(6.95579 -0.0783549 -6.07829e-22)
(6.66618 -3.1068 2.70742e-21)
(9.23757 1.14751 6.54684e-23)
(-10.2749 -3.16822 1.73019e-20)
(9.94434 -2.3654 2.07603e-22)
(9.25492 -6.97994 1.40386e-21)
(9.05839 -0.985754 -1.13874e-22)
(17.7935 1.26856 6.54606e-20)
(11.1538 0.86701 8.73433e-21)
(5.82805 -2.801 3.92557e-21)
(0.572062 -7.78674 0)
(6.35372 -3.07363 2.76719e-22)
(10.1605 -0.794324 2.2767e-21)
(10.2145 0.211452 -3.38406e-22)
(6.48371 -3.08077 7.95765e-21)
(9.12621 0.388577 0)
(11.8682 0.88615 0)
(8.00105 0.0779103 1.49071e-20)
(8.81526 0.780259 0)
(6.22853 -3.06263 2.16849e-21)
(4.63189 -3.12601 7.87368e-22)
(7.70106 -0.405408 0)
(9.03462 0.127669 2.23284e-22)
(12.3272 -0.818576 1.86313e-20)
(0.590288 -1.04528 1.25325e-20)
(7.75668 0.914528 0)
(-4.71548 -2.45198 -4.04783e-21)
(5.50222 -1.24062 1.72182e-21)
(7.79783 -3.77329 -3.04739e-21)
(5.95443 -2.21293 0)
(9.56382 -2.56221 -3.60114e-22)
(-8.09457 -2.68912 4.42078e-21)
(9.28283 1.89692 -5.04007e-21)
(9.80937 -2.76005 -2.04253e-22)
(11.366 2.76435 -3.83217e-20)
(11.7494 0.689534 7.367e-21)
(7.4274 0.0106706 0)
(5.08907 -2.86255 4.65515e-22)
(10.9369 0.909022 1.7621e-20)
(-9.5261 -3.98446 -5.51991e-21)
(11.4952 -2.78112 1.31088e-20)
(-4.19478 1.62799 0)
(9.50035 -2.19004 6.65113e-23)
(0.734177 0.105231 -6.79505e-20)
(8.57997 -0.0617952 -2.42802e-21)
(2.70587 3.84079 0)
(6.52749 1.63333 6.80825e-21)
(7.99218 -0.079283 -2.5675e-21)
(11.0145 -0.806543 0)
(7.90569 -0.098512 9.85473e-22)
(6.89149 -3.2402 3.55296e-21)
(12.3349 -1.12924 -1.04102e-20)
(8.97607 -2.67917 0)
(-0.786337 3.1876 0)
(6.22961 -2.5756 1.60294e-21)
(9.20426 -3.85336 1.7133e-21)
(-1.46334 4.07841 -4.47588e-21)
(9.17165 -0.470622 2.85415e-22)
(7.96139 -0.141538 5.48419e-21)
(11.4095 1.58179 -1.31223e-20)
(-4.66971 4.2107 2.15536e-20)
(0.339755 0.27672 1.35691e-20)
(10.8891 1.03227 6.60015e-21)
(9.73561 -0.626936 1.44278e-22)
(6.55352 0.0386231 1.42927e-21)
(8.50003 -0.0781654 0)
(0.439853 -5.90523 0)
(2.33515 0.216816 6.71396e-21)
(8.06043 -3.71483 -4.48969e-22)
(7.99708 0.00231571 -9.9227e-22)
(10.1472 -0.804389 1.59678e-21)
(10.3316 -0.856643 0)
(9.4356 -0.0273601 -9.38655e-22)
(8.10798 -0.246097 -1.26052e-21)
(7.97513 -0.194368 -4.88964e-21)
(13.4112 0.176817 -2.06274e-20)
(8.0081 3.97749 4.24734e-21)
(4.00863 10.4904 5.61095e-22)
(10.2903 -3.93604 -1.46005e-21)
(9.52077 1.76032 -5.97728e-21)
(7.13668 5.24725 -2.17013e-22)
(10.8341 -5.56413 0)
(14.5251 2.67016 0)
(8.28052 0.0872263 -4.57336e-22)
(7.10067 -4.8305 7.7184e-22)
(6.1141 6.81447 0)
(7.01276 4.98414 -8.6883e-21)
(10.4636 -6.78191 0)
(7.97486 2.6473 3.11768e-21)
(10.2287 2.67087 1.28247e-20)
(2.736 4.77063 0)
(7.51863 0.556741 -4.08309e-21)
(1.35599 0.598145 -1.04324e-20)
(7.61231 0.0428268 -3.90426e-22)
(8.11715 -0.499889 -6.30756e-21)
(9.6668 -2.07822 0)
(5.69376 5.40645 6.38061e-21)
(3.92513 0.419518 -9.03237e-22)
(8.05518 -0.0583756 1.11876e-21)
(7.22499 -0.386335 -5.24702e-21)
(4.42543 0.353502 7.73037e-21)
(8.37887 2.11452 -4.34708e-21)
(10.2651 -0.573875 1.57935e-20)
(9.22615 -0.444509 0)
(8.39675 -0.856782 2.08733e-23)
(10.4272 -0.429448 4.38157e-21)
(7.99536 -0.0278966 1.50991e-20)
(10.6076 -2.27337 0)
(7.80708 2.3491 1.29273e-21)
(6.42155 0.159673 0)
(12.4594 1.78773 4.17994e-20)
(9.13845 -2.29695 8.24914e-22)
(4.79036 -2.32461 5.45563e-21)
(11.6971 0.123849 1.43077e-20)
(7.94375 0.288068 0)
(4.77468 -2.69266 -2.48308e-22)
(9.74358 -2.08341 1.42741e-22)
(7.21399 -0.382609 4.96178e-21)
(10.5497 -0.417902 -1.46337e-20)
(9.37419 0.735046 -4.17243e-21)
(-5.95756 1.45554 -1.00019e-20)
(8.33717 -4.08358 -5.99762e-23)
(9.49018 -0.0773663 0)
(5.57048 -2.22234 1.22414e-20)
(10.3243 2.77193 0)
(2.20755 0.208455 9.41739e-22)
(9.00545 0.0232639 -1.83671e-21)
(7.99848 -0.552508 -1.68388e-21)
(7.82652 -0.102529 1.05127e-21)
(-0.801694 0.964856 -8.79539e-21)
(7.99913 -0.171056 6.05847e-21)
(11.8428 -3.07492 0)
(-1.69253 -1.13562 -4.63957e-21)
(9.59345 -0.368841 1.28665e-21)
(7.49408 -5.5975 -5.72466e-22)
(12.9204 -1.88737 1.28387e-20)
(9.22226 0.0357077 0)
(7.79501 1.9801 -1.40124e-21)
(7.55536 -0.188645 1.07416e-20)
(7.98293 -0.0843512 7.82791e-21)
(11.0755 -1.04598 0)
(6.01748 0.328793 2.98462e-22)
(10.4134 -0.802936 -2.13826e-21)
(-1.49282 0.0993925 1.67834e-21)
(7.28229 -0.901256 1.19598e-21)
(9.55577 -0.297054 -1.22722e-21)
(9.10433 -0.201516 -4.30361e-22)
(9.41551 -0.118762 0)
(6.68941 -0.411526 -3.49267e-21)
(-5.63832 -2.11278 3.20761e-21)
(8.76904 1.12829 -2.49283e-21)
(8.01623 -0.00788105 5.3922e-21)
(6.49517 0.00637984 0)
(3.95802 -0.976249 -3.87912e-21)
(4.10408 4.71461 0)
(10.1515 3.6836 -2.227e-21)
(8.64239 -0.0938615 0)
(10.7851 -2.80567 -3.4785e-22)
(6.5331 -1.32998 -2.81761e-21)
(6.77719 1.38401 1.54062e-20)
(-1.50875 0.0600291 -7.66632e-21)
(9.27338 -2.31384 0)
(8.48531 0.17053 -3.73904e-21)
(7.95575 0.306703 -4.31018e-21)
(1.52015 -0.4329 -4.48846e-21)
(7.63055 1.93857 8.70209e-21)
(7.46919 -0.865498 -1.24369e-20)
(10.9851 -0.636066 3.33616e-21)
(8.08215 0.367044 3.41699e-21)
(7.20624 -2.41211 0)
(6.24655 -0.134481 6.74604e-21)
(9.38662 9.34529 -1.28855e-20)
(9.9559 -6.92587 4.16751e-20)
(-4.09972 -1.3028 -1.14372e-20)
(1.32224 -0.325248 -8.47619e-21)
(10.9066 1.00235 0)
(1.64608 -0.374474 0)
(7.26695 2.65708 0)
(8.98372 -0.239885 0)
(12.7244 0.345343 -2.74199e-20)
(11.9513 1.85063 0)
(6.46119 -5.55837 0)
(7.33986 -0.42042 1.96019e-21)
(11.1371 1.19074 -9.23113e-21)
(9.33586 -0.178535 1.8609e-21)
(7.11702 0.166382 2.01743e-20)
(8.00071 0.0599839 -2.11013e-21)
(7.3441 4.18888 0)
(11.0176 -0.319984 0)
(7.94767 -0.192354 5.26162e-21)
(8.1077 0.0308918 9.00358e-22)
(4.19869 0.953749 0)
(-2.61521 0.955622 8.40219e-21)
(11.4402 -2.90573 -1.47048e-20)
(-1.77663 -1.45458 0)
(9.06048 0.424435 -2.19911e-21)
(8.06059 -0.0961846 -5.95685e-21)
(10.71 7.05438 1.60162e-20)
(5.53603 -2.18769 0)
(7.94986 0.313292 7.76155e-21)
(9.45142 0.769483 0)
(10.59 -0.756372 0)
(8.36513 0.468529 -6.09341e-22)
(7.93465 -0.133265 2.95234e-21)
(-0.217867 0.461328 -1.02617e-20)
(8.326 1.66677 1.94506e-21)
(6.7078 -2.07057 -4.29616e-21)
(8.83675 -0.214549 1.94601e-22)
(8.12273 0.42048 2.73387e-21)
(6.51294 -0.273387 9.96522e-21)
(11.9743 -2.46568 0)
(12.0309 -0.438192 8.63117e-21)
(6.49594 -1.12872 0)
(2.76738 -0.521901 4.15363e-21)
(9.61294 0.22545 0)
(6.71013 -0.731705 7.78116e-21)
(-0.657683 0.604946 -1.14792e-20)
(11.194 -0.574806 0)
(-0.310256 0.0243572 3.32283e-22)
(11.2782 -0.378264 -7.34081e-21)
(7.73463 -7.69727 -5.51923e-21)
(8.20479 -1.36594 7.05837e-21)
(6.13401 1.20487 -9.71186e-21)
(6.66907 -2.0514 -1.28578e-20)
(10.4965 3.60643 0)
(6.87853 6.23147 1.93775e-21)
(-6.0531 1.75567 -2.61972e-20)
(7.94434 0.310747 0)
(7.59738 0.066264 4.27748e-22)
(9.8659 0.184167 -5.08517e-22)
(8.88821 3.16138 0)
(7.99929 -0.0155877 0)
(0.321962 -1.42589 0)
(-9.43568 -3.6698 2.2952e-20)
(9.72382 1.49707 1.55415e-20)
(11.0971 2.54139 -1.82445e-22)
(7.94897 2.48915 0)
(7.82066 -1.16111 6.55642e-21)
(11.0813 -2.31202 2.08609e-21)
(8.33805 1.53459 -4.46231e-21)
(9.73064 -5.62146 8.71538e-20)
(7.78093 0.0218021 0)
(7.80278 -3.92273 0)
(4.71486 -1.594 -9.42267e-21)
(7.10073 -2.40549 -2.67274e-21)
(8.68089 -0.755762 0)
(9.39802 -4.28692 6.15702e-21)
(4.16901 0.44239 -2.41776e-21)
(9.33251 -3.60168 3.25037e-22)
(5.12989 -2.44795 0)
(8.33666 -0.528915 -1.03734e-21)
(10.374 7.79634 6.7347e-21)
(9.51097 0.757608 -2.83033e-22)
(9.12309 -2.43191 0)
(0.326391 0.244769 -2.05353e-20)
(8.05141 -0.503709 1.37663e-21)
(7.96239 0.134544 1.48891e-21)
(13.6261 -0.76321 -1.20311e-21)
(8.99315 2.11673 0)
(7.11537 0.170856 -5.34882e-21)
(10.5209 2.22809 -1.87909e-21)
(1.03572 -0.306132 1.81154e-21)
(7.97985 0.0504232 0)
(7.50831 2.37724 -8.92999e-21)
(3.91245 -1.47614 0)
(8.02026 0.0682653 -5.97981e-21)
(7.97496 0.00155131 2.19266e-21)
(7.93712 -0.32891 -1.0242e-21)
(-8.83845 -3.48434 0)
(9.46874 -0.117261 -7.868e-22)
(5.43319 0.132306 1.94975e-20)
(11.8424 -2.54283 0)
(7.2899 -0.476766 5.98164e-21)
(13.1787 -0.149448 2.3752e-20)
(8.48495 0.0463666 0)
(-3.43562 -1.68424 2.97644e-20)
(9.02054 -3.35002 7.12349e-22)
(8.9817 -0.205925 0)
(0.408457 0.0163362 1.30736e-20)
(7.56628 0.0330023 0)
(8.78589 -3.89909 -1.6132e-21)
(-4.50352 -2.55795 7.83747e-21)
(6.85023 -1.74194 1.00315e-22)
(9.04697 0.494627 1.33927e-21)
(6.27495 -0.179174 3.48174e-21)
(8.20324 -1.46286 -2.46e-21)
(8.96835 -2.34861 4.38458e-22)
(8.79797 -3.73988 1.60544e-22)
(9.53287 -0.364034 -8.82169e-22)
(8.9621 2.09643 -2.90155e-21)
(11.0635 -4.56732 0)
(7.99554 -0.0184057 -4.78342e-21)
(-2.42616 -0.784243 -4.63693e-21)
(6.59144 -1.14654 0)
(2.68152 9.93726 -8.61977e-21)
(8.05103 0.0335604 0)
(6.30017 -2.15717 1.16575e-20)
(10.639 -3.31352 0)
(4.05123 0.288047 -6.41315e-21)
(9.30194 -0.0088691 1.01412e-21)
(-6.2128 -1.07021 5.08317e-20)
(0.963805 -2.15346 9.76732e-21)
(9.15119 0.0961027 8.82422e-24)
(9.70761 -4.47373 -1.19272e-20)
(8.6225 -2.37407 8.77348e-22)
(7.187 -1.91911 0)
(-3.45616 2.1533 -5.01269e-21)
(12.0582 -2.20002 2.85137e-21)
(-3.56454 2.6749 -6.06181e-21)
(8.89618 -4.07755 -1.91179e-22)
(7.22506 -2.84055 0)
(8.83374 0.00255652 -4.43762e-23)
(-3.60324 1.36146 0)
(0.49207 -6.23002 1.3839e-21)
(10.6499 7.18409 -2.1369e-20)
(14.6082 4.34026 0)
(10.0067 -1.95341 -1.24862e-21)
(-3.01147 -1.87075 0)
(8.91659 3.05067 0)
(8.36054 -3.88052 2.05643e-21)
(6.48164 0.0137032 5.45432e-21)
(11.2048 -4.29667 0)
(7.54611 -0.113593 -3.06244e-21)
(11.2186 2.38581 1.48401e-20)
(-5.90553 -0.770819 1.67493e-20)
(8.73017 3.9306 0)
(8.59237 -0.042933 0)
(-6.14859 2.2923 -1.2087e-20)
(8.24962 -0.685418 0)
(9.764 -0.379973 0)
(-3.2676 3.20864 -5.32249e-22)
(9.5719 -1.28538 2.95606e-21)
(8.34332 -2.00478 1.43265e-21)
(12.1098 0.563791 1.10687e-21)
(-3.76261 2.14819 1.07315e-20)
(7.96984 -0.00683429 2.47062e-21)
(7.35396 -1.97822 0)
(8.10035 1.09731 -1.70647e-21)
(6.84732 -1.52544 0)
(9.40402 -0.0471432 0)
(7.98956 0.162409 0)
(8.35018 0.443689 -4.93051e-22)
(8.11991 -0.532475 2.92675e-21)
(8.96493 0.21142 -1.14537e-21)
(7.52491 -1.98966 0)
(-0.572712 0.616693 -7.27386e-21)
(7.22469 2.49542 4.65881e-21)
(9.23085 -3.03893 -2.18e-22)
(9.40934 -0.66705 -9.84978e-23)
(11.9622 -0.958598 1.61855e-20)
(8.15009 0.0379266 -3.29459e-21)
(-0.603224 0.669595 0)
(7.89503 -0.114048 0)
(5.42887 1.2287 0)
(6.39929 -2.89142 -7.59774e-21)
(-10.3073 0.387162 -2.0454e-20)
(13.2258 3.81388 0)
(8.15926 1.10376 0)
(6.54635 0.558787 1.7271e-21)
(8.25875 -0.0376927 -3.40685e-22)
(7.35142 1.19438 7.92329e-21)
(12.3411 -4.03536 0)
(-3.71421 5.54522 -3.32609e-21)
(8.58098 0.189473 1.98931e-21)
(6.95526 -2.2957 -6.66882e-21)
(8.33461 0.201551 -3.10524e-21)
(8.31312 1.54963 5.84229e-21)
(10.5815 -0.90286 1.93029e-20)
(6.31441 -2.85959 1.32799e-20)
(10.3455 -4.41575 2.43823e-21)
(8.15243 1.44615 3.79853e-22)
(8.00882 -0.0137976 -1.10975e-21)
(8.67683 -4.13885 2.6318e-21)
(8.9793 -3.39422 -3.80438e-22)
(5.50097 4.33217 -5.97764e-21)
(9.10208 -4.17321 -2.45921e-21)
(8.13731 -0.922696 0)
(8.47133 -6.44595 4.36296e-22)
(8.67825 -0.0330082 -6.74376e-21)
(9.66844 2.55098 2.99612e-22)
(6.82571 -2.17028 -6.44862e-21)
(9.10824 -2.92875 1.28302e-21)
(8.51556 0.0418565 -1.1324e-21)
(10.8178 -0.0911178 6.50774e-22)
(4.04104 -1.35355 -2.38558e-21)
(10.7747 1.11931 -3.51948e-21)
(5.94468 -1.57115 -1.77528e-20)
(8.50163 -0.0207237 -5.85147e-21)
(5.93573 -1.79552 0)
(-8.86152 -2.26353 -7.53061e-20)
(9.04582 0.0158329 6.39769e-21)
(3.59607 0.212654 1.26471e-21)
(-1.64034 -1.24698 0)
(10.4067 -4.42205 0)
(7.7914 0.855894 6.75836e-21)
(5.50129 -1.60183 1.14907e-20)
(-5.12453 -2.25139 -3.32286e-20)
(10.8417 -2.79127 5.55253e-21)
(10.3538 -0.528317 -8.87308e-21)
(10.4268 2.69204 0)
(7.76295 0.92804 3.92397e-21)
(4.42078 8.62129 -9.83546e-23)
(8.3691 2.7397 -3.84403e-21)
(8.94247 -1.00124 -9.51856e-22)
(-3.66845 2.03743 -1.74464e-20)
(11.8866 -1.20227 -1.51719e-20)
(12.3579 -0.483574 4.87269e-21)
(7.67723 2.95191 0)
(10.0034 -1.67782 -7.45415e-22)
(7.95866 -0.322144 8.84276e-22)
(9.01997 -0.721967 -1.49244e-21)
(5.30084 -2.63381 1.36463e-20)
(8.86964 -1.04958 1.52422e-21)
(1.42759 0.810192 4.36668e-20)
(-7.37597 -1.70106 -8.17493e-21)
(10.2855 -0.343291 -2.77225e-21)
(8.70549 0.0598972 5.24914e-21)
(-4.20245 4.63878 -2.63672e-21)
(8.1657 2.5886 8.45611e-21)
(0.55673 -0.182374 -1.42051e-20)
(6.60842 -3.16203 -2.98003e-21)
(7.88304 -0.132488 0)
(7.98603 3.54469 -5.28496e-22)
(-5.5359 1.12787 -1.00338e-20)
(6.5078 -1.41095 1.48916e-20)
(7.05139 -1.13816 0)
(6.92714 3.57052 -2.72344e-21)
(6.13744 -2.61053 3.27608e-21)
(7.9945 0.0112116 -1.06331e-20)
(-4.27003 1.28207 -7.67635e-21)
(11.654 -4.33093 -5.88703e-22)
(9.40519 -0.153158 -1.34349e-21)
(8.64912 0.19566 5.60834e-21)
(8.92532 -3.95617 3.42288e-21)
(8.86512 0.699647 1.50282e-21)
(-10.3999 -1.36173 -4.89517e-20)
(8.43155 -0.0233424 6.32561e-21)
(8.79171 -0.198609 -9.29982e-22)
(8.25405 0.253905 -7.13851e-23)
(9.91458 0.0440273 -8.11295e-22)
(6.01705 -2.68891 -6.33932e-21)
(8.25593 1.20389 0)
(-10.0679 -5.13889 2.39134e-20)
(8.62818 0.0429643 6.3777e-22)
(10.8424 6.10075 2.00153e-20)
(9.44983 0.154813 1.33758e-21)
(10.1989 -0.850846 4.18781e-21)
(8.00197 0.0442204 -9.3442e-21)
(8.04229 0.674363 2.13658e-21)
(-2.96773 1.22794 -8.63637e-21)
(10.0094 -0.355652 0)
(4.78727 -0.779543 1.81968e-21)
(8.34825 -0.824803 1.72589e-21)
(7.25743 -2.7888 0)
(8.26046 0.190822 4.29513e-21)
(8.42742 -1.03526 2.01795e-21)
(10.0783 -0.22944 2.0903e-25)
(15.062 -4.38008 2.0271e-20)
(7.69567 -1.20179 0)
(7.27432 0.42488 1.03698e-20)
(7.2657 9.82691 -3.23777e-20)
(8.7491 -3.98828 -2.85792e-21)
(8.86066 -0.644118 0)
(6.51416 -0.019006 -1.55994e-20)
(4.32106 6.09098 4.49036e-21)
(7.97589 3.89252 3.59786e-21)
(6.0012 -1.61934 1.72783e-20)
(9.55432 -0.304876 1.99024e-21)
(0.252359 -1.78296 6.6318e-21)
(8.45183 -0.565511 -3.40273e-21)
(11.8474 -0.12577 -1.13383e-20)
(7.55264 -0.161377 -6.26157e-21)
(8.25581 -0.148453 0)
(8.01531 -0.0286993 -4.14104e-21)
(4.27486 -2.81857 1.32604e-19)
(-1.43199 -0.610485 0)
(13.3776 -0.965632 0)
(8.88358 -0.611401 0)
(0.826652 -0.295457 0)
(7.95016 0.59651 0)
(5.75136 -1.56431 0)
(10.3273 -2.68365 -2.29961e-22)
(11.8266 2.26479 -8.3135e-21)
(9.29255 1.24114 0)
(7.34572 0.298118 1.55334e-20)
(1.97728 4.453 -1.20264e-20)
(8.08306 0.41566 9.61962e-23)
(-5.04218 1.6351 -4.78407e-21)
(5.64679 -0.891309 7.92316e-23)
(-2.78338 1.21301 6.87696e-21)
(7.70346 0.0725274 6.31103e-22)
(10.2848 0.314748 3.59336e-22)
(7.91309 0.544248 -4.39415e-21)
(7.67579 0.00566607 -8.88405e-21)
(7.15243 2.17547 -8.39789e-21)
(10.3419 3.78206 0)
(9.20275 -2.83361 2.23413e-20)
(6.37583 -2.21772 -1.2739e-20)
(8.01877 0.0157186 -1.22536e-20)
(12.1214 -1.95179 2.62195e-20)
(9.73457 -0.0237374 3.41525e-22)
(14.4443 0.0351543 -2.72954e-20)
(9.6134 -0.719537 4.33194e-22)
(10.031 -1.92359 4.57051e-21)
(7.972 0.27816 4.46752e-21)
(7.95706 5.70996 0)
(8.70994 -2.22821 5.55883e-22)
(7.41214 -0.490874 -1.87177e-21)
(11.7056 2.25562 0)
(6.36469 -2.11311 0)
(9.54472 -4.12543 -1.37559e-22)
(0.902845 -2.88843 8.38188e-21)
(10.186 -2.73605 -1.75932e-21)
(6.13056 0.647101 0)
(8.2427 -0.50886 -5.49447e-21)
(7.50028 0.0273086 -1.72933e-21)
(-7.7703 -5.32442 1.75948e-20)
(9.17792 -1.08865 7.4984e-22)
(-2.55818 0.947122 0)
(8.66208 -3.96866 2.50115e-20)
(8.17589 -0.887809 0)
(9.92594 -1.79554 5.34504e-22)
(7.57624 1.96646 1.45753e-21)
(8.01971 -0.0105211 4.83743e-24)
(8.37925 1.77262 -1.03848e-20)
(8.75022 3.48784 -4.63345e-22)
(8.36543 -2.33989 2.71106e-21)
(4.87357 8.59291 0)
(-2.93029 -3.44423 -1.32732e-20)
(3.9109 5.31557 0)
(9.45519 1.28715 9.50035e-23)
(-7.59688 -5.03185 4.12425e-20)
(15.008 -1.19912 1.70384e-20)
(5.19996 -0.905518 -6.98763e-22)
(-7.02866 -1.59941 -2.66401e-20)
(7.98484 -3.69073 3.30083e-21)
(6.534 -2.21285 -7.05443e-21)
(8.11396 8.42793 3.84612e-21)
(-1.30183 -5.08902 1.10068e-20)
(6.04946 -2.71985 5.22918e-21)
(6.7509 -2.28861 7.23386e-21)
(-9.23771 2.77122 3.63332e-20)
(6.94769 -3.25158 -1.00005e-20)
(8.95911 -2.57208 -6.18714e-22)
(-1.56543 0.304231 8.09398e-21)
(9.12307 -0.103657 6.47968e-22)
(2.09809 3.98804 1.09023e-20)
(8.52495 1.15439 -2.37017e-21)
(11.2952 -1.24469 0)
(0.814829 -0.316044 -1.66877e-20)
(8.38483 -0.0292497 -7.46637e-21)
(7.96352 0.133517 0)
(9.3946 1.18922 0)
(-3.35076 4.27591 4.67761e-21)
(12.5621 0.530738 -1.24423e-20)
(8.93758 0.693211 -4.09401e-21)
(9.55341 -1.24565 -3.93589e-21)
(7.19528 2.14786 7.12149e-21)
(7.11248 -0.0231254 -1.29397e-21)
(-9.22979 -6.39262 1.62031e-21)
(7.05373 1.09896 0)
(6.91051 -2.38754 6.51642e-21)
(-1.17357 6.19575 2.37122e-21)
(-6.46402 -2.38091 2.0439e-20)
(8.44416 -3.08383 1.09956e-22)
(11.5144 -5.49252 9.79669e-21)
(7.94427 -0.00838649 -5.62788e-22)
(5.27354 -2.03548 -7.39521e-22)
(10.8003 -1.10232 6.84462e-21)
(-6.78261 -5.1948 -1.96516e-20)
(8.90185 0.656419 3.0991e-21)
(8.01219 -0.18442 2.96137e-21)
(5.88479 -1.76998 -7.08009e-21)
(8.28839 -0.60825 3.20627e-21)
(4.18017 -1.41081 0)
(8.78747 1.10898 4.25661e-21)
(8.05099 -0.113506 6.59375e-22)
(7.12211 -1.80891 -2.17761e-21)
(6.22345 3.92969 -5.03004e-21)
(8.81502 -2.55517 1.52802e-22)
(8.13751 -0.0276273 1.06631e-21)
(6.38489 -0.549163 -1.11126e-20)
(11.9815 1.73755 0)
(5.2914 0.080665 -4.69974e-22)
(8.42548 0.234486 4.19891e-21)
(9.31649 -0.834676 0)
(6.57885 -0.82048 6.05745e-21)
(8.93121 -0.915992 0)
(5.61539 3.76225 1.97656e-20)
(10.3069 -0.0182289 0)
(9.00497 -2.29584 0)
(8.60165 -0.00742149 2.23582e-22)
(8.88068 0.507589 2.53082e-21)
(10.4977 1.4713 -3.90429e-21)
(7.81205 0.0119111 -4.02316e-21)
(5.98714 2.07242 -5.15162e-21)
(7.93851 0.0752617 -1.87038e-21)
(8.01726 0.633242 0)
(-0.998407 1.83964 -1.79193e-21)
(9.18149 0.525563 -1.32955e-21)
(9.77158 -1.85384 -9.15291e-22)
(11.334 -1.3077 0)
(9.75864 2.50952 6.7102e-22)
(7.00453 4.05809 -8.31637e-22)
(9.09266 -0.154483 3.15869e-21)
(-2.61515 1.17485 0)
(-2.82171 3.08856 1.65897e-20)
(8.05492 0.298665 0)
(10.8944 -0.823314 -3.30976e-21)
(0.584222 -0.815447 0)
(6.75762 2.02812 0)
(8.76143 -5.17184 0)
(10.3635 -3.31442 0)
(-3.12433 6.4132 -1.92236e-21)
(-10.0677 -3.89318 -5.33876e-21)
(8.11026 -0.50968 -4.40116e-21)
(-5.58515 -1.15549 -5.68375e-20)
(6.38718 -2.78774 0)
(-9.08637 -1.58576 -2.83413e-20)
(0.178471 -1.0332 -1.24303e-20)
(7.81109 -3.5956 0)
(7.24474 -2.63656 -5.90461e-21)
(7.21552 6.81108 -1.71105e-21)
(8.49745 1.08234 6.21566e-21)
(13.751 -2.82174 -1.7825e-20)
(7.67429 -0.0502293 0)
(11.3267 -2.5548 0)
(11.3749 2.29423 2.15941e-21)
(8.49957 -3.14938 -1.47942e-22)
(7.90323 5.44381 -5.03878e-23)
(-0.991144 2.05037 1.69598e-21)
(7.99775 0.00206712 3.08179e-22)
(7.86201 3.37414 -1.32368e-22)
(7.97555 0.274463 6.33035e-21)
(3.50949 0.113467 1.30028e-21)
(9.10267 -2.23159 0)
(-0.75553 1.11848 0)
(8.79959 0.519209 0)
(10.7865 -3.33662 0)
(8.09957 -1.6318 1.95787e-21)
(10.7022 0.507059 0)
(-3.23953 5.97204 3.11862e-20)
(6.53732 -1.1088 -1.60833e-22)
(6.65118 -2.34085 -1.10916e-20)
(2.19513 4.48951 5.08309e-21)
(-9.89553 -4.35612 -1.21188e-20)
(-1.91773 6.74536 -1.50347e-20)
(8.98791 0.0636014 8.38315e-22)
(-7.72781 -5.24858 -1.25171e-20)
(3.36151 0.544877 4.3379e-21)
(8.90151 -0.0762702 0)
(10.7446 0.263443 0)
(6.86937 -5.00076 0)
(10.2358 -0.969998 -2.46606e-21)
(3.08549 -3.45653 0)
(7.09721 1.07699 0)
(8.00337 0.00552114 0)
(8.38721 -1.98723 1.36012e-21)
(8.07266 0.362348 -6.83908e-21)
(7.62743 0.746883 0)
(10.587 -2.52383 -2.68668e-21)
(7.85116 0.25632 -5.45491e-21)
(8.42621 2.62063 7.83837e-21)
(7.904 -3.55104 1.39534e-21)
(7.27159 1.33593 1.32215e-22)
(9.56833 -3.11382 -6.10108e-25)
(6.86451 -2.27808 -1.57537e-21)
(9.71814 -2.40237 4.11062e-22)
(8.83168 0.540201 -3.37428e-21)
(9.45268 5.63239 -1.78263e-21)
(7.73503 -0.292146 -5.48056e-21)
(8.36262 -0.0178813 0)
(10.5513 5.92484 -1.49197e-20)
(7.98011 -0.0934504 5.68867e-21)
(3.81214 7.67789 8.45214e-21)
(9.55258 -0.73021 1.04915e-21)
(5.59499 -1.66587 -1.25005e-20)
(8.87556 0.454669 5.57972e-22)
(10.4627 2.21133 2.71836e-21)
(7.99772 0.100141 0)
(8.13947 -5.93547 2.07057e-22)
(6.12634 0.0623827 1.19192e-21)
(9.42326 -2.36449 -2.06084e-22)
(8.23287 -6.25709 -9.94512e-20)
(8.32812 -0.0663188 2.22041e-21)
(8.45857 1.22165 -4.11675e-22)
(9.16784 -0.312101 -1.50672e-21)
(8.54108 0.232187 0)
(4.02881 4.05039 0)
(7.4007 -3.47032 2.97516e-21)
(-3.57683 0.731905 8.29157e-21)
(6.56 0.241831 -2.74982e-22)
(8.01068 -0.0998738 1.11545e-20)
(6.82614 -5.4885 4.27512e-22)
(6.47632 -0.136746 0)
(7.64465 -0.328912 0)
(7.63389 -1.87027 -2.20861e-22)
(8.29448 -0.0436851 3.43559e-22)
(7.35533 1.2568 1.13208e-20)
(8.66152 0.872072 0)
(9.10977 -0.0929513 0)
(10.3272 -2.13351 -1.0428e-20)
(8.74812 -0.615274 1.56601e-21)
(4.65317 -1.67356 -1.74774e-20)
(8.56851 -0.497176 0)
(2.62514 1.4332 2.37124e-21)
(11.4704 -2.40348 -2.10786e-21)
(-6.07913 1.03587 -1.18225e-20)
(8.44756 -0.229712 -4.01646e-21)
(12.7111 1.69886 0)
(12.8072 0.613569 1.00121e-20)
(-0.398818 0.982709 -3.05079e-20)
(-1.63675 2.34911 0)
(12.0589 -1.02549 4.4397e-21)
(7.86096 -0.118813 -3.93814e-21)
(4.04367 -0.39727 -1.40586e-23)
(8.31254 2.43889 -1.72912e-21)
(6.59686 6.63244 2.89924e-21)
(8.7724 0.0500057 0)
(5.62257 -2.291 -1.82903e-22)
(7.06128 -4.88529 -1.32207e-21)
(4.05447 4.44806 -2.89228e-20)
(7.91207 0.559598 5.2034e-21)
(3.54712 8.47582 4.89992e-20)
(8.14865 -0.00784105 -9.85857e-21)
(5.74019 2.08233 -2.7457e-20)
(5.77582 -2.72658 -8.66681e-22)
(8.23615 -1.86737 0)
(8.16048 -0.0725227 4.71867e-21)
(5.97495 -2.79161 4.18488e-21)
(9.12762 -0.00777835 1.40223e-21)
(8.04442 -0.0986182 -4.9605e-21)
(10.6248 -0.968004 2.75744e-21)
(7.64038 -1.12651 1.04294e-20)
(8.76284 -0.110348 -7.20783e-22)
(7.60675 -0.265407 3.36797e-21)
(5.84102 9.38457 -1.6051e-20)
(12.1614 0.763627 -1.21015e-20)
(8.19664 2.82346 6.51929e-21)
(-2.22952 -1.04391 2.60309e-20)
(8.27295 0.0395292 0)
(7.81797 -6.20929 0)
(14.4217 1.42908 0)
(6.61206 -2.22367 8.79965e-21)
(7.914 0.0228214 -7.82802e-21)
(7.45991 0.0170531 0)
(7.27692 -1.83321 -5.93159e-21)
(7.46815 -0.0577967 0)
(8.1025 -1.45851 -3.19748e-21)
(10.0073 -1.95006 -1.2364e-21)
(8.95283 -2.08185 4.28937e-22)
(8.86962 0.0494345 0)
(8.05003 -0.208643 0)
(9.18364 -0.846315 -2.3397e-22)
(9.26807 1.06773 -6.51322e-23)
(10.6163 0.126047 3.28708e-21)
(7.19606 4.34889 -5.37851e-22)
(8.5963 1.63213 0)
(8.48103 -3.00821 -4.99116e-23)
(-1.41864 -0.242679 0)
(4.2604 1.16933 -8.42346e-21)
(8.82325 3.50272 0)
(8.54474 1.02463 8.14617e-22)
(5.95324 -1.49081 4.64176e-21)
(7.09712 -1.20102 3.90192e-21)
(9.55634 -0.596912 -2.60974e-23)
(5.68844 -1.59274 -7.43321e-20)
(8.70191 -0.779531 3.95246e-21)
(7.94465 0.607808 -1.08811e-22)
(14.4381 -0.159517 3.36141e-20)
(9.29401 -1.62272 7.29257e-22)
(-0.886931 0.483131 5.46062e-21)
(9.21223 1.59665 0)
(8.0455 -0.0417552 -1.42429e-23)
(7.41747 -2.05536 0)
(4.82151 -2.56086 1.36146e-21)
(8.5976 -2.96435 1.24194e-22)
(7.67999 -1.03558 -3.34935e-21)
(5.43552 0.301533 -3.31359e-22)
(9.80279 0.283678 -8.29071e-22)
(7.50963 -0.760535 7.99844e-21)