/*--------------------------------*- C++ -*----------------------------------*\
| =========                 |                                                 |
| \\      /  F ield         | OpenFOAM: The Open Source CFD Toolbox           |
|  \\    /   O peration     | Version:  2306                                  |
|   \\  /    A nd           | Website:  www.openfoam.com                      |
|    \\/     M anipulation  |                                                 |
\*---------------------------------------------------------------------------*/
FoamFile
{
    version     2.0;
    format      ascii;
    arch        "LSB;label=32;scalar=64";
    class       volScalarField;
    location    "0.5";
    object      p;
}
// * * * * * * * * * * * * * * * * * * * * * * * * * * * * * * * * * * * * * //

dimensions      [0 2 -2 0 0 0 0];

internalField   nonuniform List<scalar> 
13486
(
52.0523
39.3739
1.56882
-13.9882
16.7447
-9.03058
7.3317
29.4321
35.3398
15.3908
-30.6839
7.44082
55.491
-11.7821
11.8688
16.3309
-155.19
-16.1384
9.50436
46.2063
-12.7258
54.9323
38.3356
-20.9522
12.6573
-19.7207
-17.4597
-15.2702
0.239235
-12.8464
-9.81886
6.68262
-27.1202
-9.89883
29.4722
0.546575
-0.022459
43.2264
-1.34024
34.4567
3.48395
58.0291
0.661853
13.214
12.4082
7.11397
-231.422
0.664615
-0.00143673
-19.3157
26.8452
-2.36649
3.41596
43.7687
-13.2371
17.7253
0.486473
-2.12259
-25.1941
0.184367
-26.4249
0.135225
-73.6873
-12.3187
-13.2149
0.334274
-15.7951
51.7336
34.8732
-0.549047
-15.3318
-15.179
34.8268
-184.471
0.246657
0.606855
0.423246
11.691
-183.245
-3.58831
0.0264977
39.2554
-75.852
2.88668
52.371
10.8064
0.313102
25.5607
32.3375
19.1515
1.61903
25.3097
50.0189
43.3103
36.8184
0.0489639
-15.78
-15.2198
34.3527
-148.906
-0.0263178
-10.1155
-15.0634
-2.13108
20.1769
-152.884
32.03
-1.35572
-201.867
24.2388
35.3409
5.25258
43.6925
0.385412
62.0005
35.5364
12.5363
-10.4237
35.1147
-0.068861
-19.1907
-25.9713
38.6077
-1.53079
34.1124
-2.05434
24.2985
3.52682
-7.70999
-12.1672
-2.04601
-230.075
-181.413
-154.949
29.3772
24.5947
58.4234
24.7596
-0.0812964
30.1249
-24.7853
3.63087
7.20264
-3.45513
0.571056
-48.2664
2.32708
45.764
-19.875
-0.376991
15.0714
11.3973
-0.684197
41.1287
4.73845
4.23609
19.0834
4.12678
39.0738
1.66744
-16.2724
39.028
-9.92929
57.2992
-2.31819
-19.5802
-6.2804
72.7973
2.46179
-158.912
-181.011
5.30091
20.8081
17.5362
-0.135781
-16.9062
-18.0783
-29.281
32.6701
7.17854
32.7874
1.35451
13.5166
-14.4321
3.25705
-15.576
0.0218498
-12.149
4.98116
38.2978
0.0435738
1.69298
-2.56069
45.3631
-2.89384
-30.2031
-12.2663
-16.4999
47.9569
-15.5328
-10.5711
2.72225
43.2325
16.2416
1.38062
-3.24626
-10.6293
36.9581
-2.46988
3.1789
-13.3209
-15.9539
45.6561
31.979
-9.22284
-7.42979
-13.5499
20.0621
47.4817
-56.6405
-168.265
-20.3859
30.8317
-17.7016
2.19209
51.5152
-15.1797
-12.8029
-5.95434
0.212262
32.3752
-27.1705
-25.0448
59.4381
-13.9838
49.6226
-11.0481
1.62596
50.1533
13.9637
-25.5161
20.213
1.08566
47.4768
-0.900438
38.1016
15.1069
-16.3921
-169.593
15.98
-16.7252
62.5498
33.6554
-1.9859
-4.63543
-17.7471
6.31197
-7.17858
1.87086
-25.2763
35.8596
-0.755261
11.6498
-17.5546
18.8521
-14.1123
-5.50724
-10.9809
32.2269
-39.534
33.3232
31.1104
-14.0178
5.47522
51.7034
-16.2611
-4.68568
-9.36099
-1.94871
2.60144
-9.14344
28.6221
33.7465
-28.6009
-23.0126
-60.1969
-26.8967
-8.18063
2.72453
32.8086
-13.933
0.544764
37.721
28.2306
-10.1555
-11.1911
-15.6141
5.53987
34.0561
5.43439
-9.03421
-11.1227
2.33709
7.33472
-0.0440713
13.5086
2.7756
14.6583
0.0846323
0.328471
-108.997
-13.6886
-11.4638
4.80009
-35.838
24.8409
0.55896
31.902
37.2654
-6.98413
0.0848604
-0.0841285
32.2748
43.5542
62.4298
1.80009
21.4787
27.9931
4.47963
19.9367
25.429
24.3967
0.0999397
47.2198
5.41231
34.8443
65.3259
12.2273
17.8761
-0.709777
-6.84803
42.8296
19.3323
13.9283
-16.6106
0.126153
22.6958
62.5083
-56.985
0.177175
22.6538
4.90874
5.58806
-13.3139
33.0572
0.224232
-158.092
24.2918
0.13033
-15.2152
11.0049
0.176273
36.8266
31.3305
-13.3567
0.0742371
-11.1326
-235.908
46.9548
24.258
0.708321
22.8752
2.16196
-17.0651
-7.58056
26.611
32.5976
-0.143407
-35.6251
-93.0908
32.0649
23.4841
54.7433
33.4916
-244.943
-4.92554
-0.839956
16.9007
-264.687
-8.06597
44.7024
-14.8288
10.059
50.1656
50.5283
0.206816
-14.6318
-17.0203
-252.593
-27.1837
-263.758
3.7109
30.4827
-14.9442
7.25854
0.831861
42.9841
-28.8004
23.2313
37.8603
16.4214
-30.6027
-16.5535
34.0109
31.7103
40.8159
-15.882
19.5124
-214.323
14.1982
32.6356
-3.52551
62.6403
18.5707
-15.7769
-11.447
3.42542
33.2236
-19.124
-4.49023
54.3561
29.1087
9.31446
2.74111
15.6208
-18.0679
54.3964
-0.0304905
18.3111
50.7058
-318.417
-14.3936
-170.113
-16.5903
0.865423
41.0833
40.3887
54.4759
-95.3339
0.0899297
-16.9017
19.1753
32.7714
-18.8778
-36.3375
31.1522
-16.7044
-16.7849
-28.0395
-45.8695
-8.95753
43.287
-0.254279
-3.49174
-14.1636
31.0608
0.295492
68.496
50.9001
34.5851
28.2323
0.0172254
-0.0505463
65.0213
-5.02849
0.00876577
-16.4342
35.0307
-77.2871
5.34525
21.5496
0.47344
-21.8094
37.9086
-44.4189
-230.734
19.8571
-8.61001
72.1004
20.7637
26.6402
36.6128
-17.1708
4.19987
56.1019
16.8221
44.0095
5.67912
4.53069
-11.4639
-3.20844
0.557077
-132.872
33.7471
35.1917
-16.7779
0.0349348
-9.43457
51.0767
41.2272
-5.15461
35.8217
25.0521
-21.275
19.4431
26.9017
-206.028
53.6233
0.331077
0.0740056
57.3032
24.0422
-1.5389
21.2173
-11.5108
-16.7127
11.7052
22.4387
38.9328
50.3432
-12.6212
15.2376
-12.5563
0.078576
49.2638
6.03498
-16.0129
-15.206
-4.25346
1.04526
27.784
-12.9686
-36.2734
35.8411
46.3623
-3.19234
36.1188
-50.6732
-17.231
-49.207
10.1438
-17.2326
37.4213
3.79197
-25.4863
29.3944
40.8995
-24.3865
-13.1756
27.6386
48.8934
6.36942
52.5313
3.12065
20.0987
3.58609
37.0581
0.648065
47.5677
-13.6305
4.64677
34.1476
-7.72112
-14.9034
31.4122
-324.512
5.52076
40.5282
54.9395
-11.351
-1.15695
4.79705
1.72328
30.8256
20.8518
11.1797
-18.6706
-2.68454
52.2165
1.58437
-2.96624
-18.5098
55.1787
-8.76397
0.956945
29.2505
26.615
-3.2429
-9.86579
30.6223
4.3923
0.807054
7.77451
-40.6761
53.339
34.8915
24.4229
24.0127
-2.69384
-27.8742
59.9293
6.65891
60.2347
-12.7166
33.0808
-0.061608
-186.255
22.3354
15.4409
63.1765
-15.4726
22.5694
20.7409
-60.1506
14.9209
-11.2572
-20.2344
33.6591
-13.0587
-14.7445
-18.0097
-10.8893
-7.88159
36.2207
-0.0706961
58.9033
34.3524
1.10712
-17.1424
-12.8867
7.44766
-23.298
-14.5362
-136.679
49.3725
-0.0902774
1.11705
-20.1089
55.3191
-0.0667642
-5.89537
57.4979
26.2516
-16.623
-3.00275
23.1962
-1.04419
34.1311
0.979897
-12.1459
7.54899
30.3153
6.02748
27.3775
58.3534
1.04876
-15.4125
31.9278
-0.113025
-9.0513
23.3076
21.9075
10.6727
-16.9436
3.82756
-0.403645
4.49824
49.1103
6.41608
4.54563
3.57768
0.533278
-3.70195
34.1525
0.568248
32.8765
32.4236
47.1009
-30.6742
-34.3778
59.623
0.513289
-16.6221
35.228
-19.0374
37.3887
0.79142
30.6988
-18.745
-143.943
-17.7459
-0.321935
-201.858
14.0451
61.4033
-7.905
-39.7831
-16.8165
33.5765
-19.8014
10.487
-21.3896
60.1668
-15.2056
17.1448
-19.7056
16.0787
32.2478
9.14692
-85.6773
-11.1271
56.6568
31.6267
14.4774
29.8786
0.534342
26.5708
27.5533
17.4147
-132.032
-4.58454
42.0682
6.36759
-2.1435
29.5628
-17.1045
-7.73413
-1.09486
36.3017
34.7818
-14.5293
4.31733
-16.7064
-11.8375
4.36035
-7.59673
-0.195598
30.5018
-6.33717
-42.3525
40.9698
-8.14177
-11.0892
-7.09341
-18.9015
-14.6165
-17.1231
-0.553817
-18.5575
34.2849
55.4349
0.146536
-10.9937
57.604
53.6664
-11.2175
-12.3197
36.3205
-287.521
1.01951
-19.0152
-3.7859
18.3978
-219.375
10.2483
20.0823
-18.2598
-9.54781
-23.4224
-8.4625
29.7167
11.029
21.5703
-15.1569
27.3764
52.3262
-76.5002
-18.269
39.5962
12.4964
20.4737
-1.33116
-12.6063
-15.4282
-7.8352
33.457
60.4178
37.2814
-2.71778
-7.76913
32.182
50.8031
-7.91468
37.3567
32.7004
52.7214
7.46575
-0.644138
1.19771
-6.96284
51.9648
4.3013
11.5439
23.7489
-4.71886
8.5881
-7.04754
-31.0483
30.4469
29.8136
20.322
12.615
-96.4038
-11.7516
-7.12347
18.5923
-42.8098
-25.3655
1.40335
-20.5333
-25.9826
14.7282
-12.5842
-165.004
-86.9381
-8.99272
25.9746
-32.2723
-16.475
37.3787
-12.0304
55.1884
-12.7681
-172.986
41.871
49.4854
0.291523
-2.99855
7.50952
33.6637
19.6609
-52.5287
-3.08598
-0.135811
-9.298
29.8925
1.10456
16.5942
-0.244139
35.0866
-22.4848
1.01286
1.04203
42.17
-21.8628
-28.9344
-17.9385
54.5884
-33.7657
-15.4199
-38.9398
32.9185
-16.3116
-0.0447414
7.95925
14.8853
-1.18346
23.4078
-12.9623
26.0526
31.3668
40.2688
11.2246
-0.690622
-8.64551
23.8955
-19.1216
42.4943
20.5021
-3.4416
-1.68467
-5.18944
-6.71433
0.0942343
37.8033
9.47436
-1.07311
32.6286
-13.2786
27.0159
62.4039
-6.66367
-46.3412
19.1882
1.1863
-0.614965
-5.3614
-13.5333
32.9636
1.14273
0.18173
0.603662
-57.942
45.5017
-16.9142
-0.196191
32.8598
1.00139
48.1313
38.0884
46.5543
7.4845
18.8373
8.0355
2.61536
25.7975
33.5479
-18.242
-7.38881
-95.2416
-11.2972
-19.6247
33.2756
-39.8931
-24.9177
-20.4325
-20.0124
-0.0517425
32.9393
-0.561427
0.590857
-134.191
30.8515
61.9301
0.989789
-32.9571
15.7507
-7.35209
32.467
0.724616
-1.18476
41.5445
-2.42602
58.4563
21.4962
31.8503
-12.1574
44.6708
0.707601
38.4632
0.206962
-25.402
-18.3232
-15.9083
21.9578
-0.357321
1.72455
54.856
31.8045
35.4132
49.5593
36.444
41.9938
-7.73888
36.1377
33.0047
33.7645
-6.08534
-15.2721
-18.0013
-34.1811
4.76135
39.5593
-138.472
59.7415
-42.9243
1.10108
59.6863
49.4644
-7.38842
-16.7351
34.2632
14.0534
-1.62826
32.303
-148.953
-18.782
31.3205
48.3342
-1.30068
38.8335
44.1973
0.388645
-15.316
43.8652
13.5399
0.226512
-17.009
3.03819
-30.1162
29.589
22.6337
0.30404
-7.67183
-14.0637
5.78709
-0.757782
7.89832
50.23
-0.975261
67.6793
33.4741
9.54751
38.0604
-16.4756
-136.517
-16.1597
32.9826
-1.49904
-153.259
-9.71147
11.7904
16.1254
-0.843138
25.0821
-238.73
17.1296
-30.6073
-0.153975
28.0297
8.57266
45.0555
33.5773
34.0196
32.8059
-6.63845
-22.9957
-22.2873
3.71637
-11.8203
-8.4958
26.7419
-11.4505
-0.24187
0.162902
-8.81318
-21.7346
23.8941
12.035
1.65512
-14.1855
15.0583
-20.6232
-19.0324
5.19812
-0.283042
38.7105
22.289
45.4862
-153.812
28.5422
0.751872
48.0927
-8.76245
13.7809
-66.8859
-9.16569
56.8577
58.4082
27.7579
18.833
20.4773
31.758
57.8245
23.3464
-25.6826
-20.6515
6.30434
-39.7081
-107.661
31.6786
32.5501
-2.50545
8.58209
29.1571
30.2754
63.5216
-42.1131
24.4474
-263.364
-28.474
49.1438
-5.39568
28.3279
-10.6325
3.26424
13.1231
66.2194
1.07901
-18.0356
12.628
4.95486
-16.5191
-158.016
-24.3536
36.6718
1.38369
18.9574
53.4289
48.328
-3.53589
-80.6408
0.721988
0.860583
41.3996
32.1592
48.8216
19.1128
-39.0176
51.371
31.6718
-50.8185
26.3772
33.6166
44.15
-32.6389
-13.8868
0.0844289
26.552
56.7917
16.7588
-9.64652
-29.6071
63.6449
-60.1687
-25.3072
59.104
27.8498
-0.879612
26.9305
-15.1991
18.6859
-10.3946
-55.7784
-0.648477
-16.5833
-1.74716
-8.39189
-301.952
-188.27
-80.3389
3.59966
-252.797
-16.8824
33.2352
28.5218
18.9935
-245.473
5.01128
0.0694008
-7.53818
67.1258
22.5479
-20.5323
27.5814
-10.3664
-16.7757
28.7752
28.7284
32.1551
67.6565
0.113135
-4.87823
-20.2108
4.04485
23.1787
34.6913
-18.1808
52.0322
20.1899
35.1513
-11.0762
-2.92605
1.21205
36.0258
32.3215
37.7875
32.7722
60.9236
60.9785
-10.4531
27.2747
43.5186
-19.842
49.0709
-1.11806
60.0051
48.7646
-1.90805
37.5802
13.2507
26.1203
2.70185
33.2508
-22.6195
29.3096
11.419
23.3105
-8.1755
32.7112
-0.351423
4.61098
57.8623
57.5769
22.4202
-145.597
7.78186
1.96024
-4.77899
24.7005
51.3046
-153.13
33.9569
33.0065
15.3308
35.6774
-18.3665
-10.7234
0.309845
62.6346
8.2158
1.13755
38.8754
-8.73644
1.42128
13.1978
5.61872
22.962
13.9425
-12.6373
19.0779
27.908
22.8195
25.7978
60.825
48.8284
43.9019
50.5103
57.2177
15.0992
-1.70957
-8.34961
-48.8204
56.7929
-10.9997
34.2023
30.7276
-17.0362
17.0662
37.2688
-16.3948
15.24
17.8408
68.7233
-12.0517
13.7586
-0.217272
40.3284
3.05797
-13.8254
55.9358
47.629
33.249
33.0188
-10.73
13.8404
-160.932
60.6992
0.509537
65.6418
-11.1013
-12.7184
-270.909
19.0283
-155.943
-1.38774
-2.1993
7.54951
0.426665
6.26418
-14.3793
0.134815
-9.87708
-157.292
-15.5338
-56.2355
1.14254
-3.89764
-15.2074
-23.6478
35.8115
36.4759
44.2104
30.9134
11.9503
11.7476
72.0059
32.7486
-29.3901
-0.524962
-8.16779
23.3319
29.3563
51.9341
-27.0665
-26.7518
28.658
-0.271425
7.91939
41.82
-150.913
-16.9601
-202.139
61.6397
-15.4169
24.1466
43.7994
-7.37223
26.7142
-1.00746
-16.3658
-11.4438
1.26146
20.4715
41.4177
42.8021
-54.928
-152.288
23.0267
-153.364
-12.6442
-8.07134
1.47528
-9.68992
-0.190905
-15.2447
-12.1843
-21.362
53.7857
-12.8282
58.542
-17.6248
-5.85428
10.9423
-17.1005
49.7612
34.762
40.5205
0.960088
-10.2891
-19.7821
48.3363
-135.13
21.7503
-0.541934
40.6102
49.2591
-0.748619
32.7784
56.2829
38.2781
36.0848
-87.3676
-9.98759
12.416
-18.2011
-2.1525
20.3269
25.3581
3.55484
-28.386
6.97407
0.969915
30.3242
25.6935
-14.2441
59.8122
3.26089
-0.0352771
4.87457
30.8151
-12.1367
-0.117673
37.3637
-24.7949
2.38033
-10.7145
37.111
31.5191
29.3899
-0.18402
30.4326
38.4996
39.0071
-10.1899
1.03116
3.19532
29.1285
-28.9857
-244.877
-15.0147
-52.0593
-14.5331
0.16801
-1.9856
0.882998
-146.453
-20.7835
-22.9316
0.522045
-10.4807
8.32884
-14.235
35.0424
73.0689
6.66975
-9.77959
11.4433
-1.00356
7.80108
1.11903
-12.2366
-19.4311
4.78385
45.9085
0.264488
55.4318
0.674247
28.9621
28.149
13.6371
-299.996
21.3515
61.0736
-15.4062
30.9433
30.864
51.84
3.91957
47.4372
37.7792
-254.946
40.2005
-14.0214
-79.5129
48.7972
27.7386
-53.4887
-3.60887
43.9836
2.57937
-14.9367
0.904878
0.779673
23.9875
14.5389
32.8833
32.41
27.7211
-89.5981
-15.8144
-9.73691
31.9932
66.0452
-13.3128
-71.2234
-285.602
35.3966
3.94839
4.58426
14.9301
-10.5632
26.576
-18.6896
3.56441
57.1503
10.5412
-26.6071
-10.4998
-16.0462
-17.1998
-254.128
-21.1294
-17.3991
39.5398
14.0782
-16.9138
54.8264
-0.32473
-17.9608
-9.51348
-78.1422
37.2219
-130.862
6.8052
34.2328
1.03338
-10.2306
-8.74784
-30.3663
-12.3043
35.8326
-22.7994
-1.27741
-175.77
31.0298
36.2999
-15.4199
43.2913
40.2696
53.3296
54.4039
38.6035
5.2234
61.9468
-202.383
33.4969
5.53617
-24.1339
40.444
-14.8125
52.3814
12.0619
-40.9842
-225.738
-220.184
34.9766
-14.8769
-11.1773
2.66337
-35.4221
-16.6193
17.8254
2.40083
24.9216
61.5744
-152.578
-19.6648
-17.4894
36.6282
22.8157
-15.588
72.3472
-1.12776
1.01115
18.4596
-42.054
30.1868
35.3743
39.5873
40.864
-33.4071
18.0197
32.5598
6.61476
-33.1832
-0.48568
37.8184
37.7169
48.3055
-14.789
3.8755
17.3098
17.1335
-0.917423
-23.5034
24.5928
-10.7367
27.9171
33.2498
-171.677
55.6267
-15.5724
59.6352
39.6421
-21.371
0.191867
-0.0454752
9.54354
34.6043
-19.6845
47.0975
30.2277
17.5298
0.806899
6.04263
-13.8592
17.491
-189.392
21.1359
-12.0342
30.9639
-212.508
0.585334
-9.28557
41.3563
50.3467
13.7245
-203.232
12.2798
-3.67546
3.7798
15.6737
-19.4657
-13.1533
58.8007
-24.5502
-7.90802
-21.5536
-58.1131
-19.849
31.913
-187.148
-8.30878
34.241
21.3085
35.9748
-17.0643
13.5906
58.9646
-88.2067
31.1746
8.15655
-16.7161
7.99568
7.31035
-15.7579
60.3135
39.4745
0.527025
57.9711
45.0936
40.9629
-171.924
-234.465
23.1763
-47.4094
-13.8565
-49.3003
-45.0033
-47.6628
26.4998
11.2009
20.1472
22.4449
-13.2812
26.2321
31.6178
-49.6591
37.0802
17.8549
31.3349
-3.64958
0.260697
-15.3367
-266.157
-16.638
-9.2596
30.984
-24.3461
54.1431
-16.7153
30.0497
21.4373
-0.0949971
4.33883
34.8239
11.9547
4.09703
30.4734
-1.66084
-11.3529
50.9501
39.1873
-15.6313
-34.4376
-7.89584
27.0321
-4.51351
14.7396
-51.4797
-3.03793
-3.44125
1.01221
28.8573
29.5322
-12.9665
12.1533
-6.05675
-0.832981
-22.0519
41.0801
-15.6803
31.3743
0.22414
27.2704
35.9801
15.4006
31.7209
-0.67681
-14.3477
0.653616
-161.764
-15.1104
-15.335
-16.2519
-12.0421
24.5662
-5.32453
30.6389
-6.39608
-7.59816
-65.0607
-0.588131
35.7084
-11.6645
32.8726
7.99014
-19.1546
-5.16328
-16.2562
22.9737
32.4365
-0.613544
5.94384
-148.456
41.2344
0.534201
7.46557
-16.8782
42.8196
15.5515
-0.0363915
35.6988
35.5316
41.6497
6.69
41.6681
-93.2438
1.0225
-8.70567
33.9097
19.5263
8.02946
-1.42823
-22.6385
-18.4802
18.3126
2.57261
-19.1186
57.2106
-97.8563
41.2978
23.2272
-11.4393
-1.14335
1.45576
-2.81298
-0.698381
5.13302
29.6893
0.406909
32.0997
-66.9159
15.0686
-11.3677
6.04081
-23.4003
43.8008
59.2496
36.5639
19.3454
5.7434
18.8778
-22.4269
-5.07107
0.269897
-4.18354
-16.511
-22.3235
-22.8807
-15.7627
29.9191
34.6058
-59.8587
8.06582
37.4026
-18.0419
-47.7663
35.3289
-1.32074
-25.3713
1.31053
-10.2838
0.113047
55.6477
0.0249181
33.1683
-41.5949
-25.3446
-17.9352
33.2461
6.65222
27.7964
-36.4342
-21.1354
1.76872
5.54907
38.1431
28.7947
2.54678
-9.66762
-9.8411
62.1377
-12.9114
38.8896
43.8044
-8.22894
-2.66343
14.0607
-285.582
-49.8687
27.3743
15.9314
32.1807
-15.7938
35.9424
-0.283755
48.3327
6.2309
27.1906
42.6964
25.6337
4.59796
-16.0908
6.41739
-73.7581
29.8164
11.4872
41.3496
-0.20077
53.0023
5.45034
57.1207
-9.48052
44.0943
-9.17994
24.3917
-41.9048
30.5615
14.5444
10.7787
51.9856
31.909
6.29812
-15.9529
18.0839
30.1786
-1.05458
-240.917
23.8528
1.33449
44.4928
-14.1102
54.2137
4.07911
72.4646
53.739
25.4064
23.3352
-40.1711
-1.57137
58.0922
2.67325
-5.78858
-3.90107
57.7748
13.0068
28.7581
48.6402
-25.2865
36.489
-8.24872
41.2614
0.920339
39.3444
33.9241
48.8564
-0.96181
-168.056
9.66899
-17.1233
14.2968
5.27001
0.759871
42.9707
50.4975
0.428365
10.2755
-7.43461
45.964
26.9006
31.2507
17.6345
-7.92201
-155.88
-12.5689
32.6235
-66.9574
-9.13369
-2.85052
24.0331
14.2392
-16.8605
60.9909
-10.5069
54.1016
9.75812
56.2829
-11.9323
2.63647
0.402979
1.8414
27.9313
31.6609
-1.10555
-7.84355
-6.24548
-9.64113
50.9155
-16.1547
-3.82943
-19.9133
-10.6174
11.5589
42.7425
16.1232
1.47
0.563185
31.9292
66.0425
-16.6433
1.56921
33.3706
-5.52776
13.1339
-0.285056
24.8057
-10.9984
-204.441
-5.17489
-10.9188
-5.23258
1.81887
-42.3846
-15.2409
-5.73431
24.6038
36.2176
26.7515
64.1968
-28.7379
56.9717
-139.964
54.4083
-19.6805
-27.0349
61.7878
10.203
-12.2011
34.7271
-1.83822
38.1843
-22.0597
-172.598
5.62578
-15.0082
-16.84
0.140044
-4.98383
8.97929
43.6714
-21.3496
11.3189
-62.6883
5.08762
-15.4208
-1.50317
-9.65092
-9.48534
-50.7654
42.5703
-1.38556
49.852
11.2636
-11.3223
7.41279
-39.571
0.540266
26.436
42.807
62.9783
23.5401
27.1071
15.65
-153.813
60.656
66.5098
35.7575
-25.5136
-15.8833
-71.5227
31.322
22.1654
10.2639
25.4143
-10.4324
-0.764686
-47.5158
50.9126
-21.5687
0.438267
-13.9991
33.2084
4.97621
70.8933
65.9356
29.9133
-3.31144
7.74219
-105.918
9.77036
67.471
4.07113
0.217026
25.1239
0.364139
5.48003
-8.64813
-11.9082
5.59902
1.28922
13.7425
0.287686
6.15563
48.3461
11.2088
35.0897
-13.971
-13.5318
59.5358
-32.6604
-3.14488
7.56683
10.7144
0.282661
-15.9741
5.38378
2.15307
-1.24001
70.8846
-294.211
-54.6761
-17.8717
-30.8378
8.59757
8.81942
-15.4061
-44.1124
-0.0598127
-75.1979
-35.5217
-18.3359
1.7187
2.17001
-0.312612
70.1614
-1.12678
8.44145
-5.1874
3.23633
-155.808
-9.3536
46.7847
33.0543
9.05766
-10.6546
32.7862
35.4769
-5.14846
-21.1224
-0.0551466
46.2468
-17.8737
28.5215
-2.22756
53.3876
3.08971
-14.1485
-44.472
36.508
-13.7982
28.4987
-26.5966
67.5756
-15.014
-11.1318
-33.1963
11.2306
-15.3532
-25.6841
-14.8997
4.84551
15.7118
-16.0894
-12.301
-3.84525
1.34199
-14.6111
-35.06
27.0717
-92.3024
29.1482
-14.903
36.3183
60.3068
32.2287
-148.407
34.824
3.82943
-2.01528
-3.71149
-15.0292
-84.7462
1.73903
-10.2008
16.1303
-4.79335
-30.9078
-6.24014
-40.6686
16.7344
31.9805
-36.8645
-15.6379
-16.312
0.114264
-11.2245
19.4119
-90.5823
-15.9835
31.7316
-7.32652
20.3839
-24.6507
-42.2952
-14.5708
-29.2374
68.6144
7.97758
-18.7965
5.70926
56.9108
59.757
-14.1745
-8.76423
31.9201
-0.682322
1.49475
57.8806
17.7874
30.8671
72.2459
-16.4668
9.83334
1.59489
51.3552
33.6372
35.8319
43.1597
21.3908
0.416574
0.630823
11.1016
7.14981
-277.913
59.89
-24.8862
-25.9753
0.106852
-14.4745
15.5994
-13.836
-9.03711
5.73393
36.0908
35.3309
40.079
-25.9291
50.4959
58.263
-51.0456
20.7114
-3.72025
-2.60108
-2.64984
16.2785
-14.4753
-18.2364
-41.9441
65.7671
-16.6059
39.9113
33.3183
46.6846
26.0078
26.6873
-8.73461
0.582249
20.5807
-1.68181
-70.3381
-54.2367
2.01531
-14.4669
42.0818
-15.7114
-0.275317
2.27723
-153.554
-14.4982
-216.689
30.0075
-8.85888
0.870176
10.0735
-19.8657
10.0394
-60.9778
-3.48468
36.1344
-16.7065
59.6971
0.162883
63.6507
-0.273272
0.0588486
5.74771
27.253
29.0866
-86.6236
-3.97593
-12.6287
4.39658
23.8189
72.6849
46.743
10.3444
-17.9201
17.3659
-17.0004
40.1079
-9.88219
17.0117
-12.8333
-14.2961
-156.314
12.402
0.539653
-166.696
19.3113
20.5671
57.8771
61.8021
-234.379
-76.5668
-3.47196
-39.4318
61.1723
-2.15147
-21.2885
11.2556
21.7402
-11.5844
0.544009
3.3004
-1.61619
31.8839
-10.9227
8.38873
0.435247
-28.1351
-72.4253
-14.446
-74.4869
-63.8375
38.2651
-14.4354
-13.9267
-8.53536
-14.7151
66.5636
26.3973
29.5575
-9.13783
15.8371
-5.25325
12.9695
5.44174
-15.0949
-242.991
61.1112
35.718
-5.06433
-223.929
69.5672
-14.8852
-205.166
-12.6778
17.498
-15.5777
-11.719
51.4624
-6.75111
31.4996
9.96395
-14.8363
-5.33695
1.12328
15.8133
-82.2296
-4.20993
7.2959
33.28
-16.3129
-175.859
3.47389
-11.2791
-44.076
-39.1549
64.6508
19.1392
-19.7831
16.5051
5.42928
56.293
18.8824
-273.175
20.3584
42.8715
38.6526
-15.2271
27.825
-11.5824
60.6149
0.395104
33.575
-16.0559
-14.689
0.0428628
-13.3627
20.9172
7.86872
-295.62
-15.9742
40.7453
-7.92419
-7.10227
47.9415
23.3766
46.5893
29.3959
-21.6178
0.0998229
-2.88473
34.1662
0.0444997
43.1014
27.4402
59.3885
-14.8687
45.3102
17.3606
59.2498
-15.1368
-26.0724
61.3756
-14.8854
26.9284
-21.242
53.1414
58.4575
35.6323
-69.6001
30.7691
44.8702
-14.0958
10.6232
-13.391
47.9268
-14.9024
-10.0667
-102.706
-122.985
43.7511
16.7325
-118.077
17.1215
58.4182
-25.041
-10.8418
-144.945
-28.4436
29.896
-5.47874
29.2938
31.5679
-122.545
66.8258
-1.26304
49.2405
49.9601
2.11742
-0.387645
30.411
-51.1898
-6.68137
30.4098
25.7208
-17.7643
31.9318
-13.7718
53.6233
35.6713
11.8303
-0.161609
39.2375
-10.6313
17.3084
46.4501
6.4088
0.315311
44.4827
36.5847
-19.4502
-147.571
26.6818
38.6748
60.1309
-231.296
64.0847
62.2604
64.7752
-9.56243
42.7999
-16.8336
32.1064
47.4251
44.4886
38.1054
51.459
70.9206
27.1412
-256.252
1.29344
-205.083
70.047
17.5388
-9.27989
-15.6704
30.3963
50.6922
32.318
9.64335
-3.86615
50.4267
-53.1365
37.1296
-15.9253
12.4753
-0.618377
10.6466
21.903
-16.4782
-17.0878
-8.52016
-10.8373
-6.64474
41.9871
-12.4428
4.50702
31.7162
-41.1517
22.6697
0.103427
-40.0894
-14.4647
-272.585
48.7554
52.2452
-14.7288
12.0873
43.9152
37.902
0.343945
-18.0355
37.5349
-283.975
47.3622
-38.8545
45.8864
17.8819
0.0253554
42.1323
22.2492
45.4794
10.4892
12.7709
-13.5595
-146.052
-46.4373
-2.21405
44.5645
-21.3139
-12.4303
-21.6742
49.7931
45.2024
8.43268
25.5467
49.8953
-58.285
32.6921
-0.699056
-16.0849
31.9348
-13.9332
-20.7818
-36.4202
-254.251
-9.05221
-20.8233
-0.494614
-77.7832
-171.976
27.6865
60.2759
66.9058
57.0883
-21.0699
37.4981
-18.0237
31.6211
49.3057
0.57311
43.5307
-21.5768
10.3396
-16.0685
-6.92233
47.7356
-31.0064
39.2168
-40.3387
-13.7862
-246.163
38.9961
38.8276
31.5279
-18.706
32.0836
-21.1858
-138.115
-161.948
8.95495
61.3358
-78.4656
-8.87873
-15.8609
32.3379
30.8469
-2.15163
17.943
-27.9568
50.6908
46.6005
-12.0072
-11.8388
49.7734
-13.592
-27.6498
-4.08046
44.6841
51.1441
-14.7908
24.8509
-10.0002
59.0355
-90.3109
-14.4115
-6.37859
55.4679
-4.30861
-13.298
-9.19732
47.8592
24.1515
47.0182
-7.62757
-66.4193
38.238
68.8345
-152.26
31.6281
-5.49089
-119.016
-5.39367
10.7799
-16.8958
24.2318
-14.3736
19.1588
-10.3608
-17.312
42.566
52.266
31.9188
-48.2032
-14.48
40.8295
-28.0686
12.0618
-18.0179
15.88
-61.0232
34.7559
40.6327
-5.52078
38.3931
59.0447
-9.05622
28.3946
38.4546
-184.188
17.3757
-16.6884
15.7652
11.8545
23.8212
0.143208
9.87618
-6.47716
-78.9097
49.293
13.1594
-8.68011
-13.8965
-6.54246
34.2758
-43.4372
64.6419
-14.1368
-289.194
-9.37184
43.4
39.7738
47.1829
-239.852
56.7816
-27.1178
28.026
3.35252
-49.5845
29.5595
14.3425
-8.19598
22.9027
-182.015
27.2104
-204.657
-14.0565
0.977083
-37.0052
-41.9855
30.7692
57.8682
1.09394
-17.5323
44.4603
-48.5381
52.3706
15.4642
-2.83319
16.6514
32.9835
16.6534
-8.70372
3.34125
-5.03308
4.08207
8.54492
-46.9273
-15.6447
1.27593
21.905
-7.59016
70.4795
37.3503
32.2437
53.3981
1.12281
36.9286
-21.5504
-206.436
-15.1822
31.8249
69.3053
31.2159
-28.8332
49.0004
33.1521
33.5715
0.506668
-5.67527
16.8842
65.2378
3.09479
-17.4173
39.9197
50.389
37.2121
33.2191
41.8583
22.8981
-17.4586
-17.2382
37.7018
-139.632
-174.275
31.7925
-15.9652
0.799373
10.7602
37.9252
39.5541
39.9245
-8.67731
46.7811
48.1501
0.994143
41.9455
35.9816
28.6758
23.5678
24.1231
16.1808
-2.04819
43.4832
41.9487
-46.9015
31.8062
-8.95692
0.246339
57.1705
43.2808
-0.260646
-17.7437
-15.6782
44.9364
24.7033
3.70538
-0.814869
4.88915
-11.729
6.82142
-16.6633
-8.64139
26.0972
-8.45755
-31.0058
-22.6376
54.557
-17.5474
-140.556
-16.9087
57.9241
-10.3866
3.60085
2.53783
-107.717
24.8273
30.0162
21.4115
51.3264
26.0378
-3.3906
-262.872
-17.6081
0.00207649
39.0346
-36.9759
-15.3847
-97.1509
-10.4571
-159.435
-16.6462
-61.8703
-5.8771
8.62447
31.3794
45.9468
-9.69986
-1.82574
51.2939
37.561
-14.7195
-10.2715
-225.541
20.4701
3.04472
17.2276
25.9308
-6.37302
-10.5588
-11.0204
5.45987
-24.4848
-292.001
3.77958
-18.318
-283.323
-105.589
-17.5332
3.06952
-187.06
16.1084
-13.8832
31.6246
28.3331
7.07058
43.8145
-20.1002
58.6208
-15.1667
-2.19133
-35.6992
33.2654
19.6879
-156.676
-197.597
32.5853
39.9539
60.8547
-18.1099
-300.144
-19.2577
-4.82974
0.0812492
-17.4648
11.7813
-63.359
18.3708
-16.9974
27.2504
2.14615
-3.69217
52.1857
30.2396
-32.8451
0.229046
-44.5281
-270.417
44.1094
67.2961
-163.538
43.064
30.8896
-0.0676203
-16.1807
42.5669
40.1014
-63.5436
-10.4584
-15.6184
-20.3414
-34.606
-38.0992
-32.1712
19.3535
-6.04314
36.2898
-20.1511
-104.838
29.5517
-32.4646
-102.948
-2.79136
23.8499
-120.08
-20.1292
-110.52
-12.4698
-81.887
62.1088
-218.318
-10.8365
-18.922
36.6998
-229.543
-9.55179
-50.1765
-31.3531
-14.9082
38.7675
-0.193997
-17.1779
28.2831
0.343181
-13.4131
-45.3715
-27.5514
24.2945
27.7385
32.8485
-188.036
52.7304
-11.3522
0.19285
1.80119
-71.6843
-17.7064
-22.4523
-23.2822
3.23533
10.4495
0.149354
-12.7668
-25.7631
32.0387
-26.5401
32.3943
-37.2525
18.0806
-8.71142
-9.07626
-24.7626
74.1688
-6.67801
-139.933
-115.419
-21.3533
31.8717
-0.100059
-44.2907
1.32269
-93.6122
-17.6733
-157.604
-32.8759
38.5101
-58.4684
1.03146
-113.46
-4.4149
29.9241
1.85789
14.5645
-16.0719
45.987
-232.166
-17.0042
49.5731
12.3726
-221.083
-12.4564
-39.8823
-23.2436
-13.7343
44.2134
-14.6033
10.7844
-279.287
-38.2372
-42.8659
-51.1983
-178.839
20.7894
-9.02765
32.2419
9.37647
-29.7431
53.1318
-18.6479
41.1822
51.8034
-125.166
-3.36455
35.6332
30.548
27.5505
-19.7723
-30.671
-32.9769
31.8103
5.06952
-22.5098
-45.677
19.2277
39.4651
-11.1139
-12.0813
-3.43568
48.5644
-45.4856
-50.31
-0.272577
26.6438
-2.36695
-15.6901
52.9355
41.7718
-0.00643951
-20.9418
43.7026
13.4435
-6.82362
32.4239
-11.0966
-25.5763
-36.6792
-21.3403
40.2956
37.3027
-4.18729
-17.9516
-12.0932
-5.68531
37.7433
-20.6716
27.6089
46.2836
49.9689
-11.431
33.6702
30.2011
38.8995
41.4288
-9.64449
41.3496
0.0967512
32.9553
15.5793
36.2191
-16.4958
42.7778
40.8614
28.2049
19.2664
-15.7245
24.2061
0.719535
-19.3311
47.6928
45.4722
-17.4727
44.796
-21.22
-138.087
37.0837
36.2661
-43.3739
-6.60672
-287.837
-19.7349
-37.8026
-14.3806
-41.8019
-14.045
30.8143
63.7673
44.4513
-10.1953
-13.1998
36.7217
14.8067
-10.6491
-25.0974
-14.1563
-51.0454
-149.167
-146.913
30.0538
-4.79012
11.4054
0.281772
0.257817
-14.0605
-0.0439018
4.56677
17.5123
20.5705
-14.7547
18.5848
-85.8907
-24.2691
22.6498
13.8566
-3.40615
4.36371
19.4777
-1.40599
9.95575
-15.6051
32.4986
27.2846
55.9356
32.3891
-19.4676
-14.1791
-17.1311
-13.4212
-0.68695
-0.236552
-6.12516
-17.7676
64.7066
2.4197
-8.45622
51.8271
-16.2025
-28.7457
-21.607
-16.8392
-280.196
9.11695
-37.5283
33.7317
-7.34675
-18.3516
-61.8815
-12.1714
-24.6816
-9.40244
1.97608
23.9692
-15.2844
-14.7673
-40.2315
11.4985
-23.7453
35.4557
53.5191
-13.1519
36.5341
18.9776
22.2177
58.6588
-16.8645
17.4983
16.1779
11.3527
50.3566
-15.8328
-4.65213
-9.3491
35.4328
53.6471
-14.2675
-2.32927
-22.3147
-20.7216
13.6905
-16.5216
-49.0365
-14.0761
10.0966
-275.722
6.60616
8.52229
28.2506
6.38385
-240.403
0.695969
-0.979362
-7.96316
57.2675
64.7859
47.1512
66.8959
27.8123
28.8532
39.8321
34.1682
29.7717
-18.6611
34.573
-13.5495
-157.247
51.4277
-6.98697
-24.8086
60.658
-3.73038
-20.2295
14.31
11.1474
41.0111
-100.261
29.7627
55.5283
-16.45
-139.885
-45.2935
22.1801
-15.2501
45.0597
-7.53917
41.058
31.9259
-15.21
40.1369
-17.3247
-264.093
-255.725
-16.3359
42.2821
-21.5235
31.7547
-2.06194
-22.1578
2.78701
-11.2943
-42.9785
-15.3407
-267.1
42.3809
2.52933
-118.233
-19.6034
18.6465
8.7732
-18.7492
12.9516
-0.25471
13.5002
-159.403
17.141
5.23781
21.8357
-4.01873
31.326
19.3805
6.25525
-262.085
67.5414
-24.746
-135.495
31.8039
27.3137
-46.8501
-23.1258
-16.037
21.4352
17.4493
-20.4877
-7.23975
-10.2055
67.4861
-2.46897
-15.8834
2.70284
-15.3638
23.9255
-7.85167
30.5867
18.7071
-13.8141
21.068
-298.504
27.7783
12.4369
34.6523
21.5099
0.275791
0.10383
16.0124
36.2695
-0.0154395
3.02594
-180.264
-25.0354
-16.3408
27.0128
-159.079
16.0696
-195.569
42.5309
-29.193
-11.7275
45.7314
40.6992
12.4631
-16.8673
-188.484
37.13
-6.11122
42.1678
15.6575
-57.2063
33.2335
7.48875
6.37431
4.77468
-13.7542
-17.027
19.8128
-7.50964
46.8464
9.88433
68.2387
-4.71463
6.25733
40.9976
0.903873
8.33633
35.2955
29.0563
20.2001
-22.3492
-1.26503
31.8346
21.7588
10.5976
-21.9611
-5.42539
-17.5992
-41.7242
-14.5496
27.8006
1.03759
24.901
-7.21347
56.6408
43.052
8.90598
27.7494
8.11564
-248.069
30.189
23.7191
-1.69845
12.8552
42.1
37.5605
-1.93402
-22.8619
-58.456
30.4698
14.6977
-48.1804
35.2946
-20.9611
31.7692
-72.3327
32.8723
13.0802
-1.29427
11.653
39.4178
-3.9845
34.9067
45.5361
6.09727
-9.75738
16.2691
2.35535
53.5587
-44.5921
48.1312
40.0822
-29.0779
-14.1261
0.0542724
-13.2606
-18.6593
-13.1541
29.6382
48.2794
36.3525
49.4465
21.4015
44.5635
10.9995
4.38173
12.3091
1.8854
-0.438997
27.9209
1.43354
51.0608
6.87123
-109.619
22.6045
50.8727
53.228
-28.0737
18.831
-17.9755
-165.514
14.8559
6.34648
-15.2966
13.9845
53.6186
-307.162
-43.3213
-18.3489
11.8024
4.83131
1.83541
32.6992
34.3619
-10.3468
2.37819
-0.13423
-14.0142
30.1089
29.3012
32.6159
19.4069
1.69121