/*--------------------------------*- C++ -*----------------------------------*\
| =========                 |                                                 |
| \\      /  F ield         | OpenFOAM: The Open Source CFD Toolbox           |
|  \\    /   O peration     | Version:  2306                                  |
|   \\  /    A nd           | Website:  www.openfoam.com                      |
|    \\/     M anipulation  |                                                 |
\*---------------------------------------------------------------------------*/
FoamFile
{
    version     2.0;
    format      ascii;
    arch        "LSB;label=32;scalar=64";
    class       volScalarField;
    location    "6.6";
    object      p;
}
// * * * * * * * * * * * * * * * * * * * * * * * * * * * * * * * * * * * * * //

dimensions      [0 2 -2 0 0 0 0];

internalField   nonuniform List<scalar> 
13486
(
20.3521
17.343
-1.2425
-35.3658
2.37007
0.792647
-2.98486
8.22104
12.2215
10.3379
-49.7711
5.51487
21.2799
1.42346
2.62836
10.7
-37.229
10.7885
6.07175
18.4696
-34.3638
21.0343
17.0323
-29.9919
9.17404
-26.5687
-40.6086
-7.65506
0.895757
-9.59231
-31.0157
6.31451
-15.5509
-6.11795
8.2959
-4.55899
-27.4261
15.1888
-5.75356
12.7261
-7.35506
22.2314
1.9054
9.29978
9.17559
5.27144
-33.0545
0.795573
-27.0521
-6.21696
12.9714
0.991696
6.72092
15.6494
6.18425
2.94731
5.72207
-0.761946
-14.8551
-12.395
-57.8532
-20.3499
-18.5765
-34.3519
-50.8409
-25.0209
-40.9565
20.9113
12.0691
12.0602
-40.5279
8.46799
13.514
-28.2031
-21.3705
5.18097
-22.8137
2.14103
-36.925
-6.04039
-2.49766
17.6391
-18.7443
-0.875354
20.3938
9.48458
-5.49168
12.47
14.7553
11.6799
7.73149
6.46291
19.1828
17.9715
12.3864
0.188493
-40.5297
-50.5484
12.7163
-39.6801
-3.89242
1.95673
-52.5285
1.87545
12.2971
-40.3723
14.1667
-6.82436
-36.5575
4.82409
10.9432
4.39768
15.6224
4.41005
24.6358
11.3285
9.44585
-2.53504
13.6394
-57.8155
8.98027
-54.8438
13.348
-5.44575
10.7718
1.82283
8.43514
5.59944
-2.1586
-37.0105
2.9484
-32.5204
-27.9543
-28.0698
13.3758
12.912
24.6153
5.13743
-56.1934
9.0006
-11.1629
5.162
6.8246
-3.42538
2.17683
-21.0853
-1.84149
20.5602
-6.77371
0.675745
9.5626
0.153979
-2.04859
18.1039
6.32314
-1.28779
2.21931
-35.9909
13.1926
-29.0647
-3.94704
13.189
9.94803
22.0345
1.46664
-0.950123
3.24512
28.7642
-2.2387
-28.0296
-31.0739
6.35299
10.9454
6.95786
-3.23041
-83.7054
0.0270517
-12.6634
14.1729
7.15365
11.6861
4.31361
6.65377
-39.5448
-0.840239
-7.604
0.215982
-7.21545
-6.54918
12.5656
-37.902
0.304872
-0.120196
20.0477
-0.80199
-46.3849
-39.0623
-3.83371
17.5635
-0.0592876
-31.6775
5.46144
15.1715
-0.243799
-33.1107
-0.374038
9.26967
14.8434
0.156622
-0.734987
-7.64774
-29.4927
18.2548
14.1724
0.778833
-7.95186
-9.6366
11.833
17.9449
-13.0304
-37.9046
-6.7767
9.36895
-4.21387
5.00273
19.2515
-1.22018
-56.0118
-4.73693
-6.71925
11.5654
-23.8157
-11.8782
22.8364
-51.2287
18.3513
-5.99952
0.657532
18.6172
7.15852
-16.3518
10.8504
3.18845
17.2268
-12.9855
16.0659
7.32744
-18.4072
-27.9296
10.0906
-58.5083
24.9061
10.4752
-6.30067
-3.39034
-85.5562
6.4868
-7.54155
-31.9842
-16.521
16.0046
-14.3891
2.91296
-84.6015
2.34248
-40.5667
-3.90287
-36.4934
12.9691
4.01518
16.3985
14
-9.78226
4.92883
19.3283
-16.8643
-3.52298
-10.2554
-6.08714
-1.86333
-10.4307
10.3777
14.4257
-44.8083
-53.5424
-45.5427
-10.6885
-2.80968
3.38322
13.095
-48.2673
-56.0551
12.3009
13.3204
-5.15884
-6.87253
-3.97532
3.97443
14.6067
-6.8879
10.0582
9.02081
-1.81831
6.19948
-25.5321
-0.97581
-21.7839
7.35172
-7.55085
-36.6167
-22.1548
-33.532
2.25753
5.1386
-49.5024
13.0687
-61.4956
14.7833
14.9664
-3.92198
-26.094
-30.5622
14.0768
18.156
25.4746
7.94535
6.27795
10.1717
1.32516
5.55315
12.5611
5.83266
8.51451
20.0609
-3.75368
11.4828
25.4035
0.508795
10.2565
-16.9255
-4.29235
17.9799
5.08214
6.59523
-46.8323
0.671259
8.33288
24.3153
-13.1521
-50.7912
8.73184
2.27651
4.69834
-40.0336
14.5093
-10.6463
-28.8034
8.44513
-10.4143
-26.1132
6.4369
8.18487
15.9963
14.0446
-10.0734
-0.500859
-6.40961
-30.5742
18.7085
8.65211
1.66009
8.5179
1.51211
-58.5484
1.8913
12.9892
14.0784
-29.5556
-49.061
-19.2489
12.661
5.05273
21.7305
16.7196
-30.051
-2.72371
3.52318
10.0969
-29.6409
-24.4523
17.887
-9.94032
7.89868
18.8824
21.1585
-80.2809
-37.1483
-57.2476
-31.2808
-11.1565
-30.099
6.69801
11.6917
-17.6634
-2.04632
-0.710577
17.8181
-12.2111
8.98125
16.6921
9.64286
-3.52988
-10.2322
14.6661
14.0124
19.0764
-38.9875
2.68745
-30.186
7.19407
14.1825
9.39916
24.3898
10.6382
-2.3477
-7.20057
5.38585
14.4485
-40.2039
3.79753
20.947
11.7663
7.75448
0.186346
0.371199
-16.2177
21.7117
-45.2587
7.10439
20.5766
-32.238
-9.92465
-27.6754
-10.4685
-16.6793
15.3926
18.4566
21.0547
-19.2404
-39.3836
-47.7953
10.4723
14.9698
-6.33726
-5.51949
13.889
-46.0841
-84.3904
-45.6243
-24.5448
2.9464
16.8113
-2.90349
4.04772
-33.1162
14.1347
0.761525
26.9904
19.2457
13.0731
7.33564
-6.85954
0.0567957
25.2588
0.175097
-68.7485
-2.61527
11.5584
-45.9956
3.84141
11.1746
0.405333
-1.99142
16.9133
-11.3183
-32.8519
10.5765
-21.9048
28.5068
10.6699
13.04
15.1971
-83.3982
0.61248
23.4242
1.14045
18.1371
-5.43304
6.21246
-39.1445
-4.84891
1.8429
-43.892
15.1127
11.0793
-61.0011
0.268236
0.307047
21.3047
15.414
-3.00516
11.4213
8.84275
-1.73763
2.31072
13.0629
-29.8545
21.4201
-47.0109
9.28218
22.1674
5.16819
-5.34501
8.83849
-43.7076
-48.8723
6.71002
3.99305
13.5436
19.2581
-39.4617
0.224643
-39.8098
0.367402
18.2903
5.86651
-40.7574
-54.9857
12.2426
-36.4102
8.07241
-49.9678
-5.35753
11.4493
19.8131
-5.29833
15.8342
-23.6991
-57.9996
-8.90339
7.52386
-46.2108
14.6626
-0.144086
-60.5885
9.56364
14.8026
-18.365
-39.7125
13.1056
18.5716
6.94854
20.5554
0.249081
10.7486
5.46388
15.0407
2.81163
17.9599
-40.0301
7.13837
10.7134
-2.81236
-16.0046
13.9666
-30.747
4.64078
18.7247
20.9036
-40.9486
-23.5924
6.53593
8.71917
11.9161
11.955
-2.71237
-37.1071
2.78835
19.8656
4.73465
4.19813
-62.7905
21.0019
-14.2596
4.03277
13.7493
6.81346
-3.73591
1.88351
8.46689
0.414393
-5.27498
7.23993
-7.92544
20.418
11.2014
8.99546
9.84555
1.60912
-10.6201
23.6226
6.50894
23.5862
-53.4767
13.3625
-6.19132
-28.4117
3.69467
9.99556
24.8943
-71.6192
4.60046
5.86432
-13.8742
9.89998
10.4212
-0.700715
12.2182
-40.3706
-14.635
-18.2009
2.75707
-4.81615
15.0976
-3.16644
22.6018
12.4432
-47.1063
-56.5795
-7.08345
6.61151
-50.8529
1.18495
-42.3969
18.1954
-0.503888
5.43991
-71.7616
21.8059
0.434047
10.1149
22.0612
13.0138
-44.1103
-5.21063
8.76524
3.73623
10.4813
3.19641
-48.5842
7.16529
11.9934
6.34484
10.8167
22.4095
3.87622
-75.2
13.9225
8.16317
0.213475
6.82053
11.5172
8.24703
-42.1432
0.0100678
-25.4858
2.29627
18.2483
6.43441
1.03747
-0.781404
-8.96686
0.567092
15.5056
-3.74004
9.91586
12.0879
20.0399
9.20802
-4.45692
23.4305
1.5421
-47.192
13.8762
-15.9246
16.1854
2.41467
13.7695
-19.7709
-28.1771
-29.0965
-2.28032
-34.8173
9.41542
24.2078
-8.04337
-26.2856
-1.76104
15.6803
4.06336
8.1348
-68.6277
24.2375
-40.1296
7.85092
-6.63477
9.92153
14.694
8.69898
-17.678
-30.7144
21.8979
14.0235
-0.060904
11.8981
-10.7978
8.98646
7.99003
9.96634
-26.2846
-2.56832
17.4941
-1.12155
-3.96665
8.01113
-50.8866
-8.47271
2.07629
14.5518
15.5677
-66.4435
-0.272809
-41.7999
-32.1357
0.882192
-5.38883
8.26052
13.7385
3.11572
-6.82225
14.5653
-9.88413
-33.9262
-2.10287
-2.93806
-65.8095
-29.9868
-18.7883
-86.0893
10.4019
21.363
-73.3848
-31.5898
22.0935
20.5409
-39.9848
-35.4822
12.0815
-30.1479
2.1504
1.7913
3.44785
3.0155
-33.5533
7.99055
10.8305
-2.33665
-16.6566
-21.5694
1.13692
9.74288
9.21291
8.82433
-70.7899
13.9906
19.8978
-49.8124
-85.353
13.5282
-2.0527
9.30367
-7.71865
-8.91927
-71.1588
1.32371
14.4775
23.7034
14.6464
1.69976
1.73588
14.1096
19.5042
1.06601
12.6654
13.8509
21.5926
-1.41631
-17.9721
4.54542
-1.52254
21.0196
-0.0828386
6.16896
9.36323
-2.56486
5.16735
1.6448
-9.29189
14.066
14.6923
11.0926
8.75198
-17.0037
-0.561837
-4.40837
3.0142
-8.57839
-1.68145
2.42523
-87.4995
-63.4432
9.18544
-8.70536
-27.9117
-18.4277
-15.3658
6.20068
-44.7936
-83.4846
15.1881
-47.5485
21.0293
-55.2341
-27.9857
14.5327
18.4767
-16.984
3.7311
-5.16359
15.0425
2.90111
-16.0959
-4.13032
-29.7101
-14.3877
13.7661
5.47159
9.89808
-28.4554
11.6835
-40.95
3.01493
-10.6003
15.7561
-9.24125
-51.4564
-61.385
20.8833
3.40294
-75.7882
-49.9255
13.7671
-73.9048
-34.6772
4.62474
3.72364
-1.14534
6.69305
-45.3193
13.6437
13.846
14.5647
8.28365
11.3078
-8.96855
11.8854
-0.331248
14.8506
11.9875
-4.33079
-6.55136
-3.64521
1.93629
-42.4391
15.9308
7.52075
9.42016
14.1222
9.07109
9.25167
24.596
1.57737
-11.6112
10.9047
-2.82937
-0.0687362
-3.55104
-34.0147
13.7596
3.71883
1.51655
2.88687
8.46339
16.3684
-43.2359
-0.956057
14.1545
-1.25151
20.3532
16.1424
17.5546
4.77383
11.4695
6.99764
0.123506
6.7555
12.6195
-21.6264
-2.92269
-16.2844
-13.2399
-71.1587
13.4995
-22.5844
-23.0211
-85.6786
-17.8305
-8.38898
14.4934
-10.6996
8.45082
-27.5185
14.0618
24.0642
-0.974874
-55.7516
9.77885
-7.71256
13.6021
-43.973
-11.5387
15.2456
3.86512
22.4884
9.03125
14.0469
-8.23827
17.4387
2.1
16.2595
-50.3843
-18.1937
0.0113899
-72.681
8.63386
-2.69153
-21.32
21.1029
14.0548
15.8097
18.9125
16.0565
15.7506
-4.64469
12.3318
14.0785
14.4498
-1.48974
-1.37485
-7.62146
-4.99843
7.26023
13.5263
-28.5011
24.2701
-6.98256
3.5209
23.5606
19.5221
-2.58569
-55.4477
12.9558
9.3072
-11.6214
10.7896
-28.4714
-1.85781
14.0188
18.2911
-9.83899
13.1685
17.3059
-0.966589
-3.45179
17.6932
7.13072
-41.9415
-37.2979
-0.988461
-9.06854
13.8659
13.0094
-20.4671
-14.281
-12.7407
7.09547
9.54008
4.83358
20.4525
2.65233
26.4799
13.5998
6.12833
15.163
-45.1606
-30.8947
-71.6861
13.8029
-8.61505
-26.3779
-28.0299
8.59894
10.2058
-18.8126
5.56579
-29.9021
4.02095
3.10139
-34.0381
10.0521
6.84621
16.9294
14.5156
15.446
12.2403
-2.46635
-14.1475
-8.95675
-0.496851
-46.2017
1.79712
9.8572
-39.4941
5.09648
-26.0023
10.2499
-71.6493
9.3974
8.98517
-15.5274
-14.2671
6.81473
-6.21141
-16.64
3.76261
-2.64273
13.1605
11.5417
16.3388
-28.2709
13.186
3.00069
18.8503
3.26008
9.18363
7.14661
1.18745
22.1254
24.0238
10.4678
2.16733
11.1019
10.4927
22.3667
5.9004
-14.1386
-68.3055
4.70759
-6.03783
-18.8895
14.022
13.2093
-1.69559
-4.05814
7.9295
11.9415
24.7539
-25.7706
12.2345
-31.4488
-2.60757
20.114
-0.60575
9.03826
-33.0362
7.91139
6.77374
25.9205
-11.0122
-7.78377
8.73963
3.41554
-45.4321
-28.207
11.3184
16.0242
-23.9837
2.57964
20.5321
18.9698
-0.947002
-17.5124
-15.9365
5.08058
14.277
12.7815
18.1545
8.49693
-48.2644
19.3381
9.76336
-14.5478
7.3833
15.0453
15.8961
-53.8311
-23.8276
0.240169
12.7491
21.6898
7.81307
10.482
-9.44667
24.851
-50.7512
-10.709
22.7653
12.9802
0.4745
9.33226
-39.3511
4.7845
-14.9031
-49.9608
-16.9975
-74.4743
3.15779
-8.7536
-31.4408
-35.4892
-14.412
-21.9067
-30.691
-56.7259
15.3334
13.7983
1.83598
-29.8968
6.58293
4.87068
-2.5976
26.2805
5.27099
-7.54215
12.9859
-10.7944
-76.0876
7.85571
7.57276
13.2212
26.7989
0.595486
-0.613783
-31.8113
-0.529638
5.96578
10.7912
-1.75579
19.5285
11.7923
14.9138
-39.5209
-4.09498
1.74861
12.1589
14.1399
12.4709
14.4031
24.4948
23.5632
-10.0939
13.0264
17.5704
-7.41034
18.076
1.91369
23.1943
17.9336
3.10757
16.131
8.95758
7.40796
-2.15905
15.085
-13.1681
10.7894
0.718928
4.86746
0.744861
13.4431
9.01505
7.40669
22.2472
22.1253
6.58511
-27.9957
4.68653
-9.79867
-0.949901
12.7065
19.4562
-28.3471
14.511
11.393
7.33586
12.1305
-70.9034
-31.0298
-25.0196
25.3739
2.47545
-18.4851
16.8377
0.596812
4.80067
8.63067
4.90067
11.897
-0.962661
-7.68816
8.54969
7.93283
5.41752
6.95949
23.9534
19.3321
15.5381
22.5865
21.8162
3.97927
2.99674
8.75688
-8.4196
22.0328
-39.4279
12.8596
10.3819
-50.1898
4.27506
14.923
-55.4248
7.36899
11.046
27.0664
-39.678
7.14321
-0.00740123
13.7092
-1.49664
-51.9034
21.5929
17.5714
11.582
13.7644
-12.3482
-0.0348333
-42.6358
23.4866
-22.7458
25.7377
-15.0227
10.2794
-28.8769
2.0276
-28.1945
8.56888
-4.29738
6.82262
-5.37503
6.7925
-56.2032
-0.841379
-21.9388
-28.5517
-6.96076
-16.19
-4.06801
1.62882
-26.7036
-55.9334
11.6499
12.0193
19.5145
13.8999
6.64023
6.71483
28.8282
12.5811
-42.952
-4.05642
1.60514
11.9951
10.9517
19.5353
-9.40321
-9.57664
7.55451
-0.949138
4.86428
17.9899
-28.2524
-49.6415
-39.176
23.8207
-47.9725
9.32482
17.0201
-14.3701
8.39631
9.38205
-35.8863
-39.1157
-24.1745
10.9798
14.7574
16.7241
-16.9026
-28.6353
4.58142
-42.5461
-11.5229
-2.48724
7.79311
-17.0298
-9.75665
-57.0513
-39.5992
-25.2206
20.5164
-36.4977
23.1899
-49.485
-7.50194
5.84239
2.72009
18.6725
10.7942
17.6292
-2.00813
-14.4353
-34.7164
17.7681
-28.0826
11.5096
-21.6121
18.0583
18.874
-16.5073
13.6872
21.9215
13.371
14.5015
-18.6495
-15.128
6.56784
-14.898
-5.2651
4.46371
5.63794
-1.35759
-42.5181
4.95275
1.32027
8.77786
6.27557
-7.7912
23.1079
-0.913502
0.633065
3.29524
13.8451
-31.9888
1.28478
13.3941
-3.13747
-0.533042
-0.144818
12.1579
13.8743
13.4932
-10.7129
13.8887
16.1667
14.2128
-8.94683
3.35516
5.80703
10.3179
-9.27992
-30.2174
-73.4368
-12.6113
-40.3576
-2.77905
-4.12313
4.9709
-28.4509
-6.66994
-73.3339
-4.32834
-19.0104
7.23439
-39.1701
15.0178
28.881
7.22315
-20.1656
8.41844
4.3056
4.68832
1.39759
-10.8404
-85.0045
1.01905
17.2324
0.668452
21.4631
1.35038
13.4633
8.41621
6.79543
-29.2301
3.05612
24.8143
-25.8457
13.9177
13.8156
19.4537
1.0646
17.5087
12.4574
-28.6318
13.6832
-39.0776
-56.5771
17.9382
13.0104
-15.4093
4.48521
17.7861
-8.15374
-59.5897
5.04201
2.85302
12.5652
9.29462
14.9673
10.1109
10.8967
-19.878
-7.37248
-9.9172
14.7194
25.7163
-12.3908
-42.9765
-29.3701
11.1432
-0.170352
-0.114156
-0.0384353
12.8914
8.38789
-16.0499
6.21355
23.6096
7.92993
6.89855
-33.8092
-50.8877
-17.7222
-32.3187
-24.6222
-52.8489
17.1577
9.18071
-9.59024
22.9764
-3.95959
-38.4143
-20.005
-56.897
13.2511
-25.8481
6.7484
11.9105
-12.6893
-8.95901
-6.72703
-43.2922
-50.5677
15.7809
-70.8107
2.71276
-40.19
13.841
14.5703
-49.4264
16.9474
15.0777
20.332
21.5299
13.5469
3.72248
25.3333
-40.3293
10.9295
-5.82318
-73.7979
17.4972
-69.7325
21.531
8.63106
-10.4861
-29.9915
-28.117
15.4183
-72.7462
-28.5511
-2.77393
-4.81515
8.75154
10.1668
5.03054
7.5051
23.796
-28.199
-25.5055
-1.30594
11.8135
12.3196
-22.4441
28.6389
-0.674444
-1.97512
11.2286
-8.64692
13.6508
12.5227
14.7262
13.9424
8.54514
4.71669
12.2085
4.12729
-22.6815
-10.7252
13.0256
15.1285
17.8916
-22.5854
-1.36719
1.44033
9.96022
8.28701
-63.9301
12.6713
-32.7957
12.9497
14.7164
-36.9312
21.2344
-49.1896
24.3665
14.2086
-77.9106
0.642738
-23.2828
8.99555
15.2552
-84.5687
17.7184
14.0114
1.74041
2.69328
4.01887
0.653328
1.51646
-37.4934
4.41337
-46.8591
13.9394
-30.236
-24.9986
-9.80856
17.2525
18.6453
10.1046
-29.0321
8.7556
-2.32708
-1.38838
9.50093
-23.3062
-25.5955
23.1016
-2.9313
-0.373461
-12.6715
-53.551
-27.1529
14.0469
-36.5271
-4.54152
15.234
6.39547
14.8327
-46.3726
7.20225
23.8095
-19.1246
14.5755
6.6383
-20.2481
6.7941
4.31457
-0.366108
24.129
14.4642
-1.96485
23.8509
16.9488
17.4028
-41.5317
-29.1546
4.47731
-11.4085
-27.4933
-19.4068
-9.88819
-18.5204
9.14057
6.68015
4.59967
6.47629
-18.5074
6.43479
14.915
-46.0426
11.9715
10.2329
13.9447
-2.55531
-3.38305
-50.9384
-32.5823
-47.0986
-5.45874
14.7881
-77.5787
20.5532
-47.6504
13.6941
3.91697
-31.5945
-5.86897
13.5101
8.76617
5.86116
10.6601
5.03317
10.1698
19.0024
17.6267
-24.99
-35.3652
-20.6443
13.2805
3.09839
-0.132485
-16.5404
2.75593
1.17845
-23.7391
10.8366
8.04952
9.67197
8.67591
2.76728
5.35494
-81.8205
17.6401
-48.5781
13.5233
0.499178
12.8302
13.9894
9.70603
11.2515
-20.6711
-58.1551
-49.6746
-27.9339
-71.4756
-43.244
1.94968
-29.1963
12.2924
2.00381
13.8105
-19.8091
11.1778
-15.4644
1.58583
13.8266
-39.5026
12.4735
5.16729
-81.5654
-14.4356
-52.5815
9.21507
14.255
1.78808
4.38953
-25.0984
14.1949
-11.1724
6.62313
-46.5768
16.8307
7.44864
-23.5011
14.631
12.6945
15.7107
8.80724
18.1396
-19.8845
-19.9844
-9.46219
10.4233
10.4471
5.3348
-9.91614
-52.6566
-68.8325
5.00374
-1.25694
-78.2475
23.5943
-20.6984
15.0835
8.95934
-31
6.01602
-17.7477
-4.19609
4.12841
3.09734
13.8292
-46.3819
14.1239
-16.0121
-0.427614
-28.5209
4.07382
-55.7298
15.4703
23.7525
15.0493
2.5301
-6.16336
11.2831
-41.5708
-5.23319
-14.6532
-1.14291
-30.5667
-76.7263
-61.1951
-9.13939
10.559
10.9204
-18.5977
4.84892
15.7531
-6.72892
-14.1219
15.4032
1.24027
-50.8944
2.60249
-0.16461
0.749086
23.1424
-19.0808
10.8256
-9.129
-5.30446
-6.74161
11.9818
4.40441
8.76549
-5.97091
-9.76686
-18.2596
-2.65544
16.2821
10.9911
5.16221
-8.35178
-5.85071
24.6169
-25.9551
14.5108
15.4988
3.10866
3.44984
7.25723
-29.2816
-8.44853
13.1273
10.0793
12.4274
-76.1582
15.5331
4.26461
19.952
-1.55542
13.3581
17.2775
12.7049
6.67748
-43.2515
6.67794
-53.623
8.33414
8.45478
15.6898
3.91896
20.1999
4.11876
21.8505
0.945183
15.8619
1.24077
9.21984
-35.1729
13.7374
6.92583
8.3521
22.2113
14.2859
6.82062
-7.03246
7.95194
13.5401
3.41828
-31.9626
9.32242
-26.1734
17.461
-48.0225
20.7865
5.81375
28.8735
21.7105
6.03639
4.53189
-39.7789
3.50824
22.8552
-2.62374
2.04553
-1.60437
24.0906
9.22766
10.1213
20.6465
-5.92886
14.6379
-4.21411
14.8917
5.15248
13.5005
13.3462
17.9711
5.51668
-33.8127
5.56458
-49.4898
6.6589
-6.58446
-19.5207
18.9443
19.4468
3.04842
-2.54556
-2.02403
16.5864
10.4048
11.1074
10.109
-8.1521
-28.6977
-39.7866
14.6315
-15.8718
-7.00541
5.13098
7.27751
7.36044
-7.05109
24.4142
-29.8715
20.5002
-3.39224
23.2495
-11.0787
6.81763
-25.2064
2.00832
10.8264
13.9386
1.50097
-3.58875
2.21932
-12.519
18.9798
-0.467707
2.75956
-25.9328
1.46694
-2.43347
15.2152
2.07749
-37.8224
-25.745
14.1023
25.7851
-51.7084
-22.9639
11.4879
-0.182266
8.71469
-22.5611
5.60153
-1.05536
-29.6254
3.00547
-34.78
-5.96586
-2.07617
-23.6461
-64.3804
3.17879
12.0899
14.0833
12.8603
24.8982
-56.065
23.8207
-26.7573
22.6453
-86.5082
-7.07644
23.9535
7.96138
-48.7117
11.0192
4.956
12.8121
-19.9795
-39.1971
3.62458
-8.98139
-13.7106
-2.62621
-3.69797
7.57758
15.4423
-86.3557
8.02163
-15.4672
7.09985
-28.3172
2.73968
11.5251
-27.6167
-12.5344
19.4523
11.2167
21.3075
6.86402
-39.4117
7.27147
-7.06845
-23.6594
12.8061
16.4863
25.4711
11.806
13.4677
2.2361
-28.0516
24.6824
25.9523
15.5671
-4.65116
-75.0156
-53.2211
11.296
5.49375
6.02478
13.9429
-32.8344
5.61416
-44.2195
21.8432
9.14854
4.18443
-56.0882
10.7263
7.58611
28.0931
26.3856
11.5109
4.77864
2.12588
-23.3853
8.46195
26.9291
-14.7254
-22.508
6.93194
0.581348
5.23362
0.555974
-1.5717
4.02561
6.57291
7.31321
-61.6828
6.76291
18.5045
-3.04498
14.0599
-60.2767
-2.31919
22.9736
-33.903
8.47866
-4.41287
8.20476
5.93201
-48.4269
-5.87703
-25.2373
8.16012
28.2721
-29.1584
-20.0519
-50.6614
-3.77448
-20.6522
-4.27035
-45.0721
-20.8267
-25.6013
-18.5777
-6.17969
-14.0636
6.07069
-9.96432
3.93293
27.8181
4.16528
5.58421
-5.1651
5.15165
-27.8957
-5.9481
19.7381
13.8304
5.59151
2.0396
12.8369
14.3807
-2.87683
-75.1306
-19.0955
19.6716
-7.57839
13.3898
3.13442
20.7362
1.85027
-63.7316
7.96411
15.0623
-6.26329
13.3045
-5.98351
26.5435
-47.0963
-0.523505
-45.7314
9.01549
-55.5771
-8.45141
-51.4871
1.5188
0.242474
-80.3104
-26.5253
1.94235
7.71869
-25.3059
-6.2696
10.5196
-56.5417
10.2371
-56.0176
15.1568
24.3772
10.2518
-28.3505
11.7204
0.934388
8.28405
1.3164
-2.87659
-43.5248
-9.89366
-11.5663
0.0957648
2.86892
-3.7242
-23.1864
-37.2948
7.66352
14.0204
-5.50572
-52.7045
-1.20778
-81.5397
0.224505
6.63277
-18.8457
-56.2585
15.2154
-24.1787
2.8014
-13.3388
-39.6106
-41.4778
-57.8789
27.8181
6.13128
-10.5753
7.59554
23.4217
23.0355
-67.1949
-4.07819
13.9904
6.09865
-8.91775
23.7387
7.69113
8.81441
28.6803
-0.326647
-3.14757
4.7344
20.6509
14.625
11.9592
18.6314
11.2869
4.77605
1.1926
8.48971
5.68706
-30.8256
23.7944
-0.185149
-2.60408
-55.1359
-21.5668
6.11762
-56.8518
-5.50418
6.92121
12.6159
15.3602
13.8535
-41.382
20.8804
23.1304
-22.8663
8.5499
-6.27636
-2.99718
7.85664
9.93826
-26.5527
-6.85421
-5.95413
25.8457
-39.2844
14.4713
13.7541
16.913
7.03305
9.93266
-1.2407
3.84481
3.07702
0.132548
-50.4407
-14.6884
-1.0338
-42.806
16.2277
-78.9823
-15.0762
5.52212
-28.0319
-61.1331
-36.2334
11.5534
-3.60326
-9.72528
7.97851
-56.8197
6.36022
-17.6455
-3.42361
14.7579
-37.5703
24.2739
-77.4438
25.8299
-1.88014
-15.6757
3.00523
13.0068
9.97752
-19.7609
-2.35174
0.891923
2.20668
7.33234
29.0988
16.9023
2.23638
-7.10274
4.9026
6.70354
13.8355
-1.08049
10.036
-44.2291
-53.5373
-29.1775
-1.79785
4.52973
-28.9963
10.5812
8.56234
22.6267
25.0661
-33.1245
-43.2093
3.62545
-8.20553
23.7027
-17.8246
-1.13534
7.95968
11.4332
-44.0274
-12.1565
-0.209671
5.94624
9.63254
-36.1831
-3.76039
-2.6089
-5.94857
-17.7956
-0.10667
-17.9027
-15.8308
13.5191
-70.0567
-61.0547
-8.12309
13.1548
26.2688
6.22332
13.5723
-14.0332
6.51036
1.92431
3.55607
6.44671
-46.983
-30.15
23.5825
14.5435
2.63402
-28.1758
27.484
-60.4525
-29.6058
-40.9192
3.16806
-58.0519
-43.3929
20.5515
2.0498
10.7515
7.65874
-38.6653
13.6705
-10.3392
7.49966
-18.9024
2.89473
7.04958
12.5044
-54.1081
-29.8853
-15.0851
-10.2885
-9.37629
-9.00822
25.9459
10.7066
-78.2904
2.47467
5.96594
22.0033
5.37917
-30.075
4.11833
17.6156
12.6825
-10.081
13.3312
-4.16249
23.3789
3.9725
14.8861
-41.968
-8.81775
-68.0239
-50.2493
3.66431
7.00725
-29.8647
-60.2386
15.1693
-4.48058
1.49781
18.9631
12.0823
18.4381
13.3804
-10.0556
2.14319
3.14287
11.9561
0.270639
15.6543
7.12529
23.2409
-44.5191
17.9391
1.2831
24.0542
-35.9281
-5.27622
24.2548
-48.2745
6.59878
-39.8706
20.0129
23.5123
14.9345
-13.8585
13.9258
16.9404
-22.797
8.43276
-59.891
18.2086
-53.1089
-27.1873
-44.7382
-46.0702
16.6115
1.3421
-56.2214
6.91764
23.3606
-2.13711
1.46011
-47.5101
-7.74457
8.08901
-6.36928
13.6794
11.65
-49.2592
26.6602
4.02427
20.2794
18.5348
-15.9057
-9.195
9.99768
-13.9976
-6.56191
9.28177
7.78606
-1.54008
11.6385
-36.4762
22.5116
15.6068
5.89832
-10.2971
13.1277
-27.1262
10.6181
16.969
4.12422
-49.4425
16.4973
13.1193
-7.02282
-28.0581
6.87285
13.8745
23.2807
-28.791
24.9065
25.4614
25.3716
-6.8585
16.3195
-43.3875
14.068
17.2632
18.131
13.7702
19.4465
28.0211
13.1915
-29.0795
-8.31283
-30.7004
27.862
7.24154
-7.25088
-50.7609
14.4875
21.0563
12.7709
6.0596
-1.94001
20.2968
-18.6056
12.8596
-54.4789
8.19571
4.06847
-2.85613
8.31491
-43.4527
-51.487
-32.1852
-9.59303
-1.00886
15.9941
0.778206
1.75043
11.6697
-33.6057
4.05341
-69.1602
-33.0736
-41.1557
-29.7073
18.5667
20.8867
-57.5511
9.44853
17.4564
17.8391
2.82395
-84.7287
13.6328
-29.763
18.7847
-31.3355
18.2403
10.8227
4.48376
17.3991
9.1184
17.2526
6.24054
8.51852
-6.45669
-27.8274
-36.1286
-5.69999
16.9217
-75.7882
-50.269
-69.2219
21.1771
16.7949
7.68871
8.00117
19.9572
-15.3796
11.7804
-3.9479
-7.45964
11.7962
-63.7524
-40.5647
-8.21108
-33.8055
-4.9718
-81.2092
-4.62178
-57.1779
-28.0884
9.68245
23.886
26.3339
22.4135
-82.4402
12.9727
-41.7178
11.665
20.5024
4.78031
16.6138
-63.766
6.43527
-7.87626
1.75584
18.1846
-4.09437
14.0928
-44.9835
-0.243305
-36.0661
15.7491
14.0265
13.9637
-37.3177
11.8159
-24.8408
-53.5087
-48.6751
6.30746
23.8311
-18.7378
-13.439
-58.2443
13.336
13.7533
3.61149
10.2343
-41.2334
20.2989
20.1455
-48.232
0.330152
19.1372
-62.8974
-61.2335
2.75076
17.7818
19.8052
-41.1329
5.81732
1.88474
23.5052
-48.9129
-48.3254
1.64091
21.5569
2.5511
-6.33333
-11.5334
17.75
12.0688
17.9
1.27531
-16.8541
13.8705
27.3141
-28.7586
9.23174
2.33621
-40.2703
2.53571
6.70801
-50.2762
5.37817
-33.8593
10.5691
-31.9385
-16.5323
16.2928
19.6672
11.8074
-13.1348
-41.832
13.9978
-42.3278
0.174554
-7.09555
6.84687
-44.0171
15.9487
14.1725
2.32732
12.7644
22.7788
-17.3551
7.7629
15.4881
-43.5992
10.4118
-2.45521
6.32017
-1.46641
12.2402
1.09795
6.54205
-1.91274
-17.2255
18.208
-0.631437
10.125
-65.9694
-7.01487
14.4602
-48.8124
25.255
-38.8957
-34.4775
-18.2271
17.5812
14.0851
17.2009
-28.7423
21.7343
-60.9113
7.15456
-0.492899
-23.5323
13.6371
6.90663
-2.21241
7.0065
-29.3735
12.3912
-35.4167
-66.4434
-1.84927
-28.4934
-29.604
9.55487
22.5545
-10.6348
-43.8532
16.542
-18.2671
20.0133
0.385326
2.99828
10.8526
14.4199
7.08797
-19.2291
-12.0749
2.40259
6.27416
7.67015
-26.1587
-62.665
3.00477
3.41154
3.31841
28.1543
13.0045
13.983
20.1812
5.12795
15.6233
-51.7416
-29.1572
-76.7404
13.9845
27.5407
11.7965
-5.95033
18.3037
10.0138
10.5252
-12.6904
2.41947
7.6763
25.396
-25.7779
-14.952
19.6324
18.7321
12.1284
12.7979
15.97
9.28971
-21.1784
-87.0649
13.7439
-28.8176
-27.9231
13.7045
-82.3069
-10.4186
-2.35704
12.7605
13.3733
14.168
2.29176
17.1852
17.6476
7.36813
14.8297
12.7379
14.859
12.9056
5.08168
6.72102
3.93427
17.285
14.5713
7.40084
9.87057
2.10935
-19.2413
22.3897
15.4985
0.926365
-53.5355
8.37544
16.0571
6.41443
6.69727
2.17404
1.47262
-43.4328
3.78378
-50.6266
0.388583
6.09832
-11.7282
-40.5417
-37.6026
20.7184
-49.4064
-26.0702
-62.7279
22.8486
-25.7165
7.51201
5.61185
-52.9365
13.2838
13.5885
4.77385
19.199
10.1171
2.90026
-29.4921
-55.4525
1.616
16.8468
10.3613
-40.6199
-46.1295
-24.5244
-31.3671
-62.3967
-19.0385
-1.60795
7.32197
13.9199
16.5365
-20.3116
-3.4572
19.3508
14.7852
-40.2613
2.295
-29.8828
6.0932
-1.58755
7.81911
12.6063
-2.61943
-28.2432
-35.9548
6.51194
-70.1894
-29.5089
-1.2629
-80.4189
-31.8629
-57.6783
-62.3302
-0.765605
-29.4789
7.0139
-38.9954
14.2055
13.0998
4.15095
17.8232
-82.1508
22.5661
-13.9692
3.27794
-7.4822
12.8803
8.24901
-28.0892
-30.1569
14.609
17.2495
23.5915
-52.0842
-30.4535
-88.4801
-0.460268
0.913977
-37.9912
-1.30847
-44.2118
8.07853
-41.8806
6.66521
-9.51054
2.386
20.6409
10.663
-3.90802
11.9629
-11.7664
-28.9101
19.0605
26.2526
-29.3568
15.1383
12.5333
-0.116815
-16.7564
17.344
17.2105
-17.8801
-20.4931
-79.1195
-86.0809
-6.62957
-45.3118
-5.05345
11.4051
0.441749
15.7954
-36.1851
-57.6515
13.7278
-5.53819
-46.5372
3.59466
12.9112
-47.9484
-2.57138
-53.6081
-38.6164
-44.9437
24.0139
-28.9139
0.643801
-47.0209
14.5006
-39.1515
-3.7009
-18.4195
-56.2713
-6.79524
14.3202
-3.5079
-39.8141
11.1458
-2.13371
-33.0959
-26.1007
-40.6574
6.42463
8.92993
14.0679
-29.1351
19.8234
-27.8801
0.521457
-17.256
-15.1746
-87.1782
-38.9013
-45.7903
7.34784
7.78078
-12.7289
0.504888
-12.945
10.9478
-66.6388
14.2124
-42.3935
10.2428
-5.60687
-19.9917
7.07266
29.3856
-16.2895
-49.9031
-20.9943
-15.656
13.973
-22.4069
6.57183
6.10921
-34.9045
-51.1916
-28.1559
-43.3771
12.7675
-46.0048
4.51272
-45.4088
1.95281
11.2663
-15.9979
1.43514
-3.15479
16.7289
-34.7646
-42.8672
18.3327
5.73192
-37.0587
0.458088
-35.5571
-12.7806
-0.848305
16.6342
-69.9308
8.3873
-30.1297
-34.3711
-45.3764
-40.2617
-30.9142
3.52461
-15.8856
13.9011
7.84096
-59.9262
23.8685
-88.4362
17.3843
19.4568
-53.1316
4.29872
14.2522
13.8217
7.29838
-46.9367
-36.1361
-29.1612
13.9992
6.35117
-17.9181
-30.6562
4.17465
17.0615
0.991796
11.5197
3.53205
18.0806
-10.4907
-11.9144
-11.7072
12.7514
4.85476
6.03572
19.9406
17.1136
-11.5382
-73.4852
16.2855
9.03752
2.24512
9.62864
-14.0763
-41.8232
-31.9389
-65.6128
17.1782
12.419
1.06182
-7.34835
2.97312
-12.8932
13.3456
-78.5002
6.74946
16.9195
18.5258
-40.7164
13.7499
9.40025
13.0552
14.2908
1.73807
14.5115
-3.34744
14.3257
10.5225
14.9156
-45.1109
16.9977
15.6948
13.1106
11.1704
-40.4283
7.00197
-10.8822
-11.0196
17.3994
19.9359
-85.0368
19.424
-56.918
-28.7359
13.5145
14.4463
-18.6598
1.50903
-30.9501
-79.7406
-5.49655
-62.4539
-21.2202
0.227969
11.1647
25.8568
15.7888
-24.7478
-46.3323
12.7572
8.98727
-29.3065
-47.1932
-43.4675
-11.2537
-28.4444
-26.9941
13.673
-0.609459
8.31006
2.93221
2.60268
3.74387
2.0346
7.35903
3.49772
12.1879
-12.8581
1.08932
-23.0001
-71.7825
8.73031
9.42041
1.7201
-15.1354
11.4064
5.311
8.1164
-8.96375
13.9518
10.4927
21.4892
14.0493
-50.8273
-0.115672
-7.48434
-38.9173
3.47955
-18.582
-7.90175
-81.3087
26.1934
-1.39751
0.109582
19.5644
-55.9425
-3.72806
-25.2644
-49.0665
-30.7761
-3.04658
-8.74751
10.9478
-10.4469
-47.8086
6.55411
-50.5341
-8.74595
-27.529
-0.910106
12.1941
-48.2305
-62.5759
-9.71731
6.79489
-14.637
14.6652
20.2274
-41.0683
14.8979
5.75443
11.3821
22.981
-51.8825
10.3067
7.69514
8.01348
18.693
0.650561
-0.388146
-25.8986
14.216
20.2513
-69.5819
-2.96159
-22.1017
-14.8153
9.21126
-46.4555
-15.6731
-49.8218
8.12075
-29.3059
4.51897
6.5679
13.154
3.41326
-28.6201
-3.40246
-10.2554
-8.83335
21.8946
25.1804
17.3152
26.9122
13.7655
17.0144
13.4178
10.6645
14.9476
-25.6747
13.0516
-0.181992
-28.0275
19.992
-2.22092
-12.1534
24.1659
3.20586
-75.1555
9.25945
8.23421
16.901
-18.6175
13.6773
22.8799
-53.5683
-28.4107
-13.3642
9.15543
-39.4117
16.3228
1.21644
17.2003
14.0203
-61.592
15.1298
-5.42676
-29.4725
-29.1252
-84.2666
14.9205
-16.6909
14.0903
4.73121
-40.5566
-2.88865
0.636792
-6.90566
-54.3926
-31.7849
15.4975
5.40671
-42.9527
-1.55045
11.1649
5.10024
-86.7572
9.07782
-20.6384
8.83852
-44.5718
10.6762
6.3175
3.68751
-0.309866
12.6362
8.4164
6.69082
-34.2099
26.7305
-8.24152
-53.3706
12.7582
10.55
-45.059
-12.0511
-41.3069
4.96397
5.17716
-13.92
1.46702
-0.190604
27.1027
0.757695
-62.5334
-3.27334
-7.15839
5.99281
-4.55329
11.6611
11.2067
-38.8187
8.65582
-29.8428
7.01071
6.74489
12.127
11.3764
1.08703
0.669231
4.6751
14.7902
7.2875
-1.97657
-44.4486
-2.30745
-3.56126
13.4611
-49.1669
6.1404
-30.3567
14.8474
-42.0823
0.184273
17.2635
15.4367
9.60755
-48.7272
-29.7659
15.0747
2.28311
16.9408
9.46577
6.41164
13.902
6.89592
6.60307
6.10176
-8.40063
-24.5267
11.4041
-20.4685
17.8777
5.82596
27.4148
2.3488
6.26867
15.8972
4.44284
5.56644
14.5734
8.89572
8.00641
-19.3191
-8.06255
12.1766
8.39382
2.53436
-81.7112
-5.31927
-59.9496
-45.6878
-10.6254
13.2862
-23.9882
12.3615
2.61727
23.2944
19.0306
7.63856
9.15831
7.37103
-36.3139
14.3954
9.42292
3.77718
6.82865
16.5279
13.931
-7.16287
-67.6246
-14.5396
10.2987
4.29346
6.81291
14.7424
-83.5081
10.2261
-18.5998
12.729
8.71216
-8.07553
8.25794
14.8588
0.461999
12.4768
16.5715
3.83004
-11.6589
10.4131
4.16715
20.7699
-28.7392
18.4625
14.5872
-41.3695
-36.8865
-70.9577
-8.90046
-44.3999
-58.8626
13.7709
19.2937
15.8584
19.0673
11.2357
17.3025
8.23057
0.783471
8.67726
-11.0478
4.40341
10.877
3.9246
21.055
6.89523
-34.719
11.6327
19.7124
21.3985
-62.9339
6.33469
-44.3542
-28.0144
9.07138
-0.0276944
-59.8758
10.0076
22.4803
-31.4348
-28.6825
-49.8264
8.29067
1.7749
4.99072
11.3635
11.5397
-29.0342
-3.61392
-3.94534
-40.6506
13.8602
13.5622
14.7938
4.42271
-8.72203
5.64171
-1.27203
-28.4391
4.03695
10.5669
7.6486
6.57201
-4.24839
-4.92878
-26.9605
13.1516
-38.8318
5.2252
15.8756
8.50812
6.49083
-38.2156
-61.1836
-16.0306
11.3237
3.62607
-9.14424