/*--------------------------------*- C++ -*----------------------------------*\
| =========                 |                                                 |
| \\      /  F ield         | OpenFOAM: The Open Source CFD Toolbox           |
|  \\    /   O peration     | Version:  2306                                  |
|   \\  /    A nd           | Website:  www.openfoam.com                      |
|    \\/     M anipulation  |                                                 |
\*---------------------------------------------------------------------------*/
FoamFile
{
    version     2.0;
    format      ascii;
    arch        "LSB;label=32;scalar=64";
    class       surfaceScalarField;
    location    "3.8";
    object      phi;
}
// * * * * * * * * * * * * * * * * * * * * * * * * * * * * * * * * * * * * * //

dimensions      [0 3 -1 0 0 0 0];

oriented        oriented;

internalField   nonuniform List<scalar> 
7520
(
-0.99866
0.763014
0.235645
-1.30805
-0.241756
1.5498
0.0204721
-1.76101
1.74054
0.239481
-0.0328674
-0.206613
-0.0363883
1.42563
-1.38924
-0.091047
0.0978871
-0.00684011
-0.286082
2.07534
-1.78925
-0.19904
-1.62221
1.82125
-1.3634
1.38388
0.861663
-0.0686516
-0.793011
-0.149386
-0.145465
0.29485
-0.243477
-1.72247
1.96594
0.715202
-0.107147
-0.608055
-0.10102
0.139741
-0.0387217
-1.7739
0.894317
0.87958
0.165156
1.56344
-1.7286
-0.136514
-0.0244266
0.160941
-0.137236
0.234702
-0.0974663
0.0434244
0.0315078
-0.0749322
0.0450579
-0.181572
-0.401064
-0.272875
0.673939
-1.06143
1.22659
-0.03145
-0.319545
0.350995
0.143558
-0.144053
0.000494535
-0.0272876
-0.00395822
0.0312459
0.258699
-0.251412
-0.00728704
0.851576
1.15437
-2.00595
-0.0349804
0.321073
-0.286093
-0.0449592
0.0883836
0.201005
-0.0318551
-0.16915
-1.15286
1.75699
-0.604132
-0.0490043
-0.0185857
0.06759
-1.73414
1.94457
-0.210432
-0.306516
0.383413
-0.0768972
-0.251905
-1.2433
1.49521
-0.597721
1.00887
-0.411151
0.277586
-0.555838
0.278252
0.840962
-1.57391
0.732948
0.0910261
-0.322455
0.231429
-0.0454146
-0.102888
0.148302
-0.0286461
0.268127
0.442794
0.364415
-0.807209
0.293769
-0.0350707
2.30374
-1.65683
-0.646916
-0.542408
-0.630798
1.17321
-1.49099
1.61287
-0.121875
0.0253022
0.0963318
-0.121634
0.270224
-0.0796991
-0.190525
-1.35388
0.20102
0.28056
-0.077883
-0.202677
1.83771
0.122636
-1.96035
-0.728539
0.267565
0.460974
0.167446
-0.186331
0.0188842
1.04554
0.481278
-1.52681
0.0146431
-0.10569
-0.780326
0.125717
0.654609
0.367224
-1.28683
0.919604
-0.0422875
-0.126207
0.168494
-0.12039
0.0713858
-2.2303
1.08618
1.14411
1.24751
-0.831338
-0.416169
-0.0134929
-0.0327101
0.0462031
-1.23945
0.987542
0.839582
-0.124381
-0.0680572
0.235504
0.00405426
-0.105074
1.0933
-2.2057
1.1124
0.177323
1.66039
-1.26129
0.999953
0.261336
0.321809
-0.243774
-0.0780357
-0.529947
0.897171
0.215988
-0.916918
0.70093
0.345138
-0.0952067
-0.249931
0.473644
-0.501817
0.0281731
0.673437
-1.46969
0.796252
0.130067
-0.113707
-0.0163601
2.23877
-0.927832
-1.31093
0.415539
-0.771853
0.356313
1.74998
-1.23847
-0.511512
-0.837665
0.0573393
-1.4943
-0.735998
0.989846
0.322026
-1.31187
0.236582
-0.623182
0.386601
-0.00478508
-0.30173
0.129913
-0.267149
0.218245
-0.0172403
0.0185145
-0.0468269
0.0283123
1.1785
1.06026
-1.72879
1.9162
-0.187409
1.02333
0.224174
-0.959625
1.12346
-0.163831
0.0974964
0.0717557
-0.169252
1.38098
-1.62446
0.247693
0.199215
-0.108189
0.437568
0.308934
-0.746503
0.00775464
0.0849692
-0.0927238
-0.539232
0.386039
0.153193
1.39041
-0.716977
-0.734532
0.639196
0.0953358
0.817321
-0.915539
0.0982173
-0.0892614
0.112615
-0.0233536
0.00415997
0.00200749
-0.00616746
2.26078
-1.34853
-0.912258
0.541256
-0.453468
-0.545191
-1.35322
0.823276
-1.8112
1.52511
0.17198
-0.0804843
-0.0914958
-0.238536
0.0891507
-0.161433
0.160216
0.00121659
-0.218584
0.302516
-0.0839312
1.91104
-1.07008
0.429177
-0.171868
-0.257309
-0.753016
0.351952
-0.0506109
-0.0167019
0.0673128
-0.190245
1.18009
-0.784606
0.451755
0.332851
1.24596
-2.03726
0.791302
0.0405743
0.102984
-0.201383
-0.527157
-0.363649
0.0753003
0.288349
1.08197
-0.220305
-0.547804
0.523501
0.0243029
-0.087469
0.342795
-0.255326
0.0731519
-0.0694466
-0.00370531
0.701756
-1.80407
1.10232
0.392132
-0.423582
-0.351162
-0.0616067
0.412768
0.255259
0.173918
0.206164
-0.119013
-0.0871501
0.14839
0.0323994
-0.180789
-0.0646988
0.213089
-0.623997
-0.160609
0.130508
-0.688126
0.557618
-0.716054
1.61741
-0.901359
0.383236
-0.40819
0.024954
-1.15175
-0.201471
-0.0341345
-0.0507374
0.0848719
1.41157
-0.366034
-0.643383
0.422755
0.220628
-0.00194994
0.120717
-0.118767
0.293955
-0.0760034
-0.217951
0.233413
-1.99442
0.335445
-1.82644
-2.13386
0.859149
1.27471
-0.8587
-0.40259
-1.22802
0.971333
0.256689
1.88385
0.219
-2.10285
0.183997
-0.229411
-0.0432042
0.937682
-0.894478
-0.296224
-0.438542
0.734767
-0.000605458
-1.22742
-1.7513
0.0171605
0.00659549
0.011919
0.0653159
-0.125533
0.0602172
0.291203
-0.333491
0.813076
0.00424597
-0.158166
0.129519
-0.020755
-0.00738174
0.0281368
0.764272
-0.430355
-0.333917
-0.487445
-1.28645
0.0540072
-0.350232
0.0467886
-0.592037
0.545248
-0.000679704
-0.113351
0.114031
-1.59093
0.935766
0.655162
0.550058
-0.586446
-0.0524993
0.449049
-0.39655
-0.0329064
0.00561872
0.521659
-0.242813
-0.278846
1.02621
-0.588637
0.241527
-0.31941
0.934489
0.232238
-1.16673
0.304026
-0.339007
-0.297165
-1.50777
1.80494
1.26826
0.676182
0.688967
-0.452385
-1.26288
0.665164
-0.691807
0.923884
-0.232077
0.00200635
-0.0327494
0.030743
0.275933
-0.326163
0.0502299
-1.28968
1.09944
-0.276378
-0.150998
0.427376
-0.0566296
0.0559499
-0.851612
0.8984
0.485347
-1.04688
0.561535
-0.511753
-0.0274792
0.684778
-0.407192
0.141009
-0.0109418
-0.16655
-0.054671
0.221221
0.0557544
-0.274339
-0.344153
-0.132887
0.477039
0.133561
0.211576
-0.720603
-0.749085
-0.776128
-0.8148
0.077003
-0.21855
0.141547
1.51556
-0.735579
-0.779982
-1.05923
0.343179
-1.15548
2.12719
-0.97171
0.362642
0.159017
-0.070667
-0.0596577
0.130325
-0.781496
0.580113
0.605892
-1.1483
1.73096
-0.0512558
-1.67971
-1.49936
1.99502
-0.495666
-0.0249262
0.0902421
0.478675
1.34265
-1.82132
0.0342532
-0.170008
0.135755
-0.113107
1.77307
-1.65997
0.00155145
0.110673
-0.112225
-0.876104
1.2293
-0.353191
-0.12365
-0.657846
0.0856152
-0.429768
0.30482
-0.228193
-1.6059
1.83409
-0.0400985
0.0716063
-1.60316
0.882553
0.280495
-0.0824523
-0.198043
-0.2506
0.163131
0.111634
1.58723
-1.69887
-0.581116
-0.553776
1.13489
-0.519653
0.41485
0.104803
2.37665
-1.55292
-0.823724
0.445716
-1.02683
-0.283522
0.321534
-0.0380114
0.109996
0.726703
-0.836699
0.0506748
-0.053782
0.0031072
0.819187
0.8198
-1.63899
-0.226552
-0.50798
-0.0596934
0.169177
-0.109483
-0.905773
0.688484
0.217289
-0.0780416
0.0411727
0.0368689
1.15717
0.35839
1.07239
-2.04488
0.97249
-2.78096
1.27526
1.50569
-1.21634
-1.56462
-0.379556
0.476392
-0.0968363
0.0290431
-0.215247
0.186204
0.49969
-1.40704
0.907348
0.0292687
1.07885
-1.10812
-0.773388
1.09541
1.14959
-0.215104
1.02007
1.10193
-2.12201
-0.184867
0.08776
0.0971075
0.0473028
-0.953076
1.86541
-0.481404
-1.384
0.137377
-0.103124
0.0419588
-0.212067
0.187641
1.04436
0.821044
0.212684
0.683879
-0.896563
0.364345
-0.0432714
0.0235458
0.0226876
-0.0462333
-0.0635737
-0.112477
0.17605
-1.85968
0.89136
0.968318
-0.213401
0.242444
0.879048
-0.748541
0.522121
-0.0274788
-0.494642
0.137104
0.13312
-1.92845
1.86839
0.0600593
1.17546
-0.690116
-0.0160532
0.235468
-0.219415
-0.0291937
-0.0196199
0.0488135
0.120312
-0.215519
1.67123
-0.577929
0.0422517
-0.116561
0.0743094
0.0044928
-0.0252478
-0.377588
0.232124
0.993506
-0.684571
-0.674429
0.703698
-0.266834
0.100284
2.07534
0.0184414
-0.0189478
0.000506365
0.0447277
0.948778
-0.207594
0.134901
0.0726929
0.0280512
-0.0238912
-0.283455
0.726249
0.981954
-1.02516
0.42002
-0.374063
-0.0459565
0.310656
-1.18676
0.136021
0.0701429
-1.69524
1.46705
-0.284924
0.00140126
-1.89428
0.224424
-0.226374
-0.0717403
-0.0668731
0.138613
-0.628007
-1.23167
1.31141
0.949369
1.74683
-0.811066
-1.72247
0.1365
-0.684305
0.0143077
0.319885
-0.334193
0.176945
-0.252359
0.0754134
-1.24791
0.617114
-0.19751
-0.266607
0.464117
0.395656
-0.464307
-0.112122
-1.89622
2.00834
0.980861
0.182698
-1.48008
1.29738
0.893946
1.05063
-0.822445
1.48865
-1.00997
-0.0478699
0.393676
-0.345806
-0.891641
0.742679
0.148962
0.0672222
-0.0249705
-0.0819859
0.330223
-0.248237
-0.276877
-0.237838
0.514715
-0.521903
1.79017
-0.275526
-0.378147
0.653673
0.183966
-0.158664
0.262071
-1.2217
-0.0289294
0.0524752
0.00862571
-1.88305
1.03475
0.848295
0.362954
-0.470101
0.00860183
-0.0338025
0.417039
0.998773
1.37787
1.66008
-0.549734
-1.11035
0.12309
-0.0447418
-0.0783483
0.786705
0.963273
0.22116
-0.206852
0.72668
-1.9133
1.18662
0.143067
-0.112577
-0.0304894
0.504051
0.886362
-0.222042
-0.100414
0.758461
-0.545777
-0.55726
1.40884
0.161316
0.010664
1.90207
-0.656113
0.14642
-0.138665
1.75566
-0.0955785
0.103242
0.404888
0.0151316
0.0169855
0.304824
-1.68856
-0.849002
0.986475
-0.137472
0.00589173
-0.119599
1.76825
0.042907
-1.81116
-0.717956
0.442429
0.225774
0.0681808
-0.313399
0.0696255
0.00276839
-1.24123
1.56457
-1.57923
0.0146572
0.027496
-0.325647
0.298151
-0.909785
1.41384
-0.814956
1.51671
0.0654323
-0.0379363
0.78483
-0.333075
1.97278
-0.591804
0.00511981
0.121116
-0.126236
-0.0918037
-0.0734736
0.165277
0.120379
0.00271153
0.0653535
-0.796864
-0.134004
0.0906918
0.0433127
0.524931
1.09248
-1.71906
1.4219
0.115982
-0.467144
-0.750735
0.966723
-1.16328
1.34701
-0.183733
0.53772
-1.86618
1.75307
2.09924
-0.920739
1.20242
1.10132
-0.07049
0.298571
1.266
-1.31057
0.285565
1.02501
0.253692
-0.285547
-0.0325376
-0.180863
-0.21832
0.153622
-0.0322662
-1.62456
0.574179
-1.21515
0.640974
-1.40502
0.498402
0.906614
-0.142852
-0.774066
0.0680747
-0.0815676
0.0862642
-0.0129424
0.222537
-0.209595
-0.539932
0.487432
1.09101
1.00823
-1.49936
0.0361648
0.0369871
1.65665
-1.45061
-0.206045
-0.430202
1.77285
-1.45341
2.4367
-0.983285
-0.788178
1.03451
-0.246334
0.12164
-1.36109
-0.250349
0.0351015
-0.270764
0.427985
-0.157221
-0.012677
0.0146845
1.33707
0.705949
-1.2919
0.585946
-0.00209509
-1.5691
1.57119
-0.0533186
-0.108114
0.0132782
-0.477627
0.464349
-0.91277
1.64238
-0.729615
0.202162
-0.140282
-0.0618802
-0.559079
0.914986
-0.355907
-1.99151
1.74975
1.98294
-0.456292
-1.52665
-0.0136803
-0.0392734
0.0529537
0.00233479
0.174611
0.106033
-0.617786
-0.843976
1.66316
-0.0597537
0.00914282
1.73096
-0.958931
1.06893
-0.0143997
0.0143997
-0.145829
0.225234
-1.95402
2.24662
-0.926229
-1.32039
-0.700052
0.875559
-0.175507
0.0660056
-0.276547
0.210541
1.03078
-1.16354
0.132762
-0.544926
-0.269704
0.814629
0.900379
-2.00758
1.1072
-0.078761
-0.81288
-0.221375
0.129571
-0.239904
-0.556863
0.796767
0.76563
0.430127
-1.19576
-1.32279
-0.427879
0.685471
-0.257593
-0.775058
1.09959
-0.324533
1.47214
-1.3605
-0.158752
0.024748
-0.153103
-0.00169959
0.475344
-1.14906
0.922826
0.226236
-1.53617
2.19447
-0.6583
-0.0169925
0.132314
-0.115322
-1.42983
-0.775869
-0.0474218
0.00246255
-1.62926
0.473781
-0.371758
0.289772
-0.272915
-0.515263
0.0927387
0.0503281
-0.661309
1.68138
0.0440643
-0.363609
-1.53641
0.134057
1.40235
0.883037
-1.17663
0.293594
-0.875234
0.183427
0.217277
-0.574223
0.356946
1.5916
-0.120054
-1.47154
-0.0013891
-0.0794183
0.0808074
-0.366278
0.75341
0.488903
-1.24231
-0.463364
1.35768
0.262417
0.668602
0.742968
-0.0281011
1.5657
0.189962
-1.40264
1.40055
-0.159552
-0.0194799
0.179032
-0.196429
-0.060875
0.257304
-2.02228
0.56887
-0.173942
0.538356
-0.617377
-0.231625
0.254423
0.879707
-0.332992
-0.546715
0.19403
0.0997397
-1.11168
1.87208
-0.760408
0.165538
-0.239012
-0.0761615
0.352095
0.25898
-0.529744
-0.138712
-0.0983378
0.23705
0.327003
0.0131192
-0.340122
0.653223
-1.12862
0.475401
0.00345487
0.0340078
-0.0374627
-0.294284
0.327354
-0.0330698
0.153409
-0.514755
0.361347
0.308922
-0.0552295
0.00120959
0.438795
-0.440005
1.22637
-1.04901
-0.956937
-0.432268
-0.384524
0.816792
0.10701
-0.0354033
-0.284558
-0.235095
1.10808
-0.22837
0.0132204
-1.24137
1.22815
-0.347162
-0.0164866
-0.0559054
-0.568091
-0.457734
-0.101345
0.170593
-0.169041
-1.56844
-0.0351823
-0.0804894
0.115672
1.25263
-1.02039
1.07677
0.906174
0.462866
0.0592554
-0.190674
-1.62779
1.81846
0.643517
0.542184
-1.1857
-0.177729
-1.04708
0.620027
0.427057
1.32646
-0.443422
0.0548739
-0.102412
0.0475379
2.18015
-1.19131
-0.988841
0.137072
-0.308287
0.171215
0.652359
0.470147
-1.12251
0.0713756
0.102825
-0.1742
1.67196
0.0293195
-1.70128
0.167137
0.0675653
-0.256309
0.300373
0.0833184
-0.0309535
-0.0523649
0.307327
-0.177414
0.0548035
-0.00838621
-0.0464173
-0.543912
-0.661006
1.20492
1.10017
0.491429
1.0156
-1.00238
0.431007
-1.34378
-1.83358
1.72146
0.156972
0.185822
0.270547
-0.610723
0.340175
0.77191
0.974922
1.13284
-1.35196
0.219113
1.2215
-0.552902
-0.136552
0.0918107
0.100503
-0.203202
0.102699
-1.42239
-0.329257
1.75165
-0.402803
0.438051
-0.035248
-0.00302418
-0.0113755
0.355489
1.07014
-0.139357
-0.0455103
1.04901
-2.08238
1.03337
-0.889986
-0.230067
1.12005
1.6297
-0.557303
-0.13251
0.560874
-0.999416
-0.265607
0.00438411
0.261223
0.0196256
-0.188776
-0.493903
1.19985
0.0136555
0.0370193
0.0199854
0.149234
-0.169219
0.0301351
1.00064
0.0058857
-0.694011
-0.441192
-0.418219
0.493519
0.675909
-0.948824
-0.315092
0.143224
-0.0361749
0.223816
-1.9451
0.896091
0.0568779
0.118386
-0.175264
-0.234774
0.148074
0.0867005
0.215479
0.863371
-0.03772
0.00500984
-0.028713
-1.62453
1.65324
-0.0674386
-0.559688
0.627127
-0.027973
0.066179
-0.038206
-0.650631
1.22481
-0.16347
-0.343698
0.507168
-0.28134
0.498617
-0.381016
1.56401
-1.183
-0.706593
0.544127
0.162466
1.94677
-0.0629176
-0.233975
-0.081286
0.315261
0.163823
-0.282837
-0.180036
-0.22453
1.03896
0.877244
0.34362
-1.32683
0.983211
-0.804742
-0.184741
0.989483
0.230398
0.0902082
-0.320607
0.068976
0.297232
-0.366208
-0.192823
0.195458
-0.002635
0.0767142
-0.105644
-0.988245
-0.0109517
0.00699347
0.0198722
0.032603
-0.12551
0.395317
-0.269808
-0.231946
0.267178
-0.0352318
-0.177094
0.0792757
0.0978179
0.789982
-0.375818
-0.0562111
0.00938419
-0.2526
-0.578218
0.830818
1.19733
-0.981849
0.00755314
-0.347883
0.34033
-0.457108
-0.458431
-1.35997
1.53729
0.90689
0.0307918
-1.30308
0.829126
0.473949
0.225173
-0.0959839
-0.129189
1.73558
-1.73558
-1.61168
0.117382
-0.99137
-0.244925
-0.623559
0.868484
0.57086
-0.547226
-0.0236347
-0.134271
-0.398329
0.213803
0.184526
-0.0174945
0.211592
-0.194098
-0.522278
1.25621
-0.733927
-0.0466437
-0.156031
0.202675
0.802239
-0.6806
-1.05249
0.247744
-0.0399984
-0.216458
0.256457
0.029771
-1.34035
-0.571636
-1.21829
0.646659
0.790393
-0.00826654
0.236633
-0.228366
-0.275378
0.334211
-0.0588325
-0.230105
0.170411
-0.083419
-0.168726
0.0969855
0.0366177
-0.0585258
0.013553
0.0449729
-0.18328
-0.0199229
-0.363534
0.364744
0.147184
-0.166705
0.0195206
-0.0976976
-0.100611
0.198308
-0.347103
0.164951
0.182152
-0.0655313
0.171946
-0.106415
-0.684451
1.32542
0.612497
-1.12005
0.507554
-0.154488
-0.0798469
0.234335
-0.0781522
-2.172
2.25015
0.884834
-0.586089
-0.298745
0.431365
-0.0597103
-0.192648
-0.037885
0.0211831
-0.0557722
0.192844
0.304881
-0.980533
0.675651
-0.480942
-1.44751
-0.200695
0.83644
-0.635746
0.26457
-0.0093114
0.409124
-0.275205
-0.133919
0.315207
-0.567807
-0.381683
-0.235768
0.125521
0.110247
-0.532959
0.335448
-0.160111
0.582866
-0.0494463
0.0202526
-1.48159
0.133065
-0.288771
0.54775
0.0080288
-0.229403
0.251117
-0.148417
0.303388
-0.311655
-0.0841841
-1.2853
0.600846
1.95477
-0.181697
-1.6059
2.22864
-1.0961
-1.13254
-0.0873974
0.473436
-0.0845187
-0.753146
0.528636
-0.472881
-0.248046
-0.0175612
-0.595996
-0.408827
1.00482
-0.0517941
-0.0411122
0.0929063
0.0156538
-0.874353
-1.92493
-0.326652
-0.325133
0.651785
0.359977
-0.427416
-0.247181
-0.0375324
0.284713
0.47273
-0.0805977
0.165556
0.059617
1.97598
-1.0756
-0.917805
0.321809
-0.254418
-0.0492358
0.303654
-0.0465914
-0.0914666
-1.07207
-0.168615
-0.155945
0.324559
-0.0854657
-0.0349245
0.905903
-1.17613
0.270227
-0.66582
-0.0536767
1.78925
0.165706
-0.743923
1.22517
-2.05618
0.831011
-1.99101
1.28968
0.701337
0.153856
0.104787
-0.258643
0.148044
1.19454
0.036011
0.855118
-0.891129
-0.0398199
-0.0767413
0.107578
-0.121259
-0.0220019
-0.280139
0.302141
1.2034
-1.39408
0.260418
-0.064174
0.129772
-0.0655977
-1.48675
-0.124935
-0.588248
-1.09638
0.664113
0.109144
0.00362689
-0.112771
-0.622705
0.306284
0.316421
-0.398822
0.350953
-1.0959
-0.578968
1.67486
-0.0793371
0.268021
-0.202015
0.39775
-0.554466
0.156716
-0.957021
1.45542
-0.160183
-0.908463
0.208411
0.747911
0.131137
0.843608
-1.36589
-0.033143
0.0553111
-0.022168
1.18007
-0.343974
-1.04527
-0.34722
-0.0742401
0.42146
-0.0538165
0.207438
-0.105209
0.154503
-0.0492946
-0.0690773
-0.198071
-0.0204367
1.00239
-0.252338
0.309748
-0.0682217
-0.423779
0.389976
-0.176513
0.0537827
0.12273
0.252203
-0.108891
-0.143312
-0.147557
-0.0409289
0.188486
0.00150913
-0.0972478
0.0957386
-0.362388
0.107062
-0.231452
-0.094195
-0.0663568
1.16116
-0.385777
0.0973176
0.288459
-0.0147338
0.0725683
-0.0578345
0.19155
-0.138129
-0.053421
-0.159995
0.258889
-0.686768
0.250921
0.365206
-0.074003
0.020619
-0.0535253
-0.133225
-0.0367839
1.80437
-0.984566
0.0501432
-0.393161
0.343017
-1.58307
0.2231
-0.069677
0.0559015
0.0137756
-0.0417735
-0.0362681
-0.747778
-1.24324
0.361974
-0.0579474
-0.866421
-1.04688
0.225109
-0.205123
-0.120911
0.518662
1.03102
-0.750338
-0.977278
1.3209
-1.70802
0.285634
-0.0641324
0.00417594
0.0599564
0.0696937
-0.175928
-0.397203
0.573131
0.109855
-0.0355454
-0.501698
-0.762036
1.26373
-0.878555
-1.02605
1.90461
0.611251
0.349445
-0.960696
-0.0046159
0.0466301
-0.282398
-0.260286
-0.269458
-0.175241
-0.102896
0.278136
0.285582
0.449184
0.277869
0.131255
-0.0570167
-0.615423
-0.00445245
0.0228938
-0.78494
1.02087
-0.235934
-0.145714
-0.115968
-1.33804
-0.219426
0.000875742
-0.742758
-0.288329
0.201179
-0.817726
0.0691856
-0.146583
-0.896155
-0.344921
1.24108
-0.194478
0.723114
0.237764
0.637795
-0.296307
-1.01265
-0.932451
-1.2467
1.37946
0.0769758
0.210454
0.0185766
-0.0714989
0.0529222
-0.634325
0.58033
0.053994
0.699431
-0.823081
0.299169
-0.242291
-1.13458
-0.168492
-0.139155
0.262248
-0.123093
1.0333
-0.380077
-1.45357
-0.0905012
1.54407
-0.108106
-0.075174
0.0596627
0.30194
-0.361603
-0.237907
0.406297
0.13496
0.0669412
0.0216183
-0.0885595
-1.30995
0.828542
0.0989642
0.0108905
-0.176644
-0.131643
-0.330608
-0.167741
-0.147351
0.251968
0.136879
0.0732743
-0.125639
0.399808
1.46858
-0.822408
2.02483
1.02865
0.572995
-0.842699
-0.0159404
-1.43763
0.0375758
-0.32905
0.386023
-0.0569737
-0.0570715
-0.0123751
-0.241356
0.0160276
-0.0562688
0.127655
-0.0939786
1.50946
-1.41548
0.19724
-0.855086
-0.12538
-0.263157
-0.0703338
0.00398755
-0.287171
0.360666
-0.0734958
0.000397607
-1.44223
1.44183
0.638888
0.254087
0.316773
-0.740213
-0.586436
0.96528
-0.378844
-0.161281
-0.111962
0.260036
-0.555781
0.636217
-0.0804365
0.0814057
-0.480206
0.3988
-0.192103
-0.609624
0.801727
-0.280987
-0.0580196
-2.04276
-0.0978174
0.184189
-0.179069
0.0334297
0.12889
-0.0299261
0.347073
-0.672207
2.13737
-0.910685
-1.22669
-0.100379
0.415609
0.315791
-0.256128
-0.0474048
0.172926
-0.176907
-0.0136176
-0.386435
0.38165
-0.345247
0.798931
-0.991034
0.14241
-0.0955825
-0.0468271
-0.370882
-1.90045
1.03687
0.863585
-1.76482
1.68667
-1.16467
0.418531
0.746138
0.0917384
-0.317476
0.225737
0.573205
0.534873
-0.171974
0.201147
0.245601
0.530462
-0.154622
-0.262896
-0.0123089
1.02703
1.11035
0.0404723
-0.0177848
1.47159
-1.25259
-0.0387789
-1.40429
1.44307
1.21778
-0.0566174
-0.296538
-0.07522
-0.00465077
0.0991478
-0.255087
0.190461
-0.222999
0.301381
-1.46622
1.16484
0.188026
2.34543
-1.44763
-0.897795
-0.0762016
-0.154513
-0.122034
1.1419
-0.0424606
1.40453
-1.28715
1.03222
-1.91078
-1.26051
0.0155974
1.24491
-0.917596
0.0969414
0.820655
0.0181988
0.0144043
2.09857
0.0328088
-2.13137
-1.50728
1.71272
-0.205441
0.0459155
0.221262
-0.770379
-0.00467858
0.0178507
-0.302774
-1.35275
0.18948
-0.00466074
-0.012831
0.0174917
-0.115677
0.224056
-0.108379
0.133643
-0.491891
0.358248
0.5301
0.456375
-0.510531
-0.112173
0.0581735
0.847871
-0.926632
-0.0674069
-0.0581262
-0.256968
0.0542913
-0.166312
1.27455
-1.10824
-0.10356
0.634862
-0.531302
0.0603695
-0.421037
0.360667
-0.659341
-1.52217
0.70429
0.817876
-0.0438276
0.879035
0.235417
-1.11445
-0.455289
0.224524
-0.248146
0.0236222
0.171371
-0.0356154
-0.250826
0.00364506
-0.291951
-0.975584
-0.0495734
-0.400427
0.803643
-0.403216
-0.762709
-0.500176
1.77274
-0.737984
-0.101231
0.185172
-1.33381
0.0282158
-1.34364
1.31543
-0.227631
-0.101883
0.329515
0.800556
-0.691923
-0.108632
0.142033
-0.0213154
-0.0514783
-1.37895
0.616246
-0.656482
1.27651
-0.135481
-0.242107
0.298979
0.222513
0.0296896
0.816921
-0.374492
-0.0012544
0.700685
-0.956013
0.428857
-1.88404
0.857993
1.3165
-1.3161
-1.50483
1.41085
0.123894
-1.47029
0.247672
1.22262
0.601109
0.235331
0.0329242
-0.942921
0.697996
-0.117314
-0.130066
0.247379
-1.29681
0.280466
1.01634
0.30467
0.737939
-1.04261
0.0287186
-1.27542
0.758773
0.105205
-0.863978
0.221129
0.264718
-1.01545
0.25769
-0.0126921
0.0538647
1.52786
-1.49854
0.366679
-1.00338
-0.518783
0.749845
-0.0223419
-1.23817
1.13837
-0.259331
-1.75307
0.0306051
-0.201562
-0.965165
0.336485
0.204336
1.83358
0.241757
0.112725
-1.1848
0.138823
-0.106424
0.181776
-0.458653
0.330633
-0.554924
0.224292
0.153839
-0.0690583
-0.0847807
0.261946
-0.343232
-0.206869
0.143296
-1.12863
1.17288
-0.0442532
-0.751593
1.04794
-1.64741
0.599467
-0.782414
-0.0587561
0.095625
-1.4982
0.121771
1.37643
-0.365362
0.903082
-0.671863
0.687517
0.151882
0.988761
0.581806
-1.023
-0.824532
-0.174976
0.999509
-0.766499
-1.19186
0.690166
-0.12387
0.127133
-0.00326303
0.0548274
-0.0930335
0.978532
-1.47244
-0.0824149
-0.51395
0.596365
-0.193844
0.163766
0.0300774
-1.07155
0.461922
0.0366677
0.0255403
-0.232154
0.409729
1.9308
0.167765
-0.799078
0.835089
-0.266994
0.0903496
-0.987482
1.62617
-0.638684
-0.0763353
0.0642306
0.0767787
0.372442
-0.0214476
0.924999
1.20219
0.604052
-0.937127
0.313794
-1.86672
-0.167086
0.131903
0.0779629
-1.09835
-0.219196
-0.956934
-0.211342
0.0531766
0.787926
-0.378197
-0.938033
0.212848
0.789542
0.185802
-1.68301
0.349667
1.33334
-0.0741492
0.480446
0.655311
-1.21611
-0.28325
0.743046
-0.326486
-0.416561
0.858084
-0.279188
-0.578896
-0.178706
0.0384239
0.66683
-0.679013
0.0121829
-1.6156
0.554666
1.06094
1.11719
0.446823
0.000582488
0.108561
0.769022
-0.510133
-1.66364
0.585911
1.07773
-1.83409
1.50483
0.768026
0.803668
-1.57169
0.80664
-0.7493
1.83849
-0.635868
-1.20262
-1.04373
0.174598
-0.0827878
0.0341719
-0.104067
0.191827
-0.0390397
0.118631
-0.0795917
-0.23979
-0.262027
-1.4756
-0.146608
0.0720256
-0.0940275
-0.0331089
-0.0206731
1.04292
-0.46805
-0.574873
0.780195
-0.473911
-0.122116
0.12445
-0.0935709
1.22641
-0.317181
0.0895499
-0.320048
-0.751497
-1.46718
0.571029
-0.062759
-0.0812939
0.123127
0.0852427
0.104045
-0.0854682
-0.490201
-1.11386
0.0977958
-0.0795367
-0.0182591
0.180518
-0.063303
-1.34482
1.40812
0.115635
0.013255
0.337339
1.04925
0.974057
-2.02331
-0.390271
1.00152
0.21518
-0.0856608
0.587633
-0.948187
-0.61218
1.56037
-0.943607
-0.987525
0.578698
0.302588
-0.180465
-0.122123
0.355231
-1.09081
-0.168484
1.40484
-0.356898
-0.178985
0.102982
-0.376311
-0.74374
0.0828992
1.95327
-1.72146
-0.231812
-0.853991
-0.613193
0.0899519
0.166509
0.0641286
-0.995033
-0.239173
1.23421
0.240393
0.535092
-0.453686
-1.64047
-1.81066
0.746042
1.06462
-0.159546
-0.00484814
0.164394
0.953402
-0.553924
-0.399479
0.108096
-0.164365
0.0775995
0.0826165
0.887528
-1.98342
0.768459
0.0896247
-0.322929
-0.594876
-0.0627957
0.0216835
0.151702
0.878156
-0.941459
0.0233504
0.370326
-0.56028
0.55858
-0.0845544
-0.000308012
0.0848624
0.963353
0.875135
0.56968
0.0572967
0.725479
-0.576575
-0.148903
1.86618
-1.51651
0.0889057
-0.553802
0.145775
0.0255952
0.186911
0.0328608
0.0121121
0.00382763
-0.127698
0.597369
0.0647365
-1.74224
-0.0198334
-0.139713
-0.0711781
-0.000320735
1.02249
-0.784729
0.898486
-0.501689
-0.396797
0.00395076
0.108664
-0.00924322
0.00458248
0.404191
-0.00920638
-0.330916
-0.846511
-0.282113
-2.10388
0.886204
1.21767
0.098034
-0.0262784
0.107734
0.102094
0.116152
-0.273639
-0.300584
0.446194
-1.39438
0.162338
-0.952368
2.00162
0.627846
-0.101432
-0.526414
-0.710741
-0.475912
-0.0713134
0.0908262
-1.11303
0.496429
-0.734962
0.238532
-0.280262
0.25256
0.0277018
-0.0591331
1.31927
1.11743
-1.47361
1.51651
-1.55734
1.04702
0.510314
1.04953
-2.0019
2.07268
-1.07391
-1.0276
-0.973778
-0.0326731
0.25521
-0.0735698
-0.404057
-1.56009
0.0897936
-0.0537839
-1.29817
1.20365
-1.96455
0.760898
-0.0522952
0.236292
-0.48876
0.344212
-0.181746
0.969966
1.37546
-1.67836
0.69088
-0.183755
-0.759852
-1.34097
0.266621
-0.0140604
1.76482
-1.82774
-0.119842
-1.15696
0.0687992
1.02841
-0.274999
-1.49304
1.62639
-0.13335
0.436644
1.81351
0.437848
-0.0691289
-0.368719
1.8774
-0.845175
0.235057
-0.270073
0.701481
-0.757387
0.0907473
0.131766
0.25699
1.03521
-1.2922
-0.638638
-0.457425
1.02432
-1.05633
0.032011
-0.347323
0.191378
-1.76974
0.793468
0.976268
0.802168
-0.00161213
-0.498413
0.0812227
0.886903
-0.755765
0.297078
-0.557364
-0.0340875
-0.0194378
-0.632476
0.456548
-1.06011
-0.886432
1.94654
0.0107613
-0.108009
0.146199
-0.323613
1.04158
-0.833165
0.0931577
1.25297
-2.07537
0.0706771
0.0523321
0.194526
-1.17637
0.0619446
0.701069
0.334825
0.0595714
-0.616434
-1.40251
0.425234
0.0201097
0.104505
-0.124614
0.0679306
-0.316168
1.1461
1.08254
1.23631
-0.966087
0.0183775
-0.162483
0.050006
0.446615
0.108041
-0.306113
-0.709303
-0.959229
2.00876
-0.0515931
0.00776551
-0.744928
-1.11165
1.85658
-1.77988
0.272598
-0.0677783
-0.0360984
-0.0173226
-1.45184
-0.0845647
-0.156763
0.653192
-1.03354
-1.07034
1.95327
0.574162
-1.38896
1.01967
-0.563292
-0.219769
-0.302383
0.0199846
-0.234023
0.241576
-1.6404
0.21022
-0.796656
1.04422
-2.00344
-0.793959
-0.0501905
-0.232646
-0.0639492
-1.42909
0.865063
-0.795878
1.33771
0.851117
-1.56661
0.715497
1.69605
-1.14138
1.96594
-0.944623
-1.00768
1.9523
0.516724
1.25426
-1.01387
-0.72836
-1.0823
-0.848782
-0.708555
0.454009
-0.678838
1.60379
-0.924955
-0.139107
1.38059
-1.24149
-1.02115
-0.959125
1.98027
0.894961
0.129362
0.258491
0.372164
-0.500298
0.333299
0.166999
0.0184237
-0.257436
0.488976
-1.34297
-0.778108
-0.390274
-0.244051
-0.092459
-0.19587
-0.231914
0.932844
-1.97118
0.92605
1.04513
-0.0503006
-1.63783
1.68813
0.059755
-0.25346
0.0593627
0.614552
-1.87287
1.87287
-0.0460488
-0.0142677
0.0603165
-0.64653
1.07666
0.278426
-0.011805
-0.780353
-0.370015
0.819199
-1.47361
-0.0215416
-1.26495
0.306019
1.29516
-1.26539
-1.19975
0.204717
-0.135189
-0.125412
0.260601
0.132889
0.533941
0.14785
0.00598919
-0.954295
-1.18962
0.182354
1.00726
-1.40841
-0.0844951
-0.493436
-1.15397
-0.0306743
0.0976155
0.161862
-0.313546
0.266141
0.000920894
0.0723534
0.362481
-0.270273
-0.362204
-0.642276
1.44417
-0.80189
0.32781
0.206552
-0.231253
0.408825
-0.177572
-0.417663
0.179824
0.422454
-0.537288
0.114834
-1.06417
1.73741
-0.969385
-1.35925
-1.65719
0.214962
-1.19276
0.0509138
1.0031
1.17705
0.0707716
-1.03594
1.1104
-0.187577
-0.370034
0.234553
0.646146
0.624046
0.182594
1.98732
-0.943102
-1.01596
-0.871091
1.88705
1.12223
0.00757221
-1.12981
0.123561
-0.0509925
-0.192612
0.175619
0.109899
1.35198
-1.46188
-1.3469
1.3161
0.030802
1.3469
-1.41085
0.213628
-0.265923
-0.739192
1.00391
0.079016
0.389205
-0.282143
-1.65699
0.176913
1.6261
-0.774986
-0.375829
-0.0820724
0.135855
-0.432338
0.950554
0.257391
-0.0861758
0.698662
-0.779099
0.177862
-0.239743
-0.56804
-0.0551425
0.794291
-2.07283
0.503731
-0.0689402
0.432276
-0.363336
-1.03275
-0.931795
0.0659
0.587999
0.587463
-0.883438
0.0843595
-0.0992705
-0.321766
0.102635
-2.02295
0.995352
0.0180165
-0.040682
-0.270973
-0.0295278
0.281496
0.218005
-1.40941
0.785807
-1.47559
0.689779
0.0588186
0.24661
-0.305429
0.2799
0.039985
-0.986605
1.29262
0.627696
0.373826
1.33303
-1.21611
0.185117
0.0406573
1.6298
-1.92049
0.290688
-0.249939
-0.304528
-0.819007
-0.044971
0.373317
-0.447557
0.0930588
-0.241476
-1.09245
-0.152068
0.00338396
0.148684
-1.47193
0.182221
1.28971
0.0950109
-0.203116
0.0835777
0.0314773
-0.115055
1.15409
-1.17643
-0.142998
0.0739398
0.631084
0.2374
-0.247022
0.123929
0.363058
-0.372369
0.180357
0.658592
-0.838949
-0.434534
-0.057357
-0.92951
-1.01199
1.9415
-0.236875
-0.29113
0.634147
-0.997827
1.68667
0.391963
-0.322269
0.0512246
0.0473968
-0.099447
2.05388
-1.02685
-1.25482
0.770183
-0.559963
-0.503478
1.58121
0.311702
-0.320908
0.0457925
-0.0488166
0.314087
-0.0256282
-0.292054
0.189159
-0.24721
-0.366377
0.0528306
1.08217
-0.316293
0.286765
0.29318
-0.0565473
0.0374988
-0.184946
-0.0380527
0.496995
-0.767267
0.209639
-0.239401
0.0297621
-0.371143
0.26926
0.189069
0.898273
-1.08734
-0.248613
0.118548
0.445814
-0.640292
1.46745
-0.942522
1.01493
0.911691
0.0807727
0.564853
-1.04889
0.350967
-0.431565
-0.325209
1.07141
0.904564
-1.54502
1.54502
1.75682
-0.838738
1.10081
-0.0294539
1.49989
-1.47043
0.88537
1.05907
0.903067
-1.96317
0.111038
-1.10207
-1.36203
-0.205593
-1.43686
1.64245
-0.409304
-0.123655
0.0735515
0.870991
0.165262
-0.274153
-0.979488
1.70876
-0.729271
-0.17816
0.268907
-0.0163507
0.424113
0.902346
2.32555
-0.89663
-1.42892
1.60231
-1.48054
1.14979
0.197222
0.0619796
0.0034527
0.0173833
1.56985
0.574558
1.07745
0.794631
0.0206656
0.197037
-0.217702
-0.347536
0.215892
0.181494
-0.193374
0.0118796
0.161662
-0.217065
0.0554031
0.498887
-0.440714
0.334562
-0.480275
-0.528529
0.665029
0.0245081
-0.175058
0.0407868
-0.625115
0.570405
0.05471
0.0638529
-0.0619575
-0.00189538
1.82774
-1.52307
-0.146127
0.27719
-0.131063
-1.52786
-0.339874
0.265871
-0.98532
1.87069
0.257898
-0.328232
1.98058
-1.07751
0.245449
-0.313671
-0.155944
-0.377657
-1.31493
-0.0754579
1.63369
1.27298
-1.07845
-0.102489
0.143064
-0.0808324
-1.49839
-0.293843
0.286556
0.242892
-0.368272
-0.362947
0.289452
-0.0820605
-1.33718
1.2984
-1.46912
1.48378
-1.1627
-0.473122
0.427166
0.655032
0.383815
-0.396124
-0.0600326
0.0594137
0.349499
-0.408912
-0.360919
1.40528
-0.982307
-0.988991
-1.96203
-0.0815155
0.0778447
0.0036708
0.0268578