/*--------------------------------*- C++ -*----------------------------------*\
| =========                 |                                                 |
| \\      /  F ield         | OpenFOAM: The Open Source CFD Toolbox           |
|  \\    /   O peration     | Version:  2306                                  |
|   \\  /    A nd           | Website:  www.openfoam.com                      |
|    \\/     M anipulation  |                                                 |
\*---------------------------------------------------------------------------*/
FoamFile
{
    version     2.0;
    format      ascii;
    arch        "LSB;label=32;scalar=64";
    class       volVectorField;
    location    "3.8";
    object      U;
}
// * * * * * * * * * * * * * * * * * * * * * * * * * * * * * * * * * * * * * //

dimensions      [0 1 -1 0 0 0 0];

internalField   nonuniform List<vector> 
5098
(
(2.60429 0.893232 0)
(2.11408 0.0480763 -2.49887e-20)
(2.33591 0.0372018 -2.60653e-21)
(1.56297 -0.699192 7.53589e-19)
(1.95403 -0.505937 0)
(0.902164 -0.435602 0)
(2.32384 0.0117928 -1.80273e-20)
(2.31281 -0.279951 1.17962e-21)
(2.44802 0.0841761 -4.87093e-20)
(2.11287 -0.25109 9.38269e-20)
(1.15626 -0.75776 0)
(2.24216 0.000792083 1.7054e-19)
(2.50456 -0.43402 -9.32874e-21)
(0.953301 -0.465844 0)
(1.89877 -0.185692 6.49774e-20)
(1.95196 0.0278435 8.37991e-22)
(1.08245 -0.536027 -3.37763e-20)
(0.737023 -0.85069 0)
(-0.523702 0.116861 5.25681e-19)
(0.955988 -0.475055 3.81487e-20)
(1.80073 0.545578 -7.22352e-20)
(1.94756 -0.017257 4.54218e-21)
(2.1322 -0.822438 0)
(0.772382 0.0226357 2.86737e-20)
(-0.172413 -0.105786 0)
(1.50308 -0.602281 0)
(2.01913 0.0261191 1.20509e-19)
(1.87453 -0.798223 1.98637e-19)
(-0.26441 0.408086 -1.5897e-18)
(1.71268 -0.751473 0)
(2.41351 -0.178525 -1.08093e-19)
(0.733313 -0.356735 0)
(1.9661 -0.0308574 -1.36235e-19)
(1.31957 -0.674149 0)
(2.46082 0.248171 -4.7354e-20)
(3.27601 -0.169426 1.48417e-18)
(1.90613 -0.463102 1.45808e-19)
(2.02538 -0.0819924 -8.02566e-22)
(1.36119 -0.447823 5.50075e-19)
(1.40218 -0.650804 0)
(1.57135 -0.714293 -3.54834e-19)
(1.74023 -2.20057 -6.86682e-19)
(1.51786 -0.607178 0)
(2.81731 0.0234085 2.14097e-20)
(2.50192 0.625505 4.83145e-20)
(2.12482 0.0415577 6.05869e-21)
(1.08532 -0.564667 1.26707e-20)
(1.0994 -0.366569 0)
(2.42187 -0.230419 0)
(1.56522 -0.661595 8.03006e-20)
(2.27434 0.0973068 4.1644e-20)
(1.63959 0.495347 -4.49301e-19)
(-1.95974 0.911023 -2.88805e-20)
(2.05139 -0.0547444 1.68166e-19)
(0.966207 -0.482819 -3.35298e-19)
(1.61691 0.10883 0)
(1.89764 0.254975 -2.41181e-19)
(1.66559 -0.68451 0)
(0.86921 -0.42897 0)
(1.92427 -0.0134903 -1.46514e-20)
(1.33678 0.251651 3.97856e-20)
(0.529567 -0.274511 -4.41438e-20)
(2.47151 0.337555 0)
(2.4702 -0.415312 0)
(-2.10126 0.922033 2.23434e-18)
(0.821924 -0.413165 4.18763e-19)
(2.07106 0.0113528 7.15762e-21)
(2.28976 0.0818205 5.64975e-21)
(2.13618 -0.27758 1.75602e-19)
(1.70612 -0.722513 2.35122e-19)
(1.91842 0.177178 1.45275e-20)
(1.52313 -0.485241 -1.47464e-20)
(1.94691 -0.80892 0)
(1.37136 -0.551286 0)
(1.72358 0.087726 8.66947e-21)
(1.14059 -0.558122 -3.84978e-19)
(1.88811 0.125654 0)
(1.5549 0.204339 4.23103e-19)
(2.65975 -0.250933 4.90263e-20)
(1.6401 0.178875 0)
(1.74835 0.0106588 0)
(3.32804 -1.8173 5.9204e-19)
(1.70066 -0.293082 5.14215e-19)
(1.32256 -0.691474 -6.24613e-21)
(0.785216 -0.984567 4.42906e-20)
(1.55072 -0.683232 2.03636e-19)
(0.091442 0.259774 -2.61553e-19)
(1.87388 0.163043 2.71268e-21)
(2.40971 -0.20274 4.2823e-20)
(1.43072 0.30949 1.16825e-20)
(2.27403 -0.275532 -7.74007e-21)
(-1.30041 1.19163 1.08308e-18)
(2.37699 -0.0502287 -2.13408e-19)
(1.58238 -0.682388 -4.0181e-19)
(1.3411 -0.474338 9.7053e-20)
(1.46353 -0.482506 2.81936e-20)
(1.05959 -0.532866 -3.23402e-19)
(1.47172 0.281982 3.12343e-19)
(1.74835 0.102639 4.42944e-21)
(2.05902 -0.499642 -1.19961e-19)
(1.71594 -0.84787 -6.0216e-20)
(1.02271 -0.503856 -3.98251e-19)
(-0.0464691 -0.0293092 -6.26874e-21)
(2.1674 0.174547 -1.74088e-20)
(1.56215 0.190987 -4.80934e-19)
(2.44429 1.06031 0)
(1.94155 0.222934 2.56179e-19)
(2.23488 0.083822 -2.06704e-21)
(1.04871 -0.422384 7.49177e-20)
(1.09063 -0.745285 0)
(1.06751 -0.514482 -8.66112e-19)
(1.74127 0.728262 7.81077e-19)
(1.84791 -0.0225391 -2.54771e-19)
(-2.10942 1.62113 2.74141e-19)
(1.73826 0.641978 1.02929e-19)
(0.528531 -0.281897 0)
(3.01804 -1.7512 8.65318e-19)
(2.76923 1.33017 0)
(1.9714 0.151581 1.10168e-20)
(0.799884 -0.0228371 -4.40834e-19)
(1.68581 0.462646 3.689e-19)
(1.65463 1.96199 -4.6299e-20)
(2.11543 -0.263368 -5.96522e-20)
(0.919397 -2.12349 -8.46736e-19)
(-1.52956 1.75551 -1.49432e-18)
(0.509667 -0.24875 4.55985e-21)
(2.11352 -0.0307731 1.40257e-19)
(2.11548 -0.784991 -2.36906e-19)
(1.39484 -0.16388 -1.15462e-19)
(-2.19842 1.61406 -5.09569e-19)
(-0.324603 -1.08551 -3.70779e-19)
(1.14346 -0.510104 -5.52248e-19)
(1.17027 -0.508184 4.62412e-19)
(2.63861 1.38094 -1.36744e-19)
(1.62067 -0.720173 -1.45744e-19)
(2.35608 -0.637811 2.44864e-19)
(2.0865 2.47499 6.46236e-19)
(1.93582 0.227582 1.72731e-19)
(0.88007 -0.432033 0)
(2.04386 -0.062291 -5.48269e-19)
(1.59667 0.590303 -2.96911e-19)
(1.30921 -0.309113 2.75381e-20)
(1.77489 -0.80809 3.80488e-19)
(2.35526 0.0247489 -1.28552e-20)
(2.03725 0.101571 -4.03853e-20)
(2.10331 0.149624 0)
(2.13307 -0.283192 1.80894e-19)
(1.82629 -0.539711 0)
(2.50683 -0.0311349 3.05658e-19)
(1.65675 -0.759692 1.4374e-19)
(2.30525 -1.75088 -2.36471e-19)
(2.5058 0.37066 0)
(1.84546 -0.544866 5.72049e-20)
(1.95797 0.0933645 0)
(0.0792835 0.15817 -3.29571e-19)
(0.831739 -0.323745 -1.83222e-19)
(1.6654 -0.671973 -4.21616e-19)
(1.69054 -0.813392 -4.25004e-20)
(1.51487 -0.708141 -2.90527e-19)
(-0.340825 0.15801 1.63154e-18)
(1.96323 -0.435401 -3.96758e-19)
(1.94608 -0.15479 -8.63698e-20)
(1.58955 0.161482 -5.18148e-19)
(1.8365 -0.185458 -3.17891e-19)
(0.395817 -0.688973 -5.20964e-20)
(2.49197 -0.170426 -1.03788e-19)
(1.91982 -0.54604 -1.96585e-19)
(2.35012 -0.584702 0)
(-0.183003 -0.168151 1.15258e-19)
(1.70757 -0.555619 -4.60214e-19)
(1.71281 -0.533125 -2.01421e-20)
(1.57263 -0.635254 -2.73428e-19)
(2.25483 0.456935 8.72427e-20)
(1.86828 -0.769561 3.55008e-19)
(2.63831 -0.0890249 0)
(1.9632 -0.00681816 0)
(1.71306 -0.282071 -1.99429e-19)
(3.29704 -0.12797 -7.21403e-20)
(1.76998 -0.171661 4.3988e-19)
(0.282443 0.0965937 0)
(1.89706 2.34095 0)
(2.8689 -1.46457 -6.28175e-19)
(1.772 -0.552179 5.65964e-19)
(0.32794 -0.604724 0)
(1.85086 -0.180452 0)
(2.80289 0.607156 5.50275e-19)
(1.52185 0.313176 0)
(1.91057 -0.435367 5.00976e-19)
(1.00342 -0.490389 7.47544e-19)
(-1.18856 0.605745 -7.0615e-19)
(1.96648 0.870928 0)
(1.52209 -0.265781 1.03964e-19)
(1.97051 -0.82569 0)
(1.72885 0.0417627 9.66326e-21)
(2.47183 -0.176515 1.16329e-20)
(-1.68576 1.40771 -1.20012e-18)
(3.44161 -1.16868 4.49598e-19)
(2.46065 -0.693586 0)
(1.95651 0.00368036 -5.43427e-21)
(1.73079 -0.535839 -8.35135e-20)
(-0.674497 -0.689407 -7.37896e-19)
(1.70019 0.423565 5.63582e-21)
(2.46589 0.693739 8.62657e-21)
(2.21877 0.029482 4.31221e-21)
(1.58745 -0.0602336 2.04899e-19)
(0.804769 -0.331777 -1.31086e-19)
(2.60067 -0.00529928 -1.7315e-20)
(1.20185 -0.556375 0)
(2.24031 -0.100165 0)
(1.27726 -0.620219 -3.95584e-19)
(1.94507 -0.166293 -1.61772e-19)
(1.73955 0.364361 2.9998e-19)
(1.63895 -0.278165 -1.05143e-19)
(2.02709 0.0811051 -1.50112e-19)
(2.09719 -0.00981193 -1.77023e-19)
(0.782315 0.316852 -4.48185e-19)
(1.74099 0.00938552 0)
(1.02398 -0.782765 -6.07727e-20)
(-1.52748 1.6669 2.02619e-19)
(1.9557 0.0997372 1.14329e-19)
(2.30113 -0.290041 -2.89159e-20)
(1.60453 -0.330698 0)
(2.04323 -0.000822057 1.5084e-20)
(2.31909 -0.341816 1.49017e-19)
(-2.19663 1.30703 3.346e-19)
(2.02684 -0.165106 0)
(0.407986 -0.102734 0)
(2.00443 0.0452709 0)
(2.02485 -0.501967 0)
(1.73549 -0.691179 4.89463e-21)
(1.81356 0.456851 0)
(0.614143 -0.259726 -4.78872e-19)
(3.25362 -1.34612 -4.5825e-19)
(2.06845 0.00447801 -6.51675e-21)
(2.61569 0.0573859 -6.03526e-20)
(2.3656 0.0595522 0)
(1.51021 1.48127 -1.43405e-19)
(-1.40377 -0.610114 -2.46832e-18)
(2.83873 -0.483382 0)
(1.88391 -0.0153442 3.13446e-19)
(3.13736 -2.07086 -2.06645e-18)
(2.25353 0.551456 0)
(2.19557 0.0969454 0)
(1.03537 -0.229951 8.08007e-19)
(1.77827 0.511567 -3.80387e-19)
(2.30989 -0.123902 -1.96978e-19)
(1.07106 -0.512178 8.94403e-20)
(1.05191 -0.759558 -3.82718e-20)
(1.174 -0.607949 0)
(2.37642 -0.0822998 5.16441e-20)
(2.28996 0.804487 -4.47571e-20)
(1.88039 -0.793364 3.66845e-19)
(0.290692 -0.0653173 7.67092e-19)
(-1.05541 -0.688693 7.60588e-19)
(2.00551 0.0352064 -2.3129e-19)
(-0.9717 -0.56742 2.38569e-18)
(1.65099 -0.673664 1.27118e-19)
(1.2536 -0.43712 -4.72999e-20)
(1.12826 -0.387126 -3.39237e-19)
(1.93268 0.0247891 2.38037e-21)
(2.80601 0.591298 8.52933e-20)
(-2.26972 1.07026 1.13858e-18)
(-0.387827 0.00485191 2.31348e-19)
(1.89501 -0.81989 0)
(2.03662 0.0374865 -2.23885e-21)
(0.715913 -0.443262 1.76752e-20)
(-0.271907 0.0988726 -1.90081e-18)
(1.16085 -0.828421 0)
(1.34872 -0.533289 0)
(1.85588 0.000884466 -2.88486e-20)
(-1.80996 0.711649 8.63212e-19)
(1.90706 0.0783897 1.74681e-20)
(-0.0902403 0.160594 -8.55416e-19)
(1.66498 -0.376579 0)
(1.14581 -0.458193 2.38671e-21)
(0.146219 -0.118353 1.54427e-20)
(1.59547 -2.14302 -4.97615e-19)
(2.20021 -1.34962 0)
(2.26662 -0.731637 0)
(1.91568 -0.0974149 0)
(-0.307393 -0.869696 -2.22388e-19)
(2.21928 -0.0719398 1.21585e-19)
(-2.41533 1.34673 -1.3721e-18)
(2.24394 -0.148063 -1.35153e-19)
(2.01463 -0.534164 -2.58314e-20)
(0.940782 -0.49629 0)
(1.97301 0.0266243 0)
(2.14171 0.163783 -4.44076e-20)
(2.50536 -0.128138 8.34147e-20)
(1.87805 0.0249387 -2.59936e-19)
(1.31217 -2.01612 0)
(-0.532865 2.00368 7.72483e-19)
(1.08711 -0.0512162 -2.36148e-19)
(2.42483 0.50913 4.07942e-20)
(1.992 -0.628485 3.82227e-19)
(1.2773 -0.141011 -4.28773e-20)
(2.45939 0.119001 0)
(2.44443 -0.167371 -9.45512e-20)
(1.98126 0.0563926 0)
(1.94912 -0.00381775 -1.36623e-19)
(2.13703 0.176404 3.55595e-20)
(2.49965 -0.0484649 1.1131e-19)
(1.61188 -0.437821 5.33894e-19)
(1.86245 0.472145 2.1231e-19)
(0.662164 -0.390878 -2.8213e-20)
(1.80142 -0.742358 -2.24627e-19)
(2.62664 1.82015 -1.59484e-19)
(2.03265 0.00956022 0)
(1.84704 -0.446536 0)
(1.10386 -0.603263 0)
(2.28024 -0.268672 3.75375e-20)
(-0.0656854 0.349689 7.51929e-20)
(0.830547 -0.413101 4.41092e-19)
(1.89383 0.0205222 -2.4947e-20)
(2.54959 -0.430149 -3.70254e-20)
(0.163315 0.0774464 6.46825e-19)
(1.98956 2.31249 -7.07987e-20)
(2.10515 0.00153656 -1.28774e-20)
(2.25996 -0.16097 5.23765e-19)
(0.884259 -0.374756 0)
(2.77661 -0.18171 -4.95526e-20)
(-0.571129 1.97897 -1.56211e-18)
(2.73627 -0.312559 -4.2946e-19)
(-0.435499 0.824693 -1.40352e-20)
(1.75285 0.0961216 1.90956e-21)
(1.34372 -0.419906 3.70086e-19)
(2.22808 0.789096 0)
(1.9625 0.109329 -8.81639e-20)
(1.05893 -0.429733 -7.91927e-19)
(1.99278 0.119616 -9.98029e-21)
(1.28076 -0.623196 0)
(2.25419 -0.164832 -1.50213e-19)
(1.03097 -0.498674 2.48765e-19)
(2.30689 -0.729021 -1.09308e-19)
(1.73063 -0.730079 -3.18118e-19)
(2.18273 0.00489247 -3.86381e-20)
(2.40252 -0.358309 8.98942e-21)
(0.957748 -0.473952 4.87325e-19)
(2.23172 -0.109009 2.17633e-19)
(1.83178 -0.387828 0)
(1.79599 -0.818849 -3.60029e-19)
(1.68875 -0.722154 -9.61886e-19)
(2.63527 -0.200805 2.12197e-20)
(2.01093 0.0419159 3.70604e-20)
(2.32882 1.35268 0)
(1.80196 0.179633 0)
(2.06471 -0.0530276 -1.72175e-19)
(0.760579 0.46713 3.80385e-19)
(2.78396 1.24473 0)
(2.36587 -0.0419849 1.51413e-19)
(1.53162 -0.68088 -4.23852e-21)
(0.925529 0.319085 -5.78054e-19)
(0.876007 -0.378745 -4.23215e-19)
(-0.49344 -0.801626 2.48267e-19)
(1.83575 0.046382 1.83784e-20)
(-0.3093 -0.731554 6.40623e-19)
(2.34789 -0.609516 -2.08416e-19)
(2.30278 -0.056007 0)
(1.42018 -0.111471 -9.9415e-20)
(1.41249 -0.443436 0)
(1.95956 0.126989 -4.25803e-19)
(2.01166 -0.451822 0)
(2.26026 -0.0490702 -1.53611e-19)
(1.91763 0.173034 -5.5384e-21)
(2.83591 0.0588376 -9.19004e-21)
(1.11962 -0.431116 4.47575e-19)
(1.96386 0.141424 -3.443e-19)
(2.00376 0.274739 -3.83669e-19)
(1.99209 -0.856829 0)
(-0.819116 -0.958301 0)
(1.19584 -0.475155 -4.41219e-19)
(2.88252 -0.064823 0)
(3.35348 0.29503 -9.17571e-19)
(1.5985 0.324657 0)
(1.47774 -0.490672 1.97361e-20)
(0.668515 -0.349775 3.89567e-20)
(1.7514 -0.570211 6.728e-19)
(0.769152 -0.3522 -2.46754e-20)
(2.32915 -0.553844 0)
(1.905 0.189765 6.13108e-21)
(1.85312 0.0306032 -2.22411e-19)
(0.543912 -0.267383 -4.95315e-21)
(1.98053 0.0282888 -1.96921e-19)
(2.45661 -0.103374 -6.65877e-20)
(2.52676 0.168188 -2.85673e-20)
(3.20827 0.796942 3.6128e-19)
(2.44959 0.378215 -6.82166e-20)
(-1.00776 -1.01751 -3.82924e-19)
(1.69208 -0.505509 0)
(-0.0401809 -0.0344574 1.47235e-21)
(1.96292 0.159724 -1.48472e-19)
(2.53519 -0.238898 0)
(2.01859 0.0521802 1.28803e-19)
(1.14017 -0.550919 -3.25641e-19)
(1.67132 1.26439 1.27159e-19)
(3.80797 -0.659159 0)
(1.38719 -0.656489 1.18408e-19)
(2.82844 0.23695 0)
(2.29607 0.0345175 3.26863e-20)
(2.09913 -0.223489 -9.54644e-20)
(0.0534534 -0.251806 1.02125e-18)
(1.04583 -0.067558 0)
(1.56953 0.289515 2.1511e-19)
(1.95438 0.0767877 1.37649e-19)
(0.54734 -0.302033 0)
(1.73142 -0.0120555 0)
(1.98453 -0.170438 0)
(0.0840681 -0.0460106 7.06372e-20)
(0.372044 -0.134649 -2.82212e-20)
(2.49145 -0.113376 0)
(2.00197 0.0166421 0)
(1.56226 -0.500708 5.99126e-20)
(-2.15131 0.662099 0)
(2.35767 0.4109 -4.38088e-23)
(2.92923 1.0985 2.03151e-19)
(2.04498 0.102718 9.10251e-21)
(1.87421 0.438692 -4.29245e-21)
(0.939116 0.398928 6.6483e-19)
(2.98203 1.29965 -2.14241e-19)
(2.39349 -0.252711 6.76889e-21)
(2.07591 -0.0548493 1.49557e-19)
(1.60816 -0.1507 -2.41271e-19)
(1.75175 -0.339162 -1.63694e-20)
(2.00017 0.00679436 0)
(-0.224537 -0.793655 -6.15679e-19)
(-1.50779 1.42406 0)
(1.33265 -0.563577 1.28333e-20)
(1.76322 -0.498189 0)
(2.68707 -0.0999193 0)
(1.27834 -0.611655 -2.67749e-19)
(2.03282 -0.0228198 -7.22968e-21)
(-0.313971 0.38848 -1.72072e-18)
(2.05353 0.0285064 6.96755e-21)
(1.8052 -0.716021 3.6252e-19)
(3.07463 0.987321 2.32993e-19)
(-0.446332 0.869338 1.56411e-18)
(2.17287 0.0361171 1.95962e-20)
(2.08795 -0.832913 1.37237e-19)
(2.00375 0.0146221 -2.34351e-19)
(4.03384 -0.836799 0)
(1.79513 -0.122587 -4.57473e-19)
(1.82914 -0.481116 3.74155e-19)
(2.01487 0.186161 -5.25137e-19)
(0.80187 -0.38839 -2.7472e-20)
(1.60695 1.27187 -1.28053e-19)
(2.90827 1.17758 3.06523e-19)
(2.75022 -0.643644 0)
(1.9151 -0.177308 0)
(1.01273 0.593635 -6.90957e-19)
(2.11643 -0.132686 9.22938e-20)
(1.16087 -0.625072 0)
(2.28619 -0.137055 -1.3443e-19)
(2.03371 0.0298761 -2.82722e-19)
(1.08535 -0.536131 -1.73754e-20)
(1.19148 -0.686819 7.6065e-20)
(2.59954 0.138828 -5.12238e-21)
(1.48515 -2.18071 4.01218e-20)
(2.37968 -0.36359 -2.86327e-19)
(1.95022 -0.460134 2.60493e-19)
(3.36694 0.843418 8.14529e-19)
(1.53334 -0.625606 3.46519e-19)
(1.97819 0.125166 -1.04355e-21)
(1.01032 0.235431 4.83879e-19)
(2.12899 2.09505 0)
(1.70339 -0.488819 2.17013e-19)
(0.924193 -0.828258 0)
(-2.30277 1.38922 -3.69403e-18)
(2.47144 -2.1272 0)
(0.489083 -0.248486 -1.0586e-19)
(1.63199 -0.696971 -4.86827e-19)
(2.42605 0.745015 -3.77417e-19)
(2.0607 -0.848458 0)
(1.41137 -0.656358 0)
(2.73985 -0.494478 0)
(2.00986 0.118132 1.12464e-19)
(3.46644 -0.169087 -2.62039e-18)
(-0.0959979 0.194805 1.35394e-18)
(1.59143 -0.312175 -7.458e-21)
(3.54182 0.822634 -9.02916e-19)
(2.05564 0.265894 0)
(1.23237 1.98672 2.04017e-19)
(2.53753 1.26617 1.37421e-19)
(2.31244 0.623926 -5.25798e-19)
(1.53464 -0.715961 3.02976e-19)
(2.89349 -0.131727 -1.81825e-21)
(1.15046 -0.560914 5.45452e-19)
(2.23645 0.358032 0)
(2.13169 -0.210426 9.17969e-20)
(1.29636 -0.419707 4.85507e-20)
(1.98533 -0.0585538 2.82982e-20)
(3.33382 0.511591 -4.7789e-19)
(1.76987 -0.513498 0)
(2.60129 0.685878 0)
(3.67241 -0.986263 0)
(-0.661187 0.776632 0)
(1.90676 0.00687501 0)
(1.4204 -0.531043 1.48773e-19)
(3.74057 0.719031 6.21138e-19)
(1.45494 -0.601886 4.12086e-19)
(2.06338 0.0411119 2.29616e-19)
(0.768623 -0.815725 0)
(2.05505 -0.858906 2.90037e-21)
(-0.552388 0.0330102 0)
(0.905788 -0.989758 -7.35357e-20)
(-0.551515 0.167867 7.1447e-19)
(4.12367 0.307214 -3.79984e-19)
(1.99973 0.155462 2.65455e-19)
(2.01923 0.147382 -8.10863e-20)
(3.82881 -0.632781 -4.81244e-19)
(2.38865 -0.0243577 0)
(-1.63225 2.06872 1.41921e-18)
(1.98545 0.0375037 0)
(1.5567 0.903708 1.70805e-20)
(2.51754 -0.118072 0)
(2.1097 0.272372 -1.00598e-19)
(2.10373 -0.109908 0)
(0.913968 -0.346369 -2.98699e-19)
(-1.73841 0.448705 1.27111e-18)
(2.05636 -0.148478 -8.50265e-20)
(1.33082 0.409919 4.32202e-19)
(0.161349 -0.0923269 -1.4707e-19)
(1.93328 -0.479262 0)
(1.00916 -0.20236 -1.14337e-18)
(1.93755 0.188067 5.32915e-21)
(3.82374 0.262588 -1.34453e-18)
(1.92556 -0.0199373 8.05756e-21)
(3.02607 -1.37216 1.11342e-18)
(3.58271 0.565754 0)
(1.76283 -0.794923 -7.76608e-20)
(1.44495 -0.658919 0)
(2.55037 -0.21289 1.16282e-20)
(0.462277 -0.130855 7.32376e-20)
(0.330374 -0.999171 0)
(2.38889 0.344768 0)
(1.61084 -0.765929 -8.38401e-20)
(2.50626 0.689885 0)
(1.76633 1.79489 4.85803e-20)
(3.00158 0.781461 -3.62864e-19)
(-2.22045 1.47104 -1.10928e-18)
(1.22964 -0.631009 -3.02058e-20)
(2.01004 0.0200172 -6.70996e-21)
(0.98322 -0.534729 9.78004e-22)
(-1.90195 0.741378 -8.98375e-19)
(1.8508 -0.00318356 4.85393e-19)
(1.00836 -0.497794 1.97323e-20)
(0.37384 -0.1888 0)
(2.428 0.115319 -9.3784e-20)
(1.52447 -0.734343 9.96227e-20)
(0.393161 0.236585 7.91292e-20)
(3.60937 0.437571 9.69336e-19)
(2.89446 1.57861 0)
(1.81604 -0.511312 -3.75876e-19)
(1.81351 0.55033 1.661e-22)
(3.21578 0.662999 -1.0493e-19)
(2.49915 -0.0667696 -3.00158e-19)
(1.23118 -0.731903 2.11706e-20)
(0.0879083 -1.33279 4.87885e-19)
(1.47183 -0.589557 -9.94143e-20)
(1.1465 -0.678107 1.01179e-21)
(2.37405 -0.205086 -2.50545e-19)
(1.18418 -0.737131 -2.37219e-20)
(1.83584 -0.431279 0)
(1.89193 -0.148508 -4.41683e-19)
(-0.495002 1.55207 0)
(1.32705 -0.653651 -1.86356e-20)
(-0.0124473 0.916957 2.17342e-19)
(-0.293469 0.570086 1.07111e-18)
(1.96967 0.160204 -2.73304e-21)
(-0.135243 -0.0425415 1.93981e-20)
(-0.312322 0.192709 0)
(2.19276 -0.808516 3.6355e-19)
(2.16287 -0.852452 8.85072e-20)
(-0.536086 0.882373 -8.88784e-19)
(1.76274 0.558139 0)
(1.66583 0.52827 0)
(0.198761 0.348986 0)
(1.58149 -0.554185 -3.34383e-20)
(1.88856 -0.0327182 -4.30927e-19)
(1.31244 0.188761 0)
(1.74632 -0.890235 0)
(2.31685 0.190539 -6.56572e-21)
(2.13057 -1.69429 -2.9236e-21)
(2.09987 0.34537 -2.98507e-19)
(1.64716 -0.367403 -3.79189e-20)
(1.78927 0.0427467 3.47962e-20)
(1.94316 0.00497051 -2.75909e-20)
(1.92865 0.208075 -1.66735e-20)
(1.9621 0.554893 -2.46044e-20)
(1.90797 1.2024 0)
(-1.6274 0.594742 4.8473e-20)
(-1.30584 2.14722 0)
(1.03729 0.115653 0)
(2.8663 0.15678 -4.84719e-19)
(0.553093 -0.891245 0)
(2.51847 0.362315 0)
(1.88331 -0.0983068 6.78798e-19)
(1.86845 -0.823294 0)
(2.09001 0.312529 3.85507e-19)
(3.38388 0.495651 4.7546e-19)
(3.23465 0.42889 1.64646e-19)
(2.00039 0.116747 9.94039e-22)
(1.15978 1.3342 2.39357e-19)
(2.20809 -0.848997 4.2358e-21)
(1.95837 -0.780829 -6.92461e-21)
(1.17078 -0.451983 4.31221e-19)
(1.07007 -0.555315 0)
(0.944392 -0.467517 0)
(0.0739362 -0.41355 -2.27978e-19)
(-1.55636 0.315602 -1.70532e-18)
(1.38025 -0.65579 0)
(1.03991 -0.527943 3.64941e-20)
(-1.8245 0.792157 0)
(-1.29473 1.88257 1.44173e-18)
(1.12986 -0.527185 -5.58683e-19)
(3.38162 0.235204 -2.25508e-20)
(3.14412 0.571145 3.85798e-19)
(1.21892 -0.411156 8.7242e-20)
(2.45516 -0.132746 1.32008e-19)
(2.35269 0.962861 0)
(2.45254 0.847898 0)
(1.09423 -0.00139337 0)
(0.280978 -0.285279 -7.3226e-19)
(1.41861 -0.537548 0)
(2.37934 0.73486 0)
(2.02073 0.0531439 0)
(2.44475 -0.39095 -5.76942e-20)
(-2.085 1.91116 5.27052e-19)
(2.02982 -0.776128 -1.98061e-19)
(1.51986 -0.581938 9.02744e-20)
(1.53415 0.23722 0)
(0.276435 -1.2369 0)
(1.99733 -0.595497 -3.48649e-19)
(1.57027 0.596463 6.34572e-19)
(-0.393982 -0.0933566 -2.045e-19)
(2.11561 0.188973 -7.64075e-21)
(1.74202 -0.470894 3.97226e-19)
(1.01552 0.425035 -1.04272e-18)
(-1.68105 0.283406 0)
(1.24464 1.33989 -5.61283e-19)
(0.381818 0.39043 -6.53992e-19)
(3.24881 0.298226 0)
(2.25085 -0.0303034 0)
(1.68339 0.00688018 0)
(2.06651 0.0247228 -4.15655e-19)
(1.40403 0.305107 -4.43747e-19)
(1.6735 0.154244 0)
(3.31786 1.38128 1.73009e-18)
(1.80013 -0.808409 3.64057e-19)
(2.46728 -0.362631 7.04495e-20)
(0.56628 -0.44096 4.73059e-20)
(2.06582 -0.287655 0)
(2.40477 0.0287762 5.72582e-20)
(1.78931 -0.437428 0)
(1.47888 -0.765314 -9.80328e-20)
(1.74141 -0.793827 0)
(2.13748 -0.768872 4.37441e-19)
(1.51326 -0.300621 -4.41525e-22)
(2.0387 0.0774015 -1.03624e-20)
(2.48543 -0.381056 0)
(1.82328 -0.786031 0)
(1.60874 -0.681816 -5.08551e-19)
(2.27223 0.356615 4.83864e-23)
(1.04136 -0.928492 3.53942e-20)
(0.87026 -0.418683 4.37742e-19)
(1.89287 -0.0864645 0)
(1.58909 0.223268 -6.7131e-19)
(2.25172 0.0533569 -3.51798e-20)
(1.58653 -0.575943 -3.95015e-20)
(2.05524 0.119331 -1.1894e-20)
(2.05809 0.138036 0)
(1.19108 -0.339961 6.13219e-19)
(0.982169 0.169831 -6.68055e-19)
(3.77039 0.50364 1.03881e-20)
(1.86972 0.218794 -7.51536e-19)
(0.68536 -0.47378 3.69103e-20)
(-0.251353 0.27543 -1.58185e-18)
(1.59875 -0.269055 -1.34615e-20)
(2.04384 -0.0696681 -3.91003e-20)
(1.64817 0.486192 1.5185e-18)
(-0.468214 0.188655 7.66352e-21)
(0.640437 -0.591436 7.17198e-20)
(0.935379 -0.93201 7.73872e-20)
(1.78983 -0.0604327 3.3297e-20)
(2.39246 -0.214768 0)
(3.89196 -0.38042 2.50486e-18)
(1.15063 -0.561471 2.46521e-19)
(1.65857 -0.236445 2.3796e-19)
(-0.593428 0.179733 0)
(1.64149 -0.401256 -6.3844e-20)
(2.00122 0.0239481 8.52297e-22)
(1.97716 0.0588465 0)
(-2.19139 0.844881 8.61659e-19)
(1.33627 -1.02903 2.57212e-20)
(1.67113 0.410068 0)
(1.04883 -0.388548 0)
(1.61955 -0.509294 -5.79572e-20)
(1.61933 -0.634942 -1.30806e-20)
(2.77558 0.127182 1.74165e-19)
(0.232812 -0.350035 0)
(1.97403 -0.105669 -3.88541e-19)
(2.01888 -0.533335 -6.50343e-20)
(2.2032 -0.747802 2.5124e-20)
(1.22158 -0.474959 5.42324e-19)
(0.577081 -0.729363 -7.57612e-20)
(0.740433 -1.06248 6.63654e-20)
(3.63 0.503006 -8.99679e-21)
(2.01264 -1.28877 0)
(2.50125 0.913696 -1.38456e-18)
(1.59665 -0.626938 2.54455e-19)
(2.09426 2.01723 1.90014e-19)
(0.860144 0.587697 0)
(1.17326 -0.225393 -5.41167e-19)
(1.22899 -0.524825 -6.58058e-19)
(0.195831 -0.635437 1.33193e-19)
(-1.92071 2.00779 -1.61247e-18)
(2.48018 1.60802 0)
(-0.321802 -0.0167982 -8.56397e-19)
(2.28378 0.521177 0)
(-0.633294 2.04884 -1.18591e-18)
(-0.0778508 -0.442507 1.55142e-18)
(-0.872404 -0.0309988 0)
(0.364765 -0.794083 4.08161e-20)
(1.65664 -0.106803 -9.82298e-20)
(-1.86751 1.46599 6.31828e-19)
(1.69143 -0.667298 4.61647e-19)
(-0.110716 -0.306938 -4.46151e-19)
(1.19745 -0.550318 0)
(2.01573 0.0225949 1.31671e-19)
(1.48734 0.232116 0)
(2.23476 0.179597 -2.30227e-21)
(-0.447434 -0.261922 -1.58809e-18)
(0.570552 -0.222752 2.85481e-19)
(2.05042 0.141277 0)
(1.89837 -0.762388 -3.47673e-19)
(2.73605 -0.322562 1.21727e-19)
(0.543647 -1.11194 1.89888e-19)
(1.37838 -0.957527 0)
(0.580049 -1.03661 -1.68779e-19)
(3.5583 0.547423 -9.57814e-19)
(1.65019 0.221781 8.59457e-19)
(1.87963 -0.335 0)
(2.11046 -0.144705 2.1953e-19)
(-0.514416 0.249664 1.00443e-18)
(-2.2681 1.60908 -3.19113e-19)
(2.1902 -0.592211 1.3519e-19)
(0.824741 -0.51463 0)
(1.73167 -0.209768 -2.75782e-20)
(1.99811 0.0757346 4.4175e-22)
(2.53654 -0.370928 1.06902e-19)
(2.1958 0.00874369 0)
(0.335871 -1.38953 1.78707e-19)
(1.67899 -0.472296 -4.56955e-22)
(1.28509 -0.37939 6.73327e-20)
(2.63937 0.264918 0)
(2.0587 -0.793843 -1.55137e-19)
(0.04807 -0.508736 2.86839e-19)
(1.76396 -0.44099 -4.96794e-19)
(0.00486835 0.282378 0)
(1.55066 -0.330745 -7.53168e-21)
(2.08412 -0.770633 1.27105e-19)
(0.55568 -0.517947 -7.88577e-20)
(1.67177 0.481737 0)
(-1.59129 1.11932 2.15705e-18)
(1.61004 -0.533017 0)
(-0.286393 -1.15597 6.13131e-19)
(1.65516 -0.717893 0)
(1.8906 -0.0982892 -2.49991e-19)
(2.13247 -0.243481 -2.563e-19)
(3.07796 1.27001 -8.70386e-19)
(1.582 -0.493441 0)
(2.01242 -0.860531 -2.40612e-19)
(2.00616 0.00683923 0)
(2.3291 0.34902 0)
(2.0965 -0.864733 7.08539e-20)
(-0.0426222 -1.13694 2.02112e-19)
(0.572171 -0.0505695 1.79434e-19)
(2.13304 -0.575994 -8.1088e-20)
(1.73377 0.339945 2.78881e-19)
(1.16358 -0.606335 -4.79635e-21)
(2.04828 0.283461 1.3852e-19)
(-1.82826 0.355972 -1.74194e-19)
(2.05042 -2.04039 0)
(2.43268 0.130822 0)
(-1.46442 0.183074 0)
(1.28763 -0.738349 9.54764e-20)
(1.18487 -0.407524 -3.80914e-19)
(1.51369 0.127484 0)
(0.73925 -0.372447 8.16291e-20)
(2.31163 -0.144325 -1.75602e-19)
(0.825748 -0.478085 -3.33992e-20)
(1.40502 -0.505095 -1.23869e-19)
(2.18486 -0.870213 0)
(-2.13428 1.39299 1.85143e-18)
(-2.29191 0.865668 -2.09563e-18)
(-0.856786 0.00242931 0)
(-0.828995 -0.101893 -1.08757e-18)
(1.99484 -0.0108152 -2.60342e-21)
(2.75085 0.123284 2.42287e-20)
(1.96832 0.0305335 2.52231e-19)
(2.8328 0.927011 -3.9296e-19)
(2.37172 0.148903 8.26598e-21)
(0.11406 1.41542 0)
(1.95675 -0.767551 0)
(0.606317 -0.294585 8.00518e-20)
(-1.27823 1.97739 0)
(1.64119 -0.353079 -6.45666e-20)
(2.17882 -0.777769 -2.30481e-19)
(1.0004 -0.471907 4.58848e-19)
(1.99229 -0.0789568 -8.17843e-20)
(1.76803 0.373327 -2.75324e-19)
(1.55616 -0.614743 -2.50334e-19)
(1.64369 -0.647002 -4.64257e-19)
(1.61588 -0.608175 0)
(1.74009 -0.68258 4.4003e-19)
(1.95915 -0.040025 0)
(2.52087 -0.401526 -5.30933e-21)
(2.03713 1.27984 7.6862e-21)
(1.57582 -0.396124 8.99414e-21)
(2.25068 -0.407819 -2.19578e-19)
(-1.09013 1.69084 -1.1754e-18)
(-1.86473 0.607309 0)
(1.57143 -0.920715 -3.55399e-20)
(1.03305 -1.93319 -4.28478e-19)
(2.10596 0.483637 -1.54084e-19)
(1.84495 -0.749561 4.06611e-19)
(2.0628 0.00232514 -3.99855e-21)
(-1.90712 1.74352 5.56469e-19)
(1.815 -0.76385 -8.35246e-20)
(0.350724 0.128451 0)
(0.911099 -0.528635 9.60834e-20)
(1.78361 -0.386318 2.62806e-19)
(1.95998 0.0032285 -2.50694e-22)
(1.20151 -0.529121 9.65568e-19)
(-0.362607 1.04551 -3.34607e-20)
(1.68479 0.622173 0)
(1.28139 -0.71094 -3.74329e-20)
(0.359898 -1.24417 -1.79146e-20)
(1.09723 -0.326383 -7.27946e-19)
(1.31884 -0.703592 4.39061e-20)
(3.00317 0.803748 -3.98906e-19)
(2.09221 0.290624 8.61181e-21)
(0.971939 -0.394586 3.29669e-19)
(1.80422 -0.374122 0)
(2.51457 0.108192 -1.51616e-19)
(2.2074 -0.0798366 -4.04283e-21)
(3.13609 0.69377 -3.91462e-19)
(0.818816 1.16076 0)
(3.43669 0.780182 4.0024e-20)
(-0.783772 2.03753 1.14329e-18)
(1.64379 -0.708647 9.84678e-19)
(0.868832 0.651547 1.26335e-20)
(2.93681 0.165836 -1.34972e-18)
(-2.30632 1.53105 3.96337e-18)
(2.01349 -0.755538 4.04853e-19)
(2.07162 -0.0103194 -4.54849e-21)
(0.38982 -0.0800767 -3.20008e-21)
(2.57169 -0.0519689 3.30647e-20)
(0.250174 -0.0366739 0)
(2.03094 0.0483091 0)
(2.29918 0.513568 0)
(1.78625 -0.698794 -3.82189e-19)
(1.68211 -0.777199 8.80091e-20)
(-0.466257 0.541001 0)
(1.24211 -0.374499 -1.57646e-19)
(-0.310824 -0.935062 0)
(3.24364 -0.67255 0)
(-0.36815 1.03708 0)
(2.00342 0.0257639 0)
(-1.75476 1.36704 -6.84314e-19)
(-1.95164 0.458413 0)
(2.68235 -1.47957 4.95826e-19)
(1.67043 -0.0128264 0)
(1.98851 0.0783835 0)
(1.9862 0.197412 2.94704e-21)
(-1.85321 0.439759 0)
(1.95405 -1.00603 0)
(-0.188897 -0.00549128 0)
(2.26254 0.0345203 2.39815e-20)
(2.18623 0.591273 0)
(2.18628 -0.851569 -9.12946e-21)
(1.04801 -0.580444 -5.33633e-20)
(-2.2628 1.17116 -6.21182e-19)
(2.04105 0.0853074 6.03034e-19)
(-0.179728 -0.0304649 -2.82957e-20)
(1.11848 0.872928 -5.50296e-19)
(1.51129 0.741299 0)
(2.40788 -0.35924 7.58784e-21)
(1.67506 -0.200913 -2.3233e-19)
(1.61928 1.67163 1.28776e-19)
(1.82501 0.365074 3.85584e-19)
(0.791713 -0.282774 -6.92597e-19)
(1.54039 -0.669633 -3.86785e-19)
(2.46692 -1.90368 7.78176e-20)
(1.46894 -1.03411 0)
(2.35525 -0.486097 2.52147e-21)
(1.57203 -0.98502 4.19176e-20)
(2.58293 0.216875 -8.33075e-20)
(-0.31204 -0.195095 0)
(1.91733 0.0518066 -2.8367e-19)
(3.19104 0.645006 -1.12879e-18)
(1.37361 -0.552353 4.99732e-19)
(1.25432 -0.57088 -6.03285e-19)
(1.68208 -0.780056 0)
(1.79038 -0.793716 0)
(2.36157 -1.37598 4.17509e-19)
(2.31498 -0.39702 -1.36604e-19)
(3.21861 0.0678326 -5.97575e-19)
(1.83661 0.0249165 1.17122e-20)
(1.22798 -0.342268 -1.46399e-19)
(1.71362 -0.509179 4.2114e-19)
(2.42414 0.241629 0)
(2.34785 0.244343 2.7476e-20)
(-2.37309 1.23912 -3.02334e-18)
(1.76932 -1.12064 2.64091e-19)
(1.06456 -0.218208 -2.57428e-20)
(-0.480428 -0.225765 9.04204e-19)
(3.17228 0.127973 4.99e-19)
(2.62482 0.588499 8.88867e-20)
(2.37701 0.620526 0)
(1.14648 -0.857591 0)
(2.24956 -0.855529 -1.98119e-21)
(1.18115 -0.250828 0)
(1.86131 -0.388824 1.74925e-19)
(1.67976 0.283752 4.85376e-19)
(1.65756 0.502604 -1.40262e-19)
(1.61656 -0.651479 1.00634e-18)
(1.99252 0.0986539 -3.0461e-22)
(1.69756 0.00896238 0)
(1.89626 -0.0399261 -4.63211e-21)
(-0.288184 0.796678 -8.18746e-19)
(2.15847 0.18673 0)
(2.61558 -0.395213 0)
(1.92831 -0.778973 1.48944e-19)
(1.93986 0.635054 2.05443e-19)
(1.10998 -0.164178 0)
(2.24738 -0.747489 -8.35105e-23)
(2.41541 -0.0310033 1.4513e-19)
(2.2941 0.287528 1.44739e-20)
(1.76493 0.464653 4.12108e-19)
(1.22085 -0.675038 -4.2893e-20)
(1.52111 -0.463472 0)
(-0.721693 1.47406 -2.813e-18)
(0.535731 -0.234992 1.03534e-18)
(2.03201 0.0157983 1.53274e-20)
(-0.916813 1.95029 -1.22888e-18)
(1.81983 -0.762616 2.87925e-20)
(2.56614 0.247003 2.25464e-19)
(2.15073 -2.0213 0)
(1.99953 0.150009 1.43173e-21)
(1.85575 0.0551426 8.79119e-20)
(2.23578 0.0122237 -1.5373e-19)
(2.15678 0.337785 -9.66983e-20)
(2.23433 -0.812542 0)
(1.22846 -0.621004 0)
(2.39274 -0.0161273 0)
(2.27075 0.339989 -4.2569e-20)
(1.07341 -0.504422 7.19691e-19)
(2.4759 1.7223 -1.10976e-19)
(1.49613 -0.0752768 0)
(-1.1991 0.127642 -1.82149e-19)
(1.24026 -0.77785 4.46995e-20)
(-0.879523 -0.903203 0)
(1.91775 0.284315 -1.24687e-19)
(1.67623 0.25113 -1.62343e-19)
(2.58381 -0.447338 -6.74437e-20)
(2.04159 0.117201 -8.46093e-21)
(0.693227 -0.245456 0)
(2.20557 0.142407 -1.34967e-19)
(2.03019 -0.431189 0)
(2.04942 -0.290067 9.44126e-21)
(1.00504 0.0441224 0)
(2.28711 0.871902 4.99998e-20)
(1.71241 -0.690099 -4.49796e-19)
(2.49177 0.811794 0)
(1.84056 -0.0872609 -4.39086e-19)
(2.05228 0.122806 1.37155e-20)
(1.71421 -0.280696 0)
(1.149 -0.544461 0)
(0.530074 0.202682 -8.783e-20)
(2.53294 -0.216258 -1.14052e-20)
(1.46784 -0.879574 -4.50409e-20)
(0.645523 -0.384729 -1.80693e-20)
(2.44815 -0.140623 6.94829e-21)
(1.75702 0.284752 6.20303e-19)
(1.74267 0.411361 -1.78398e-21)
(2.07268 0.508826 0)
(3.48293 0.642444 5.1385e-19)
(1.72971 -0.791571 0)
(1.52955 -0.696281 -4.23165e-19)