/*--------------------------------*- C++ -*----------------------------------*\
| =========                 |                                                 |
| \\      /  F ield         | OpenFOAM: The Open Source CFD Toolbox           |
|  \\    /   O peration     | Version:  2306                                  |
|   \\  /    A nd           | Website:  www.openfoam.com                      |
|    \\/     M anipulation  |                                                 |
\*---------------------------------------------------------------------------*/
FoamFile
{
    version     2.0;
    format      ascii;
    arch        "LSB;label=32;scalar=64";
    class       volScalarField;
    location    "2.6";
    object      p;
}
// * * * * * * * * * * * * * * * * * * * * * * * * * * * * * * * * * * * * * //

dimensions      [0 2 -2 0 0 0 0];

internalField   nonuniform List<scalar> 
13486
(
44.6548
41.5025
11.3435
-111.198
-7.24533
12.1823
-29.649
10.8348
23.034
30.5794
-114.726
14.0541
46.4412
12.7526
-9.00289
31.6225
-115.756
-48.9124
13.3682
41.2635
-142.78
45.79
40.8586
32.2797
27.2735
34.19
-81.1429
6.64379
-2.37556
7.81535
-225.305
-1.24162
3.21963
-11.2125
10.946
0.778881
3.68004
30.2432
-6.11606
25.2353
-40.964
48.9736
3.35072
27.2818
27.1139
14.3358
-189.639
0.105994
3.57886
5.48384
31.7895
-9.46302
14.0184
31.6093
-69.4844
-4.97171
4.73606
-9.55409
5.00238
5.04035
-91.6503
4.91497
-69.9564
-146.165
-82.5763
4.03945
-102.865
47.6285
22.5724
0.554853
-101.214
-57.2362
28.3698
-56.0383
4.3451
5.14608
4.03674
-10.7078
-213.993
-289.563
0.472321
42.9674
-83.4277
12.684
44.6834
39.9329
8.63428
31.1266
35.5525
35.3933
3.62106
5.35891
41.4202
41.2664
22.848
0.822967
-78.4873
-93.6853
25.2926
-127.667
0.816065
13.9464
-97.9243
-8.76957
46.2331
-132.606
32.9839
-7.81974
-202.973
0.317853
18.6415
-15.1408
31.6017
2.0272
55.6863
19.2737
28.1769
-12.4916
28.6613
3.32762
-36.6054
-88.5514
25.6004
-8.08724
18.1264
-8.0048
12.7527
19.9262
-14.7648
-76.8909
-7.95049
-184.099
-24.7232
-56.6451
32.1845
33.7064
64.2076
1.37272
3.15086
13.2605
1.96187
14.5828
8.01828
-275.526
5.19629
-58.0055
17.4019
64.407
4.73014
-2.586
26.5807
-16.007
0.397869
43.9329
21.1749
11.2878
-8.26438
-83.6883
24.9091
8.04548
7.16062
24.9014
-6.79179
48.1826
-9.94074
7.99329
16.1151
66.2314
17.2453
-55.7803
-27.5967
21.2423
28.8164
8.06565
0.695102
-95.4548
11.6855
-3.27235
32.8484
8.71439
22.0177
3.29127
6.96796
-31.2488
15.1255
6.11612
-3.97767
-0.344416
-39.5895
23.1274
3.43495
8.09528
-16.1433
51.4918
-23.3448
-116.248
-82.6632
7.44513
36.3664
9.5503
-254.105
19.6196
30.172
-15.4146
8.50927
-23.5132
-87.783
32.5764
-14.8078
14.796
3.55103
42.1813
40.8302
33.0374
11.9351
-186.119
8.9091
35.5433
38.2947
-19.4607
-123.29
4.23123
14.3917
7.16643
16.3109
41.0833
7.88092
-283.902
-157.466
8.28101
21.7309
-100.53
1.69908
50.5142
-136.519
38.5458
-8.26366
8.5065
39.1751
10.8278
6.81649
28.6296
4.55889
35.7668
-1.3766
36.9003
13.1119
31.2698
-62.3612
28.6948
-53.4232
56.5312
16.7347
-11.1114
-192.168
-78.7066
-0.107226
-211.235
-52.7819
6.89822
38.2866
-0.195791
-8.55966
-79.4535
-7.50037
-31.4201
-122.18
-223.628
28.042
0.521508
44.0048
33.0255
7.74468
15.1528
41.2749
25.8167
-151.227
-148.017
-13.9224
18.0981
-158.842
18.8221
33.7015
4.61542
-76.5926
-129.849
-1.63031
-14.3362
16.6821
28.3507
-139.6
5.99233
22.2926
32.1896
-10.7754
-5.0247
7.17196
15.9375
33.7935
-38.7783
-7.17826
-87.959
17.7524
-1.32109
3.00123
-18.4788
-99.4624
13.2313
1.15614
3.53926
-27.0414
-108.829
16.3815
-13.3064
-89.149
34.1285
5.91783
35.7992
33.0967
-106.332
3.88453
4.36194
32.7278
41.9458
63.866
3.09572
5.40656
18.2102
16.7041
3.01786
31.3321
3.34195
2.43626
48.2533
-29.9589
20.369
56.397
-14.3997
27.9658
1.14165
-108.545
41.7372
1.2765
6.70536
-34.3727
0.301356
12.6011
53.8518
-19.4769
5.85137
14.5177
16.7535
15.7508
-65.2948
33.5885
1.88243
-55.5711
12.6259
4.25883
35.8158
13.1537
7.04546
37.668
33.0914
5.58761
0.118938
-7.1952
-156.91
41.72
13.0576
2.75895
13.2954
17.7078
-47.5438
13.1882
31.8381
32.6157
4.42967
-85.1483
-27.1119
27.2429
0.792353
48.5104
45.449
-157.079
-130.771
16.5536
27.6884
-73.7271
-147.679
39.8478
9.43413
23.8295
40.2649
50.182
3.2428
-110.972
-47.3757
-87.7302
-1.43156
-77.7923
27.2068
23.3563
-93.2493
-26.7506
17.1256
40.8681
-2.24194
14.7837
40.6572
26.7036
11.9662
10.3669
33.9896
32.5924
49.1747
-31.3407
-6.59922
-38.5804
10.6665
32.91
-53.6499
54.1528
28.6405
7.1364
-1.76663
19.4949
33.8794
-88.7682
17.2178
45.6739
23.6284
23.5538
17.9459
-13.3629
20.5992
48.9173
5.64004
8.50347
46.9474
-129.142
10.8426
-60.0221
11.4191
11.7675
32.0052
49.9805
45.9959
-27.5041
3.23485
-35.4257
28.3509
36.2386
5.88188
-0.115444
32.6678
-46.6781
-98.6977
2.44446
-45.2638
17.5272
36.2564
0.870601
17.5301
-126.183
34.2812
-0.960314
61.4423
41.2412
26.5213
7.89191
1.27602
0.863032
56.0183
-18.1184
3.12133
6.93148
20.6175
-131.613
16.0605
29.2291
2.33693
5.63595
40.8907
-15.1993
-98.7386
28.2354
-161.918
65.6554
28.3803
31.9226
34.5967
-87.5334
13.8861
56.5223
-11.4834
41.4902
-34.7483
20.787
-226.466
-233.298
3.58305
-144.179
36.5457
18.8158
-55.5875
-3.22951
11.4873
50.2073
32.1922
-104.994
19.7791
13.6861
6.18342
-7.66721
31.8679
-37.5324
48.1135
3.64458
0.590425
48.7079
1.34114
0.783853
15.1416
-262.588
-54.9892
12.6756
-2.68441
26.1934
41.5377
-34.7905
-15.3329
-35.4633
0.771371
38.5945
20.3553
-31.9802
-95.0337
-54.3607
-72.1452
10.7136
-115.241
0.132549
19.7837
47.5233
-170.182
37.4976
-61.9036
-43.2806
-4.95916
23.1069
-37.803
31.5206
13.828
-85.92
15.5079
29.7994
11.3598
-33.2142
31.9858
39.8029
22.6809
45.2782
13.621
28.555
19.617
33.1524
4.40804
38.2422
-69.2624
27.4188
17.92
-16.8717
23.736
32.1415
-121.119
15.3127
48.4893
45.3244
-371.893
-70.1305
22.0041
14.4756
24.436
33.3229
-23.9571
-74.2266
15.2707
42.8808
18.5033
17.8674
23.9375
45.5985
-84.7211
3.69848
32.5498
5.85241
-226.199
33.5618
11.4219
16.5586
14.2863
22.6483
-7.04087
44.389
19.3934
16.4593
17.1812
17.2877
-2.39097
52.8052
21.2293
52.3881
-272.674
29.6656
1.10641
-57.9011
-3.04888
28.4457
55.9013
-84.1328
-0.332935
3.98191
-21.691
28.4311
-76.3589
9.88384
23.5201
-32.78
18.4968
27.3792
18.5817
-43.7581
34.4119
0.614079
50.0086
24.2789
7.75089
-43.8819
2.15468
21.5998
-79.9263
13.7754
-136.813
38.191
0.100686
4.45619
-57.2215
48.5714
-0.0471706
-3.12923
48.397
31.7957
-33.2492
-172.714
14.0461
16.8729
17.0989
4.48262
-332.145
22.491
24.4979
21.0891
20.7201
49.3095
3.91424
-130.509
32.1281
-48.957
11.7162
7.09058
29.6568
24.701
-31.6455
13.8099
3.71647
17.0297
38.4848
21.2682
17.1083
12.9867
-48.4834
-25.4822
38.4169
6.91333
15.2904
23.8408
47.5752
-15.3956
6.4479
52.2609
2.57457
-49.0906
29.363
19.2485
37.9657
5.11023
32.5879
-101.794
-58.2803
34.4394
0.510943
-107.641
26.7549
54.2246
-141.053
-30.2804
6.82726
38.8995
-4.979
24.2304
-61.9669
55.6781
-31.6732
13.8382
5.20893
27.6882
35.5674
30.156
-24.1118
-140.01
47.9484
32.7801
-15.8478
24.7776
-53.3608
14.0891
10.2141
27.3965
-48.8512
-80.6899
40.1129
-25.7141
-15.8169
10.0432
-56.0679
-140.813
-3.2174
31.7029
37.3697
-173.502
15.3959
-33.2923
-138.41
16.2075
-60.6935
6.00443
32.5326
15.9426
-1.73855
28.9179
-183.504
-131.798
-75.5625
4.74549
-155.808
42.9012
2.26282
-73.7815
17.215
46.69
3.19912
-116.113
48.4694
44.6113
-379.533
-46.3333
22.0909
-133.166
5.72486
-15.5645
16.0765
-4.77499
-99.9778
23.897
28.7391
5.94142
-164.061
18.9478
12.356
16.0857
30.5753
15.2278
-127.9
37.261
42.9289
-224.467
-71.5464
25.8237
-23.2787
16.3801
-4.9607
0.193125
-120.15
12.7552
33.4189
52.8304
31.4815
17.244
12.9912
32.7884
42.3193
27.6073
23.6909
31.0282
49.9344
-26.01
2.46186
18.1601
-21.5335
47.951
15.4762
35.4362
16.2984
-100.972
14.1281
13.3235
-5.73321
34.0853
43.7844
29.2245
25.6196
-198.669
10.0791
-63.7939
-5.72624
-8.34641
16.7927
5.05909
-40.6666
-85.5914
26.1084
5.9837
-63.1827
-127.726
-89.779
4.5109
-127.261
-114.681
33.52
-253.421
45.6614
-306.869
-62.6291
28.3639
39.1728
4.35006
16.6517
-34.7481
35.9039
-5.36931
-29.2437
-157.045
3.14339
-157.769
32.5615
4.38321
27.2684
4.24073
20.9785
-93.9139
4.58041
1.83161
32.7787
4.17403
-114.86
15.7047
45.3485
-2.6285
-148.748
-158.728
30.8245
-86.9596
4.88171
14.5059
-3.84461
4.0167
6.60894
-74.8755
36.7602
32.6321
29.2254
24.5064
-0.380801
-96.6907
30.6237
10.4024
29.2435
33.6156
-281.219
-11.6771
-177.293
13.8143
3.07293
36.6711
23.0464
-48.3774
33.1372
-58.7605
14.8057
55.0957
13.2822
-16.1719
28.6368
16.5855
-2.18073
-183.691
-126.493
30.7782
4.12278
2.86658
4.19176
5.8802
33.2437
-33.5243
0.226378
33.1314
16.9308
48.2528
37.3064
37.3177
14.1273
32.6335
8.87735
9.7335
6.33569
25.4757
-110.815
-16.7356
-133.871
-41.4139
-52.4196
29.2947
-27.7416
16.0918
-33.1426
-118.894
2.26163
34.3217
1.80304
1.74954
-51.3355
32.56
53.2427
17.0283
-67.1356
27.4273
-159.051
29.9508
8.1822
-2.50569
31.0999
-13.3076
49.4069
15.6312
32.7492
-0.996739
38.1267
5.76049
37.6037
3.72508
9.6755
12.0108
-38.4346
15.3794
4.11148
-82.5235
45.9994
32.5237
37.9497
40.8084
38.2931
33.1125
-97.192
22.9217
32.6489
33.1889
-19.5229
7.78694
6.01074
11.7973
4.88303
25.8147
-64.7585
63.3847
-2.44506
4.69809
52.8742
43.2787
-14.6023
18.8605
26.2208
26.6038
-58.6832
19.0606
-64.3825
5.97294
32.68
38.9837
-3.37897
24.8873
37.7754
0.266394
7.31249
39.4782
11.747
3.31657
-60.442
12.751
-4.75469
33.9395
40.2282
4.46671
-220.471
13.3789
2.22975
-3.14038
14.3628
46.8943
-6.62115
59.3172
29.6327
13.5297
33.0964
-33.9404
-29.9032
-89.2882
30.933
-4.60779
-58.9549
-271.338
24.97
28.6983
2.06358
2.26506
-121.486
-2.35861
7.5674
4.61889
17.8686
9.55435
35.6681
33.7652
37.2127
24.1956
-14.7867
9.77722
3.64007
13.2606
-355.327
27.1035
17.3194
-304.152
0.500074
5.19416
-4.7436
-63.8537
16.3766
27.0934
9.00622
16.7712
7.98367
3.87283
20.2037
16.5327
1.7432
24.8955
29.8104
33.2612
-56.4236
32.0079
4.51407
41.4223
20.1102
26.1096
-1.06211
12.0689
48.7685
57.9318
20.8963
-8.44243
29.4686
18.1281
49.2191
3.98239
3.57487
-57.5263
15.0355
3.73047
-195.148
32.4685
28.7691
2.36176
-29.1678
9.46735
24.2504
55.0056
-38.821
31.2405
-93.1084
33.7915
46.1068
-16.3225
13.8727
-366.074
39.768
13.0046
58.1015
12.2627
6.55779
25.2078
16.3244
-35.6983
-59.0732
-23.8758
37.8121
10.9128
-6.6999
44.7294
41.8634
-26.1823
-24.4932
11.3997
19.1419
27.7353
27.4775
38.3496
14.7534
-156.007
41.3011
15.3456
-25.8526
8.38776
36.0765
32.3426
-59.7712
-101.776
-4.91523
31.6188
47.5939
13.6051
0.22869
-4.33885
55.3531
-208.033
1.20293
50.1455
31.8028
16.3186
15.3497
-110.155
0.304896
-59.3036
-193.072
1.55244
-79.0822
15.9931
-100.774
-130.807
-107.912
-133.993
-56.8586
-81.0548
-51.8154
50.8892
33.8578
-9.15505
-130.275
-0.798705
18.7845
-14.8944
59.014
2.1004
4.41824
31.8544
-46.2002
-76.3958
9.61018
8.66819
28.9004
60.7706
-2.45052
-19.0143
30.7901
15.16
4.11946
17.9675
6.37508
41.7375
32.8295
34.375
-268.415
-166.442
6.34286
22.3925
32.7733
22.5147
34.1226
56.0876
52.1124
-37.5005
31.891
39.4798
4.90438
37.8664
-2.98268
51.1276
37.4371
15.7984
37.7442
26.0315
8.83448
9.3318
36.6269
7.4279
19.9266
-14.3447
0.617372
12.2726
29.9446
-3.01316
5.71191
48.8052
48.4084
6.39805
-56.7235
14.1647
-52.5277
-36.7828
33.2749
41.8512
-61.6945
33.3709
20.8307
10.7552
22.4265
-51.513
-357.096
4.75611
59.7698
-13.6164
11.3586
40.3192
12.1146
6.00388
24.9842
15.1468
30.6096
-19.005
1.5806
14.6889
10.1945
2.35083
7.07997
53.5346
42.9874
31.0746
66.1696
48.029
-3.13905
-4.75689
-97.2488
-4.88762
48.431
-340.084
26.1627
17.8565
-36.1015
-1.63601
32.6797
18.3737
11.3645
31.1187
61.2712
-59.6482
11.375
17.4707
26.2098
11.3212
-157.295
47.2893
36.7823
21.4329
30.7694
-3.706
-15.4262
-147.75
51.8349
3.72689
57.7369
-80.2989
1.86662
-69.1891
-9.01904
-55.2825
4.63033
-16.2094
22.0349
5.94962
21.8614
-127.65
0.175688
-178.599
-56.7453
5.40383
-36.7631
13.5798
-16.4022
-118.116
-80.5912
20.6981
21.7357
49.1967
32.613
6.68136
12.7273
68.0281
25.5287
-103
1.06199
12.8493
30.8099
20.4957
41.5227
-1.89093
-1.43565
8.46676
0.208864
14.1798
42.4336
-58.5922
-34.4779
-140.778
52.7904
-90.7058
16.1511
36.8181
-75.2103
12.0289
-1.19122
-67.4007
-43.7311
7.55394
29.2481
29.6495
36.1729
-36.8668
-54.3527
-0.379443
-226.109
5.51559
-16.3538
5.34795
-73.8218
-3.74424
-98.7031
-54.3717
28.0897
44.5216
-140.981
51.9204
-39.6753
-204.298
1.37436
3.88939
39.7065
18.0834
42.6964
14.3714
-37.5463
-76.1592
36.899
-55.7379
29.7257
3.22898
44.6268
40.852
1.80711
30.7498
48.3241
25.8705
31.6986
-27.3207
-221.445
6.37035
19.8512
-17.8261
-0.414181
2.78281
11.6334
-109.857
14.397
6.43922
12.3569
4.82622
3.73192
50.9722
14.43
0.691509
16.5506
32.5962
-44.2097
-2.18747
26.377
3.20258
10.3802
10.6476
21.583
32.6216
32.282
0.131351
33.8259
37.1828
28.702
-32.0227
4.43284
20.4303
18.2316
-3.34667
-59.1497
-171.487
-18.1451
-107.863
0.754788
-13.139
1.70833
-75.5322
3.6257
-67.1923
6.69902
-31.731
22.6934
-33.311
34.7766
66.8593
23.0889
-159.416
24.997
17.7091
14.1444
1.28805
7.24997
-40.4236
13.9663
36.4226
-10.9634
47.0507
0.941598
32.2515
11.6254
7.73885
-77.5172
-4.95116
58.4264
-114.27
32.6802
32.8094
41.5436
13.5948
36.6816
22.6146
-62.5633
26.0878
-68.1605
-177.342
37.6126
31.8617
-29.2094
20.9311
39.9
-42.9744
-36.3418
3.06872
4.41973
33.0759
26.2216
36.247
16.2526
20.9299
-27.0578
6.32006
-51.5623
36.221
57.2467
16.5974
-225.227
-72.2733
19.0195
13.4393
13.5424
-15.2505
-81.6995
11.9982
-87.0224
-10.9893
61.917
23.7816
-16.1818
-211.62
-68.4269
26.7756
-101.246
27.9742
-35.4434
40.717
26.0177
8.31071
55.2564
1.11876
-60.9644
-132.184
-179.592
25.8849
-47.5575
21.8191
22.1882
8.04218
-13.5188
-132.081
-108.205
-294.077
37.6117
-68.7746
-0.880924
-140.503
32.866
32.1875
-87.8352
36.9492
31.4062
43.9559
48.0663
26.3292
15.8229
60.3503
-151.453
18.8953
-36.3663
-18.9182
41.5194
-162.033
49.9554
25.1701
-12.7491
-93.1011
-160.224
36.4023
-183.266
-73.7577
16.5897
5.10589
-35.5897
27.6276
18.7966
9.15217
52.7481
-61.6274
32.4482
23.8734
20.9582
32.5096
33.7782
66.5337
-3.06387
6.60309
31.6011
-8.45236
32.482
24.0109
30.2737
26.9749
-18.9421
0.10694
24.3303
14.4716
-107.904
1.30962
24.7767
33.0916
37.6187
-114.878
11.0923
-10.9403
27.2022
7.28239
4.05835
32.1152
-305.441
31.76
34.5249
-112.104
46.2132
25.3398
57.7506
28.1936
-62.8926
-3.46304
4.05361
31.0354
36.1783
-65.627
37.5833
34.1943
-9.6156
4.18603
14.5116
11.1867
-9.88366
-125.578
-0.71373
-303.018
32.9171
-51.376
-102.841
-64.1832
39.584
39.5016
33.1989
-50.6831
25.3853
-61.8863
13.982
26.4855
-106.962
-111.501
51.4272
3.78381
-68.4073
8.20269
-166.973
-109.093
32.8046
-118.231
-36.0648
36.3441
5.68347
33.3852
-44.9789
11.2174
54.5437
-29.375
35.7852
3.42855
-85.3424
21.9486
14.2122
24.2246
54.9142
29.3532
15.4684
56.4698
35.7372
40.5512
-216.974
-61.0181
-1.1897
-15.8346
-78.2333
-49.245
-12.0231
-41.2743
14.6166
13.0207
-0.0766876
6.01487
-80.0047
5.45713
37.1351
-187.488
21.2818
27.7569
32.6082
-71.558
2.23113
-88.9442
-107.361
-51.606
-23.2595
37.1734
-22.5326
44.3288
-34.3163
32.5454
-2.24256
5.56528
-37.8079
28.4515
25.9867
20.0705
18.997
21.7493
-75.3489
40.3609
43.667
33.0441
-15.0511
-83.7594
32.9419
15.4582
-15.9382
-33.2702
15.325
-12.6334
11.1545
20.2151
10.0095
5.31606
25.8624
14.8504
-0.464844
-45.7389
41.6522
-68.8333
30.0511
-0.817087
31.755
29.6571
26.9329
20.7729
-65.957
-141.529
5.83087
-16.1124
-145.283
12.1565
2.83238
-104.68
31.3817
13.9616
32.5882
-140.049
-87.5924
-27.02
-2.28652
29.542
-46.1658
25.0888
14.1759
-27.527
-69.976
-69.101
16.6055
33.0138
0.20313
15.3299
-27.4981
27.4069
-63.1951
1.77824
-34.6678
36.7734
12.22
2.7051
32.6731
24.5953
33.0008
38.281
44.3055
-27.1032
7.20019
-133.696
16.9167
27.9776
14.0129
-44.4633
21.2813
-47.1959
0.868993
9.90782
-57.8386
59.3382
-29.7413
30.7361
14.7221
-86.1328
-8.0643
9.91995
-112.643
17.3713
16.3707
33.6276
5.81065
32.8781
-29.7172
-16.6858
-123.117
-14.8481
10.2973
30.9483
54.0964
33.9125
-7.06677
-38.4002
31.4243
-89.6118
-99.7409
7.75075
-39.9731
38.0539
-69.4935
12.6266
8.31696
18.7579
18.5492
-71.0943
14.1104
36.0719
5.85882
-23.8529
36.2818
-5.89102
-93.4268
4.00001
11.114
-12.4627
56.1462
6.24777
18.7002
-9.87838
0.270698
6.26357
22.8063
-11.4689
13.0057
-2.37085
5.84915
10.4969
-32.1037
37.9489
20.7706
19.1318
-161.301
-9.51841
55.4655
-109.19
29.7609
31.0562
17.3735
-12.3074
11.9106
-74.6348
34.309
32.6367
28.3431
25.1499
-120.251
36.3824
17.591
46.0152
-30.6743
33.2997
38.7419
32.1062
13.986
-32.1788
21.6747
-157.131
10.5825
24.9508
33.0326
16.9923
43.6994
15.6221
47.9382
4.16089
32.3515
12.1537
15.4428
-94.5173
32.681
8.07656
25.2382
55.2653
33.9187
12.1802
5.77614
12.7186
32.3345
-2.25226
-90.3017
17.0735
10.6928
38.3612
-82.1447
45.1607
20.179
68.0371
49.4864
4.23144
-0.832629
-98.9297
16.5699
50.9227
16.9599
14.1196
-56.923
61.2623
26.9168
17.5397
54.2508
-0.349139
32.2348
-37.6694
30.0777
4.79893
25.8568
27.9719
37.5584
-7.82848
-218.417
13.9783
-61.4765
6.75934
-36.7845
12.0582
46.6568
42.275
0.501917
-23.6919
-14.8718
33.9279
19.3409
20.436
27.5122
-121.669
-31.0504
-150.362
34.4037
-27.5392
-191.919
31.2247
8.59698
11.9632
6.53983
55.6936
-95.4045
44.3686
-27.6219
57.7169
0.502827
-9.15256
5.0778
6.13956
20.8237
32.724
18.2227
-171.711
4.24652
-209.914
40.3613
8.58959
15.2972
-73.4882
-123.352
-23.6822
30.545
-8.61405
7.28874
3.83472
33.1915
57.5902
-60.4271
9.10087
20.9352
-106.505
25.1371
3.25188
2.65118
-141.587
-97.0929
25.1739
-347.449
-313.369
17.1485
-29.5756
-46.8479
15.7195
30.9108
30.0871
31.5533
55.3443
-105.54
59.551
-32.1958
55.4639
-65.8123
-1.64257
52.9928
24.0671
-261.325
18.0605
-9.42534
23.8965
-111.379
-132.797
15.6512
5.96544
17.446
0.928818
-211.087
23.2506
30.9214
-30.4755
23.9742
-30.7492
3.77993
-118.742
-1.57856
-15.4536
-118.552
-18.3974
49.6224
-0.0362788
52.6407
12.5672
-50.0776
23.2035
-4.95273
5.52117
31.55
35.4232
59.4151
30.4846
34.6438
-8.08594
-60.8221
57.653
57.9506
36.444
0.588298
-105.331
-161.609
21.0767
2.74286
1.83464
39.1695
-295.919
0.120225
-183.647
53.7218
4.63886
17.694
-158.191
18.4174
35.6005
64.7774
61.1068
22.7567
21.957
-15.6008
-32.283
26.8685
62.0976
-52.3115
4.81998
7.3502
0.571574
15.2474
12.3393
8.98383
14.362
14.5132
13.3511
3.53521
21.9334
39.9453
-25.334
30.182
-172.262
8.49662
50.582
-10.0755
-11.8103
-31.497
24.5769
24.0101
-79.6966
-35.6985
7.88589
9.12309
66.2612
-75.4552
-54.1349
26.5115
3.33452
-70.2182
-29.9145
-90.87
-29.1342
2.78855
-67.3149
-3.05509
16.2607
23.652
10.077
17.1179
64.6007
17.3333
13.8197
-283.726
19.1982
-61.9862
-18.4125
46.5783
31.1412
13.9041
-104.894
27.5921
31.6657
-92.5505
-60.463
7.95652
46.6724
6.56796
32.2062
15.9082
45.4511
17.7085
-190.352
5.29126
34.1645
3.96702
32.8289
-0.693345
59.7797
-103.542
10.2505
-127.997
27.5886
-88.2528
-0.523931
-105.091
15.8132
-14.4905
-120.831
-99.6525
-15.5996
8.12795
36.6069
-3.24845
19.9742
-183.986
17.7746
-107.964
34.1135
56.3556
16.9763
-66.2894
21.2414
13.609
-8.4518
-15.7608
7.79025
-128.78
13.5229
-40.1992
-14.6979
15.106
6.83781
-82.0711
-77.496
13.5859
32.5984
9.60068
-74.0429
7.46426
3.29453
-122.965
6.63394
-26.444
-75.3268
37.7798
-140.621
-6.26772
4.18811
-119.507
-36.7711
-104.158
67.6989
0.102111
9.31076
27.5601
55.5595
50.8407
-203.969
-32.1285
32.7079
-0.0151694
13.8526
55.6203
11.6984
12.3083
68.0901
9.04174
-26.2615
18.3575
46.7323
34.0015
21.7605
45.8226
29.4807
3.95617
7.28769
24.8976
14.0647
-90.5836
53.7719
19.8585
5.10491
3.50448
32.6577
4.43698
-172.26
-34.1153
11.8461
24.1182
35.9154
26.7932
-96.4265
48.7598
52.044
-50.4471
14.2969
-272.111
-107.449
-13.7933
27.5663
-105.817
5.87705
24.2511
58.114
-75.9952
29.0934
30.6281
34.8482
7.36659
17.9754
-146.446
3.85661
-5.33393
-8.89555
-212.465
-25.2671
10.6707
-110.847
34.8107
-140.491
3.43537
19.8657
-51.753
-140.173
-126.466
23.4365
-25.4606
10.1117
23.8898
27.5417
3.68073
-79.0231
-278.717
33.0391
-63.0755
56.4616
3.20583
61.7368
0.377627
5.64432
14.5795
31.9486
17.0162
-44.911
-75.6336
11.3864
14.8069
8.797
69.6321
34.865
-12.1439
6.29475
0.564857
-52.2781
26.6966
-109.606
27.7899
-178.52
-126.222
-67.4169
-21.7146
4.10837
-66.5398
28.2397
14.0622
50.1848
58.326
-103.785
-126.153
16.9515
-7.70194
52.357
-60.796
8.29307
23.8782
29.6697
-353.739
-64.7513
17.8481
-9.07468
14.886
-349.103
-27.2758
15.4475
-1.89973
-37.8429
9.38698
-37.7695
-33.5315
26.3373
-213.557
-191.697
-93.0586
-57.4714
59.5471
4.59221
32.5813
-84.4513
5.95134
14.0106
-5.75595
21.317
-95.6273
-73.1342
52.2916
32.5321
14.735
-65.6729
62.7978
-117.1
-37.1888
-165.722
-4.85273
-84.0423
-298.61
46.116
13.6431
18.9533
23.3741
-115.46
-66.9416
13.2756
13.4094
-36.9128
15.2876
22.7108
24.9963
-66.3209
-20.2573
-58.1742
-2.76928
-9.9455
-9.21637
59.9557
28.74
-63.0757
-7.40964
20.4262
48.6489
2.27351
-81.2874
-1.83625
40.0792
23.7356
10.824
32.9823
-169.969
51.7548
3.83019
35.5792
-41.3671
7.95362
3.46874
-162.71
-3.16624
22.2689
-83.7434
-75.4076
31.4537
-184.709
13.3525
42.0563
30.4712
40.8424
32.2149
4.6754
-0.824202
15.7366
22.5058
0.642898
32.0488
7.33533
51.5249
-105.067
39.6764
-11.2709
55.8796
-113.086
-0.0925318
54.5337
-105.905
5.52985
-89.903
43.154
53.7502
33.7885
-18.1088
32.6126
35.9762
28.6122
25.7777
-257.304
39.0308
-110.831
-131.259
-137.136
-148.044
35.2606
-11.0258
-209.825
8.06197
52.9478
6.23768
12.4321
-162.358
-2.85022
10.3721
-325.779
32.5654
22.2841
-228.748
61.3202
-13.9741
47.0643
39.0288
8.95553
1.96153
16.5127
-24.622
-204.449
14.0211
10.1142
6.75891
22.0749
-134.259
58.0929
36.8905
2.21424
-53.1596
24.6048
-312.109
29.4771
35.1618
14.3111
3.18257
34.4578
25.6351
5.03584
-57.3342
6.67591
27.5601
51.3864
-58.8023
55.269
63.7283
56.7324
-157.542
34.6627
-38.7337
32.6258
35.7253
41.0289
27.3782
41.7621
64.148
32.8843
-60.4167
-46.0779
-66.8448
64.2733
9.28514
-206.43
-77.6083
36.929
49.1643
27.5087
0.937133
-51.2945
45.781
-49.076
24.4321
-77.6569
24.2681
-0.441299
-25.6363
12.7477
-33.176
-36.0781
-149.582
-20.132
-63.8831
33.943
11.0259
16.6541
22.5326
-75.9344
-2.17337
3.41239
-53.5694
-40.7503
-66.9676
39.8944
46.9603
-117.907
37.6023
38.5809
46.1449
1.47743
-58.6872
27.1662
-80.5896
41.7016
-36.3815
40.498
29.7906
17.9842
39.5767
15.7743
36.7112
3.0924
24.8753
4.54993
-67.4549
-159.92
-79.466
36.0102
-12.6028
-330.704
0.906223
51.9002
35.2504
24.3547
10.8032
44.7934
-30.392
22.4276
-18.5898
6.50362
22.6325
-210.332
-89.6411
-7.51208
-115.709
-26.5353
-61.82
-14.9853
-192.283
-63.9692
16.3573
53.7715
59.3516
49.8315
-24.4462
24.6557
-50.6326
22.6928
47.7775
18.5215
35.47
19.6676
4.78838
6.66054
13.4852
39.0777
2.09184
28.0678
-115.835
9.33671
-133.898
35.1626
28.1407
32.5656
-82.1708
22.8467
-124.902
-197.752
-179.094
1.55797
52.6553
-44.5788
-84.1311
-77.3583
29.1095
32.7285
-12.6124
27.5971
-105.488
45.5922
50.6072
-321.563
10.4665
41.5496
-251.646
-94.0448
15.0464
39.3801
43.2916
-34.222
3.38283
13.459
53.0696
-230.774
-7.05821
13.5256
47.3832
14.872
1.36832
-222.266
37.3157
30.4337
38.3327
12.9226
-37.624
27.7424
62.6796
-70.0157
13.4588
14.4508
-238.627
14.632
6.74677
-63.7548
2.22378
-123.211
28.2275
-316.979
22.8571
34.6561
42.0917
23.0338
-21.1352
15.386
26.996
-103.928
-15.4636
5.93352
7.88261
-212.213
38.8837
27.7072
14.1822
23.5042
50.1754
-133.52
9.42985
34.5952
-160.704
28.5115
6.5363
5.26942
-20.3858
31.1739
-1.67389
5.31347
-13.949
-15.8725
38.2805
-17.558
-9.2995
-252.353
-256.185
33.0785
-147.749
56.3473
-63.7899
-148.223
-84.6982
39.7188
27.817
35.531
-104.466
47.5465
-12.6026
7.471
18.4907
-92.0362
33.1956
8.35903
-14.1416
7.76547
-43.4488
31.0264
-113.475
-221.747
0.23806
-21.1613
-41.7197
14.9128
49.8986
13.258
-43.1468
34.6197
-34.7802
43.3109
-14.5001
15.521
32.9073
34.0263
8.63712
-268.403
-56.0318
14.7101
21.2842
23.9482
-105.603
-88.4927
5.05794
-4.20424
19.253
65.4459
24.8586
32.1014
43.5158
19.1842
35.8867
24.8039
-146.138
-167.953
32.495
63.6401
23.1783
-2.10955
38.7842
15.7188
17.4999
9.89422
14.3523
11.9956
56.4576
-61.1393
22.7034
54.4605
39.6848
21.8114
26.1634
34.0019
16.7114
-113.305
-96.2975
27.5707
-56.0701
-59.6364
30.9762
-137.845
-53.0848
-22.8041
23.8183
25.1971
27.878
14.2422
35.8462
36.7886
-9.90771
29.5275
24.5343
43.9038
35.1518
0.772274
7.09345
-14.0126
38.2806
28.5815
-4.18395
15.7226
13.6938
4.29326
49.6019
31.364
0.814494
-36.5513
9.07265
32.5554
5.30932
24.5953
-0.290207
15.8368
-263.059
15.2454
-48.9683
11.7563
4.10994
-131.897
-2.25882
-90.1579
44.9232
-63.6242
-26.7197
-54.4202
51.0399
-288.615
5.22958
20.0904
-172.291
35.6144
32.6404
0.363147
40.9153
18.7497
15.4346
-81.3796
-37.9647
2.41278
40.253
-17.23
-37.7712
-236.886
-85.8103
-32.9206
-61.6077
-58.7101
-22.819
22.8226
32.6728
33.8055
-117.107
-70.1502
41.4775
31.9842
-32.5887
15.5663
-75.2752
4.666
18.5601
12.4746
31.3439
-163.329
-295.127
-296.956
21.7732
-6.40015
-87.5345
14.275
-35.7321
-105.003
-190.894
-45.0452
13.0474
-84.806
8.60512
-37.3624
33.7443
32.0377
-11.6936
40.3661
-62.0501
49.661
23.7168
15.9941
-5.68342
26.5122
13.5037
-56.1778
-115.846
34.4746
40.593
52.1108
-39.1496
-93.92
-68.4554
-11.1861
-2.83468
-80.1273
-19.862
-119.906
13.2002
-45.0547
6.0352
-45.0172
-17.0144
46.0239
19.2523
5.34409
1.26515
-16.1518
-63.2911
46.1413
58.7271
-27.9909
30.1188
26.6004
0.978069
-97.3337
39.2155
40.2582
-70.2212
-263.631
-148.364
-66.4316
-4.09771
-120.256
-0.513579
31.4778
-39.6468
37.2653
-75.2382
-203.952
33.2973
-1.76984
-144.187
16.3501
34.7426
-157.495
5.0444
-223.111
-56.8715
-133.643
53.322
-125.48
11.1855
-50.396
31.4436
-152.55
-130.573
-42.796
-116.422
4.42851
29.0729
1.93907
-80.3592
21.747
0.431749
4.08496
-81.2499
-107.321
5.7275
13.5616
32.4731
-182.492
42.6323
-47.2857
-1.32787
9.20454
-20.3944
-81.5494
-94.4261
22.2364
6.35484
23.5543
4.52407
10.54
2.65748
19.5682
-84.5308
33.0039
-67.1848
27.6353
-46.2498
-168.94
-25.1451
71.1953
-77.2562
-174.325
-131.806
13.5455
32.5472
6.80516
-16.2266
4.89523
-239.659
-35.7707
-63.9489
-109.642
23.6555
-204.353
18.1343
-237.66
14.1036
22.1223
8.63993
-11.0316
7.46423
34.514
-117.842
42.0954
38.5116
1.68314
-133.598
10.4863
-61.0062
5.39648
8.74414
34.99
-178.215
25.2142
-83.277
-40.8169
-167.718
-195.926
-40.6786
-4.02038
-128.454
31.7
24.4572
-44.5621
62.5789
-73.7361
40.1651
41.3884
-179.461
18.5316
30.872
32.5993
7.93282
36.0191
-1.93986
-8.68422
32.378
21.1614
14.9923
-113.85
-1.55797
40.305
11.5269
-82.8296
16.253
38.18
-13.9973
-16.6991
3.17387
31.4895
20.9869
-53.1829
42.9372
38.5631
0.276032
0.0222303
33.966
26.0159
13.8656
14.6109
-2.10989
16.9163
-21.672
13.6641
39.9693
22.8501
-14.992
6.73274
-13.1328
-127.557
25.9369
-13.3757
6.33271
35.1122
39.1223
-299.053
30.6184
14.5473
24.261
27.811
12.9957
28.6337
0.722873
33.8775
30.5858
33.6091
-33.1721
37.5814
33.3219
31.9192
30.3162
32.6904
7.60471
7.51401
9.45606
36.1746
49.4072
-69.264
57.0497
21.5648
-66.2391
26.9899
31.3053
-26.7596
13.3846
-96.2847
-21.4011
1.712
-156.48
-25.6189
9.94935
20.7836
60.3536
31.8934
-100.093
-160.824
24.2317
25.5027
-131.334
13.0721
-5.63631
-14.7621
-62.9731
-74.947
32.5522
-5.58052
24.4011
3.45617
3.31388
-78.861
4.05633
7.4072
-3.85214
35.858
15.0683
-11.3756
27.8687
-74.8026
14.0468
26.4419
-16.471
-50.1093
31.1885
-7.38843
24.8939
8.20345
31.7731
19.7562
46.9935
32.481
29.5844
9.41097
6.67613
-8.78085
0.118991
4.02538
-232.786
-52.2517
61.4148
12.1075
-130.788
41.9424
-69.8906
2.38799
-81.5058
-34.5622
-123.506
-25.6602
-8.91522
18.9349
-142.376
35.5489
-2.15499
-276.73
0.309392
-220.6
17.2919
31.2012
-96.8149
-125.905
-11.1747
7.99676
7.68393
32.5766
43.6196
-35.266
33.0279
3.53295
29.6905
51.0432
-54.4522
28.2669
12.6534
23.9186
39.5819
12.2175
-12.2225
-283.453
30.9313
43.7559
-215.089
-76.1985
20.7863
15.0917
26.2661
26.9106
-29.8256
-37.577
24.7996
-74.0779
14.339
3.81268
32.5207
15.3598
-56.6355
15.2611
-0.960639
-138.588
48.0208
55.875
36.0688
62.974
34.6634
57.0339
25.4654
17.7187
39.3787
33.0352
26.3478
9.48299
-60.2274
43.9695
-15.2085
2.29491
54.7082
15.72
-53.4953
26.1656
24.3097
38.3528
-153.046
33.3782
54.1364
-63.3682
-55.9608
-19.9328
15.884
-41.7438
33.4773
12.8437
39.6207
32.6198
-105.923
31.643
6.13277
-66.6757
-60.9117
-112.449
29.732
14.5911
32.7649
-11.4668
-95.2163
16.7362
-108.803
-0.684012
-6.22438
-150.648
31.7384
19.5161
-134.542
6.48791
30.8989
13.9231
-49.3396
26.516
5.4127
25.444
-157.486
30.5196
21.1164
-3.39179
-26.1111
26.8485
14.0061
21.8363
-123.87
61.0319
0.243017
-208.936
27.2163
20.0215
-119.211
5.1712
-32.4172
0.950865
1.44546
12.2654
13.4977
11.3759
63.8632
4.16276
-81.5787
16.0641
3.61744
4.22371
-50.9968
22.8369
31.2461
-42.5072
14.7276
-85.549
7.00016
12.9386
22.8949
29.8727
-4.27728
0.625467
-0.600971
32.8458
-12.481
13.3004
-170.705
5.70576
6.83814
34.6458
-192.035
4.60516
-195.728
29.3464
-110.414
10.3178
36.6575
32.4929
30.2669
-45.6793
-72.673
33.5251
-98.1711
37.7168
26.4229
4.07456
31.2119
4.04892
21.6255
14.1254
5.14331
38.3133
30.9233
-148.422
38.3631
13.5823
64.4037
14.6403
20.9488
34.0565
18.101
13.9184
32.422
13.0828
11.9464
17.5296
-3.13912
24.3876
13.0929
-11.1012
-26.705
-332.31
-42.6029
-123.718
12.9747
32.3075
8.14417
31.1586
14.6402
54.58
47.8193
23.4771
14.3859
23.0359
-142.011
35.6869
16.8485
16.7173
8.09497
36.0013
28.2704
-21.5966
2.64142
-25.2825
17.7562
-2.41611
7.14213
33.3653
-62.529
17.0167
-52.343
26.1586
25.2398
-19.4028
24.4293
30.9001
-23.2189
24.0589
34.1971
15.3885
-45.7592
30.2331
15.9749
45.6756
-85.5023
39.9166
29.5552
-112.827
6.15316
3.31968
5.32221
-52.4154
-298.696
32.5619
43.064
36.965
41.4587
29.5811
37.6707
24.5502
16.2062
25.3529
10.6797
17.7567
21.1351
6.26247
48.7896
9.71672
-240.652
30.4274
43.1996
48.417
-91.9055
5.53125
36.9337
-62.0305
25.8169
-37.0873
-96.7947
29.6997
54.1541
-137.023
-65.5532
-43.2059
24.4065
13.1858
18.7977
20.8023
20.8586
-105.277
16.2761
-5.51246
-31.5921
33.5016
32.3508
36.09
-0.838105
-41.7432
3.33499
9.58491
-14.5836
-4.06044
19.4216
10.7986
5.58083
2.99099
-31.1418
3.29103
27.4563
-207.413
13.9395
32.773
11.7385
0.516206
-90.5465
-45.7715
22.7912
30.5771
14.3258
-120.908
32.5615
32.931
-249.312
5.01517
-15.0026
-5.28475
-75.2421
17.3704
9.87445
12.1548
25.4935
26.7529
27.8424
3.37627
9.3669
38.8099
22.4243
29.9307
12.4471
27.0343
-108.929
34.4442
19.155
7.1837
25.6082
-117.588
-113.011
-273.687
-232.53
16.7854
-19.3253
-88.8654
34.9365
11.0859
-49.249
-18.0517
16.2912
32.5636
15.3847
16.4101
-43.7923
39.9166
11.4531