/*--------------------------------*- C++ -*----------------------------------*\
| =========                 |                                                 |
| \\      /  F ield         | OpenFOAM: The Open Source CFD Toolbox           |
|  \\    /   O peration     | Version:  2306                                  |
|   \\  /    A nd           | Website:  www.openfoam.com                      |
|    \\/     M anipulation  |                                                 |
\*---------------------------------------------------------------------------*/
FoamFile
{
    version     2.0;
    format      ascii;
    arch        "LSB;label=32;scalar=64";
    class       surfaceScalarField;
    location    "4.9";
    object      phi;
}
// * * * * * * * * * * * * * * * * * * * * * * * * * * * * * * * * * * * * * //

dimensions      [0 3 -1 0 0 0 0];

oriented        oriented;

internalField   nonuniform List<scalar> 
7520
(
-0.998636
0.792306
0.20633
-1.34125
-0.186781
1.52803
0.0214855
-1.8897
1.86821
0.232674
-0.0315277
-0.201146
0.0666326
1.48143
-1.54806
-0.0889124
0.0956164
-0.006704
-0.305174
2.09483
-1.78965
-0.159586
-1.7503
1.90989
-1.44505
1.46654
0.844439
-0.068945
-0.775494
0.0399053
-0.242112
0.202207
-0.266561
-1.68785
1.95441
0.71146
-0.105572
-0.605888
-0.0974321
0.135176
-0.0377442
-1.89294
0.915396
0.977546
0.11922
1.58171
-1.70093
-0.0245403
-0.0617994
0.0863397
-0.240052
0.106485
0.133566
0.0189962
0.0560526
-0.0750488
0.03715
-0.0616903
-0.409904
-0.274584
0.684489
-1.07756
1.19678
-0.0303454
-0.313625
0.34397
0.133266
-0.14082
0.00755375
0.0115382
-0.175577
0.164039
0.25251
-0.244893
-0.00761647
0.860787
1.1123
-1.97309
-0.0355077
0.315443
-0.279935
-0.0655816
0.0845778
0.196694
-0.0309889
-0.165705
-1.14953
1.75094
-0.60141
-0.0471537
-0.0178664
0.0650201
-1.847
1.99772
-0.150716
-0.297612
0.30064
-0.00302753
-0.26585
-1.26436
1.53021
-0.473002
0.991535
-0.518533
0.270074
-0.542957
0.272883
0.767588
-1.52212
0.754535
0.0913428
-0.316025
0.224682
-0.0443982
-0.101028
0.145426
-0.0279293
0.260603
0.373951
0.359586
-0.733538
0.28655
-0.0340399
2.13889
-1.60696
-0.53193
-0.549962
-0.616037
1.166
-1.49352
1.61909
-0.125573
-0.0559469
0.0585733
-0.00262633
0.261238
-0.076874
-0.184364
-1.34175
0.192226
0.272962
-0.0753217
-0.19764
1.79631
0.166993
-1.9633
-0.721031
0.251576
0.469455
0.191801
-0.184995
-0.00680572
1.04554
0.503318
-1.54886
0.0143302
-0.103243
-0.758782
0.12887
0.629912
0.396986
-1.25139
0.8544
-0.0414988
-0.122897
0.164396
-0.115202
0.0680481
-2.19393
1.10142
1.09252
1.22338
-0.55082
-0.672559
-0.0169301
0.0263476
-0.00941743
-1.27407
1.00822
0.83691
-0.12545
-0.00106151
0.192862
0.00401032
-0.101442
1.10933
-2.24864
1.13931
0.16706
1.62925
-1.24079
0.980571
0.260216
0.314613
-0.236963
-0.0776499
-0.507375
0.904361
0.235388
-0.920758
0.68537
0.338887
-0.0934402
-0.245446
0.418766
-0.453108
0.0343422
0.747879
-1.44615
0.698276
0.126681
-0.110851
-0.0158298
2.03432
-0.898775
-1.13554
0.40755
-0.768871
0.361322
1.69555
-1.19537
-0.500181
-0.816788
0.0580057
-1.48314
-0.710795
1.26259
0.00672456
-1.26931
0.233454
-0.625366
0.391911
-0.104071
-0.193542
-0.136221
-0.103831
0.213597
-0.0169038
0.0128534
-0.0492829
0.0364296
1.00713
1.02719
-1.84604
2.0675
-0.221459
0.60547
0.617909
-0.961209
1.12621
-0.164999
0.0134896
-0.0313464
0.0178567
1.34756
-1.61412
0.241434
0.19558
-0.104237
0.460204
0.2578
-0.718004
0.00741244
0.0831156
-0.0905281
-0.552646
0.401129
0.151516
1.31449
-0.56661
-0.719953
0.625996
0.0939571
0.736619
-1.02416
0.287539
-0.0872044
0.109882
-0.0226775
-0.00135642
-0.00684085
0.00819727
2.41081
-1.38138
-1.02943
0.53642
-0.41906
-0.579576
-1.35384
0.846464
-1.9215
1.61633
0.1636
-0.077059
-0.0865415
-0.0805912
0.120496
-0.157241
0.156045
0.00119577
-0.170511
0.244288
-0.0737768
1.88845
-1.12086
0.21934
-0.0934071
-0.125933
-0.762617
0.352712
-0.0229856
-0.0508337
0.0738193
-0.0367376
1.29933
-0.791287
0.480135
0.311152
1.31292
-2.03241
0.719486
0.0320722
0.101194
-0.178519
-0.542512
-0.387291
0.0989659
0.288325
1.05226
-0.207823
-0.199394
0.118615
0.0807791
-0.050065
0.116167
-0.0661016
0.0203412
-0.0237739
0.00343268
0.699276
-1.80687
1.10759
0.384941
-0.415286
-0.348883
-0.0518152
0.400698
0.174258
0.0450818
0.0615866
-0.315676
0.254089
0.140583
0.0315552
-0.172138
-0.0630192
0.203602
-0.609578
-0.181709
-0.0239301
-0.61114
0.63507
-0.828379
1.81555
-0.987174
0.406199
-0.422765
0.0165663
-1.16676
-0.187077
-0.033385
-0.0492825
0.0826676
1.39707
-0.35153
-0.640166
0.428014
0.212153
-0.000458191
0.114273
-0.113815
0.288058
-0.0744709
-0.213587
0.214964
-2.10466
0.322921
-1.81644
-2.20712
0.806356
1.40077
-0.836506
-0.404281
-1.26619
1.07943
0.186761
1.95424
0.228521
-2.18276
0.180613
-0.225012
-0.148734
1.26562
-1.11688
-0.256261
-0.376737
0.632999
0.0775242
-1.34371
-1.85547
0.00846967
-0.00126634
0.0141197
0.0622613
-0.118563
0.0563017
0.284814
-0.326313
0.897699
-0.161079
-0.153787
0.125857
-0.0438513
0.0127278
0.0311235
0.752842
-0.421309
-0.331533
-0.466327
-1.42661
-0.00937193
-0.24689
0.0295862
-0.571617
0.542031
0.183115
-0.0772011
-0.105914
-1.5822
0.939053
0.643146
0.649649
-0.583016
-0.0527042
0.445488
-0.392784
-0.211476
0.223014
0.518718
-0.240679
-0.27804
1.01857
-0.558363
0.236549
-0.311871
0.901258
0.277083
-1.17834
0.298708
-0.334215
-0.40611
-1.42863
1.83474
1.26996
0.674486
0.694482
-0.461028
-1.31182
0.838816
-0.708764
0.914185
-0.205421
0.00987841
-0.0357823
0.0259039
0.276838
-0.322748
0.0459106
-1.52858
1.49184
-0.274273
-0.149889
0.424163
0.164169
0.0189464
-0.854352
0.883938
0.519246
-1.05725
0.537999
-0.520674
-0.0319716
0.671622
-0.401548
0.137357
-0.0106762
-0.419684
0.20486
0.214824
0.0668086
-0.23732
-0.361705
-0.116736
0.478441
0.131321
0.207566
-0.795908
-0.650247
-0.757751
-0.824449
0.0302465
-0.0100437
-0.0202027
1.68443
-0.641611
-1.04282
-1.2213
0.392918
-1.15445
2.12994
-0.975489
0.36091
0.157809
-0.318619
0.209141
0.109478
-0.771441
0.592922
0.584349
-1.13431
1.74763
-0.0584309
-1.68919
-1.47975
1.93013
-0.45038
-0.0228903
0.0851517
0.415045
1.39103
-1.80608
0.0336272
-0.163655
0.130028
-0.121766
1.7935
-1.67173
0.00165336
0.108581
-0.110235
-0.886945
1.23259
-0.345645
-0.105094
-0.666347
0.0736901
-0.435395
0.277838
-0.169736
-1.64757
1.81731
-0.00774704
0.0637996
-1.59716
0.801256
0.190726
-0.20719
0.0164641
-0.0223101
-0.0277549
0.151372
1.56299
-1.71436
-0.571913
-0.555681
1.12759
-0.508795
0.397212
0.111583
2.50028
-1.62715
-0.873123
0.445475
-1.01739
-0.112849
0.132898
-0.020049
0.112946
0.721907
-0.834853
0.0435504
-0.0471589
0.0036085
0.837141
0.799001
-1.63614
-0.22455
-0.495403
-0.0579751
0.164959
-0.106984
-0.934245
0.698316
0.235929
-0.0718798
0.0386885
0.0331912
1.56355
0.120885
1.08578
-2.03117
0.945385
-2.8277
1.20701
1.6207
-1.18415
-1.64355
-0.375518
0.49611
-0.120592
0.373222
-0.383143
0.00992073
0.674295
-1.56762
0.893325
0.0535847
1.06778
-1.12136
-0.899079
0.905803
1.12755
-0.226288
1.09534
1.17598
-2.27132
-0.178203
0.0838701
0.0943333
0.0368573
-0.971102
1.87523
-0.483602
-1.39163
0.133184
-0.099557
0.110135
-0.107681
0.0458813
1.06505
0.81018
0.172439
0.672627
-0.845066
0.357495
-0.0420524
-0.00207771
0.0602869
-0.0582092
0.282193
-0.368997
0.0868037
-1.81196
0.849829
0.96213
0.157587
0.215635
0.774949
-0.798879
0.474217
-0.0378965
-0.436321
0.132083
0.129155
-1.82941
1.79017
0.0392462
1.18265
-0.663405
0.0476988
0.157452
-0.205151
-0.0375927
-0.159034
0.196626
0.118027
-0.211467
1.66008
-0.55075
0.0189401
0.0397939
-0.058734
0.00154921
-0.0454006
-0.281421
0.0393089
0.909751
-0.65195
-0.643216
0.6968
-0.381781
-0.0379022
2.09483
0.02187
-0.0217962
-7.38475e-05
0.0151225
0.894628
-0.198668
0.12871
0.0699588
0.0277642
-0.0291207
-0.339905
0.713856
1.28509
-1.43382
0.412658
-0.36694
-0.0457176
0.314311
-1.20126
0.197416
-0.13583
-1.84009
1.67036
-0.167515
0.0546664
-1.99968
0.218693
-0.219151
-0.0719241
-0.0458519
0.117776
-0.598842
-1.21312
1.469
0.941807
1.72049
-0.78144
-1.68785
0.0843294
-0.283724
0.0574959
0.14527
-0.202765
0.17591
-0.235177
0.0592669
-1.25096
0.634921
-0.191843
-0.263878
0.45572
0.335295
-0.40424
-0.113728
-1.91667
2.03039
0.993186
0.227422
-1.50576
1.27834
0.90762
1.0901
-0.738121
1.53856
-1.12351
-0.0605438
0.389768
-0.329224
-0.873978
0.746536
0.127442
-0.0206461
0.0395862
-0.0833002
0.324981
-0.241681
-0.262496
-0.256862
0.519359
-0.524973
1.79493
-0.271903
-0.367441
0.639343
0.0194286
-0.0753755
0.265106
-1.22632
0.0366684
-0.0387461
0.00841202
-1.84073
0.991052
0.849677
0.363352
-0.468924
0.00861207
-0.020174
0.426373
1.09629
1.40399
1.65351
-0.53633
-1.11718
0.116644
-0.0431048
-0.0735397
0.738447
0.9571
0.119461
-0.0619653
0.688756
-2.03431
1.34556
-0.0454834
0.0573362
-0.0118528
0.518072
0.796417
-0.215837
-0.100187
0.733078
-0.560639
-0.583136
1.44392
0.15308
0.01052
1.85014
-0.537219
0.142615
-0.135202
1.76726
-0.113748
0.0997992
0.397737
0.0149202
0.0174821
0.297131
-1.75451
-0.839335
0.978684
-0.139349
0.00573163
-0.116582
1.75519
0.0561769
-1.81137
-0.713342
0.441439
0.221302
0.066756
-0.305192
0.0682284
0.017618
-1.21298
1.54431
-1.56391
0.0196003
0.016832
-0.297126
0.280294
-0.767788
1.28586
-0.834882
1.53416
0.0462615
-0.0294295
0.782353
-0.302218
1.94727
-0.599715
0.00521633
0.118147
-0.123363
-0.0644443
-0.100876
0.16532
0.113751
0.0028938
-0.121203
-0.739313
-0.250614
-0.0317408
0.282355
0.552279
1.26327
-1.74314
1.33703
0.110153
-0.459036
-0.774185
1.00957
-1.14066
1.33737
-0.196708
0.528292
-1.78342
1.66166
1.97628
-0.969159
1.32266
0.816223
-0.0665857
0.252623
1.29169
-1.28312
0.272412
1.01071
0.248923
-0.279911
0.330444
-0.172856
-0.209867
0.146848
-0.0878783
-1.51908
0.503187
-1.21499
0.711804
-1.17859
0.592756
0.585838
-0.157283
-0.763475
-0.0209922
0.00406209
0.0866365
-0.0178713
0.17401
-0.156139
-0.537516
0.484812
0.980355
0.99593
-1.47975
0.00275144
0.0175898
1.61271
-1.43023
-0.182475
-0.412603
1.80364
-1.60451
2.52086
-0.91635
-0.769473
1.04087
-0.271395
0.128666
-1.40273
-0.1149
-0.268243
-0.269274
0.42448
-0.155206
-0.0203944
0.0135535
1.33972
0.704591
-1.27759
0.572996
-0.0255594
-1.55864
1.5842
-0.0519142
-0.105327
-0.00812875
-0.474121
0.48225
-0.696256
1.59184
-0.895587
0.196702
-0.136729
-0.059973
-0.471926
0.497966
-0.0260403
-1.97058
1.7838
2.07357
-0.4381
-1.63547
-0.133257
0.0895305
0.0437266
0.0121393
0.163771
0.112267
-0.632941
-0.835403
1.67254
-0.0397482
0.0167627
1.74763
-0.969994
1.08294
0.0479089
-0.0479089
-0.134608
0.205427
-2.05147
2.25621
-0.93839
-1.31782
-0.729955
0.854251
-0.124296
-0.0402397
-0.304233
0.344472
1.02311
-1.17931
0.156193
-0.57027
-0.237421
0.80769
0.851587
-1.99918
1.14759
-0.0798019
-0.794176
-0.209667
0.145223
-0.212084
-0.573347
0.785431
0.756742
0.420316
-1.17706
-1.30355
-0.427812
0.675722
-0.247911
-0.830563
1.21282
-0.382254
1.4421
-1.29073
-0.0594081
-0.191206
-0.00882047
-0.0222657
0.441031
-1.17812
1.02117
0.156954
-1.30161
1.84227
-0.540655
-0.0167342
0.1299
-0.113166
-1.48856
-0.760081
-0.0604385
-0.00514314
-1.61979
0.465341
-0.367348
0.284047
-0.233411
-0.536062
0.0256402
-0.0711236
-0.732984
1.82832
0.0429674
-0.356592
-1.52453
0.119786
1.40474
0.930822
-0.884353
-0.0464698
-0.882039
0.173275
0.213363
-0.561721
0.348358
1.61426
-0.134073
-1.48019
-0.0223354
-0.0320202
0.0543556
-0.383647
0.757135
0.647757
-1.40489
-0.511064
1.42646
0.236541
0.650999
0.746069
-0.088252
1.58212
0.185141
-1.42081
1.39525
-0.0640042
-0.0505215
0.114526
-0.024675
-0.14188
0.166555
-2.03465
0.430133
-0.089997
0.449583
-0.61287
-0.226465
0.250313
0.858052
-0.295819
-0.562233
0.189596
0.0969535
-1.14919
1.84385
-0.69466
0.148144
-0.24902
-0.0696009
0.346438
0.249994
-0.519269
-0.211573
0.123949
0.0876235
0.266632
-0.0429029
-0.223729
0.731166
-1.13038
0.39921
-0.0216323
-0.0164906
0.0381229
-0.286204
0.318467
-0.0322625
0.108825
-0.446923
0.338099
0.302843
-0.0539208
0.0765507
0.364263
-0.440814
1.36305
-1.01706
-0.956024
-0.0737581
-0.458759
0.532517
0.0903543
-0.0265546
-0.272296
-0.236499
1.11733
-0.259275
-0.00258387
-1.24113
1.24371
-0.358463
-0.0288279
-0.0232311
-0.586347
-0.251896
-0.22003
0.167457
-0.165803
-1.38949
-0.0346148
-0.0786812
0.113296
1.27129
-0.994206
1.07927
0.994304
0.412002
0.0622158
-0.167801
-1.58613
1.75393
0.690098
0.506556
-1.19665
-0.0986947
-1.02854
0.631515
0.397026
1.08117
-0.15035
0.00843421
0.0330216
-0.0414558
2.20927
-1.20363
-1.00565
0.135559
-0.301639
0.16608
0.68565
0.43549
-1.12114
0.0686706
0.100497
-0.169168
1.71882
0.0376712
-1.75649
-0.0169969
0.123482
-0.25151
0.294477
0.0497904
-0.004446
-0.0453444
0.142976
-0.279197
0.0477107
0.0252584
-0.0729691
-0.495699
-0.664512
1.16021
1.09869
0.515573
1.00795
-1.01054
0.652467
-1.34872
-1.8443
1.73058
0.104124
0.0120421
0.253942
-0.603613
0.349671
0.727625
0.992868
1.15549
-1.35737
0.201876
1.20431
-0.55331
-0.130085
0.0869803
0.103537
-0.369528
0.265991
-1.55783
-0.351333
1.90916
-0.415471
0.450457
-0.0349862
-0.00726384
0.0551727
0.284611
1.19682
-0.135222
-0.0429816
0.97651
-2.02724
1.05073
-0.781395
-0.338538
1.11993
1.59607
-0.510291
0.0349648
0.556765
-0.933502
-0.260169
0.00452959
0.25564
0.0191215
-0.184826
-0.483044
1.18764
0.0103974
0.033153
-0.199152
0.124933
0.0742184
0.0178103
1.0053
0.187413
-0.798553
-0.444193
-0.416756
0.515722
0.722525
-0.955937
-0.0969457
0.00353853
-0.0883807
0.134262
-1.93959
0.92253
0.0403104
0.103681
-0.143991
-0.324101
0.240679
0.0834223
0.20259
0.86519
0.0258548
0.000492777
-0.0343803
-1.64898
1.68336
0.0985131
-0.684346
0.585832
-0.0155882
0.0614664
-0.0458782
-0.696507
1.19969
-0.140003
-0.360449
0.500452
-0.277585
0.490948
-0.365264
1.07371
-0.708443
-0.631627
0.531973
0.0996543
2.06473
-0.110488
-0.060327
-0.189071
0.249398
-0.123298
-0.192378
-0.176223
-0.112927
1.13943
0.928065
0.265998
-1.38358
1.11758
-0.81325
-0.174362
0.987612
-0.0196314
0.149087
-0.129455
0.0797891
0.210527
-0.290316
-0.123997
-0.103714
0.227711
-0.000754644
0.037423
-1.0559
-0.187981
0.0124039
-0.0583103
0.0195642
-0.122846
0.387557
-0.264711
-0.227686
0.261905
-0.0342186
-0.0230264
0.0777971
-0.0547707
0.783393
-0.38859
-0.0679571
0.0186742
-0.197622
-0.598353
0.795976
1.18054
-0.977949
0.017047
-0.357179
0.340132
-0.599834
-0.424324
-1.35772
1.52478
1.17101
0.0946073
-1.30774
0.821374
0.486366
0.214388
-0.0924468
-0.121941
1.75053
-1.75053
-1.61062
0.127481
-1.04688
-0.211464
-0.625246
0.83671
0.586182
-0.542178
-0.044004
-0.220564
-0.223703
0.157744
0.0659584
0.00611014
0.198325
-0.204435
-0.469562
1.25045
-0.78089
0.193199
-0.193066
-0.000132631
0.818219
-0.689553
-1.05242
0.239172
-0.0390252
-0.212434
0.25146
0.0479992
-1.33112
-0.524893
-1.23343
0.708538
0.700946
0.0184269
0.231126
-0.249553
-0.270256
0.327779
-0.0575228
-0.225114
0.167139
-0.0811574
-0.129468
0.0575437
0.0356194
-0.0331291
0.167674
-0.134545
-0.287815
-0.0817131
-0.277806
0.354357
0.0859483
-0.113089
0.0271403
-0.0680224
-0.112272
0.180294
-0.041168
-0.0324483
0.0736164
-0.0635872
0.164928
-0.10134
-0.617024
1.32883
0.58516
-1.13995
0.554792
-0.149832
-0.0788747
0.228707
-0.0545356
-2.27015
2.32469
0.873514
-0.545237
-0.328276
0.454454
-0.0383309
-0.196846
-0.0581046
0.00727093
-0.0529101
0.188469
0.27697
-0.937034
0.660064
-0.457166
-1.37224
-0.204534
0.833581
-0.629047
0.112801
0.0614575
0.401858
-0.269976
-0.131881
0.331024
-0.528647
-0.573124
-0.00879355
-0.165841
0.174635
-0.523834
0.331991
-0.148917
0.57693
-0.230279
0.192687
-1.64066
0.259277
-0.286912
0.536906
0.0343739
-0.244041
0.379811
-0.11382
0.321398
-0.302971
-0.0835453
-1.30913
0.692103
1.98399
-0.190491
-1.64757
2.25604
-1.08796
-1.16808
-0.0882632
0.489393
-0.0793512
-0.737437
0.509851
-0.443042
-0.242199
-0.0179706
-0.590602
-0.402916
0.993518
-0.0304531
0.100807
-0.0703542
0.0262108
-0.862717
-1.95105
-0.311887
-0.324041
0.635928
0.489216
-0.390703
-0.240849
-0.0375921
0.278441
0.463339
-0.0783984
0.161524
0.052864
2.00142
-1.14983
-0.909898
0.319296
-0.24807
-0.0498361
0.297906
-0.0447698
-0.100987
-1.07832
0.0685972
-0.280034
0.211437
-0.0816526
-0.0335491
0.912906
-1.16941
0.256504
-0.656604
-0.0391227
1.78965
0.067709
-0.666062
1.27593
-2.04655
0.770618
-2.00711
1.36369
0.643415
0.148855
0.101834
-0.25069
0.154254
1.19221
-0.000262206
0.836862
-0.836599
-0.0526072
0.0924011
0.0145882
-0.147845
-0.0314395
-0.267717
0.299157
1.25599
-1.42379
0.199179
0.120679
-0.0367616
-0.0839169
-1.45305
-0.157567
-0.585011
-0.736979
0.663221
0.107041
0.00336343
-0.110404
-0.615035
0.290073
0.324961
-0.391123
0.330579
-1.08383
-0.552397
1.63622
-0.136648
0.25053
-0.29077
0.258645
-0.606858
0.348213
-0.463194
1.05595
-0.153933
-0.861132
0.131178
0.765172
0.00977647
0.923245
-1.39281
-0.0564424
0.047093
0.00934939
1.09524
-0.457763
-1.0903
-0.340493
-0.0729321
0.413425
-0.0535132
0.200361
-0.133434
-0.0328007
0.166234
0.180698
-0.284529
-0.189968
1.47506
-0.210383
0.302519
-0.0659699
-0.427491
0.407317
-0.179121
0.0756329
0.103488
0.240955
-0.10817
-0.132784
-0.140015
-0.0408537
0.180868
0.205599
-0.0982493
-0.107349
-0.179309
0.113207
-0.214181
-0.0829443
-0.0310006
1.1703
-0.288388
0.0818158
0.206572
-0.0801586
0.0843747
-0.00421614
0.086252
-0.413536
0.327284
0.115998
0.221629
-0.649441
0.0753282
0.358324
-0.0735101
-0.206503
-0.00497222
-0.127183
-0.0364719
1.79495
-0.995954
0.0852046
-0.269513
0.184309
-1.58137
0.223649
-0.0568675
0.0946986
-0.0378311
-0.0393923
-0.0324875
-0.648658
-1.35845
0.356621
-0.0579129
-0.846503
-1.18781
0.0123683
-0.21152
-0.421783
0.680427
0.992255
-0.735955
-1.09601
1.36201
-1.90423
0.346403
-0.174182
0.0839613
0.0902207
0.140699
-0.178343
-0.391756
0.570099
-0.00176785
-0.0569662
-0.456648
-0.850812
1.30746
-0.812661
-1.06666
1.87932
0.60345
0.348222
-0.951672
-0.00290469
0.273801
-0.282594
-0.264393
-0.254876
-0.169933
-0.102529
0.272462
0.254925
0.378073
0.273434
0.128424
0.17247
-0.598798
-0.010801
0.0326711
-0.675659
0.884921
-0.209262
-0.141852
0.0902254
-0.828458
-0.00645486
-0.00358886
-0.793423
-0.0859176
0.340007
-0.729354
-0.0695245
-0.139516
-0.888279
-0.328192
1.21647
-0.166429
0.67628
0.205172
0.649079
-0.290535
-1.0122
-0.927393
-1.2702
1.42639
0.0751572
0.150502
0.0127257
-0.0632965
0.0505708
-0.628668
0.575369
0.0532985
0.704398
-0.809493
0.240063
-0.199752
-1.15225
-0.155494
-0.294982
0.330031
-0.0350494
1.12648
-0.39531
-1.46281
-0.115546
1.57835
-0.071691
-0.216124
0.156128
0.173924
-0.330052
-0.23099
0.39509
0.14133
-0.012149
0.014459
-0.00230992
-1.30727
0.823664
-0.0399842
0.0382163
-0.170746
-0.130893
-0.324177
-0.0449059
-0.0520397
0.298229
0.291112
0.0588738
-0.104218
0.330864
1.4593
-0.69239
2.01505
1.01387
0.609599
-0.84702
-0.0167981
-1.44601
-0.143628
-0.323958
0.379747
-0.0557888
-0.00477329
-0.0190006
-0.119578
0.00608875
-0.0539184
0.121966
-0.0900015
1.58915
-1.49914
0.18485
-0.851196
-0.122275
-0.257749
-0.068564
0.09911
-0.280675
0.355178
-0.0745038
-0.0049011
-1.44299
1.44789
0.632376
0.277977
0.308206
-0.660537
-0.572254
0.948853
-0.376599
-0.0291259
-0.0848293
0.325508
-0.497852
0.827931
-0.33008
-0.0885694
-0.312779
0.401348
-0.179713
-0.607315
0.787029
-0.275145
-0.0590703
-2.02901
-0.0665077
0.180497
-0.17528
0.0256841
0.0139752
-0.0539593
0.343118
-0.667159
2.18896
-0.941624
-1.24734
-0.023781
0.423731
0.278233
-0.122105
-0.281443
0.115601
-0.17162
-0.0127437
-0.37199
0.267919
-0.293529
0.821525
-1.00124
0.135185
-0.091325
-0.0438605
-0.370224
-1.93927
1.06246
0.876816
-1.80865
1.75412
-1.18673
0.394903
0.791827
0.108743
-0.0839012
-0.0248419
0.611493
0.505834
-0.130643
0.19557
-0.0185097
0.0392072
-0.0878088
-0.258934
-0.011042
1.05078
1.13818
0.0805158
-0.0202289
1.53075
-1.30223
-0.0329043
-1.39372
1.42662
1.23315
-0.0628451
-0.290212
-0.0771355
0.168344
0.0194869
-0.248808
0.0805721
0.249872
0.517798
-1.61724
1.09944
0.094316
2.4245
-1.46934
-0.955162
-0.00291634
-0.295686
-0.00854677
1.46689
0.0249516
1.33684
-1.20936
1.07682
-1.88948
-1.24995
0.0150729
1.23488
-1.0294
-0.0355009
1.0649
-0.0412017
0.0607659
2.24127
-0.00500366
-2.23627
-1.50339
1.96798
-0.46459
0.0446172
0.217288
-1.06471
0.234149
-0.00748879
-0.160027
-1.35066
0.209994
-0.00614203
-0.00945317
0.0155952
-0.087548
0.222034
-0.134486
0.142411
-0.488141
0.34573
0.524739
0.453945
-0.521411
-0.0936238
0.0793538
0.865983
-0.945785
-0.0650315
-0.0535315
-0.250085
0.0524446
-0.141329
1.51219
-1.37086
-0.38997
0.846421
-0.456451
0.0519058
-0.410706
0.3588
-0.887821
-1.55008
0.735737
0.814341
-0.00726559
0.843014
0.2471
-1.09011
-0.401529
0.217344
-0.241633
0.0242894
0.165509
-0.0354806
-0.244871
0.00402205
-0.285662
-1.32556
-0.108261
-0.393277
0.789064
-0.395787
-0.706149
-0.605669
1.75806
-0.767005
-0.0999524
0.183802
-1.37991
0.0298629
-1.38611
1.35625
-0.260098
0.00433331
0.255765
0.910956
-1.0035
0.0925416
0.134003
-0.0197301
-0.0980692
-1.4405
0.734346
-0.629828
1.26134
-0.277175
-0.00424676
0.29356
0.211745
0.0292096
0.811047
-0.369608
0.007673
0.696725
-0.958824
0.416312
-1.88676
0.820104
1.22918
-1.23408
-1.46598
1.37598
-0.0798661
-1.46145
0.226052
1.2354
0.591661
0.24192
0.0326624
-0.906509
0.695044
-0.104746
-0.129168
0.233914
-1.49249
0.245364
1.24712
0.358379
0.769731
-1.12811
0.0291255
-1.29932
0.773974
0.105119
-0.879093
0.0781744
0.255365
-1.02955
-0.00680812
-0.0114821
0.0501706
1.50374
-1.46607
0.139575
-0.990196
-0.559883
0.786571
-0.0210126
-1.22894
1.09472
-0.251708
-1.66166
-0.0261911
-0.246407
-0.931934
0.330034
0.0837405
1.8443
0.250522
0.13286
-1.21118
0.132969
-0.101414
0.200974
-0.46347
0.326683
-0.546625
0.219942
0.275658
-0.0218292
-0.253829
0.106077
-0.295147
-0.0231611
0.305354
-1.11901
1.16989
-0.0508714
-0.728282
1.09757
-1.81862
0.721056
-0.723246
-0.0562669
0.0894582
-1.47292
0.12914
1.34378
-0.36429
0.892582
-0.661952
0.688163
0.159994
0.949598
0.550622
-0.994814
-0.822013
-0.172942
0.994955
-0.682856
-1.22764
0.770988
-0.120613
0.123663
-0.00305022
0.0452719
-0.0911501
0.970095
-1.45314
-0.330999
-0.424638
0.755638
-0.164935
0.133332
0.0316031
-1.07273
0.465412
0.0362421
0.0245899
-0.225736
0.409499
1.99286
0.248407
-0.797423
0.797161
-0.260122
0.0893759
-1.10645
1.79411
-0.687655
-0.0737835
0.0625314
0.0748253
0.365193
-0.0212225
0.959794
1.17015
0.638058
-0.940275
0.296558
-1.92371
-0.163157
0.128542
0.118066
-1.11227
-0.213804
-0.955606
-0.205462
0.0516758
0.784637
-0.375137
-1.21937
0.513231
0.961827
0.180873
-1.66406
0.295602
1.36846
-0.0811214
0.476211
0.67168
-1.17743
-0.30232
0.741183
-0.325024
-0.416158
0.855059
-0.282506
-0.572552
-0.174097
0.0373679
0.622196
-0.648605
0.0264089
-1.22769
0.205508
1.02218
0.929623
0.144084
0.000616136
0.106424
0.743948
-0.522319
-1.83864
0.677925
1.16071
-1.81731
1.46598
0.843744
0.798896
-1.64264
0.783706
-0.7257
1.81079
-0.605537
-1.20525
-1.03582
0.16697
-0.0799899
-0.0388291
-0.10113
0.185
-0.0349753
0.112659
-0.0776833
-0.238289
-0.214818
-1.57099
-0.179316
0.0626075
-0.0940471
-0.0316093
-0.0155496
1.01684
-0.480789
-0.536046
0.772266
-0.482193
-0.109866
0.122005
-0.0914679
1.24696
-0.290096
0.0299974
-0.312183
-0.760544
-1.45469
0.566412
-0.0705654
-0.0702547
0.120813
0.091131
0.0964492
-0.0837236
-0.503734
-0.210549
0.0912422
-0.0766761
-0.0145661
0.175194
-1.14278
-0.129471
1.27225
-0.0229461
0.0369213
0.0902334
1.05273
1.0092
-2.06193
-0.381526
0.984977
0.209154
-0.0832968
0.615306
-0.873232
-0.665926
1.53916
-0.937429
-0.980618
0.577702
0.297322
-0.199146
-0.0981762
0.620433
-1.26204
-0.144747
1.58689
-0.489328
-0.175488
0.101017
-0.39581
-0.744142
0.0637839
1.97337
-1.73058
-0.242789
-0.870046
-0.584645
-0.0893688
0.159507
0.0649664
-1.02078
-0.21522
1.236
0.224933
0.464663
-0.553232
-1.66578
-1.66235
0.686522
0.975832
-0.156357
-0.00480419
0.161161
0.949735
-0.558248
-0.391488
0.102179
-0.156098
0.075436
0.0806094
0.899721
-1.98355
0.760314
0.0947444
-0.319331
-0.590567
0.0992171
0.00159029
0.144396
-0.110653
-1.03213
0.0310998
0.358668
-0.533254
0.510988
-0.0859556
-0.0107201
0.0966757
0.980643
0.830147
0.570527
0.0590254
0.693514
-0.548875
-0.144639
1.78342
-1.48782
-0.116718
-0.496932
0.140173
0.0253359
0.209774
0.0191926
-0.153738
0.00322905
-0.123842
0.575118
0.0603207
-1.79363
-0.0192767
-0.13708
-0.0692218
0.00592529
1.04461
-0.83944
0.884633
-0.467389
-0.417244
0.00382103
0.106061
-0.00972368
0.00358166
0.396354
0.0867022
-0.310431
-0.759158
-0.371218
-2.20319
0.873608
1.32958
-0.0381627
0.00681635
0.0343452
0.100123
0.113474
-0.268487
-0.293234
0.48824
-1.36147
0.257486
-0.959323
2.01206
0.62086
-0.0723322
-0.548527
-0.678639
-0.494339
-0.0478396
0.0864948
-1.10394
0.466373
-0.715821
0.249448
-0.205467
0.129739
0.075728
-0.127293
1.27884
1.24202
-1.43164
1.48782
-1.66157
1.18668
0.474884
1.05991
-2.01924
2.17222
-1.07593
-1.04462
-0.998539
-0.0169899
0.191
-0.0537257
-0.420396
-1.55225
0.0907988
-0.0617035
-1.29566
1.23467
-1.97378
0.739116
-0.0510976
0.231711
-0.464205
0.246689
-0.147035
1.03952
1.38499
-1.84052
0.73407
-0.170403
-0.767026
-1.35037
0.21443
-0.0846912
1.80865
-1.91914
-0.13444
-1.10892
0.106953
1.17274
-0.415601
-1.50681
1.62081
-0.114
0.431551
1.89314
0.434396
-0.0700529
-0.364343
1.85756
-0.780739
0.228341
-0.291831
0.733945
-0.757176
0.0842803
0.127465
0.457312
0.964776
-1.42209
-0.600589
-0.455879
1.03929
-1.06456
0.0252775
-0.258902
-0.0211323
-1.73533
0.745673
0.989657
1.07857
-0.167614
-0.298067
0.0399015
0.84853
-0.838754
0.277486
-0.541879
-0.212718
0.207746
-0.62853
0.450187
-1.13704
-0.826532
1.96357
-0.240931
0.142682
-0.0818854
-0.197311
1.03166
-0.900478
0.068115
1.35244
-2.04483
-0.0422784
-0.332964
0.221838
-1.19979
0.0872013
0.705104
0.418299
0.0361197
-0.609467
-1.47129
0.375282
0.0785418
0.306482
-0.385023
0.0677529
-0.309434
1.15885
1.09719
1.24722
-0.990715
0.0236573
-0.205921
-0.163076
0.436836
-0.132775
-0.151754
-0.691629
-0.951311
2.01122
-0.214066
0.206801
-0.649453
-1.14203
1.79149
-2.10611
0.602722
-0.0645417
0.279872
0.0474124
-1.45363
-0.0708955
-0.180487
0.64686
-1.00837
-1.19481
1.97337
0.557209
-1.38166
1.00926
-0.555315
-0.215811
-0.0450363
-0.237558
-0.236753
0.2538
-1.62995
0.212615
-0.784869
1.06948
-2.02079
-0.779066
-0.2379
0.0455226
-0.0843986
-1.42241
0.849167
-0.918692
1.35445
0.806403
-1.49443
0.688024
1.51193
-1.30642
1.95441
-0.939108
-1.02365
1.96276
0.536171
1.27039
-1.04546
-0.663877
-0.998477
-0.834714
-0.826852
0.453104
-0.642002
1.51401
-0.87201
-0.10796
1.35634
-1.24838
-1.00198
-0.946716
1.94869
0.90876
0.130528
0.222537
0.370959
-0.459452
0.303726
0.155725
-0.007122
-0.241898
0.506055
-1.3761
-0.748393
-0.386674
-0.241993
-0.253025
0.167108
-0.314234
0.999604
-1.98546
0.887282
1.09818
-0.0267371
-1.65159
1.67833
0.0345124
-0.241879
0.0374437
0.611991
-1.85992
1.85992
-0.0415562
-0.0140028
0.055559
-0.643338
1.06365
0.179277
0.0351537
-0.77521
-0.327743
0.705817
-1.43164
-0.0435195
-1.25813
0.288133
1.30283
-1.25483
-1.18532
0.16454
-0.283758
0.250219
0.0335388
0.107081
0.515115
0.310606
-0.034948
-0.943816
-1.19637
0.182425
1.01394
-1.38212
-0.198066
-0.605694
-1.21293
-0.0342667
0.0221177
0.15724
-0.301678
0.0202353
-0.0127264
0.0716002
0.369458
-0.271026
-0.357504
-0.694992
1.30222
-0.607231
0.311239
0.200806
-0.22987
0.397138
-0.167268
-0.429294
0.172432
0.420008
-0.530256
0.110248
-1.11758
1.82755
-0.983808
-1.2616
-1.67831
0.235318
-1.29248
0.048644
1.02456
1.18471
0.117306
-1.04924
1.14353
-0.122367
-0.319956
0.042781
0.652241
0.603713
0.179993
2.00486
-0.935382
-1.04853
-0.817285
1.86581
1.1436
-0.0224415
-1.12116
0.131803
-0.0474279
-0.188724
0.17199
0.143308
1.33712
-1.48043
-1.29158
1.23408
0.0574973
1.29158
-1.37598
0.209654
-0.260752
-0.812533
1.0679
0.0756452
0.284191
-0.170984
-1.66165
0.155886
1.5563
-0.749897
-0.346338
-0.0598868
0.13552
-0.427474
0.939883
0.252361
-0.0862809
0.630209
-0.960289
0.173292
-0.233265
-0.574254
-0.0511113
0.704333
-2.06591
0.507271
-0.0686387
0.426459
-0.357821
-1.04154
-0.932246
0.0790332
0.617485
0.565166
-0.866644
0.0692206
-0.09277
-0.317936
0.100482
-2.08608
1.04145
0.036594
-0.0152906
-0.28768
0.078852
0.219377
-0.0193207
-1.41615
0.703189
-1.47835
0.775166
0.0575552
0.241984
-0.299539
0.22753
-0.0822601
-1.03093
1.31907
0.621623
0.363354
1.33414
-1.17743
0.181512
0.0397906
1.67839
-1.96176
0.283376
-0.126462
-0.480396
-0.821108
-0.0579854
0.366212
-0.439144
0.29134
-0.40516
-1.16259
-0.0805624
-0.0341578
0.11472
-1.47689
0.194033
1.28285
0.319042
-0.390733
0.0880713
0.225877
-0.313948
1.18044
-1.20145
-0.319454
0.297625
0.623131
0.213579
-0.350954
0.315905
0.321212
-0.259754
0.170628
0.666316
-0.836943
-0.425854
-0.0622868
-0.934927
-1.01705
1.95198
-0.12095
-0.243432
0.427741
-1.0077
1.75412
0.384708
-0.244009
0.0476271
0.0464851
-0.00999419
2.0511
-1.00032
-1.22611
0.762472
-0.549857
-0.59972
1.76043
0.359065
-0.272362
-0.0775387
0.0702749
0.302929
-0.0963574
-0.282642
0.180114
-0.255916
-0.134376
-0.167302
1.07561
-0.318938
0.39779
0.305445
-0.0743195
0.0359267
0.249616
0.000255246
0.487191
-0.758217
0.203846
-0.233334
0.0294871
-0.346389
0.350722
0.177938
0.89593
-1.07387
-0.232599
0.103431
0.461737
-0.628166
1.62506
-1.07278
1.00952
0.902906
0.106544
0.555575
-1.07688
0.344603
-0.423001
-0.349239
1.13199
0.869425
-1.51221
1.51221
1.72632
-0.816148
1.08125
-0.0015276
1.50446
-1.50293
0.934359
1.01009
0.868235
-2.00528
0.140207
-1.14145
-1.33358
-0.223201
-1.4099
1.6331
-0.403017
-0.120817
0.0698902
0.98105
0.14972
-0.25789
-0.946552
1.61842
-0.671867
-0.174052
0.258332
-0.0239499
0.0619673
1.01921
2.50228
-0.995871
-1.5064
1.59851
-1.46937
1.12272
0.214656
0.0423914
0.00387006
0.0121761
1.55081
0.573136
1.0967
0.747157
0.0205417
0.191354
-0.211896
-0.340224
0.209331
0.176154
-0.188029
0.0118747
0.156915
-0.21096
0.0540454
0.5176
-0.438246
0.32934
-0.471192
-0.346029
0.430358
0.0197731
-0.256644
0.0360806
-0.584062
0.536913
0.0471486
-0.0706631
0.0554918
0.0151713
1.91914
-1.56076
0.298116
-0.130384
-0.167732
-1.50374
-0.335267
0.261757
-0.997728
1.93209
0.254441
-0.323005
2.0175
-1.14927
0.242202
-0.308172
-0.152482
-0.380472
-1.35699
-0.0612536
1.61324
1.31096
-1.08912
-0.105297
0.137369
-0.0682282
-1.49569
-0.288175
0.280558
0.238998
-0.361273
-0.358952
0.284448
-0.0761963
-1.34032
1.30741
-1.46631
1.48591
-1.16646
-0.465454
0.419737
0.652379
0.378444
-0.389486
-0.0539584
0.0576054
0.344094
-0.401699
-0.343675
1.40872
-0.97574
-1.00255