/*--------------------------------*- C++ -*----------------------------------*\
| =========                 |                                                 |
| \\      /  F ield         | OpenFOAM: The Open Source CFD Toolbox           |
|  \\    /   O peration     | Version:  2306                                  |
|   \\  /    A nd           | Website:  www.openfoam.com                      |
|    \\/     M anipulation  |                                                 |
\*---------------------------------------------------------------------------*/
FoamFile
{
    version     2.0;
    format      ascii;
    arch        "LSB;label=32;scalar=64";
    class       volScalarField;
    location    "9.5";
    object      p;
}
// * * * * * * * * * * * * * * * * * * * * * * * * * * * * * * * * * * * * * //

dimensions      [0 2 -2 0 0 0 0];

internalField   nonuniform List<scalar> 
13486
(
9.16819
7.70941
1.01621
-8.0307
2.48228
0.138327
-1.24775
5.19382
6.11716
4.35041
-20.6052
1.02904
9.66643
0.564954
0.919904
4.68221
-14.7816
-1.59049
1.47743
8.31587
-7.7051
9.55375
7.54877
-11.898
4.06877
-10.7291
-15.1388
-3.01147
0.203074
-3.07084
-10.8758
-0.350594
-6.50156
-1.04516
5.19745
-1.50336
-20.0017
7.53478
-1.05328
6.06192
1.06784
10.0287
0.995262
3.96413
3.83307
0.990423
-13.0192
0.187619
-22.5021
-2.56896
5.63368
2.24508
0.58858
7.62635
1.13451
2.84674
2.37396
1.48248
-6.18131
-7.71766
-24.5032
-7.95762
-7.69738
-7.76037
-18.2835
-16.5817
-10.0293
9.29637
6.07203
4.81743
-10.1004
0.958199
6.10025
-12.1545
-11.2589
2.40073
-13.5349
0.870134
-12.9748
0.260592
-0.713631
7.84195
-7.7923
0.859962
9.20586
5.7238
-3.3919
5.37842
6.3698
5.05744
-0.47782
4.42409
8.79837
8.00624
6.4407
-0.0185714
-15.0791
-14.2261
5.93292
-15.1341
-1.10898
0.828049
-14.6598
1.76572
6.36329
-15.2869
6.29129
-1.33262
-13.4756
4.14949
6.02344
-2.52769
7.62322
2.12544
10.8298
6.2957
4.12883
-0.767361
6.1706
-30.8351
-0.239765
-23.6867
6.73486
-0.843762
5.94784
2.34733
3.87498
2.21242
-0.294253
-10.9792
2.59953
-12.6542
-12.0121
-11.9159
5.84783
5.58578
11.5361
4.32014
-30.6218
5.26043
-4.87631
0.562734
0.643278
0.318865
1.58883
-10.1005
-1.23127
9.04175
-2.86628
0.144099
4.03682
1.0401
-0.579631
8.00479
2.57737
1.01703
3.45357
-6.232
6.82973
-5.14716
-1.68764
6.81829
-2.46
9.9655
1.99887
-0.381275
1.24815
12.5736
-1.17083
-11.8987
-13.0194
2.62082
4.70829
2.41108
-0.890412
-36.0539
0.33102
-5.5784
6.29166
0.755489
5.60489
2.07117
1.58656
-17.1717
0.633594
-2.92711
0.0413753
-2.37101
1.30485
6.6051
-27.3612
1.57777
0.95258
8.7677
0.943605
-19.7968
-12.9469
-1.91412
8.31777
-0.147017
-11.4569
2.13096
7.54195
2.49744
-5.29541
1.08645
-7.85566
6.68649
1.03136
0.670162
-2.63485
-10.1338
8.20913
6.29655
0.153301
-1.03242
-3.17354
5.09752
8.3297
-5.41728
-14.8593
-2.95214
5.40825
-1.91951
0.319335
8.99525
-0.737345
-19.8536
-0.0889689
-4.13341
5.51898
0.335598
-5.12975
10.2433
-13.0123
8.62764
-1.60303
1.54544
8.71004
1.91001
-6.83388
4.61743
1.92115
8.25707
-5.59334
7.15925
2.14221
-6.45532
-11.9382
4.30901
-22.4382
10.9617
6.05325
-1.09593
0.240515
-38.721
-0.309121
-0.862957
-5.8944
-6.8469
7.01208
-6.46518
0.753502
-37.1929
3.3456
-17.315
-0.111938
-11.059
5.78336
1.96797
7.1767
6.18021
-3.36166
0.733158
9.0093
-5.75311
0.261916
1.34865
-0.823481
-1.13323
1.11439
4.73582
6.36401
-17.2196
-22.9858
-15.7995
-4.33944
-0.415775
0.315872
5.85398
-12.2241
-18.0607
6.50325
5.8939
-1.38385
-1.98988
-1.80804
0.738833
6.45951
0.601153
-2.46646
-5.94006
-1.16166
-0.152205
-23.7409
2.54478
0.370987
2.32371
-3.83628
-25.0027
-10.4594
-7.31692
1.19701
-2.31585
-21.5402
5.72106
-19.1785
6.39918
6.73544
-0.412882
-18.9948
-12.4514
6.24121
8.07681
11.318
-0.437648
3.37875
4.5903
0.528303
2.97068
5.42003
4.14658
-0.700426
8.82132
-0.908938
6.06167
11.1734
1.35869
4.32227
-8.88132
-0.193854
8.01549
2.78037
1.64255
-20.7709
0.119879
3.51942
10.7718
-5.51483
-20.1632
3.31654
0.57367
0.724504
-15.0118
6.4136
-4.9316
-12.1961
3.73112
-4.03951
-9.03804
1.52661
-0.022869
7.04809
6.20206
-3.26817
-0.17319
-1.77772
-13.0128
8.38655
3.80378
0.892693
3.61846
0.324574
-23.9831
0.507589
5.74054
6.27873
-16.04
-20.7629
-8.32205
5.62168
4.1595
9.69935
7.44455
-12.9693
0.261503
1.27206
4.22265
-12.8885
-9.17535
8.06603
-3.69244
3.29883
8.75702
9.28496
-28.7747
-8.79326
-23.0718
-13.3709
-4.73248
-12.9969
3.48099
5.14795
-0.970941
-1.01926
-1.42967
7.88719
-5.51532
3.89186
7.30926
4.10934
-0.665401
-3.93148
6.48211
6.24247
8.5825
-17.7486
3.46255
-13.4862
1.9962
6.29417
-19.6597
10.8171
4.49336
-1.23413
-2.15734
2.14083
6.36983
-15.2072
1.61286
9.4504
5.18755
3.24319
0.310639
2.74221
-6.63645
9.68138
-18.1905
2.6635
9.14875
-13.4827
-3.35054
-11.9336
-4.11074
-13.7788
7.24105
8.19925
9.51434
-8.60878
-29.0114
-21.2688
4.39978
6.51664
-2.5288
-2.55681
6.1693
-19.5669
-37.9461
-18.9507
-10.323
1.54083
7.68283
-1.03713
1.66602
-6.67338
6.16363
0.211612
11.8834
8.91626
6.10593
5.03474
-2.17966
-0.0564026
11.094
1.09847
-30.1566
-1.17971
6.12659
-15.8933
0.679946
4.79406
-3.31096
-0.969192
7.49801
-5.15637
-13.8152
4.45693
-9.71999
12.5358
4.53247
5.68978
6.77436
-35.8471
0.750275
10.3687
2.99793
8.09619
0.816942
2.47063
-11.9256
0.224214
1.0864
-15.822
6.63494
6.17147
-23.6199
0.0956441
-0.0599724
9.34056
7.2593
0.33152
6.28147
4.01799
-0.79478
3.51213
5.75869
-13.1005
9.55272
-18.4981
3.84188
9.95872
4.2956
-1.71118
3.41701
-13.8105
-18.6935
1.81614
3.9746
6.82871
8.81702
-15.2348
2.62558
-15.3998
0.0426018
8.61132
2.4921
-17.7255
-16.1297
-19.8674
-4.5222
4.84135
-17.7336
-2.39419
6.2954
8.70833
1.09698
6.93939
-9.27022
-24.5611
-3.24316
3.14544
-20.7197
6.67736
0.771898
-26.0347
5.02901
7.21317
-7.30348
-15.4476
5.70695
8.58576
2.91542
9.25367
0.767085
4.63483
2.22564
6.8387
1.63503
8.35218
-15.0636
3.32296
5.93154
0.0149952
-5.41076
6.20902
-13.2986
0.749925
7.97469
9.54059
-12.2576
-6.17614
2.69185
0.420579
5.24826
5.30673
2.18
-15.3959
1.00448
9.13001
1.8137
1.79262
-24.7966
9.60718
-2.40189
2.08027
6.09113
4.89947
0.173366
2.6295
5.3305
0.465701
-3.52203
3.04543
-3.67183
9.2962
6.09947
3.5871
3.7623
0.0458437
-4.24128
10.4427
2.61945
10.4699
-18.0995
5.92393
-1.98813
-12.213
3.81746
4.28372
10.9733
-29.5665
3.94796
3.19973
-6.05553
4.16678
-5.24467
-0.240392
5.82413
-15.5945
-4.97827
-7.23267
1.2696
-0.927643
6.71349
-0.948976
10.1587
5.99381
-7.64468
-24.0372
-2.56063
2.73369
-21.8052
0.726285
-15.6072
8.56851
-0.149414
2.40638
-31.9656
9.72362
0.139074
-1.88548
9.95353
5.70058
-20.0493
0.925336
3.7821
1.39567
5.95315
1.86575
-16.3743
3.00564
5.33937
2.55342
4.57585
10.1053
2.02456
-30.1432
6.20188
-16.5506
-0.131839
3.72888
4.98614
3.46565
-18.1573
0.773005
-12.832
0.516293
8.59296
2.61896
0.474517
0.814508
0.730001
1.16532
6.67081
-0.843222
5.85369
5.58477
8.76621
0.375552
-1.30661
10.3836
0.770352
-19.4272
6.34104
-6.2496
7.14353
1.53665
6.09115
-0.910273
-12.0605
-11.8128
-0.671617
-14.2414
3.9949
10.7005
-1.44931
-10.7574
-0.993392
6.82939
2.512
3.39277
-30.2708
10.6784
-18.5857
2.60198
-2.79833
4.25297
6.42867
3.95789
-7.69262
-7.20087
9.82335
6.26205
2.4258
5.26621
0.234172
4.41932
4.73124
4.15954
-11.1535
0.436411
7.79348
-1.9251
-0.180305
5.21885
-18.9519
-1.35153
2.86076
6.59905
6.84155
-23.1114
0.623617
-19.272
-7.11859
0.503999
-0.899681
-0.184282
6.07451
1.09069
-2.72937
7.15359
-12.9536
-7.91678
3.30414
-1.51251
-21.9451
-10.5437
-8.92889
-39.6975
5.94633
9.63064
-30.5369
-7.14357
9.98034
9.34574
-11.6512
-11.2358
6.31663
-13.5062
1.69162
2.99119
1.35183
3.18263
-13.9737
3.38046
4.66276
-1.23647
-0.762921
-8.50148
0.268803
5.06042
4.20758
3.31907
-25.3164
6.11458
9.18462
-13.8125
-38.7734
6.89081
2.31429
3.44982
-1.8092
-2.76955
-25.6032
0.419033
6.39454
10.4783
6.67211
-0.0648461
0.494968
6.26001
8.92448
2.271
6.53603
6.12419
9.42935
-1.34085
-7.76484
1.73002
0.399483
9.37637
0.593066
3.1233
3.47013
0.41303
1.04759
0.471369
-4.23563
6.14108
6.19571
4.75275
3.66863
-5.72447
-0.453942
-0.670666
3.16244
-4.02417
0.378675
1.60335
-39.4448
-26.8436
3.87016
-2.70076
-11.9097
-6.83972
-2.58253
4.61436
-18.0796
-37.3928
6.90882
-14.5383
9.58347
-19.9305
-11.9856
7.28892
8.641
-9.80134
1.4633
1.57907
6.58021
3.40847
-6.96523
0.13594
-22.4959
0.0876169
6.10394
2.36124
4.17928
-12.8232
6.12506
-15.1498
1.79644
-4.74275
7.41451
-3.86228
-21.7416
-25.4536
9.46867
2.2413
-31.3734
-19.2774
6.11498
-28.2896
-14.1748
1.02812
1.93095
0.93612
3.77828
-16.1128
5.91315
6.14203
7.05421
3.46154
5.48319
-1.83548
5.12594
-0.0482775
7.41219
5.17463
0.296267
-1.289
0.133751
0.611655
-26.9835
7.0902
3.11292
-17.258
6.26059
-1.21649
4.50264
10.8433
0.473324
-5.29052
4.71107
-2.32718
1.58505
0.0326199
-7.19136
6.09019
2.0135
0.824851
1.61969
0.804055
7.87871
-19.9552
-0.296572
6.28483
-1.94229
8.9771
7.20612
8.16847
1.14206
4.87805
0.846466
1.22972
4.49871
5.80637
-1.48808
-0.0781913
-7.03129
-3.9166
-31.3011
6.02547
-9.99902
-8.94912
-37.9451
-1.20254
-3.75246
6.37411
-3.80887
-0.739759
-11.3444
6.265
10.6835
-1.74001
-22.0676
4.14671
-13.397
5.97566
-7.6289
-4.23208
7.35295
2.8847
10.1286
3.58801
6.22408
-2.5131
7.94959
1.68508
7.25882
-20.3769
-7.27628
0.446988
-29.8993
3.3883
-0.409592
1.17832
9.51003
6.25185
6.93165
8.67643
7.02381
7.40081
-0.632564
6.33703
6.28339
6.39089
0.265689
-0.745656
-3.0149
-1.48973
0.0720182
6.88076
-12.1105
10.3373
-2.83376
1.96276
10.4283
8.77804
-0.01989
-20.8026
6.00656
3.90646
0.277994
5.63141
-12.1153
-1.00804
6.21251
8.46669
-3.51416
6.77647
7.8686
-0.290331
-1.57907
7.9605
1.9097
-27.3557
-16.0414
0.877089
-4.09417
6.0708
5.97588
-9.09379
-11.1275
-4.23475
-0.184662
5.20328
1.04396
9.08056
2.69605
11.6257
6.07453
1.42919
6.86178
-20.733
-12.0806
-26.5801
6.10671
-2.54432
-10.7752
-11.7806
3.63859
4.39829
-10.1203
4.46459
-14.3551
2.3159
1.81666
-16.2745
4.45275
0.933522
7.93044
6.40277
6.75144
5.67113
-0.0586775
-5.60023
-3.77488
0.794434
-14.9207
2.49694
4.32578
-13.4705
5.16111
-9.35293
-1.78857
-31.758
3.69022
3.9064
-2.03884
-4.6737
1.97049
-2.73381
-6.69285
0.572227
-0.85234
6.76527
4.98713
7.88928
-11.9881
5.80418
1.73958
8.58391
1.58864
3.87073
1.25632
0.287923
9.9557
10.6497
4.69327
3.39769
4.71963
5.49873
10.0681
3.9115
-5.85948
-30.331
0.846322
-1.84058
-6.13255
6.24582
5.89699
0.56003
1.69567
5.22341
5.29961
10.9461
-10.905
5.3014
-13.411
3.12077
8.91184
1.05014
4.8742
-8.45509
4.91381
1.72637
11.4393
-10.585
-3.06375
3.70261
0.633731
-20.5451
-12.0698
-0.54084
7.03612
-11.2232
3.29601
9.3355
8.60823
1.10239
-7.20603
-15.9579
2.14339
7.21398
5.71687
8.5301
3.2205
-19.3348
8.9278
5.53161
-6.35938
4.51685
6.55955
7.73171
-21.9982
-2.71787
0.0626187
5.57264
9.81209
2.598
-1.16387
-4.13215
11.0014
-15.2759
-4.69003
10.2394
5.68627
-0.543578
4.48292
-9.42885
2.58735
-3.3268
-16.113
-7.94251
-29.1737
1.14261
-1.79099
-13.4176
-14.3553
-6.39689
-6.04584
-13.1722
-22.3258
7.1648
6.02716
3.34786
-13.6317
-0.491614
2.05149
-0.175085
11.5647
3.74519
-3.24713
5.68842
-2.55518
-30.7872
5.05971
5.08131
5.88655
11.7332
0.214431
1.04966
-12.9335
0.608994
3.86534
6.05309
-0.999675
9.07081
5.16784
6.61275
-12.6518
0.120405
1.71644
6.29308
6.27735
6.60532
6.33266
10.8033
10.5027
-2.62086
5.71621
7.86192
-3.12321
8.5167
2.43962
10.3856
8.44749
1.1352
7.14787
3.76789
4.45525
1.02981
6.56761
-5.27838
5.01066
0.96423
4.13303
0.104136
6.0236
5.22088
0.170443
10.0296
10.015
3.56675
-11.9795
1.13058
0.623675
0.863373
5.57444
8.985
-12.0161
6.40956
5.65998
2.13278
6.23391
-30.7729
-7.36785
-9.43928
11.1173
-0.783836
-16.2328
7.37348
0.08342
2.37004
3.64123
0.818448
5.14751
2.57887
-2.52526
3.06478
4.79121
3.71054
4.38143
10.5771
8.69153
7.64192
9.38394
9.81416
1.93516
2.5597
-4.27255
-3.37176
9.91608
-13.5555
5.91102
5.25548
-22.2867
2.34008
6.73188
-20.0172
2.23075
4.82544
11.8731
-15.0197
1.87972
-0.632553
7.04187
0.98861
-13.8556
9.72416
8.33142
5.71783
6.09336
-3.40307
2.96676
-15.7452
10.4826
-8.71945
11.3527
-0.176108
-0.614582
-12.4213
3.39522
-12.1693
-0.415875
-0.333846
2.91446
-2.60868
2.81311
-15.7353
-0.252497
-2.59406
-11.9779
-2.66914
-7.19887
-4.30858
1.83747
-4.60511
-24.0447
6.26291
6.38151
8.51083
6.16828
1.37451
1.69629
12.6813
5.73782
-15.3037
-1.14932
0.453991
5.20019
5.06572
9.09077
-4.00531
-4.07844
5.07818
-0.285508
1.16075
7.93212
-12.0059
-21.9762
-15.1874
10.6004
-13.8002
3.60108
7.78264
-0.596006
4.55861
5.17307
-15.2328
-15.1833
-3.96259
4.66914
7.25564
7.63528
-7.29604
-12.1337
4.05901
-13.6374
-3.53359
-0.105922
-0.215101
-3.69042
-3.54145
-16.7648
-15.006
-10.205
9.40057
-8.31094
10.2717
-21.7335
0.376561
0.885525
1.96468
8.67034
6.04592
7.63949
-2.69969
-3.27574
-16.0658
8.38797
-11.9368
4.93941
-9.97056
7.94636
8.65409
-7.3419
6.11483
9.85369
6.63874
6.55369
-7.76055
-11.9181
1.43703
-5.79237
-0.963486
3.36195
4.4541
0.954915
-18.0199
1.02716
-0.332045
5.3397
4.51887
-2.78884
10.3552
0.683057
0.0789567
0.593441
6.13168
-9.56211
0.357155
6.57212
-1.49165
1.1104
-0.305048
6.49376
6.14978
5.94918
-4.09846
6.07586
7.20074
6.80581
-2.3297
1.96539
2.3942
4.95126
-3.99542
-13.6845
-29.6813
-5.34358
-9.59788
-0.846867
-0.445746
2.22459
-12.1771
-2.91605
-32.6966
-1.02711
-4.37146
3.04458
-16.6506
6.63448
12.6846
3.04952
-2.03304
3.54547
1.77395
1.12318
0.68246
-3.23499
-38.1049
0.751404
8.03854
0.226836
9.66684
0.603123
5.92465
4.83688
1.6838
-12.6604
3.64678
10.9167
-4.21207
6.19076
6.08562
9.04743
0.74124
8.29067
6.60746
-12.3314
7.0313
-14.9659
-16.9877
8.49089
5.69099
-6.75138
1.95361
7.96699
0.854114
-23.2981
2.17527
1.68832
5.42554
3.86278
6.47923
5.71035
4.83366
-8.28749
-2.94472
-2.22387
6.37728
11.3432
-3.92019
-12.837
-12.6905
6.17366
0.783978
0.776831
2.56834
-11.702
4.38704
-0.566726
-1.90383
10.3619
3.30332
1.84925
-10.7313
-17.0776
-7.20917
-13.6743
-9.6761
-23.2166
7.56073
3.85943
-3.77262
10.1775
-1.12885
-16.8814
-2.40077
-17.0017
6.53877
-10.9158
2.82051
5.94204
-7.01659
-2.35025
2.14586
-15.3087
-16.6903
6.93086
-31.3251
2.34625
-15.3659
6.09476
6.54532
-14.6197
7.71646
7.08276
9.32004
9.56627
6.71838
0.742103
11.1638
-15.3682
5.89034
-0.311431
-31.3139
7.74482
-25.6732
9.45792
3.58379
-4.72151
-15.4003
-12.4341
6.76265
-30.5201
-7.16109
-0.859741
-1.51914
1.3436
4.37298
1.96563
4.06767
10.5909
-11.9904
-10.0927
1.07354
6.39583
5.30305
-7.72944
12.5165
1.58441
-0.533819
4.92729
-4.0446
6.03836
6.16084
6.92897
7.12799
1.39144
2.45376
5.6125
1.02805
-0.992571
-3.65813
6.56656
6.83025
8.45077
-3.44581
1.01791
3.22939
4.27938
-0.0259829
-25.6851
5.54511
-7.30842
5.6395
6.48836
-14.6022
9.65987
-18.935
10.7658
6.87994
-35.2213
0.243377
-15.5977
4.14596
6.68024
-39.0586
8.28587
6.13445
3.07716
1.50799
1.00767
0.233777
3.14184
-14.8283
3.63819
-15.5912
6.14954
-14.3139
-0.727944
-2.16314
7.66269
8.77832
4.68592
-14.7729
3.68719
0.579122
0.684831
3.97516
-1.12206
-4.28735
10.2553
-1.366
3.57057
-5.06903
-16.7571
0.239783
6.28403
-14.7034
-0.764297
6.66783
3.34283
6.60768
-19.9705
1.94432
10.4677
-8.18165
6.31271
0.327945
-0.00879042
2.86477
1.05694
0.722033
10.6492
6.91339
-1.23328
10.5265
7.91514
7.69168
-13.7735
-14.2461
3.99925
-5.07004
-0.0752117
-8.99284
-4.18308
-8.51517
4.40485
1.66692
3.27921
3.59044
-0.298795
4.63171
6.54547
-16.1223
6.43109
4.39714
6.19196
0.491034
-4.16948
-14.9795
-13.7446
-18.9775
-1.26312
6.5063
-31.7663
9.36458
-21.3935
6.05504
3.71055
-9.73051
-0.665645
6.11485
3.69013
2.24006
5.21833
2.29679
-2.97186
8.89213
7.78354
-8.51247
-13.6898
-1.3497
5.7948
1.1538
2.76303
-7.21354
1.0019
1.51804
-19.3758
4.96422
5.21298
-0.274724
3.68026
0.997725
3.28916
-37.2146
7.83304
-15.9393
6.01814
0.144096
5.61678
6.36666
4.09778
5.40211
-2.30227
-16.5642
-13.9579
-13.0955
-27.0224
-16.5111
1.64782
-0.20851
5.39523
0.679916
6.11171
-10.4011
-10.868
-6.63703
2.00616
6.22847
-15.1139
5.71992
1.103
-36.1105
-0.00373565
-17.4393
3.67233
6.38353
1.52869
0.816732
-12.1132
7.19054
-14.8596
0.164475
-20.9358
7.64335
2.23663
-4.70071
6.53816
6.19614
7.35773
4.19108
7.98495
-8.57651
-2.97117
1.21339
5.95782
4.44024
1.16927
0.316757
-20.0358
-29.7683
2.51127
1.20715
-35.2706
10.227
-8.49219
7.23038
3.8249
-8.1442
3.86933
-5.06848
0.0259827
1.62289
0.649036
6.04976
-12.1505
6.26783
-6.82617
2.59774
-5.11504
-2.21786
-21.6689
7.63892
10.4624
6.70967
3.50236
1.23342
4.92088
-15.2091
-16.3697
-8.87301
0.854961
-10.9951
-34.7556
-24.0243
-3.55305
5.13591
6.02419
-8.01618
1.17131
7.02173
-2.70492
-6.15703
6.765
2.45825
-21.4736
1.43747
-0.336131
0.27057
10.2026
-10.9353
5.78637
-3.92252
-2.45294
-2.60504
5.74219
-1.64585
4.82082
-2.6261
-3.9675
-3.00398
-2.9369
7.24283
5.02159
1.9701
0.933438
-1.28887
10.8482
-4.13086
6.82901
7.63685
1.50154
2.97864
2.01772
-12.9381
2.55666
5.71312
4.34738
5.65378
-31.1321
6.83817
1.67362
8.85007
-3.35147
5.80045
7.74747
5.5265
0.62175
-19.3228
2.7488
-16.691
5.34687
3.54457
7.32332
1.43539
9.28965
0.758954
9.88459
1.3768
7.70648
0.30308
4.05175
-15.0768
6.04674
1.99119
3.49054
9.76966
6.27677
0.796082
-2.6452
2.77175
5.96372
2.87636
-13.5646
3.76584
-12.7785
7.92274
-14.846
9.42663
2.3818
12.8362
9.60633
4.49666
4.04755
-16.9042
1.27046
10.1297
-0.812347
0.671398
0.626298
10.7786
3.93635
4.89568
9.82468
-2.64887
6.59394
-0.607121
7.23195
2.39516
6.86967
6.04265
8.4863
4.04444
-11.6328
1.31409
-17.8339
1.78711
1.17978
-14.8948
8.32747
8.90129
1.21379
1.82407
0.0552421
8.00199
4.61219
5.32441
4.3414
2.0698
-12.9483
-9.45389
6.4454
-6.86448
-8.68547
3.40318
3.8432
2.11557
-2.80844
10.7805
-1.46918
9.36333
1.77581
10.1259
-3.28855
-1.88108
-8.51522
1.70669
4.75536
6.1654
0.131763
-6.39069
1.67923
-10.6728
8.87151
-0.434939
0.979702
-0.622719
-0.432856
2.24858
7.47632
2.25966
-5.6683
-10.1477
6.24087
11.3735
-18.5599
-3.72713
5.75031
-18.2307
3.68815
-12.0341
4.44411
-3.07076
-15.1364
1.82186
-8.37798
0.0260956
-2.46142
-9.49589
-25.4278
1.25862
5.15637
6.41335
5.63306
11.0117
-23.7004
10.6194
-11.896
9.88536
-40.6304
-3.17663
10.6508
3.31736
-15.6091
6.18478
3.82628
6.69038
-1.09739
-15.1735
0.781045
-3.56694
-5.15336
-0.921841
0.179355
3.17496
7.62299
-39.1763
3.37363
-6.70044
-0.126997
-0.69213
2.39867
-4.34679
-5.30899
-5.41364
8.7945
5.32984
9.33035
1.66248
-15.0421
3.06328
-3.00658
-8.12033
5.56501
7.59264
11.2137
5.10054
5.74912
2.12968
-11.9509
10.8655
11.4325
6.84339
-2.20939
-29.0749
-16.7647
5.37045
3.68643
0.778389
6.19369
-12.0382
3.09839
-16.4588
9.66387
-0.119607
1.60069
-15.5894
5.83468
4.21058
12.3433
11.5627
5.05727
2.46769
-1.32539
-9.71545
3.6412
11.8518
-12.8839
-8.45431
4.2626
0.259129
0.793553
0.0440207
-0.635375
1.05046
0.373266
2.06871
-19.6063
2.7903
8.51017
2.09573
6.37609
-18.8231
-0.98977
10.3057
-13.3551
-3.33327
1.41297
3.44897
2.80117
-15.2988
1.31091
-3.7443
0.0845967
12.51
-12.537
-8.25658
-21.3406
-1.59318
-7.84984
1.47306
-12.7594
-8.48128
-4.98476
-7.90275
-2.72398
-5.48878
2.70268
-0.832727
1.44088
12.1726
1.66484
1.27498
0.197029
2.0864
-11.9655
-1.42826
8.61897
6.12029
1.33449
1.88495
5.65913
6.46774
-18.217
-33.6169
-12.1237
8.61158
-2.97726
5.9036
1.13741
9.35185
0.384386
-21.8753
0.689955
6.70067
-2.66644
5.78457
-2.67642
11.6284
-12.3025
-0.419051
-18.8471
3.9122
-17.1079
-3.59769
-13.8177
0.642052
2.87201
-34.9425
-2.878
1.93492
0.0883105
-8.46458
-2.83236
4.33125
-17.0402
4.98685
-15.8954
6.76296
10.7409
5.66869
-12.1154
6.08317
0.751465
-2.59758
1.78626
-1.18069
-15.5954
-8.64995
-2.86462
2.81601
1.04519
-1.06658
0.524774
-15.2514
2.47564
6.2453
-1.71585
-16.9067
-0.756185
-27.664
1.06584
2.85997
-7.06191
-18.4689
6.63469
-9.4413
3.6005
-5.45968
-16.3498
-16.7182
-24.2029
12.5147
0.0931776
-4.17103
3.5137
10.2722
10.3261
-25.1561
-0.657631
6.19654
3.44269
-7.35767
10.4907
2.66664
5.47831
12.5891
-0.220177
1.72034
1.80316
9.22813
6.4615
6.2745
8.15466
4.8204
1.89253
1.66316
3.54461
0.942045
-13.2088
10.5488
0.800298
-1.162
-16.9479
-7.26804
2.01538
-16.6209
-1.1721
0.715924
6.27683
6.75873
6.99221
-15.3414
9.19322
10.2559
-8.65701
3.1359
0.559921
1.43208
-3.57367
4.27114
1.23239
-2.75148
1.25216
11.384
-14.8921
6.98648
6.13137
8.13069
4.4582
4.35023
-1.43017
1.60667
3.71116
1.22014
-14.804
-6.37106
1.045
-10.5388
7.46628
-33.8265
-6.22223
2.29484
-11.9218
-18.5118
-14.6399
5.07582
-0.514432
-5.56379
3.40122
-22.7941
0.781777
-7.83514
0.423825
6.59974
-15.4178
10.6545
-18.085
11.4261
-0.550396
-7.53573
0.904325
5.67427
4.90981
-8.56039
0.518634
0.278849
0.809638
3.83793
12.6999
8.16969
0.116956
-2.71367
2.36725
1.8251
6.9995
2.62345
4.31671
-11.2589
-14.2034
-11.3106
2.42351
1.79923
-11.7489
4.53012
3.1753
10.1226
11.015
-13.8717
-15.5496
0.199847
-3.60924
10.5498
-4.60971
-0.36826
3.35318
4.89738
-14.7674
-12.8585
0.317382
3.97729
5.60666
-12.4149
1.57807
-1.15724
-2.72902
-7.49475
-0.232918
-7.70428
-6.90972
6.68056
-28.5449
-19.856
-1.56754
-5.60379
11.5638
4.63542
5.95957
-2.71917
2.18689
0.676618
1.19245
2.68109
-12.9633
-14.5161
10.517
6.49139
0.936069
-12.1744
12.0343
-18.3458
-13.5634
-10.1185
2.50411
-18.414
-14.2537
9.12494
0.661021
5.41215
3.19192
-8.93332
-21.09
-6.80863
2.34099
-8.37092
1.0777
2.87371
5.78998
-18.4545
-13.3113
-2.84232
-2.96978
-4.32299
-3.97176
11.3474
4.5997
-35.5865
2.28737
2.36041
9.8717
2.71298
-13.6835
3.5111
7.83471
6.69903
-3.78899
5.78342
-4.07005
10.4335
1.59212
6.51861
-17.6944
-3.21671
-25.2139
-13.1799
3.5849
2.90528
-13.0635
-20.4255
7.12431
-12.1711
0.479551
8.55039
5.23042
8.32998
5.91306
-4.18597
0.887073
1.19509
5.87729
0.0549071
7.57071
4.78394
10.3549
-11.2621
8.10609
3.22326
10.6044
-8.14888
-2.4624
10.7181
-12.5981
4.77486
-14.9472
9.22468
10.3755
6.65919
-6.25581
6.17987
7.84905
-7.60882
3.70568
-21.7687
8.43732
-14.4585
-6.74545
-15.8482
-16.1141
7.71372
2.92544
-16.3551
2.29754
10.343
-0.881463
0.519554
-16.3248
-3.48534
5.21354
-0.127094
6.01531
5.4648
-14.4777
11.6572
3.06471
8.90991
8.69247
-0.803976
-4.8542
5.22837
-6.14889
-0.773353
5.30548
4.3198
-0.727853
5.49544
-8.01395
9.97319
6.847
1.07499
0.393282
6.84314
-10.8353
4.55446
8.1235
1.06585
-9.74092
7.82841
6.44765
-2.94206
-11.9617
4.67586
6.77501
10.4229
-12.3522
10.988
11.3692
11.1984
1.7462
7.57776
-19.7457
6.23917
8.27473
8.05632
6.70335
8.99666
12.3142
5.71984
-12.6157
0.792685
-15.0236
12.1968
2.494
-6.92876
-15.9933
6.29131
9.25099
5.66156
0.563609
0.700833
9.06451
-8.12442
6.46905
-17.3697
3.45658
2.78596
2.1746
3.29976
-20.1143
-22.5538
-0.548812
-2.64112
3.31184
7.41627
0.166563
0.553166
5.42912
-13.8474
3.90471
-27.802
-13.2836
-16.0284
-13.1173
8.57542
9.27222
-16.6519
4.96054
7.8916
7.9459
1.17158
-39.1099
6.59422
-12.8269
8.45891
-12.597
8.24856
4.64092
1.80221
7.73762
3.41113
7.97548
0.87576
3.56051
-2.54102
-12.0434
-15.3028
-0.609462
7.8146
-32.1146
-18.0368
-27.9815
9.24157
7.92432
3.22906
4.13984
8.88231
-6.74524
5.57143
-0.178648
-2.83134
5.54329
-22.7921
-15.0088
-3.67396
-14.0661
-1.04271
-37.2774
-0.500447
-16.9396
-12.0065
4.64542
10.5656
11.5305
10.0051
-36.0274
6.54331
-18.7878
5.37948
9.03801
1.97622
7.69112
-24.274
0.906709
-2.96026
0.594201
8.40326
-2.03666
6.85524
-15.5899
-0.277303
-14.5395
7.08398
6.80698
6.19872
-15.0852
5.51038
-1.01753
-16.7262
-16.3384
0.457079
10.5715
-8.02753
-2.43793
-19.0953
5.88087
6.05246
3.09803
4.36968
-15.1424
9.01749
8.77955
-16.0926
-0.0666216
8.76513
-23.9627
-25.8582
1.04005
8.02238
9.01696
-17.4667
4.35778
0.707373
10.394
-13.8432
-17.9413
0.496692
9.71077
0.973637
-2.58228
-9.22764
8.36415
5.24598
8.25884
0.319663
-7.29568
6.70594
12.0439
-12.1852
5.59659
0.8113
-11.7887
0.924408
1.15165
-17.8706
4.31141
-7.01957
4.5415
-11.6998
-5.88143
7.54599
9.11457
5.46602
-5.75717
-14.9038
7.12219
-15.1273
1.45556
-2.74739
2.11132
-13.6109
7.00742
7.10278
0.772683
6.71591
10.2328
-1.31884
5.00536
6.97132
-15.7932
4.46237
-1.30248
2.05115
1.96897
5.27078
0.301126
0.84414
0.319249
-6.83415
8.577
2.19512
-3.33034
-26.5521
-0.607579
6.40272
-16.5053
11.1477
-14.9769
-13.9783
0.117051
7.86037
6.83124
8.21204
-14.8409
9.83955
-24.9768
4.94061
0.0499091
-10.2923
5.96118
1.86112
-0.130976
3.70423
-14.2866
5.31465
-14.378
-25.9703
-0.540597
-11.4697
-11.6296
5.38221
10.105
-7.70463
-19.8183
7.82717
-7.84122
9.17697
2.97091
1.16486
4.80955
6.35388
2.32726
-10.4382
-4.81994
0.836691
2.55323
3.22411
-11.6519
-20.644
2.20628
3.7403
1.43199
12.3224
6.50819
6.20145
9.27531
2.10449
6.94679
-20.2732
-13.0497
-33.0088
6.21703
11.9803
5.41146
-2.72404
8.55087
5.83579
5.84532
-8.10164
0.822053
2.50844
11.1937
-4.75549
-5.60785
9.46758
8.76719
6.49844
5.83494
7.37579
3.57987
-2.27378
-40.139
6.59901
-12.2202
-11.7785
6.09505
-37.2002
0.358885
1.89801
6.63953
6.92835
6.91895
0.903964
8.16611
8.38868
-2.35057
7.3394
6.3001
6.69281
5.58974
4.26102
2.20887
3.17791
7.8032
7.30983
1.69841
5.5352
0.809814
-8.79753
10.0076
7.57287
0.400468
-23.5255
-0.0264319
7.80692
4.16158
2.98395
1.71829
0.687044
-12.5958
0.867435
-20.5616
-0.093702
4.62876
0.213289
-16.0113
-15.1676
9.45803
-17.2605
-12.2215
-25.0093
10.1303
-4.54388
0.10895
2.33988
-16.8063
5.70851
5.96352
3.61679
8.94687
4.43096
1.05267
-14.1456
-24.0578
0.82881
7.38953
0.207696
-17.6343
-12.7334
-5.35443
-13.1975
-23.6874
-7.81411
0.521364
3.06295
6.15937
7.97678
-3.10325
1.27403
8.95886
6.72393
-17.4643
1.10997
-14.9681
3.13272
0.104432
2.63364
5.52944
-12.478
-5.30799
-8.57995
2.65906
-28.2259
-13.3958
0.660666
-35.4804
-13.5222
-17.044
-26.3075
0.805624
-14.9407
2.22555
-16.0071
6.2468
5.71828
-1.33346
7.96181
-37.4268
10.1556
-4.8002
1.29303
-3.31911
5.84839
2.98645
-11.9463
-14.3482
6.4281
7.62998
10.517
-22.7339
-13.0689
-41.8835
0.985472
0.35099
-14.7454
1.86831
-15.6735
2.88109
-18.7685
4.78971
-1.08381
2.18181
9.20573
5.09841
-1.27266
3.91899
-5.28927
-12.5554
8.33201
11.5538
-12.276
7.51498
5.53291
-0.138879
-0.114684
7.74738
7.59192
-7.87181
-3.01921
-34.7975
-40.509
-2.92489
-15.5274
-2.27372
4.90176
3.38924
6.94211
-16.8578
-16.8196
6.00495
-2.49156
-16.0775
1.45251
5.54277
-16.3629
-1.27045
-15.4151
-14.9896
-15.7794
10.6804
-14.1475
0.101281
-20.9439
6.58944
-15.0706
2.03107
-8.15645
-23.1173
-2.69831
6.80164
-1.63718
-14.9776
4.91821
-0.618945
-11.181
-11.3996
-15.8103
4.11908
4.7623
6.24486
-11.5203
9.15798
-7.70743
0.191758
-1.56878
-6.68395
-40.4376
-14.9511
-18.3637
0.167794
3.23312
-4.97945
0.0875784
-5.37044
5.51416
-28.4508
6.34876
-17.1194
4.4008
-1.16217
-10.9974
2.6107
12.5157
-0.384929
-16.5436
-8.75318
-6.13292
6.20839
-16.4123
2.31586
2.02031
-9.97866
-22.5799
-11.9898
-15.4188
6.73263
-14.7803
1.72916
-12.9966
0.675808
4.9415
-0.388839
2.0258
-1.36443
8.04133
-14.2873
-15.8926
8.60838
1.15292
-14.7886
-0.0404853
-14.3245
-5.23226
-0.507026
7.79311
-26.7857
3.55598
-13.0045
-13.6424
-17.9879
-14.994
-13.7305
3.62794
-0.621211
6.17893
3.36717
-24.2587
3.38002
-41.2884
7.69772
9.0931
-16.8129
1.89819
6.44145
6.12697
4.81676
-18.3381
-14.3929
-12.0845
6.22495
2.61139
-6.99022
-13.2517
3.02946
7.51417
0.293013
-6.7065
1.38796
8.48383
-4.57012
-4.88927
-5.67261
5.58354
2.22766
2.86717
9.20906
7.64282
-5.37394
-30.1249
7.71142
3.81143
0.768312
5.72821
-3.9874
-16.6476
-12.532
-26.1999
7.62183
6.53165
1.55828
-2.84995
2.94094
-13.165
6.59143
-34.2791
4.71741
8.09382
8.67996
-11.3943
6.10351
5.27696
6.82968
7.21396
0.660718
7.23689
-1.08214
6.31568
4.49726
6.64988
-20.7983
7.67321
7.25244
5.76304
4.79471
-15.6131
3.94196
-1.69298
-4.4162
8.3102
8.7411
-40.003
8.76549
-22.4925
-12.2723
6.49315
6.54931
-8.07949
0.492218
-13.2531
-34.239
-1.93326
-19.7341
-8.91505
-0.109316
5.28359
11.2856
7.72694
-4.60937
-11.6052
6.40831
3.80924
-6.57467
-18.5701
-15.4909
-4.73806
-12.1
-11.9816
6.01506
1.54313
3.55118
1.25763
1.32437
2.88567
1.20564
0.327026
2.47184
5.45312
-4.37023
3.06514
-1.5158
-31.7921
3.6357
4.01435
2.0662
-10.1425
4.88567
4.00803
3.37653
-3.50018
6.19967
4.67157
9.70314
6.23305
-20.2379
-0.25774
-2.87901
-13.5283
2.02087
-7.6895
-0.00224528
-37.1155
11.5186
0.924706
-16.1737
9.03126
-19.0254
-1.647
0.667161
-21.7599
-13.6979
1.47037
-3.98231
5.91586
-0.919683
-19.5428
1.88115
-17.0459
-3.75061
-10.8095
-2.21493
5.24001
-13.1408
-19.3364
-4.36002
1.40278
-5.89342
6.5722
9.28978
-13.8214
6.70297
2.71794
4.91546
10.2456
-19.6206
4.42188
2.49024
3.43271
8.80148
0.382667
0.981837
-10.9246
6.40617
9.28517
-28.8857
1.43126
-8.72826
-5.83311
3.89709
-16.9581
-6.92364
-18.4309
3.39886
-12.6565
1.07959
0.515947
5.71684
0.850602
-12.4636
-1.67318
-3.34014
1.47413
9.89662
11.085
8.2441
11.8899
6.00566
6.56509
6.94731
6.0246
6.42976
-10.563
6.0952
-0.280173
-12.0589
9.05367
0.196617
-5.15106
10.6668
1.17523
-33.7775
3.9386
3.47106
7.52646
-6.71218
5.98105
10.0584
-18.9335
-12.1924
-5.77243
3.72262
-16.7881
7.88292
0.319572
7.61058
6.21571
-19.1692
7.07511
-2.32524
-13.4552
-12.9058
-38.57
7.40799
-6.59437
6.28597
3.54791
-15.0117
-0.575193
2.62894
-2.44342
-20.1725
-13.3551
7.48914
2.11906
-15.6257
-0.824513
4.79653
1.20609
-39.9479
3.86132
-14.0849
3.76566
-15.9733
4.60207
2.5017
3.84087
1.1665
5.54093
3.07113
2.77022
-14.1682
11.7378
-3.56216
-16.3292
5.60216
4.63517
-15.654
-4.96836
-18.7539
3.56228
2.37753
-5.49824
0.437699
-0.332152
11.863
1.27008
-21.2795
-0.645726
-2.73334
3.96827
-0.727495
5.31969
4.81121
-15.5544
3.26476
-12.8595
4.92123
1.82348
5.99061
4.89125
0.29825
0.221047
2.0761
6.64561
-2.99949
0.712234
-15.9402
-0.909498
-1.49992
5.89967
-16.3592
2.12846
-11.6695
7.41077
-15.1237
-0.0664418
8.01403
7.19025
4.18426
-20.7328
-14.9778
6.77556
-19.5416
7.62027
4.02553
1.24901
6.1723
0.293764
2.6699
0.666795
-2.83907
-8.58505
4.87845
-11.1739
8.21465
1.48128
12.004
0.839031
2.56652
7.29975
1.71038
1.2263
6.52167
5.01451
3.06605
-7.55235
-2.06835
5.54997
3.29094
0.422943
-35.5853
-0.110936
-25.659
-15.6812
-3.75766
5.81168
-4.05336
5.36053
1.0004
10.2881
8.25097
3.19854
4.6851
3.06229
-14.6542
6.16005
3.96259
1.50723
1.61384
7.5112
6.62025
-1.68782
-27.7871
-6.37623
5.16624
1.70167
0.993126
6.56032
-38.7192
5.51534
-8.16612
5.76601
3.66949
-2.3927
3.46941
6.9539
1.29812
6.07788
7.9717
0.829849
-2.74541
4.44686
0.368179
9.36441
-12.2572
8.46544
7.00157
-15.5362
-12.7728
-19.3146
-2.88794
-19.85
-21.9705
6.1021
8.61765
7.01704
8.7266
4.83983
7.90031
3.43448
0.597101
3.6536
-1.44826
1.77242
4.63575
0.053636
9.25328
0.74793
-10.1518
5.02448
8.98586
9.48521
-26.5133
2.69953
-17.1013
-11.9602
3.84637
-8.09672
-18.3036
4.1404
9.89464
-13.5314
-11.9759
-21.9662
3.5101
0.792984
1.92824
5.61311
5.9736
-3.83762
-1.31294
-0.82933
-16.1946
6.06761
5.97575