/*--------------------------------*- C++ -*----------------------------------*\
| =========                 |                                                 |
| \\      /  F ield         | OpenFOAM: The Open Source CFD Toolbox           |
|  \\    /   O peration     | Version:  2306                                  |
|   \\  /    A nd           | Website:  www.openfoam.com                      |
|    \\/     M anipulation  |                                                 |
\*---------------------------------------------------------------------------*/
FoamFile
{
    version     2.0;
    format      ascii;
    arch        "LSB;label=32;scalar=64";
    class       surfaceScalarField;
    location    "9.5";
    object      phi;
}
// * * * * * * * * * * * * * * * * * * * * * * * * * * * * * * * * * * * * * //

dimensions      [0 3 -1 0 0 0 0];

oriented        oriented;

internalField   nonuniform List<scalar> 
20045
(
0.536061
-0.608455
0.0723941
-1.12238
0.455188
0.667189
0.351985
1.88639
-2.23838
-0.188719
0.318118
-0.129399
-0.935069
0.90495
0.0301186
-0.552888
2.11767
-1.56478
-1.2177
0.505627
0.712073
0.0733628
0.473503
-0.546866
0.507111
0.456645
-0.963756
-0.718341
-0.174167
0.892508
-0.471289
-0.214526
0.685815
2.08164
-1.07718
-1.00446
0.411726
-0.408528
-0.00319772
-1.20513
0.994327
0.210798
-0.315047
1.16836
-0.853312
-1.03609
0.317747
-0.0206787
-0.174029
0.194708
0.407943
0.36709
-0.775033
-1.63715
2.35304
-0.715881
-0.771107
-0.00102921
0.772136
-0.306166
0.0801811
0.225985
0.144654
0.267072
-0.212341
-0.910036
1.00831
0.968622
-1.97693
0.843629
0.127154
-0.970783
-1.02981
2.03812
0.149237
-0.152912
0.00367503
-1.30138
2.42869
-1.12731
2.0356
-0.0109644
-2.02464
-2.44381
1.30079
1.14302
-0.830983
0.560622
0.27036
1.49958
-1.24613
-0.253451
-0.625888
1.5366
-0.910712
2.34469
-1.33233
-1.01236
-0.609725
0.683088
1.19224
-0.486693
-0.705548
2.34652
-2.17603
-0.170491
-0.0718095
0.432705
-0.360896
-0.878246
0.253866
0.624381
0.645918
0.544402
-1.19032
0.0715432
0.438185
-0.509729
0.179054
-0.251464
0.0724096
2.47509
-2.47837
0.0032763
1.41982
-0.469493
-0.950329
0.616309
0.803513
1.00957
1.07207
-0.137297
-0.128704
0.266001
1.14364
0.855748
-1.99939
0.51528
1.83124
0.172943
1.80166
-1.9746
1.3106
-2.20078
0.890181
1.25361
-1.10559
-0.148017
-0.820319
-0.94308
1.7634
-0.0980416
-0.336722
0.434764
-0.189778
0.165431
0.0243469
-0.764567
-0.170502
-0.229998
1.43448
-1.20449
1.21833
-0.167073
-1.05126
1.13217
-1.75806
1.13093
0.635644
-1.76657
-0.481026
-0.146675
0.627701
2.03412
-0.903193
0.435036
-1.54356
1.10853
0.0590694
-0.365236
1.5567
-0.40366
-1.15304
2.42408
-2.35304
-0.0710432
0.16122
-0.330388
0.169167
-0.691451
0.107781
0.58367
0.914864
-0.407753
2.88636
-2.68277
-0.203591
0.328884
-0.167664
-0.463734
0.273956
-0.278557
-1.08394
1.3625
0.0256888
-0.106676
0.0809876
1.33662
-1.77664
0.440019
1.12682
-1.35681
1.90157
-0.564948
0.547555
-0.862602
0.332819
-0.121723
-0.211096
0.0285962
-1.12836
1.09976
0.927649
0.783176
-1.71082
0.890279
-0.762473
-0.127806
1.24177
-0.806731
-2.56851
0.428791
2.13972
-0.00321786
0.539279
-0.420842
0.557587
-0.136744
0.189997
-2.11557
1.92557
-1.59907
0.0601226
1.53894
0.985403
0.244034
-1.22944
-0.842034
0.705453
0.13658
-1.65771
0.162172
1.49554
0.792622
-0.140933
-0.651689
0.43582
-0.645888
0.210068
-0.229598
-0.804637
1.03424
0.64501
-0.684077
0.0390673
1.50777
0.56727
-2.07504
0.118019
0.0312181
-0.182081
0.436188
-0.254107
1.30157
-0.655655
0.0102702
-0.192828
0.182558
0.881905
0.310336
-0.469838
-0.735288
0.294402
-0.476483
0.0118202
1.20651
0.0799721
-0.500814
0.205046
-0.194776
0.403114
1.24259
-1.6457
0.490306
-0.890326
0.40002
0.195522
-0.504323
0.437137
0.0671861
-0.271361
0.342748
-0.0713869
1.44753
-1.21648
-0.231054
-0.54569
0.447648
1.39442
-2.05266
0.658233
-0.234047
0.371531
-0.137485
0.0571907
-0.33253
0.275339
1.09315
-0.249522
1.66916
0.675532
-1.23349
0.954934
1.84127
-1.95492
0.113644
-0.406043
0.813986
-0.645142
0.164116
-0.846
0.690692
0.155308
-0.38794
0.108084
-0.641583
0.533499
1.19302
0.0605886
1.1671
-1.52606
0.358962
1.58205
0.167162
-1.74921
-1.94031
1.46099
0.479318
0.238715
-1.5149
1.27618
1.40974
-0.216725
0.257216
-0.38592
0.0436645
-0.0205261
-0.0231385
-0.051488
0.0255695
0.0259185
1.14498
0.797887
-1.94287
1.22595
-1.09931
-0.126646
-0.30938
0.115713
0.193667
-0.357258
-0.147065
3.22075
-1.37948
-0.709209
0.754946
-0.0457367
1.1564
-2.13559
0.979192
0.540974
-1.36129
0.875255
0.684095
-1.55935
1.35876
-1.33017
2.09873
-0.330749
-1.76798
1.05574
-1.65606
0.60032
2.78937
-1.27691
-1.51246
-0.278483
0.382302
-0.103819
-0.0617542
2.03944
-1.97769
2.1384
-0.1028
-1.64957
0.0518484
1.59772
-1.08487
0.932196
0.152671
1.4565
-0.528848
0.25907
0.631209
-1.25783
1.49334
-0.235504
-1.70972
2.06171
0.0281483
-0.405899
0.377751
0.565398
-0.359733
-0.205665
-0.0371574
-0.411042
0.448199
3.62402
-1.07837
-2.54565
2.64497
-1.2905
-1.35447
-0.487525
0.450368
1.50838
-1.67324
0.164863
0.214992
-0.0359376
-1.09377
-0.909416
1.26719
-0.357774
-1.25008
0.954273
0.295805
-0.0224279
-0.0975943
0.120022
1.67889
1.11048
-0.0432757
-0.00821233
-0.111362
0.155026
-1.35524
0.0974047
-1.47763
1.85945
-0.381821
-1.44009
1.57591
-0.135825
-0.914504
-1.01333
1.92783
-0.323325
0.647452
-0.324127
0.796799
-0.882142
0.0853422
1.81249
0.0499712
-1.86246
-0.0232342
-1.4906
1.51384
-0.908423
1.78368
0.417333
-1.16546
0.748124
-0.705573
2.1
-1.68223
1.21296
0.469272
0.371995
-0.337962
-0.0340334
1.03648
-2.35316
1.31668
-1.92228
0.620901
-1.43513
-0.536185
2.23057
-1.31101
-0.91956
-0.581149
0.652693
0.331937
-0.352182
0.0202448
-2.13586
1.25903
0.87683
-1.66697
2.42049
-0.753521
1.16497
-0.922355
-0.242615
0.0493819
-0.425298
0.375916
-0.556868
-0.5191
1.07597
0.296994
-0.768284
-1.2254
1.46411
-1.36585
-0.444648
1.8105
0.236419
0.0618712
-0.298291
0.210029
-1.11945
-0.584581
-0.246402
1.67947
-0.0974189
-0.347744
0.275934
-0.351716
0.422175
-0.0704597
0.846601
2.77742
-1.17002
0.613155
-0.133696
-0.132919
0.266615
-1.46681
0.311696
1.15511
0.405508
0.759462
2.50647
-1.46999
1.44946
-2.53015
1.08069
0.63913
-2.14954
1.51041
0.110574
-0.881681
-1.01659
1.4197
1.26117
-1.81406
0.980387
-1.67405
0.69366
-2.63955
1.5369
1.10265
-0.116206
-0.725828
0.381129
0.32468
-0.705809
1.30072
-0.409178
-0.891545
-0.213507
-1.41802
1.35627
-0.551508
-0.157701
1.27911
1.63283
-1.51505
-0.117782
-0.0248593
-0.299258
0.324117
1.27497
0.207921
-1.48289
0.534594
-0.931487
0.396893
-0.679029
1.5491
-0.87007
-2.33778
2.52777
1.2115
-0.794163
-0.10504
0.317899
-0.212859
1.80628
-0.649879
0.24062
-0.0196724
-0.220948
0.0571515
-0.498306
0.441154
-0.275666
0.285774
-0.0101084
2.17306
-1.33915
-0.833908
0.524199
-2.19117
-0.303472
0.0278064
-1.7222
0.470049
1.25215
2.40238
-0.865783
0.481108
-1.95874
2.66082
-1.30396
-1.35687
-0.0342797
0.270699
0.304077
-0.440975
0.136898
-1.22323
0.222291
1.00093
-1.91538
1.88356
0.0318188
0.734511
-1.96887
1.23436
-0.0102082
-0.0332478
0.0434559
-0.951102
1.19848
-0.247378
-0.120726
0.603874
-0.483149
-0.341827
0.10778
-0.322332
0.0509707
-0.451601
-0.438725
0.513807
-1.59029
1.07648
-0.278335
0.513755
-0.23542
1.08058
0.419003
1.56589
-0.585505
0.239058
0.32634
1.27734
1.12504
-1.04881
0.111114
0.937698
0.226256
0.0778207
0.891805
0.276554
-0.522037
0.243702
-0.62058
-0.0434928
0.664073
0.0713757
0.30062
-1.60325
0.924222
-0.34253
-0.130911
0.473441
-1.87084
1.80851
0.0623321
-0.166302
1.09758
-0.931279
-0.330837
-0.278299
0.609136
1.50512
-1.67574
0.170618
-1.6207
-1.01885
2.25552
-1.55462
-0.700895
-0.233581
0.208722
2.13827
-1.40375
-1.07099
1.5848
-0.559887
-0.00558389
0.565471
1.01179
-0.448929
-0.562864
2.65357
-1.16142
-1.49215
-0.664322
0.104435
1.74081
-1.03043
-0.710372
-0.38522
1.61016
-1.22494
0.688218
-1.8364
1.14819
0.27049
0.396328
-0.666818
-0.218935
-0.00928636
0.228221
2.348
-1.96038
-0.38762
-1.038
-0.902309
1.2823
0.350536
-1.71403
-0.156817
0.336469
-0.279318
-2.38066
0.62263
1.75803
0.0088597
0.323078
-1.07239
2.21737
0.887972
1.28509
2.41818
-1.43106
-0.987121
-1.70607
1.26142
1.34963
-2.12913
0.779508
-1.23746
-0.138883
1.37634
-0.501397
-0.413262
0.91466
1.42803
0.0803465
0.0486186
-0.182315
1.37666
-0.254855
-0.991277
-2.82912
2.22765
0.601474
-0.408556
0.0568407
-0.0779439
-0.0270963
0.202985
-2.11836
0.335104
-2.67288
-1.62058
-0.461684
0.615668
-0.153984
0.0420217
-0.230741
-0.945101
0.658353
0.286748
1.00091
0.446624
0.816825
-0.0661529
-0.750672
0.940041
0.285913
-2.22701
-0.153652
1.16403
-0.178625
-0.461541
-1.00526
1.95941
-1.6725
-0.286906
0.24805
0.576072
-1.89358
1.31751
1.57287
-1.74596
0.173088
-0.935596
0.705997
-0.26972
-0.0396598
-0.530135
-1.12758
0.634551
-1.17344
0.538889
0.869087
0.871719
1.19663
-1.97787
0.781242
0.515377
-1.16634
0.65096
-1.94733
0.348265
0.0235406
0.769081
-1.44912
1.62558
-0.176467
-0.457415
0.644458
-0.187043
-0.954584
-0.263116
-0.279762
-0.486319
0.766081
0.228175
0.00118776
-0.229362
-0.734384
-0.350483
0.699502
0.910951
-1.61045
-0.0374262
0.263682
0.356158
-0.903947
-0.0316484
1.01984
-0.504459
-1.42827
-0.25396
0.569907
-0.593944
0.0240368
2.02118
-0.877546
-0.992945
1.57565
-0.58271
-0.271304
0.320708
-0.0494037
1.32901
-0.0282864
2.23183
-1.6092
-1.07157
1.90751
-0.835941
1.11402
-1.95883
0.844819
0.931531
1.32399
-0.119581
0.108883
0.010698
0.23329
-1.47075
0.59442
-1.06476
0.470342
0.108172
-0.0824831
-0.180831
1.34793
-1.99597
2.33108
-1.37638
2.01551
0.339718
-1.97687
-1.59859
1.18533
0.413257
1.34089
-0.281713
-1.05918
1.88877
-0.383648
-0.906908
-0.869625
-0.541288
1.07903
0.0475501
0.295709
-0.343259
0.657382
-0.658411
-1.52428
1.34345
1.96239
0.512707
-1.64977
0.656826
1.62006
-0.337761
-0.460793
0.615085
-0.154292
-0.0105091
-1.15793
1.16844
-1.80063
0.330315
1.47032
1.60207
-1.60207
1.10938
-0.717093
-0.392289
0.820716
-0.00389146
1.18504
-0.690718
-0.494319
-1.93051
2.01658
-0.086075
0.73569
-0.0993651
-0.636325
0.57209
-0.203328
-0.368762
0.267208
-0.598045
0.304766
0.588534
-1.65952
-1.61065
1.91177
-0.301127
-0.59421
1.29371
0.129023
0.0182717
-0.147295
-0.645562
0.149342
0.49622
-0.770766
0.88134
2.33781
-1.90111
-0.436707
-0.214244
-1.00402
1.21826
-0.517214
0.552116
-0.0349015
0.318385
-0.579965
0.261581
-2.64181
2.06486
0.576945
0.174796
0.143322
-0.62195
0.161157
-0.0246768
-0.154245
0.178921
1.12649
1.22152
0.161067
-0.0320437
-0.163329
-0.480899
0.644228
-1.04487
1.65901
-0.614146
-0.0317455
0.200671
-0.168925
1.02694
-0.521309
2.81755
-1.28598
-1.53158
0.0826699
-0.887307
0.286792
1.5257
0.921374
0.60211
-1.52348
0.98509
-0.795377
-0.189713
-2.02868
0.379107
-0.741956
0.344082
0.397874
0.90671
1.19091
-2.09762
-1.29807
1.15919
0.124568
-1.81878
1.69421
-0.294532
0.343913
0.405607
-0.40283
-0.00277685
0.0452196
-0.6658
0.108211
0.0257272
-0.133938
-1.39563
-0.326566
1.21935
1.00155
-0.263265
-0.738284
-0.296083
0.0247794
0.283258
-1.37784
1.09458
0.433813
1.02378
-1.4576
0.799504
-1.3979
1.6638
-0.265895
-1.46519
1.07997
-0.0614949
-0.0914168
-0.769049
-0.481028
-0.567134
0.134599
0.432536
-1.79895
0.754087
1.2897
-1.50395
0.493777
1.12628
-0.648306
0.660596
-0.0122898
0.712784
-2.01508
1.30229
0.36121
-0.584442
0.223233
1.49886
0.732967
-1.33568
-0.104407
-0.686928
-0.00452365
0.153433
-0.18122
0.0277868
0.717111
0.0189369
-0.0536758
0.0347389
1.98922
-1.08251
-1.36817
3.73504
-2.36686
0.543386
0.404278
-0.947663
-0.702461
0.407929
-0.491784
-0.0753499
0.715767
0.46927
0.483978
-2.43889
0.543834
0.0260725
1.19421
0.892053
0.271975
-1.77796
1.95091
0.159247
-0.809017
0.649771
-0.179391
-1.64942
1.82881
-0.504085
0.539605
-0.0355199
-0.526787
0.203462
-1.04035
1.72857
1.72578
-0.670049
-0.75371
-0.191391
-0.0112212
-0.85437
0.865592
0.919944
-1.83445
-0.170783
-0.92383
1.09461
-0.23168
0.24027
-0.00859061
-1.27076
0.035625
1.23513
2.0629
-1.20716
-0.0144893
0.204555
-0.190066
-0.469063
-0.0481508
0.386386
0.748854
-1.13524
0.265741
-0.330895
0.0651539
0.680736
0.276391
-0.957128
-0.89465
2.40242
0.218702
0.00947231
-0.451768
-0.955037
1.40681
1.60343
1.61732
1.75982
-1.326
-0.759494
0.479732
-0.237892
0.0189577
-0.68983
2.03946
0.246426
-1.51653
1.27011
1.4327
0.515514
-1.94822
-0.838602
1.3086
-0.469999
0.772749
-0.758982
-0.808142
1.56712
0.204311
-0.180208
-0.0241026
-0.560261
-0.975458
1.53572
-0.569283
-0.0762782
0.109329
-0.131757
1.01677
-1.57703
-1.39769
-0.433774
1.83146
-0.0726202
-1.01402
1.08664
0.125414
2.25325
-2.28197
0.0287243
0.443079
-0.239738
-0.203341
0.0186091
-0.666915
0.510255
0.52398
-0.702162
0.200765
-1.61319
2.02758
-0.414395
-0.701342
0.358812
0.228724
1.13004
-1.88041
-0.597961
-0.0211288
-0.17366
0.194789
1.06756
-0.175505
-0.444596
0.490068
-0.0454714
0.513082
-0.633807
-2.26226
0.82713
1.77623
0.341438
-0.206409
0.524794
-0.441757
0.985143
1.58469
-0.996156
-0.459353
0.0147563
-0.230829
-1.29345
0.428587
0.494688
-0.46654
-1.83986
0.0392206
-0.00315108
0.456561
-0.095351
-0.535327
-0.248266
0.783593
2.13666
0.749706
0.427862
-0.149048
-0.278815
0.595365
-0.559807
-0.0355586
-0.81536
0.328666
-2.13352
1.06195
0.49158
0.269147
-0.760727
-0.0735481
0.4913
-0.417752
2.02009
-0.0290959
-1.99099
0.374147
0.0215407
-0.395688
-0.287248
-0.558752
0.495362
-0.0595423
-0.0327583
0.0282287
0.00452963
0.839142
-0.13076
-0.708381
0.0550165
-0.0877748
1.86149
-1.29422
-0.0604516
-0.315525
0.375977
-2.04134
0.428156
0.0676449
-0.306285
0.600687
0.109498
0.892051
0.341618
-0.102559
0.527106
0.337172
-0.864278
1.06723
0.489475
0.77074
-0.611493
0.463081
-0.40589
0.196412
-0.653827
1.4151
0.0743621
-1.48946
1.1217
-0.148521
-0.973183
-0.991036
-0.665019
-0.542977
-0.0250603
0.568037
0.683818
-0.785723
0.101905
2.18962
-0.0622289
-2.12739
-0.660241
0.171807
0.488434
-1.00788
1.36939
-0.361505
1.1221
1.22758
-2.34968
0.529392
-0.676066
-0.571445
0.922199
-0.350753
0.469729
0.195737
-0.665466
-2.09746
1.23022
0.867244
0.0176005
0.0106282
-1.6919
0.294209
0.659191
-0.392416
-0.266775
0.876756
-1.17405
0.297295
-0.208207
-0.400249
0.34965
1.9036
1.64922
-0.297384
-1.35184
-1.62305
0.225148
0.668574
-1.13012
1.38428
-2.41201
1.02773
-0.22653
0.607659
-0.00156283
-0.743168
0.579839
-0.345688
0.453772
-0.248442
-1.41141
1.65986
0.918773
1.21949
-1.48114
1.56974
-0.0885959
0.154802
-0.0013689
-1.1976
-0.435253
-0.259354
0.29062
-0.0312656
1.13559
-0.251502
-0.884088
0.548038
0.0319679
-0.580006
-0.201617
1.07837
-1.10739
-0.45035
1.55774
-1.59034
-0.496233
2.08657
0.890025
-0.731628
-0.158397
-0.442912
0.0494709
0.393441
-0.414338
0.236544
0.177795
-1.90417
0.0782647
1.8259
0.0484029
0.41359
-0.461993
1.55354
-1.73462
0.181082
-0.939832
1.32695
0.562328
-1.88928
0.0258632
-0.285217
-0.157953
-1.27409
1.43204
1.35904
-2.06461
-1.89426
1.64992
0.244339
0.314664
-0.0489231
1.38462
-1.1559
-0.143194
-0.363173
0.506367
-0.0212034
0.331711
-0.310507
-0.291509
1.58932
-1.29781
2.76145
-0.887486
-1.87397
2.03666
-1.94262
-0.0940391
1.43437
-0.570557
-0.863809
0.0854975
-0.48821
0.402713
-0.621704
-0.0198792
-2.01222
1.76412
0.248097
0.106843
-2.11906
-0.228726
1.14156
-0.912833
-1.07849
-0.881889
0.429125
-0.355009
-0.0741157
-1.589
-0.452344
-0.404087
0.280045
0.124042
-0.0714683
0.606062
-1.8978
1.82482
0.0729808
-0.134623
-0.105256
-0.00142044
0.401716
-0.0275692
-1.13987
0.188766
0.322296
-0.363187
0.0408909
-1.28401
0.787543
0.496465
0.771371
-0.0356809
-0.531786
1.19588
0.133127
0.728987
0.453809
-0.332443
-0.121366
-0.212855
1.00965
-1.29109
0.827675
0.463416
-0.0717333
0.0893338
2.09005
-1.17128
1.73544
-1.02266
-0.378055
-0.34884
0.726895
0.980046
-1.71553
0.735485
1.15011
-1.22274
1.62301
-0.887983
-0.735024
-0.0108438
-1.08113
-0.209959
-3.33489
2.49771
0.837176
0.0721079
-0.661502
2.11096
-2.10063
0.511632
0.625992
-0.355502
-0.223789
0.183917
0.294717
-0.00894265
-0.971959
-0.687463
2.10429
-0.977478
-0.68466
0.483587
0.201073
0.110085
0.462004
-1.51528
-0.514538
2.02982
1.2561
0.17193
-0.00956872
-0.309988
0.319556
1.64091
-0.523513
0.07628
0.447233
1.57914
-0.164033
-0.728397
-1.94475
0.3341
-0.464502
0.0234405
0.441062
1.29686
1.36396
1.06779
-0.993341
-0.0744525
1.94271
0.0939481
1.2407
-1.75168
0.510976
-1.63231
0.000726741
1.63158
-1.63829
2.11121
-0.472923
0.303745
-0.0122688
-0.291476
-0.704225
2.06326
-0.564042
-0.195521
0.759563
0.0719251
-1.55307
1.46927
-0.507743
-0.961523
-1.848
2.38256
-0.534556
-0.506222
1.15314
-0.646915
2.32278
-1.02283
-1.29995
0.0546102
-1.19869
1.14408
-0.33336
-0.0694702
-0.992736
2.11483
0.581571
0.527812
1.89169
-0.777674
-0.391551
0.331099
-1.69195
0.0596384
2.08075
-0.884115
-0.0295917
-2.53892
0.49994
-0.0617548
0.618678
0.65804
-1.27672
1.09857
-0.306658
-0.791914
2.597
-2.27832
-0.318678
-0.332287
0.0220058
0.310281
-0.417367
-0.990126
1.40749
0.728801
-0.532389
-0.653732
0.980834
-0.327102
0.256832
0.477964
-0.734795
0.1606
0.268525
-2.11093
2.45595
-0.345019
-0.472952
-0.0311334
0.91205
0.434872
-1.34692
1.04219
1.026
-2.06818
0.376178
0.964713
-0.0241124
2.12284
-0.0128241
1.57468
-1.56185
-0.0456279
0.0138824
0.036007
0.0557094
-0.0917164
2.14802
-1.8512
-0.296819
0.867907
0.7551
-0.202843
0.171689
0.0311538
-0.503937
1.55884
-1.0549
0.00515005
0.359232
-0.364382
1.17815
-1.74823
0.570079
-0.660665
-1.12721
1.78787
1.55824
-0.283272
0.534168
0.564403
-0.334945
-0.736083
1.07103
0.605862
-1.60988
0.344626
-0.707685
0.36306
0.392669
-0.112924
-0.279745
0.0947673
-0.428127
-0.121537
1.32458
-1.20304
-0.286598
2.08825
1.48479
-1.24902
-0.235771
1.29764
-1.0536
-0.989865
0.362207
0.627659
0.13612
-0.826838
0.198227
0.155565
-0.353792
0.13672
0.291142
0.291598
1.45864
-1.75024
0.443702
0.39544
0.250755
-1.84109
-0.952586
0.422324
0.530262
-0.68278
-0.496536
1.17932
1.01439
-0.487282
-1.67558
1.08137
0.609575
-0.490264
-0.119311
-0.55834
1.48559
-0.927245
-0.860163
0.942833
-1.05368
1.32625
-0.272562
-0.517862
1.01347
-0.495608
-0.0472126
0.445485
-0.398272
-0.501523
0.427975
-0.495897
-1.47614
1.47863
-0.00248323
-1.09982
1.41151
0.984531
-1.06972
0.0851856
0.591803
0.0254574
-0.617261
-2.30035
1.46061
0.83974
0.0607267
0.373544
-0.43427
0.257296
1.24027
-1.53178
1.64338
-0.663334
-0.339908
-1.25868
-1.40101
1.38819
0.924143
0.03013
0.656873
0.263295
-0.920167
-0.690339
0.643605
0.0467338
-0.516864
-0.273712
0.790576
-0.596679
-0.641025
1.2377
-0.520578
1.10448
-0.583904
-1.41761
-0.448106
1.86572
-0.0865628
0.678366
1.68413
0.463885
0.227378
0.306663
-0.534041
-0.46793
0.0216671
0.446263
0.0104613
0.392075
-0.495879
0.103805
-1.03838
-1.50637
0.909689
0.294176
0.422855
-0.337357
0.401893
0.733696
-0.0984246
-1.41647
0.0659693
0.57904
0.244267
0.0380554
-0.282323
-1.20511
-1.03842
2.24353
0.33658
-0.671525
-0.990509
-0.14271
1.13322
0.277877
0.382388
-0.660264
0.00146801
2.22697
-1.43649
-0.79048
0.369275
1.27995
0.140632
0.243408
-0.763885
0.520477
-0.985509
1.86075
-0.875239
-1.08972
-0.448556
1.53828
-0.948697
0.377251
-0.711974
-0.277892
1.9337
-0.928489
-1.00521
0.774456
-0.51443
-0.260026
0.67731
0.167069
-0.844379
-0.358084
0.406487
0.425395
-0.658017
0.232621
0.0458246
-0.0501307
-0.437395
-0.0207365
1.0669
0.866795
-0.316819
0.570684
-0.814485
2.11527
0.513988
0.260468
-1.62111
0.531392
1.46625
-1.23296
-0.243487
-1.29105
0.283172
0.878256
-1.10698
1.33847
-1.34898
1.6476
-0.0747262
-0.397811
-0.248077
-0.431036
-0.181549
0.612585
-0.619801
-0.0642757
1.50593
0.283396
-1.78932
-0.0116642
-0.497201
0.508865
-0.0267481
-1.00049
0.234234
0.766258
1.66545
-0.111909
-1.69751
1.851
-0.153492
0.422879
-0.315097
-1.90387
-0.396486
-0.57423
1.81411
-0.0499879
1.02635
2.08487
-0.812509
-1.27236
-1.18099
-0.101671
1.28267
0.379707
0.925895
-1.3056
-1.39893
0.128167
-0.364564
-0.189458
0.554022
-0.940512
1.18694
0.325518
0.961722
-1.28724
-0.0444303
0.0422979
0.00213245
-1.7957
0.19474
1.60096
0.809708
0.833673
-0.48669
0.990298
0.444068
-0.474026
-0.26793
1.61442
-1.94517
0.432889
-0.796135
0.363247
0.65983
-0.130438
1.34452
0.0532351
-1.39775
1.31938
-2.13387
0.0110456
-0.0212538
-0.767537
1.05196
-0.284424
-1.40848
1.25053
-0.0306653
0.570556
-0.539891
-0.713376
0.46037
0.253006
-0.118282
-0.408505
-0.53182
1.20039
0.625271
-0.133691
-0.321814
0.347677
-0.396708
-0.534779
-0.0241435
-0.00910429
-0.404731
0.388029
0.0167018
0.42461
-0.474126
0.0495162
-0.424539
-1.3521
0.205514
-1.19602
-0.0151018
-0.566048
-0.0353565
1.12764
-1.09229
0.668452
-0.711945
0.289992
-1.41371
1.12372
-0.161451
1.40189
-1.24044
-1.39091
-1.43821
-0.420914
-0.0477026
-1.84656
0.902438
1.20186
-1.43914
-0.23644
-0.82883
1.4049
-0.852426
0.366107
-0.0958779
-0.0832079
0.179086
2.44288
-1.14601
0.796034
-0.201614
-0.468782
-0.323221
0.792003
-2.15151
0.933676
1.21783
-0.720294
0.505767
-0.458772
1.78572
0.33397
-0.189316
-0.902385
-0.588385
0.0243432
0.694401
-0.631838
-0.0625634
-0.2461
1.75203
-0.261948
0.621943
-0.359995
-0.394716
-2.40128
1.11208
1.2892
0.454742
0.459897
-0.914639
2.12129
-0.934986
-1.18631
-1.08203
0.575811
-1.62906
-0.0536987
0.731009
1.7656
-1.94499
0.832939
-0.36321
-0.733832
1.33969
-2.4353
1.89864
0.536662
1.23818
-1.80084
0.562658
-1.34279
1.46562
-0.122823
0.737187
-0.950042
0.0279742
0.372907
0.517118
0.485363
-1.61372
0.560191
-1.82569
1.20972
0.61597
0.456994
-1.63799
2.71163
-0.0370155
-1.18621
0.246995
1.206
2.0464
-0.71084
-1.33556
-0.0966444
0.526056
-1.20884
0.327446
-1.82241
1.72074
-1.3851
0.626123
0.91894
-2.83422
1.06305
1.77117
-1.09277
1.38285
-0.290084
-0.276593
-0.0799931
-0.151687
-1.96883
1.39014
0.578682
1.3418
-2.04602
-2.03817
-0.0727579
2.39492
-1.01065
1.2831
-0.478365
-0.804734
-0.0475922
-0.305285
0.352877
-0.462787
0.586873
1.02981
-1.27724
-1.55697
0.287108
0.441693
0.38842
0.728146
-1.11657
0.774543
-0.449863
-0.0982215
-1.95582
2.05404
-0.663182
0.620536
-1.52896
-1.02922
-0.805105
1.83432
0.50961
-0.650542
-1.36633
0.428497
0.937834
0.0850797
-0.0453659
-0.0397138
1.45725
-1.7057
0.161416
-0.928952
0.908238
0.948925
-1.85716
-0.645914
-0.0387462
-1.62389
0.463404
1.16048
-1.71831
1.05765
0.86175
-1.84726
1.00592
-0.573033
0.0867728
-0.00169311
-0.42739
1.86009
-1.14836
1.49061
-0.342245
0.665781
0.0304387
-0.69622
-1.28694
-0.0126212
-0.449063
0.101265
1.50081
0.2581
0.062608
1.54031
0.818991
0.00172555
0.980854
-0.826401
0.309536
-1.785
-0.112799
-2.48829
0.045338
-0.486313
0.355306
0.374523
-0.729829
1.24558
0.207475
-1.45306
-0.227268
0.214999
-0.692431
-1.44109
-1.49128
-0.254685
-0.847725
2.16711
-0.651626
0.923623
-0.271996
-1.81175
0.606639
-0.588434
0.976854
-0.431433
-0.103894
-0.820119
-0.527155
0.612497
-1.10177
-0.182233
2.08655
-0.272442
2.19352
-0.768991
-1.42453
0.242874
0.0750251
0.526673
1.96021
-1.83565
-0.06428
-0.442489
0.652557
-0.919262
1.03038
-0.910539
-0.862794
0.428094
0.353847
-0.781942
-1.64693
0.0448542
-0.27182
1.50062
-1.2288
-0.0438316
-1.65368
-1.28065
1.48857
2.56487
-1.11823
-1.44664
-0.197117
0.541199
1.61279
-0.673954
-0.938832
0.526326
-0.576456
0.0838925
-0.0478855
-0.324748
0.00811663
0.316631
-0.242442
0.899315
-0.768351
2.11015
-0.0336485
-0.32136
-0.532374
-0.186457
0.718831
-0.0315433
1.4888
0.445361
0.632172
-1.07753
-0.748239
1.13462
0.746213
0.812627
-0.700331
-0.252255
1.03772
-0.374338
-0.663382
-0.0474423
-0.00192391
0.0493662
0.220981
-1.42675
1.20576
-1.77322
0.28194
0.432662
-0.327688
0.373026
-0.0118959
0.538222
0.268144
-0.91977
-1.22296
0.681672
-1.90028
0.609779
-0.897275
0.126509
-0.709552
-1.15276
1.86231
-1.17986
0.381664
0.134431
-0.516095
1.91647
-1.48767
1.40693
-1.02723
0.227489
1.03495
-1.26244
0.30445
-0.669014
-2.20048
1.88274
0.317745
0.868024
-0.423108
-0.444915
-0.911964
2.03305
-1.12108
1.61976
-1.25783
-0.361933
1.72266
0.108372
-1.83103
-0.951405
-1.44988
-0.610741
-0.076187
0.188963
1.22078
-0.0225847
0.196702
-0.174117
-1.297
-0.32689
1.2404
1.11263
-1.02975
1.26072
-0.230969
-0.477605
0.553885
0.0658691
0.668319
-0.734188
0.343737
-0.605685
-0.205893
-1.76293
-0.644507
0.60788
0.00169475
-0.586659
0.00207867
0.153742
1.37228
-1.52602
-0.969793
-0.170075
-0.00852312
-0.0289031
0.142767
-0.500025
0.00197222
0.245895
-0.247867
0.171731
-0.737595
0.565864
0.98983
0.107751
-1.54592
1.63024
-0.761148
1.62938
-1.00884
-0.230075
-0.489856
0.719931
1.40548
0.204678
-0.00215799
-1.32192
0.904551
0.692665
-0.724209
-0.900808
-1.12284
2.02365
-1.14128
-1.01023
-1.99942
2.0798
-0.0803861
0.816291
-0.633307
0.451758
1.08942
0.540814
-0.840793
0.430874
0.40992
-0.843573
-1.8392
2.01836
-2.286
0.267636
1.41277
-0.156669
0.667409
-0.322783
1.12345
-1.81589
0.80999
-0.682836
-1.40784
3.13188
-1.72404
1.17809
0.888816
0.673964
-1.56278
1.99888
-1.16019
-0.838686
-0.97289
-1.21504
1.85984
-0.644805
0.740019
1.4535
-0.562227
0.550331
0.805555
1.51723
-0.426614
0.379022
0.0486766
-0.0297397
1.80083
-1.00295
1.04858
1.39429
-0.803344
0.433442
0.369902
0.419342
-0.797397
1.3938
-0.0492822
1.03308
0.250023
-1.2415
-0.177316
1.41881
0.370699
-0.0506606
-0.320039
0.308143
0.134936
0.252027
-1.89031
-0.553085
0.598305
1.26939
-1.15837
-0.111022
0.307959
0.729761
-0.299988
0.15094
0.486523
0.468712
-0.955235
-0.809455
1.94162
-0.224099
-0.876793
1.972
-1.09521
-0.452152
0.708983
0.110331
-0.154761
2.06148
-1.0538
-0.66023
0.938439
1.18285
0.591286
-0.606387
-0.34105
0.293838
-0.558253
-0.282082
-0.0140017
0.598578
-0.321732
1.53894
-1.2172
0.136543
-0.16122
-0.554886
0.191714
-0.643758
0.0330173
-1.33614
0.884368
0.46008
0.462119
-0.945828
0.382325
0.563503
0.400898
0.156689
1.46157
0.913698
-2.37527
-0.2127
-0.0305041
0.243204
1.81086
-3.17904
1.68951
0.875362
1.46749
-1.31375
-1.90487
-0.116407
0.0364502
-1.05977
0.839991
2.13236
1.48764
-3.62
0.725943
-0.0574911
-0.0556743
-0.607651
-0.195693
-0.551345
-0.775216
0.911336
2.94603
0.789006
1.04336
-1.02194
-0.0214245
0.373412
0.0146168
-0.121997
0.488838
-0.064228
1.41449
0.346656
-1.76114
0.69313
0.00127095
-0.446012
0.273472
0.172539
-0.666776
0.00414546
0.662631
0.524589
0.982261
-1.50685
0.449733
0.564654
1.26228
-0.0304287
-0.515261
0.928432
-0.109442
-0.10942
-0.0273355
0.136756
-1.67251
1.13632
1.56818
-1.23222
-0.335956
0.0307813
-0.283376
0.252595
1.56069
-1.68223
1.08709
0.325685
0.634311
0.772623
-0.265415
-0.0166667
-0.802226
0.293182
0.509044
-1.00911
-0.24694
1.99754
-1.02246
-0.975077
1.64381
-0.470344
-1.17346
0.797661
-1.35521
0.557551
-0.155591
1.01796
0.00187291
-0.734547
1.52753
-0.792988
-0.521922
-0.280304
0.218855
0.415823
0.20612
1.52735
0.0113034
-1.53866
-0.51005
-0.0360699
0.280337
0.203619
-0.0319294
0.667708
0.384253
-0.266726
0.814764
0.00682196
-0.018076
-0.178279
0.258251
-0.761796
0.989285
0.0301826
0.464506
0.297681
-0.383087
1.46367
-0.0362358
1.0796
-0.244702
-0.235285
-0.462431
0.948954
-0.32544
1.58349
-1.25805
-1.47615
-0.215747
-1.21442
1.79995
-0.585532
-0.239433
0.655256
0.596527
-0.123024
-0.0409872
-0.456649
0.497636
-1.55734
0.503544
0.245476
-0.259965
0.661856
-2.17714
0.64515
-1.60019
-0.957253
1.92588
-0.892553
0.979174
-0.510462
0.0255658
-1.11324
1.33422
0.000754065
-0.300012
0.184075
-0.915703
-0.226276
-1.08331
1.30959
-0.432195
1.22317
2.47436
-1.55173
-0.922629
-0.424332
0.156996
0.432096
0.0431478
-0.475243
-1.4725
0.324143
0.372247
0.0204227
-0.0123779
-0.250499
0.262877
0.697249
-1.91167
0.164762
0.815898
0.100181
-0.916079
-1.75284
1.4274
0.285075
0.0735862
-0.358661
-0.147064
-1.32908
-0.276186
-0.00237557
0.278561
0.368014
-0.0829388
0.00760784
1.34053
-0.964351
1.07173
0.949531
-0.499798
-1.51229
0.483067
-1.1956
1.01758
0.178019
1.05692
-1.95773
-0.929625
-0.562639
1.49226
0.145901
0.786295
-0.569411
0.470046
1.95882
-0.268097
-1.69072
-0.0168546
-1.76815
1.75983
-0.037169
0.972824
0.639962
-0.304887
-0.00510114
0.287409
-0.529697
-0.643742
0.0544886
-0.0844808
0.0299922
0.0423449
-1.2675
1.22515
-0.0713228
0.531452
-0.460129
0.747992
-1.47946
0.731468
-0.109328
-0.98998
-0.0554733
0.00081286
1.19443
-0.632188
-0.368055
1.00024
-0.716878
-0.678753
0.83436
-0.480513
0.526683
0.104902
-0.631585
-0.884068
-0.0617601
-0.18212
-0.211798
-0.113696
0.325495
0.336098
0.556197
-0.892295
1.06305
-3.44161
2.37856
0.118641
-1.02868
0.292041
-2.14004
-0.721196
-1.21399
1.93518
-1.69277
0.0739415
1.61883
-2.0744
-1.42373
0.0809396
-0.517632
0.536974
-0.0193413
-2.15873
-0.614867
2.02935
0.70382
-0.366648
0.156361
-0.618792
-0.317399
0.882054
0.285116
0.190478
-0.722852
0.0329151
-0.266602
0.233687
-0.324279
0.045796
-0.181933
0.212715
-0.538253
0.992996
-1.3465
1.2926
0.0539048
0.257549
-0.20893
0.947112
0.388002
-0.0173031
-0.469478
-0.371315
-0.882565
-0.483767
-1.01177
0.362849
0.648924
-0.0278832
0.561477
-0.533594
-0.77548
0.947212
-0.16929
1.3244
1.90039
-1.45503
0.911174
-1.62805
0.78143
-0.970698
0.189268
0.217833
-0.0132775
0.108064
0.00081972
-1.85565
1.1461
0.322378
1.32143
0.0283113
-0.376883
0.348571
-2.83289
1.12317
-0.00130957
-0.496996
-0.359159
-0.0318497
-0.4111
0.442949
-1.0377
0.405507
-1.89203
1.68614
2.00524
-1.097
-0.394614
0.353544
0.0410696
-0.161469
-0.0121914
-0.288563
-0.281441
0.580121
-0.29868
-0.274921
0.244417
-0.183761
0.596034
-0.412273
1.21281
-0.125721
0.106727
-0.094355
-0.0123724
-0.488816
0.518999
0.0362987
0.0718732
1.28567
-0.96679
1.83511
0.107609
-2.14779
0.0322181
1.67764
-0.0762488
-1.6014
-0.451948
-0.0957153
0.547663
0.730705
-1.70266
-0.324065
1.02159
-0.697528
-0.00729442
-0.0303092
0.0376036
-1.10771
1.03783
0.069882
-0.705114
0.995106
2.56383
0.197624
1.29244
-0.432002
-0.860441
0.0996855
0.0245426
-0.124228
-0.248814
-0.583211
-0.038493
-0.568955
-0.0142563
0.110639
-0.573131
0.462492
-0.158522
1.672
-1.51348
-1.59037
0.492926
1.09744
0.496022
1.52407
0.0532593
0.104824
-0.158084
1.02681
0.45201
-1.47882
0.0856456
-0.181523
-0.918275
1.7978
-0.879523
-1.42444
0.182947
1.14389
0.507329
-1.43695
-0.00171637
-0.203615
0.205331
1.76462
-0.482444
-1.28217
0.686121
0.404498
-1.65108
0.96362
1.72147
-1.81969
-0.894319
0.153027
0.741293
-0.0480306
0.198684
0.391839
-0.590523
0.177879
-0.0510183
-0.12686
-0.0154844
0.224552
-0.209068
0.359072
-0.424508
0.065436
-1.03404
2.15749
-0.552357
0.541136
0.190143
-0.373904
0.673112
-1.01275
0.339641
-1.30772
-1.12758
-0.330532
-0.0838065
-0.0954035
-0.00724479
0.102648
2.4761
0.432933
-2.90904
0.13939
1.13
-0.445572
-0.244766
-1.04092
0.186554
0.818048
0.650904
-1.46895
-0.0129062
-0.0316664
0.0445726
-0.044941
0.640306
0.23411
-0.0898932
-0.144217
2.02344