/*--------------------------------*- C++ -*----------------------------------*\
| =========                 |                                                 |
| \\      /  F ield         | OpenFOAM: The Open Source CFD Toolbox           |
|  \\    /   O peration     | Version:  2306                                  |
|   \\  /    A nd           | Website:  www.openfoam.com                      |
|    \\/     M anipulation  |                                                 |
\*---------------------------------------------------------------------------*/
FoamFile
{
    version     2.0;
    format      ascii;
    arch        "LSB;label=32;scalar=64";
    class       surfaceScalarField;
    location    "9.3";
    object      phi;
}
// * * * * * * * * * * * * * * * * * * * * * * * * * * * * * * * * * * * * * //

dimensions      [0 3 -1 0 0 0 0];

oriented        oriented;

internalField   nonuniform List<scalar> 
7520
(
-0.899479
0.723126
0.176353
-1.30373
-0.195213
1.49895
-0.104176
-1.80749
1.91167
0.264092
-0.0376266
-0.226466
0.0326975
2.61412
-2.64682
-0.107051
0.115532
-0.0084813
-0.310481
2.08474
-1.77426
-0.104061
-2.281
2.38506
-1.52435
1.42017
0.648711
-0.0619853
-0.586726
0.475974
0.171468
-0.647442
-0.233268
-1.45728
1.69055
0.432951
0.18027
-0.613221
-0.119014
0.16332
-0.0443062
-2.48907
1.01609
1.47298
0.0619459
1.44694
-1.50889
0.253504
-0.0530377
-0.200466
0.156182
-0.517014
0.360832
0.0295224
0.0217323
-0.0512547
-0.00921148
0.262715
-0.437043
-0.215973
0.653015
-0.983538
1.04548
-0.0737032
-0.360714
0.434418
0.182236
-0.162076
-0.0201605
0.0249186
0.000868969
-0.0257876
0.28192
-0.275817
-0.00610263
0.900694
1.10101
-2.00171
-0.0559906
0.373027
-0.317037
-0.00669788
0.0362202
0.297635
-0.0606327
-0.237002
-0.990699
1.63041
-0.639708
-0.0583663
-0.0232722
0.0816385
-1.86417
2.06512
-0.200947
0.739654
-0.854749
0.115095
-0.320581
-1.18689
1.50747
-0.270169
0.893649
-0.62348
0.261104
-0.586106
0.325002
0.841513
-1.6329
0.791384
0.0958111
-0.353682
0.257871
-0.0652876
-0.136372
0.20166
-0.0295904
0.293683
0.069977
-0.60107
0.531093
0.320828
-0.0389081
1.88228
-1.52633
-0.355951
-0.526191
-0.562916
1.08911
-1.48044
1.58935
-0.108907
-0.131954
-0.103689
0.235642
0.309489
-0.0952608
-0.214228
-1.27108
0.280381
0.307145
-0.0854503
-0.221695
1.7397
0.167535
-1.90724
-0.703926
0.209538
0.494388
-0.0188236
0.0197922
-0.000968615
1.10814
0.499952
-1.6081
0.0166484
-0.123699
-0.774881
0.0873016
0.687579
0.334816
-1.25085
0.916034
-0.0524406
-0.13425
0.18669
-0.142026
0.0836599
-2.38289
1.24964
1.13325
1.58823
-0.609296
-0.978937
0.0104358
0.0551038
-0.0655396
-1.24908
0.928497
0.735958
-0.303008
0.0120156
-0.0308391
0.00505638
-0.12407
1.22538
-2.65484
1.42946
0.140437
1.59927
-1.32673
0.98872
0.338006
0.355732
-0.262157
-0.0935755
-0.550006
0.884822
-0.619702
-0.296189
0.915891
0.39255
-0.0989546
-0.293595
-0.315834
0.557916
-0.242082
1.16742
-1.73382
0.566395
0.15157
-0.132188
-0.0193821
1.97055
-0.55892
-1.41163
0.465187
-0.791415
0.326228
1.38405
-0.948668
-0.43538
-0.886568
0.111687
-1.65053
-0.732364
0.53329
-0.659331
0.126041
0.258641
-0.681268
0.422627
0.0161251
0.723529
-0.432588
0.58877
0.320119
-0.0224835
0.0392318
-0.0410661
0.00183425
1.27657
0.693985
-1.9762
2.50257
-0.52637
0.666703
0.92153
-1.05945
1.11142
-0.0519687
-0.0264175
-0.0726277
0.0990451
1.36458
-1.59784
0.269518
0.21856
-0.122749
-0.27673
0.381967
-0.105237
0.00706988
0.105071
-0.112141
-0.565871
0.365249
0.200621
1.56079
-0.393372
-0.820073
0.660867
0.159206
1.01592
-0.815733
-0.200186
-0.104632
0.131519
-0.0268861
0.507406
-0.0583528
-0.449053
2.68712
-1.80839
-0.878726
0.552489
-0.389617
-0.509862
-1.35071
0.800703
-1.89481
1.58433
0.196315
-0.0901097
-0.106205
0.579902
-0.103927
-0.189899
0.188413
0.00148587
-0.0741206
0.0871212
-0.0130006
2.0396
-1.19809
-0.165969
0.0397646
0.126204
-0.750699
0.313656
0.0440687
0.0110891
-0.0551577
0.688604
-0.155314
-0.691387
0.440127
0.25126
0.682021
-1.6947
1.01268
0.0666985
0.115538
-0.130745
-0.573181
-0.284378
0.0442006
0.240178
0.81872
-0.170009
0.635083
-0.594743
-0.0403399
0.0389431
-0.0937866
0.0548435
-0.0617456
0.0487845
0.0129612
0.718658
-1.92668
1.20802
0.426623
-0.500326
-0.358183
-0.0816293
0.439813
-0.0703069
-0.0956617
-0.344352
-0.0941362
0.438489
0.16832
0.0365038
-0.204824
-0.0716382
0.239959
-0.527649
-0.163738
-0.340985
-0.0550399
0.396025
-1.84738
2.66429
-0.816913
0.304165
-0.324085
0.0199204
-1.11462
-0.236086
-0.0395841
-0.0610376
0.100622
1.45933
-0.35119
-0.620914
0.449246
0.171668
-0.202542
0.504755
-0.302213
0.339515
-0.0836274
-0.255888
0.257021
-2.06451
0.290721
-1.77116
-2.39189
1.15964
1.23224
-0.852669
-0.474057
-2.24226
2.16069
0.0815783
2.21218
0.119705
-2.33189
0.222927
-0.288215
1.03588
-0.617033
-0.418845
-0.266197
-0.0782494
0.344447
0.260741
-2.503
-1.86396
-0.00020797
0.0341175
0.0051143
0.076429
-0.150202
0.0737731
0.312927
-0.365368
0.828483
0.187436
-0.175779
0.146189
-0.0110053
0.000525605
0.0104797
0.826564
-0.423722
-0.402842
-0.500267
-1.9888
-0.110068
-0.156129
0.0465376
-0.623579
0.577041
0.143162
0.224824
-0.367986
-1.42821
0.822186
0.606024
1.21925
-1.18655
-0.208901
0.586443
-0.377542
-0.0352088
0.0601274
0.579359
-0.274179
-0.305179
0.377044
-0.653773
0.262197
-0.347647
0.880752
0.259995
-1.14075
0.330496
-0.386487
-0.323507
-1.39139
1.71489
1.28283
0.66161
0.755588
-0.496947
-1.23018
0.960014
-0.731422
0.977237
-0.245815
-0.0248378
-0.0216821
0.0465199
0.230838
-0.266327
0.0354888
-0.132473
0.821077
-0.291813
-0.183704
0.475517
0.27287
-0.129708
-0.90442
0.950957
0.556913
-0.990048
0.433135
-0.487962
-0.0779087
0.734835
-0.473731
0.164473
-0.0129033
-0.0187213
0.0483492
-0.029628
0.0729989
-0.14712
-0.601765
0.0958863
0.505878
0.139481
0.253069
-1.22577
-0.508045
-0.756568
-0.671642
-0.00529302
0.104431
-0.0991383
0.506312
0.0547029
-0.561015
-1.70476
-0.142616
-1.22977
2.27435
-1.04458
0.398418
0.18094
-0.18557
0.263522
-0.0779517
-0.747503
0.616758
0.540731
-1.06692
1.72628
-0.0540287
-1.67225
-1.4682
1.93034
-0.462138
-0.0308868
0.107316
0.355401
1.53297
-1.88837
0.0387457
-0.192496
0.153751
-0.167348
1.84423
-1.67688
-0.00318416
0.150481
-0.147297
-0.949157
1.30478
-0.355621
-0.0550823
-0.69242
-0.210385
-0.39138
0.285615
-0.231269
-2.08494
2.31621
0.0369773
-0.015245
-1.93794
0.712172
-0.575087
0.0333736
0.541713
0.101895
-0.0629519
0.144523
1.57402
-1.71855
-0.437518
-0.650422
1.08794
-0.556303
0.444618
0.111685
3.05389
-1.98374
-1.07015
0.541569
-0.979087
0.112554
-0.109572
-0.00298162
0.0837728
0.785127
-0.8689
0.0748727
-0.0765389
0.00166613
0.865101
0.78226
-1.64736
-0.306856
-0.513216
-0.12713
0.301698
-0.174568
-0.922185
0.653418
0.268767
-0.0991818
0.05081
0.0483718
0.86802
-0.361708
1.00384
-1.83454
0.830704
-2.66368
1.1463
1.51739
-1.10689
-1.5568
-0.343857
0.392438
-0.0485816
0.0378433
0.0127849
-0.0506282
1.13363
-1.70477
0.57114
0.00483316
1.12692
-1.13175
-0.213295
-0.446036
1.08222
-0.201466
1.33694
1.27441
-2.61134
-0.219288
0.11121
0.108078
-0.0189742
-0.903211
1.83128
-0.398788
-1.43249
0.158693
-0.119947
0.00481467
0.346463
-0.399501
0.986579
0.844703
0.196757
0.608838
-0.805595
0.413474
-0.0404467
-0.060093
-0.0285762
0.0886693
0.167342
-0.118017
-0.0493245
-1.86391
0.900354
0.963553
0.109633
-0.0717895
0.662545
-1.00353
0.257573
-0.197959
-0.0596141
0.15393
0.155559
-1.60189
1.5606
0.0412842
1.092
-0.535086
0.0136878
-0.0416133
0.0279255
0.00693801
0.0237711
-0.0307091
0.149502
-0.248456
1.82627
-0.600892
-0.0747739
0.242914
-0.16814
0.000567713
-0.011573
0.789893
-0.618425
0.506158
-0.124191
-0.712995
0.717828
0.045178
-0.0638992
2.08474
0.00477015
-0.0118876
0.00711747
0.187228
0.318929
-0.235715
0.154446
0.0812697
-0.0932296
0.600635
0.607437
-0.53746
0.862902
0.172976
0.540708
-0.403899
-0.136809
0.305796
-1.25495
-0.0420791
-0.302273
-2.25267
2.0214
0.0734078
0.0391462
-2.35673
0.256132
-0.458674
0.246157
-0.0278511
-0.218306
-0.638744
-1.22516
1.33543
1.35169
1.58391
-0.761724
-1.45728
0.0819912
0.553092
0.278536
-0.23232
-0.0462159
0.184132
-0.284655
0.100523
-1.17936
0.616444
-0.26443
-0.2644
0.52883
0.323895
-0.385881
-0.0945347
-1.98919
2.08372
0.873839
0.253095
-1.53166
1.27856
0.967758
1.09736
-1.05646
1.54138
-1.18598
-0.0566792
0.427784
-0.371105
-0.842362
0.765051
0.0773119
-0.126727
0.0519536
-0.107311
0.371573
-0.264262
-0.217258
-0.217073
0.43433
-0.537332
1.82017
-0.322678
-0.389306
0.711984
-0.40133
0.269376
0.165468
-1.22492
-0.144016
0.0839233
0.0108995
-2.02683
1.01562
1.01121
0.475372
-0.295102
0.00927971
-0.0315286
0.335694
1.33887
1.71502
1.64644
-0.468053
-1.17838
0.144194
-0.0507872
-0.0934066
0.520219
0.863829
0.171805
0.106731
0.404933
-2.1006
1.69566
-0.064085
0.0401611
0.0239239
0.961685
0.599108
-0.248769
-0.104912
0.695005
-0.498248
-0.545296
1.44599
0.184622
0.0116931
1.50839
-0.826364
0.169225
-0.162155
1.82114
-0.174707
0.119109
0.468543
0.0721651
0.0248602
0.330872
-1.72728
-0.874468
0.860968
0.0135
0.00728612
-0.139474
1.85636
0.0175713
-1.87393
-0.778159
0.455481
0.2685
0.0710151
-0.343071
0.0809146
0.0240524
-0.97272
1.54051
-1.60557
0.0650626
-0.000277251
-0.221787
0.222065
-0.599843
1.56153
-0.868433
1.58709
0.0167174
-0.0169947
0.681243
-0.241116
1.90636
-0.541783
-0.00852779
0.209303
-0.200776
-0.129999
-0.0405979
0.170597
0.141347
0.00284688
-0.227649
-0.777188
0.0305895
-0.216284
0.185695
1.37537
1.28891
-1.48864
1.16514
0.146779
-0.504963
-1.38912
0.769421
-1.11545
1.34995
-0.234504
0.519707
-1.65685
1.4895
1.78227
-0.505699
1.32526
0.55702
-0.0817857
0.22996
1.31055
-1.3241
0.322497
1.0016
0.315413
-0.376046
0.0677149
0.0419179
-0.245982
0.174344
-0.227145
-1.29918
0.348887
-1.16031
0.811426
-1.56918
1.12075
0.448429
0.487809
-0.783998
-0.125132
0.135568
0.106606
-0.434156
0.342359
0.0917971
-0.641068
0.432166
1.20286
0.579405
-1.4682
-0.0577186
-0.00402706
1.66945
-1.44593
-0.223522
-0.370763
1.90374
-1.6405
2.38287
-0.742367
-0.63457
0.933744
-0.299174
0.0484977
-1.29758
0.0808269
-0.068042
-0.302676
0.472418
-0.169742
0.331062
-0.389414
1.35411
0.549219
-1.02971
0.480496
-0.0366089
-1.54791
1.58452
-0.0622559
-0.127643
0.0421511
-0.436004
0.393853
-0.286667
0.791547
-0.504879
0.226669
-0.157295
-0.0693741
0.396985
-0.259859
-0.137126
-1.95276
1.75755
2.72905
-0.596943
-2.13211
0.0866021
0.023468
-0.11007
-0.0144205
0.198552
0.157454
-0.645416
-0.814819
1.67992
0.0523517
-0.00828303
1.72628
-1.03025
1.11402
0.0126276
-0.0126276
-0.338269
0.453792
-2.42999
2.24038
-0.920068
-1.32031
-1.51577
0.752002
0.763772
-0.0302531
0.0827724
-0.0525192
0.960948
-1.13937
0.178419
-0.53156
-0.162425
0.693984
1.22736
-1.94047
0.713104
-0.027988
-0.814374
-0.237422
0.107423
-0.149684
-0.522904
0.672588
0.635821
0.498245
-1.13407
-1.42672
-0.43177
0.730195
-0.298425
-0.763386
0.814637
-0.0512511
1.45479
-1.31026
0.289047
-0.258458
0.0754775
0.0409593
-0.356793
-1.89944
2.10548
-0.20604
-0.956917
1.55895
-0.602029
-0.0233586
0.16705
-0.143691
-1.82263
-0.832205
-0.0218647
0.0151668
-1.70497
0.4752
-0.41673
0.30942
-0.129928
-0.504642
-0.072146
0.00806101
-0.783444
2.12038
0.0730278
-0.433742
-1.53748
0.155663
1.38181
0.0192412
-0.128817
0.109575
-0.926029
0.194607
0.255566
-0.630215
0.374649
1.61392
-0.178235
-1.43568
-0.0562621
0.0909348
-0.0346727
-0.301706
0.245139
1.32872
-1.57385
-0.836126
1.85222
0.124099
0.719415
0.73992
-0.054867
1.55378
0.267368
-1.42556
1.38895
0.256728
-0.0336816
-0.223046
0.542387
0.00453305
-0.54692
-1.88175
0.241249
-0.0062834
-0.594786
-0.511937
-0.362531
0.311113
0.694772
-0.146203
-0.548569
0.21197
0.108858
-0.511053
1.41115
-0.900101
0.19789
-0.238488
-0.0536355
0.284473
0.274374
-0.57705
0.174156
0.366738
-0.540894
-0.109847
-0.0538413
0.163689
0.360531
0.324491
-0.685022
-0.0114679
-0.0559719
0.0674398
-0.32206
0.355168
-0.0331085
-0.0172063
-0.205366
0.222572
0.413663
-0.0982502
0.0215974
-0.658526
0.636929
1.53856
-1.0661
-0.935603
-0.162581
0.259905
-0.0973248
0.0570796
-0.0723246
-0.306852
-0.249451
1.00708
-0.312309
0.0189586
-1.23363
1.21467
-0.288943
0.0045648
-0.0166641
-0.510985
0.216572
0.180413
0.208336
-0.211521
-1.18406
-0.044507
-0.0981303
0.142637
1.23018
-0.970188
1.38105
1.34801
0.115031
0.142541
-0.158063
-1.7308
1.88886
0.788757
0.299128
-1.08788
0.261242
-0.960592
0.637226
0.323366
0.0141898
0.00505139
-0.0171723
0.0790257
-0.0618534
2.02046
-1.06053
-0.95993
0.147299
-0.337201
0.189902
0.714307
0.220179
-0.934486
0.0796098
0.112479
-0.192089
1.71851
0.031326
-1.74983
-0.448818
-0.0681962
-0.297391
0.370419
0.0314029
0.0478924
-0.0792953
-0.665849
0.233261
0.0213391
0.0198517
-0.0411908
-0.254208
-0.608744
0.862952
1.08891
0.525009
0.994857
-0.975898
0.683756
-0.970423
-1.86687
1.77234
-0.100874
0.00708766
0.28857
-0.573573
0.285003
0.676471
0.90744
1.13426
-1.30867
0.174415
1.26807
-0.548652
-0.160677
0.10989
-0.00923736
0.06576
-0.0565226
-1.93155
-0.495477
2.42703
-0.381048
0.468793
-0.0877453
0.00759063
0.00503693
0.402951
2.21117
-0.158175
-0.0611126
1.13995
-1.71373
0.57378
-0.591856
-0.357666
0.949523
1.43582
-0.431983
0.735547
0.508071
-0.58632
-0.307671
0.0113373
0.296334
0.0349009
-0.271903
-0.452762
1.00198
0.0244159
0.0504569
-0.227652
-0.267145
0.494797
0.00295644
0.957991
0.176618
-0.231658
-0.419861
-0.365272
0.409473
0.711707
-0.841635
0.137583
-0.0978181
-0.0220476
-0.377453
-1.94468
0.878572
0.563716
-0.546962
-0.0167535
0.0431942
-0.0362625
-0.00693178
0.247292
0.879625
0.0608693
-0.00576556
0.0425372
-1.64549
1.60296
0.240487
0.0640147
-0.304502
-0.0665392
0.0804625
-0.0139232
-0.759226
1.10811
-0.0982839
-0.316074
0.414358
-0.298406
0.553972
-0.990242
1.38751
-0.397264
-0.341573
0.392669
-0.0510963
2.21521
-0.00302598
0.642909
0.061118
-0.704027
-0.491743
0.397607
-0.196207
0.48752
1.52139
0.981178
0.160713
-2.29275
2.13204
-0.851152
-0.188227
1.03938
-0.174039
0.212985
-0.0389461
-0.516612
-0.28402
0.800632
-0.0905714
0.00333114
0.0872403
-0.0861279
-0.0578885
-0.554756
0.00287556
-0.00200659
-0.0341379
0.118061
-0.195424
0.486021
-0.290597
-0.283565
0.367657
-0.0840918
-0.0955074
0.172098
-0.0765905
0.746076
-0.411376
-0.0196633
-0.0214028
0.616161
-1.01641
0.400245
1.24508
-0.997784
-0.0441493
-0.338586
0.382736
-0.248195
-0.567538
-1.33578
1.47622
-0.0215429
-0.59549
-1.27442
0.815531
0.458892
0.475045
-0.0416635
-0.433381
1.71857
-1.71857
-1.71626
0.065728
-0.510864
-0.18149
-0.623163
0.804653
0.502555
-0.502087
-0.000468506
0.0339569
0.0749167
-0.170791
0.0958746
-0.0491035
0.242118
-0.193015
-0.338746
1.17439
-0.835642
0.294343
0.226233
-0.520576
0.737778
-0.68928
-1.10718
0.256029
-0.0627413
-0.263374
0.326115
-0.0369466
-1.28715
-0.371556
-1.1366
0.765044
0.997332
-0.046454
0.218823
-0.172369
-0.316031
0.428092
-0.112061
-0.353925
0.226795
-0.0915364
0.285824
-0.0396665
0.0433724
0.114437
0.0668746
-0.181311
0.0459585
0.0198015
0.628034
-0.606436
-0.184229
0.222766
-0.0385368
0.00777227
0.0120613
-0.0198336
0.0685982
0.0477292
-0.116327
-0.0736958
0.195846
-0.122151
-0.455987
1.26741
0.401284
-1.03609
0.634809
-0.177459
-0.0852287
0.262688
0.00762913
-2.669
2.66137
0.810559
-0.531679
-0.27888
0.420942
-0.0915569
-0.193098
0.0835525
-0.0724634
-0.0631698
0.210468
0.287642
-0.892379
0.604737
-0.400708
-1.20118
-0.401418
0.628175
-0.226757
-0.0858484
0.0155414
0.471045
-0.332556
-0.138489
0.693317
-0.0771562
-0.902476
0.527248
-0.432712
-0.0945357
-0.605596
0.341167
-0.109245
0.558491
-0.00578391
0.0127219
-1.67939
-0.129008
-0.326162
0.600536
-0.0304995
-0.206922
-0.0645588
0.00803612
0.24135
-0.287804
-0.0862025
-1.20915
0.753162
1.96551
-0.121282
-2.08494
2.25605
-1.09918
-1.15687
-0.143345
0.508594
-0.146989
-0.739579
0.397133
-0.324134
-0.278436
-0.029236
-0.352365
-0.48481
0.837174
0.104524
0.111966
-0.21649
0.095535
-0.948204
-1.94665
-0.335046
-0.367811
0.702856
-0.123006
0.363493
-0.276584
-0.0499118
0.326495
0.565581
-0.138958
0.109111
0.365934
2.23964
-1.01228
-0.781447
0.429082
-0.278523
-0.0677497
0.346273
-0.0525413
-0.101828
-1.03754
0.491692
0.190791
-0.682483
-0.101775
-0.0402515
0.951215
-1.23643
0.285214
-0.633961
-0.05569
1.77426
-0.735567
-0.280839
0.714755
-2.1996
1.48484
-2.03451
0.841525
1.19298
0.178136
0.113436
-0.291572
0.148786
1.01343
0.075655
0.81098
-0.886635
0.0570791
0.185835
0.190979
-0.104377
0.352613
-0.55315
0.200537
1.30843
-1.4665
0.0398733
0.216148
-0.313009
0.0968607
-1.67895
-0.0373026
-0.635259
-0.186799
0.024219
0.135956
0.00212169
-0.138078
-0.678208
0.339467
0.338741
-0.427509
0.37083
-1.01073
-0.418311
1.42904
-0.145455
-0.0688345
0.0385814
-0.596253
0.791061
-0.194809
-0.329046
1.4498
-0.18537
-0.880235
-0.63554
1.18173
-0.519185
1.0295
-1.36824
0.0141536
-0.0497048
0.0355512
1.0619
-0.563787
-2.08303
-0.370157
-0.145352
0.515509
-0.0581691
0.232513
0.159744
-0.410439
0.250695
0.31709
0.27168
1.04068
-0.177777
-0.0812672
0.33752
-0.075323
-0.36006
0.328532
-0.166613
0.0184812
0.148132
0.2782
-0.108727
-0.169472
-0.166263
-0.045076
0.211339
0.168292
0.157841
-0.326134
0.111326
-0.0564821
-0.172108
-0.0496795
-0.0244322
1.12836
0.0370707
0.217903
-0.254974
0.0865999
-0.158631
0.0720311
-0.036706
-0.0296414
0.0663474
0.519167
0.288053
-0.719823
-0.100955
0.401167
-0.0882402
-0.137464
0.102255
-0.15154
-0.0409564
1.7866
-1.00434
-0.0162834
-0.182741
0.199024
-1.5538
0.218026
-0.0855531
-0.0220003
0.107553
-0.0502625
-0.0489194
-1.14644
-0.888073
0.416209
-0.0857124
-0.60177
-1.49883
-0.543324
0.315672
0.0245703
-0.620823
0.72825
-0.78095
-1.89265
2.05336
-2.33956
0.408014
-0.119258
-0.0294422
0.1487
0.0163565
-0.278105
-0.375847
0.653953
-0.203005
0.0348657
-0.195408
-1.46881
1.66422
-0.744241
-0.497554
1.24179
0.321776
0.441846
-0.763622
0.00770975
0.169891
0.357357
-0.29115
-0.2859
-0.198935
-0.108113
0.307047
-0.00823794
0.352685
0.296811
0.174235
0.282729
-0.661208
-0.0232196
0.0279898
-0.509021
0.550142
-0.0411203
-0.203515
0.320672
-1.31929
0.120962
-0.0165305
-1.6158
0.414838
0.0236505
-0.817759
-0.18577
-0.155965
-0.983164
-0.261222
1.24439
-0.0804832
0.477616
-0.638414
1.39042
-0.360133
-1.01896
-0.925718
-1.20327
1.38168
0.130098
-0.321852
0.0394707
-0.100844
0.061373
-0.725987
0.615603
0.110384
0.72158
-0.776662
0.0375054
0.52621
-1.12608
-0.148343
0.0575533
-0.0627348
0.00518153
-0.508527
0.869058
-1.39156
-0.170337
1.56189
0.00258511
0.0433734
-0.0584452
-0.70798
0.766425
-0.268995
0.448098
0.104391
-0.13132
-0.0095456
0.140865
-1.26297
0.864181
-0.205633
0.00262785
-0.197245
-0.139956
-0.414281
0.0935208
0.044062
-0.0551467
0.0116432
-0.0282549
-0.0510404
0.323945
1.23666
-0.508995
1.83426
1.03071
0.581568
-0.743993
0.0493639
-1.44092
-0.26461
-0.358647
0.446974
-0.0883275
0.0681039
-0.0193194
-0.0259576
0.0171089
-0.0642345
0.147894
-0.235174
2.05717
-1.822
0.134033
-0.826453
-0.135677
-0.284979
-0.0803889
0.90089
-0.307592
0.400056
-0.0924643
-0.150194
-1.56374
1.71393
0.33454
0.216661
0.285894
-0.321793
-0.493819
0.975163
-0.481345
0.0756859
0.00700544
-0.0432679
0.155171
-0.185519
0.0303479
0.0857026
0.432776
-0.518479
-0.166574
-0.580639
0.747213
-0.303823
-0.082664
-2.00679
0.0254772
0.254605
-0.263133
0.0587804
-0.219795
0.0141619
0.359888
-0.727698
2.40862
-1.00914
-1.39948
-0.181635
0.437446
-0.719789
0.661344
-0.112488
-0.320224
-0.204342
-0.00988646
0.809772
-0.793647
-0.119001
0.789907
-0.95648
0.164401
-0.108938
-0.0554633
-0.418271
-1.91208
1.0821
0.829989
-2.12047
2.1281
-1.04725
0.248552
0.798703
-0.0193682
0.218541
-0.199173
0.686601
0.32048
-0.133721
0.220918
-0.0129523
4.58535e-05
0.0396795
-0.28902
-0.0435356
1.1918
1.21682
-0.0538453
0.0252691
1.61758
-1.49787
-0.0477041
-1.38656
1.43426
1.1764
-0.0480476
-0.317632
-0.0990979
0.0107237
0.13796
-0.284164
-0.0659494
0.133664
0.783093
-1.36253
0.579433
0.136395
2.2197
-1.32367
-0.896026
0.0231436
0.0476335
0.0351388
-0.0780036
0.89908
0.939098
-0.87337
0.629104
-1.37335
-1.21019
-0.0340502
1.24425
-1.2937
1.09541
0.198282
0.115105
0.0029566
2.40311
0.0602502
-2.46336
-0.569925
1.26703
-0.697101
0.0993201
0.268337
-0.734148
-0.0292385
-0.0138683
0.0872761
-1.3574
0.241954
-0.00204162
0.0207925
-0.0187509
-0.151262
0.21014
-0.0588783
0.0876748
-0.438374
0.350699
0.590692
0.270276
-0.54877
-0.129438
0.0271664
0.868204
-0.896192
-0.0775482
-0.0726538
-0.281883
0.060188
0.944402
-0.450212
-0.49419
0.150173
-0.544819
0.394646
0.398777
-0.588871
0.190094
0.305344
-1.54283
0.79338
0.749455
0.0543435
0.854928
0.283427
-1.13835
-0.193651
0.24904
-0.273853
0.0248129
0.192924
-0.0391734
-0.285319
0.00873519
-0.328435
-0.866399
1.03938
-0.510227
0.80188
-0.291653
-0.527998
-0.702184
1.78001
-0.764393
-0.106028
0.198239
-1.35723
0.0748827
-1.348
1.27312
0.0497785
0.0921493
-0.141928
0.556301
0.0303595
-0.58666
0.462298
0.0424565
0.0295515
-1.34272
0.814717
-0.542231
1.17946
0.140784
0.649109
0.344
0.251153
0.0270463
0.880517
-0.425035
0.0549995
0.666581
-0.935905
0.362724
-1.25028
0.752729
1.00137
-1.15156
-1.82073
1.58556
0.0171367
-1.43142
0.21722
1.2142
0.246017
0.382158
0.0575622
-0.884042
0.702552
-0.146153
-0.1309
0.277053
-2.44521
1.24464
1.20058
0.440514
0.793573
-1.23409
0.0598042
-1.26307
0.801872
0.0350066
-0.836879
-0.568967
-0.536388
-0.852734
-0.0244168
-0.0173978
0.0682078
1.53191
-1.50059
-0.0204528
-0.933863
-0.608971
0.0989103
0.0354963
-1.24569
1.16642
-0.311495
-1.4895
0.0322234
-0.240547
-0.9002
0.37396
-0.411135
1.86687
0.217864
0.126455
-1.16399
0.159649
-0.123145
0.172924
-0.390181
0.332973
-0.598178
0.265204
-0.0481436
0.00575012
0.0423934
-0.659917
0.721035
0.1364
0.0309417
-1.08533
1.1634
-0.0780787
-0.72595
0.876785
-2.1402
1.26341
-1.22571
-0.0683657
0.116738
-1.44468
0.117829
1.32685
-0.447563
0.96727
-0.675491
0.771026
0.150561
0.896479
0.516926
-0.936787
-0.852105
-0.2019
1.054
-1.35807
-1.64172
1.44631
-0.14155
0.145621
-0.00407108
0.0859826
-0.0999058
0.814138
-1.2669
-0.0551138
0.520249
-0.465135
0.142325
0.414397
-0.556723
-1.02396
0.443321
0.0480599
0.0295099
-0.255976
0.406786
2.27243
0.130686
-0.777633
0.853288
-0.295142
0.0978968
-1.12491
2.36225
-1.23734
-0.0869043
0.0733859
0.0910873
0.439059
-0.00464165
1.04671
1.22764
0.586116
-0.827232
0.293489
-2.27723
-0.196357
0.15185
0.099973
-1.07016
-0.248077
-0.988352
-0.236797
0.0610184
0.844056
-0.43727
-0.253017
-0.936917
0.75914
0.207287
-1.72486
0.275381
1.44948
-0.0540872
0.502185
1.16402
-1.1594
-0.308799
0.806386
-0.348425
-0.457961
0.94167
-0.387854
-0.553816
-0.201723
0.0444274
0.693509
-0.687584
-0.00592526
-1.48859
0.942036
0.546553
0.496362
0.891144
0.00163342
0.134322
0.829069
-0.541016
-2.25032
1.14889
1.10144
-2.31621
1.82073
1.04714
0.613279
-1.66042
0.84891
-0.737223
1.55609
-0.530055
-1.02603
-1.10018
0.203432
-0.0935422
-0.070589
-0.107581
0.21879
-0.0538833
0.144315
-0.0904319
0.332549
0.225367
-1.86919
-0.411817
0.586579
-0.233965
-0.0382956
-0.0382433
0.807657
-0.452836
-0.354821
0.849984
-0.510517
-0.155207
0.140787
-0.0885938
1.22285
0.0950415
-0.0452629
-0.269462
-0.754499
-1.51026
0.527092
-0.0516848
-0.110391
0.157954
0.131497
0.134714
-0.0952435
-0.524393
-0.397758
0.122249
-0.0921645
-0.0300845
0.204518
-0.823395
-0.247661
1.07106
-0.231876
0.0120809
-0.0323204
1.27478
1.02104
-2.29582
-0.455606
0.777381
0.242947
-0.0967588
0.614006
-0.827758
-0.974754
1.80251
-0.892625
-0.858154
0.373344
0.285444
-0.119576
-0.165868
0.951925
-0.897222
-0.197113
2.05561
-1.17882
-0.213358
0.129731
-0.415572
-0.620521
0.0211648
2.05374
-1.77234
-0.281402
-0.952936
-0.55732
-0.25593
0.187437
0.0824235
-1.00406
-0.264392
1.26845
0.256723
-0.559963
0.645666
-1.59613
-1.30795
0.614067
0.693887
-0.220845
-0.00409858
0.224944
0.977625
-0.66678
-0.310844
0.123554
-0.187789
0.0891079
0.0993053
0.683028
-1.69376
0.768314
0.173356
-0.422263
-0.359183
0.1588
-0.0468335
0.170382
0.119418
-0.942814
0.0281888
0.399595
0.40558
-0.36462
-0.544993
0.582902
-0.0379096
0.895561
0.660528
0.461
0.0523989
0.602904
0.149646
-0.75255
1.65685
-1.38147
-0.313578
0.240633
0.164437
0.0284867
0.134182
-0.0601935
-0.121118
0.00485454
-0.146404
0.549359
-0.117292
-1.78297
-0.0339803
-0.186865
-0.0803589
-0.0204848
1.11499
-1.75341
0.750871
-0.338688
-0.412184
0.00491451
0.126604
-0.00725725
0.00521563
0.376245
0.0609071
0.102782
0.598796
-0.274305
-2.64022
1.26404
1.37618
-0.0893403
0.0167126
-0.0151013
0.133034
0.187084
-0.31355
-0.316664
0.802344
-1.6301
-0.0354956
-0.947584
2.22237
0.546928
-0.0816171
-0.465311
-0.501791
-0.413849
-0.0882379
0.102836
-1.11938
0.44224
-0.69793
0.25569
0.611651
-0.612081
0.00043065
0.0426831
1.04004
1.34283
-1.3639
1.38147
-2.64398
1.91251
0.731466
1.30369
-2.25127
2.64334
-1.30447
-1.0686
-1.1178
0.291593
0.0507654
-0.0956366
-0.340367
-1.50514
0.0737222
-0.0096064
-1.29907
1.19816
-1.98213
0.783962
-0.0744271
0.297354
-0.335548
0.0565383
-0.107635
0.949172
1.27053
-2.33855
1.21364
-0.108001
-0.784624
-1.33073
-0.608342
-0.00373936
2.12047
-2.12349
-0.0839079
-1.1356
-0.0820802
1.19174
-0.946599
-1.94704
1.86142
0.0856284
0.347791
2.31358
0.38473
0.0819855
-0.466716
1.35754
-0.728431
0.260574
0.050597
0.650879
-0.667543
0.107488
0.143665
0.734992
0.67877
-1.41376
-0.444105
-0.267462
1.0632
-1.05088
-0.0123234
0.665425
-0.474635
-1.56658
0.64233
0.924247
0.0746429
0.481658
-0.992226
-0.0669301
1.06964
-1.58882
0.306414
-0.597563
-0.100247
0.202502
-0.701482
0.423376
-1.21911
-1.37908
2.5982
-0.252022
0.409863
-0.398625
0.631886
1.28382
-1.91936
0.129622
1.34468
-1.85368
-0.138195
-0.0955908
0.230651
-1.22843
0.0932822
0.629843
0.516257
-0.0031082
-0.519796
-2.31546
0.422811
-0.0412675
0.0358957
0.00537185
0.0840221
-0.348284
1.15609
1.09996
1.29885
-1.01363
0.0841098
0.0103483
-0.128366
0.479753
-0.34139
0.61307
-0.561774
-0.885605
2.18929
-0.0557421
0.110086
-0.869473
-0.666915
1.53639
-1.28992
0.719994
-0.0765819
0.0565989
0.00974853
-1.44569
-0.0917864
-0.174989
0.617229
-1.46407
-1.17614
2.05374
0.551995
-1.22364
0.926253
-0.655978
-0.154373
0.55549
-0.198133
-0.276939
0.23279
-1.40185
0.340621
-0.83444
1.31918
-2.20478
-0.80673
-0.0997839
0.497391
-0.231098
-1.71595
1.31208
-1.49785
1.35383
0.664886
-1.67457
1.00968
1.51204
-0.570001
1.69055
-0.756763
-1.2491
2.00586
0.546876
1.30912
-1.0524
-0.637955
-0.669998
-1.52332
-1.12066
0.441214
-0.960932
1.55585
-0.59492
-0.148553
1.36536
-1.21681
-1.01715
-0.950022
1.96717
0.896251
0.166951
0.280299
0.388114
-0.222957
0.168332
0.0546242
0.0572032
-0.295691
0.468065
-1.421
-0.589554
-0.405918
-0.320069
-0.0543515
0.46919
0.333551
0.58234
-1.92755
0.49977
1.42778
-0.0419003
-1.62378
1.66568
0.0359427
-0.285833
0.0928185
0.381569
-1.67896
1.67896
-0.420635
-0.0416845
0.462319
-0.501018
0.999263
-0.635475
0.027133
-0.689725
-0.119506
0.47219
-1.3639
0.101595
-1.31368
0.283429
1.24324
-1.28019
-1.24369
0.239635
-0.0593582
0.346545
-0.287187
0.154524
0.538985
-0.0567967
0.00865317
-1.00788
-1.21219
0.142604
1.06958
-1.37096
0.101792
-1.10019
-1.04001
0.00838748
-0.139707
0.180691
0.479825
-0.592313
-0.0568655
0.0286107
0.407164
-0.384225
-0.317256
-1.11691
1.53257
-0.415659
0.353037
0.192768
-0.223271
0.433206
-0.209936
-0.352787
0.135714
0.298324
-0.616563
0.318239
-0.986911
1.86359
-0.816457
-1.51028
-2.06432
0.500581
-2.0871
0.058196
0.919635
1.10082
0.101926
-1.00213
1.65212
0.453362
0.6932
-0.552417
0.63149
0.618507
0.230403
2.14798
-0.828805
-0.769546
-0.659136
1.42868
1.17676
-0.0666542
-1.11011
-0.0509985
-0.107633
-0.229581
0.206223
0.158139
1.35787
-1.516
-1.35446
1.15156
0.202902
1.35446
-1.58556
0.246333
-0.32076
-1.56092
1.02453
0.0944943
-0.0927487
0.0362666
-1.66253
0.130878
1.68351
-1.01863
-0.260067
-0.113817
0.132298
-0.482111
0.687863
0.280215
-0.0903122
0.220934
-0.190586
0.195788
-0.265162
-0.617171
-0.0640964
0.710595
-2.0782
0.530287
-0.110403
0.498506
-0.388103
-1.05664
-0.925486
0.125886
0.664267
0.427732
-0.913485
0.135852
-0.376201
-0.212671
0.148463
-2.25104
1.18244
0.0615521
-0.0773241
-0.21048
0.0464288
-0.101575
-0.0801241
-1.36604
0.613446
-1.78802
1.17457
0.0798784
0.282054
-0.361932
0.0460691
-0.278389
-1.07066
1.35409
0.366202
0.411179
1.30623
-1.1594
0.21243
0.0560695
1.69425
-1.94065
0.2464
0.373223
0.417839
-0.832892
-0.00398706
0.38983
-0.535183
-0.059412
0.0674481
-1.18967
0.22748
-0.0307549
-0.196725
-1.5157
0.216661
1.29904
-0.0496935
0.0522786
-0.0166552
0.00762717
0.00902803
1.20021
-1.16471
0.028959
-0.0232089
0.598698
0.205955
0.0669016
-0.06172
-0.0935842
0.109126
0.220557
0.67316
-0.893717
-0.42915
-0.00922398
-0.92122
-1.01873
1.93995
0.171687
-0.0887076
0.287732
-0.890106
2.1281
-0.107429
0.123786
0.0667669
0.111611
0.132859
2.28615
-1.09435
-1.26317
0.849701
-0.50908
-1.2387
2.34014
-0.0809939
0.141901
-0.0878634
0.095454
-0.0247971
-0.230177
-0.319659
0.211547
-0.309127
0.67732
-0.197495
1.24157
0.119135
-0.0727058
0.234884
-0.0160602
0.0440838
0.107894
0.0257707
0.466505
-0.850731
0.233155
-0.271197
0.0380424
0.158427
-0.0662778
0.23036
0.714905
-0.945266
-0.273769
0.142869
0.430639
-0.511122
2.47816
-1.10279
1.02322
0.887804
0.0431543
0.464936
-1.23
0.370782
-0.50974
-0.37197
1.2759
0.963739
-1.5317
1.5317
1.53789
-0.900461
1.06593
-0.0558102
1.54173
-1.48592
0.911801
1.03264
1.33261
-2.55172
0.118098
-1.07458
-1.35756
-0.169234
-1.45375
1.62298
-0.430611
-0.174985
0.0858836
1.26183
0.190128
-0.298856
-0.667296
1.61239
-0.945095
-0.187934
0.295422
0.00562361
-0.0565888
0.0707786
2.58414
-1.08557
-1.49857
1.57528
-1.45745
1.1059
0.244049
0.0226363
-0.00591887
0.0119183
1.5621
0.49628
0.522378
0.888775
0.027132
0.218961
-0.246093
-0.378699
0.238743
0.201608
-0.218082
0.0164739
0.17947
-0.24468
0.0652095
0.420551
-0.393384
0.356526
-0.560042
0.65133
-0.569338
0.0425497
0.0358247
-0.00186779
0.257504
-0.153675
-0.103829
-0.122432
0.118519
0.00391283
2.12349
-1.68298
0.21855
-0.239891
0.0213408
-1.53191
-0.373767
0.285526
-0.994422
1.90622
0.278826
-0.359215
2.72024
-1.38763
0.266999
-0.342322
-0.181521
0.537682
-1.2882
-0.404637
1.42016
1.33566
-1.10501
-0.104524
0.171223
-0.123644
-1.48193
-0.319445
0.313343
0.265059
-0.400736
-0.401596
0.309132
-0.105776
-1.34074
1.29303
-1.44378
1.50884
-1.13661
-0.573609
0.4368
0.727498
0.41642
-0.459956
-0.080347
0.163955
0.362884
-0.526839
-0.399892
1.38647
-0.817868
-1.15712
-2.39136
-0.0998635
0.0955288
0.00433466
-0.0365059
1.45566
-1.41916
1.26684