/*--------------------------------*- C++ -*----------------------------------*\
| =========                 |                                                 |
| \\      /  F ield         | OpenFOAM: The Open Source CFD Toolbox           |
|  \\    /   O peration     | Version:  2306                                  |
|   \\  /    A nd           | Website:  www.openfoam.com                      |
|    \\/     M anipulation  |                                                 |
\*---------------------------------------------------------------------------*/
FoamFile
{
    version     2.0;
    format      ascii;
    arch        "LSB;label=32;scalar=64";
    class       surfaceScalarField;
    location    "4.2";
    object      phi;
}
// * * * * * * * * * * * * * * * * * * * * * * * * * * * * * * * * * * * * * //

dimensions      [0 3 -1 0 0 0 0];

oriented        oriented;

internalField   nonuniform List<scalar> 
20045
(
1.07479
-1.22368
0.148885
-2.22059
0.891475
1.32911
0.487115
3.44379
-3.93091
-0.370542
0.639178
-0.268635
-1.84429
1.5996
0.244684
-1.10398
4.24294
-3.13896
-1.48815
0.378381
1.10977
0.100776
0.987563
-1.08834
1.02385
0.884685
-1.90853
-1.45436
-0.352886
1.80724
-0.315986
-0.106882
0.422868
4.91006
-2.46495
-2.44511
0.836951
-0.830809
-0.00614209
-2.42711
1.97396
0.453146
-0.478488
1.85622
-1.37774
-2.08723
0.63287
0.00491825
-0.172029
0.167111
2.39603
-3.83638
1.44035
-3.65025
5.29673
-1.64649
-1.53408
-0.00645939
1.54054
-1.76643
1.78509
-0.0186654
0.295485
0.541466
-0.397421
-1.82317
1.71271
2.00233
-3.71504
1.70683
0.263826
-1.97066
-2.09412
3.80683
-0.0363588
0.0510704
-0.0147116
-2.28868
4.45844
-2.16976
3.49008
-0.00860519
-3.48147
-4.46535
2.41283
2.05252
-0.00772148
0.480311
-0.47259
2.73217
-1.58313
-1.14904
-1.28448
2.9198
-1.63531
4.659
-2.63749
-2.02151
-1.25255
1.35333
3.81394
-1.83653
-1.97742
1.10634
3.86083
-4.96718
-0.143687
0.873889
-0.730202
-4.89578
-1.03006
5.92584
1.28331
1.06943
-2.35274
-0.148193
1.17278
-1.02458
0.399456
-0.551624
0.152169
5.2921
-5.28993
-0.00217092
2.88506
-0.974797
-1.91026
1.2551
1.62996
2.40206
2.508
-0.267052
-0.200243
0.467295
1.928
1.46509
-3.39309
5.09457
-3.98823
0.350032
3.51015
-3.86018
2.61968
-4.38987
1.77019
5.91134
-5.0987
-0.812638
-2.92763
-2.15692
5.08455
-0.197677
-0.67211
0.869788
4.25744
-2.82515
-1.4323
-1.39105
-0.453238
1.15109
1.61854
-2.76963
6.20215
-1.18779
-5.01436
2.06186
-3.34634
1.56826
-3.54408
1.97582
-0.321087
-0.147936
0.469023
-2.06978
3.63804
1.03803
-3.05421
2.01618
-1.74418
-0.0222495
3.19709
-0.421117
-2.77597
0.481015
4.19407
-4.67509
0.232188
-0.727081
0.494894
-1.37965
0.20731
1.17234
1.81923
-0.795383
3.33024
-3.59563
0.265392
0.398489
-0.166301
1.89409
2.36335
-0.572667
-2.09224
2.66491
0.18994
-0.318897
0.128957
1.13593
2.42039
-3.55633
2.48018
-1.32909
-3.18461
4.32055
0.883933
-1.36242
0.513076
-0.186205
-0.326871
0.0872438
-0.787428
0.700184
1.87837
2.22845
-4.10683
1.78711
-1.5235
-0.263617
2.44499
-1.40697
-4.49878
0.827196
3.67158
-0.00993079
1.08472
-0.869453
1.16923
-0.299781
4.50836
-2.32832
-2.18004
-3.19181
0.108031
3.08378
1.99684
0.428829
-2.42567
-1.69272
1.41054
0.282176
-2.54331
-1.4051
3.94841
1.62789
-0.372046
-1.25584
0.866855
-1.2945
0.427648
-0.448447
-1.59087
2.03931
1.28743
-1.38448
0.0970578
2.44589
1.1217
-3.56759
-0.078943
0.0425842
-0.0599198
0.999307
-0.939387
2.54451
-1.2612
0.0400634
-0.161001
0.120938
2.60395
1.20999
-0.960277
-1.46683
1.26204
-1.32196
0.203683
5.99847
0.0864779
-0.955931
0.142279
-0.102215
0.846842
2.44173
-3.28857
5.2578
-3.83339
-1.42442
0.246024
-1.07271
0.910184
0.162527
-0.617315
0.773355
-0.156039
1.8447
-1.18379
-0.660916
-1.09021
0.89253
2.71367
-3.2959
0.582232
-0.48412
0.766553
-0.282433
0.114123
-0.744181
0.630058
2.21213
-0.505297
3.4566
1.20239
-2.43131
1.85865
2.09685
-5.72368
3.62684
3.89532
-1.49929
-0.47832
0.157233
-1.7101
1.38105
0.329049
0.362022
0.235512
-1.29564
1.06012
4.9079
1.00344
2.26247
-2.92686
0.664385
3.14957
0.368243
-3.51782
-4.38626
3.49523
0.891029
-0.0585188
-2.79699
2.85551
6.53686
-1.62896
0.413543
-0.613786
0.276041
-0.271096
-0.0049448
-0.136315
0.0924727
0.0438425
2.29605
1.58999
-3.88604
2.44454
-2.23442
-0.210116
-0.607814
0.13147
0.476344
-0.77042
-0.302291
6.11918
-4.02234
-1.43909
1.49068
-0.0515977
2.29338
-4.16503
1.87165
0.934029
-3.86166
2.81067
0.595251
-3.40592
1.11114
-1.02389
4.59115
-0.677914
-3.91324
1.8828
-3.11398
1.23118
3.83868
-3.95897
0.120283
-0.493649
0.733076
-0.239427
-0.0969583
4.01448
-3.91752
3.69583
-0.205758
-3.28819
0.0929734
3.19522
-1.84809
1.40406
0.444025
3.62137
-1.74299
0.523757
1.26336
-2.51791
3.00941
-0.491509
-2.86878
3.3559
0.0203681
-0.938604
0.918236
-0.957878
0.145454
0.812424
-0.0833954
-0.82103
0.904426
1.53446
-0.630106
-0.904358
5.29694
-2.52063
-2.77631
-0.980307
0.896911
-1.22438
-0.866489
2.09087
0.492539
-0.0930836
-4.89502
-1.84436
2.52276
-0.678406
-2.51472
1.92624
0.588477
-0.0565508
-0.185684
0.242235
0.098863
3.73982
-0.103287
-0.0330281
-0.166869
0.44291
-2.74106
0.223155
-2.95478
3.71968
-0.764899
-2.6112
3.05519
-0.443983
-2.4227
-1.43322
3.85592
0.481588
0.287005
-0.768593
1.56754
-1.77333
0.205789
3.42258
0.150782
-3.57336
-0.00467813
-2.97429
2.97896
-1.27274
4.0834
0.824315
-2.29395
1.46964
-0.812982
3.52665
-3.39987
2.08366
1.31621
0.295336
-0.316834
0.0214976
1.24449
-4.25397
3.00949
-3.64534
1.35666
-2.72255
-0.89545
4.10745
-2.49826
-1.60919
-1.4896
1.34141
0.73414
-0.784634
0.0504935
-1.62213
-3.49297
5.1151
-3.07247
4.57229
-1.49982
5.29965
-2.5694
-2.73025
0.114377
-0.921365
0.806988
0.212327
-3.20108
2.98876
0.154474
-0.47046
-2.68828
2.62976
-2.75966
-0.876553
3.63621
0.51943
0.129702
-0.649132
0.383359
-2.22772
-0.0616861
0.0539646
3.37085
-0.221271
-0.725146
0.58146
-0.839332
1.04922
-0.209885
0.390738
1.14373
-3.35217
3.5645
0.799713
1.25897
-2.05869
-2.87733
0.615096
2.26224
2.93
2.36965
4.49637
-3.25189
2.79632
-4.66539
1.86907
0.998051
-3.83182
2.83377
0.222176
-1.75625
-1.98101
2.82785
2.5379
-3.64188
1.65973
-2.61093
0.951199
-4.86228
2.7789
2.08338
-0.25144
-1.44128
0.765501
0.650679
-1.41618
2.55426
-0.744946
-1.80931
-0.156083
-2.76179
2.66483
-1.09056
-0.348528
2.53728
5.29265
-4.77037
-0.522273
-0.0482372
-0.610716
0.658953
2.56906
0.388778
-2.95784
0.260764
0.128261
-0.389025
-0.342089
2.1392
-1.79711
2.43663
2.07173
2.37341
-1.5491
0.196671
1.39741
-1.59408
3.50848
-1.2151
0.524873
-0.0453423
-0.479531
-1.34754
-0.190542
1.53809
-0.604304
0.628841
-0.0245365
3.99196
-2.55672
-1.43524
1.09959
-4.17206
-0.67067
0.0663654
-3.65953
1.27839
2.38114
4.50172
-1.58192
0.952699
-3.90748
5.59882
-2.93845
-2.66037
-0.0785234
0.597954
2.37823
2.44428
-4.82251
-2.4288
0.458091
1.97071
-4.06259
4.09255
-0.0299537
1.25963
-3.6034
2.34377
0.0226867
-0.0191956
-0.00349115
-1.90912
2.42593
-0.516809
0.0550441
0.76696
-0.822005
-0.70685
0.22273
-0.748169
0.130854
-4.71582
0.882428
1.18886
-1.91708
0.728218
-0.972851
0.56439
0.408461
1.08997
1.6422
2.48193
-0.822199
-1.16102
0.203142
2.44089
2.06083
-2.07648
0.182235
1.89425
-3.37625
5.75448
1.37445
0.481772
-0.753522
-0.219329
-1.20462
-0.207445
1.41207
-0.0195465
0.314883
-2.3031
1.96101
0.801507
-1.05027
0.248759
-3.61207
3.47152
0.140554
-5.06102
3.11518
1.94584
-0.626366
-0.569494
1.19586
3.01773
-3.3243
0.306572
-2.95185
-1.91043
5.7499
-3.915
-1.8349
-0.486749
0.438512
3.96065
-2.70102
-0.768199
1.95706
-2.65482
-0.0507609
2.70558
2.49567
1.85058
-4.34625
3.86938
0.507526
-4.37691
-2.69623
0.0414107
3.41333
-1.99578
-1.41755
-0.716711
3.17905
-2.46234
1.49521
-3.7558
2.2606
0.253179
0.213057
-0.466236
0.0461856
-0.0367558
-0.00942984
4.62965
-3.82497
-0.804684
-2.39054
-1.99571
4.26821
1.02444
-3.27684
-0.335229
0.339517
-1.68706
-1.83496
1.2859
0.549059
0.0140868
0.720054
-2.14696
4.44301
1.51003
2.48194
4.41472
-2.70157
-1.71315
-3.81627
2.93972
3.63495
-5.29449
1.65954
-2.475
-0.230551
2.70555
-1.27039
-0.350804
1.62119
1.26239
-2.48677
-1.46386
2.26357
-0.0895852
0.230511
-1.81364
-2.24638
6.09524
-3.84885
-1.03324
0.193904
-1.41237
1.60904
0.494984
-4.55758
3.93982
-1.50319
3.47244
-1.02956
1.31402
-0.284455
0.0190277
-0.38957
-1.9085
1.29542
0.613084
0.748505
1.0962
1.41939
-0.252756
-1.16663
1.88836
0.556182
-0.695739
-1.13922
2.31077
-0.313929
-0.901065
-1.97627
3.28822
-2.4376
-0.850616
4.34185
-0.698043
-2.3016
2.99965
3.13717
-3.45576
0.318587
-1.85523
1.40678
-0.55465
-0.0531639
0.199418
-2.74273
1.21197
-2.19539
0.983418
1.72999
1.68334
3.67428
-4.63486
0.960583
0.993575
-2.16245
1.16888
-3.88781
0.695999
0.118524
1.50936
-1.2947
3.41471
-2.12001
-0.908126
1.29755
-0.389422
-1.55661
0.0684592
-0.537827
-0.987147
1.52497
0.482934
0.00503384
-0.487967
-1.09768
-0.750404
1.44436
1.80425
-3.2486
1.61361
-4.98986
0.985113
-1.80187
-0.0533531
1.89035
-0.896776
-2.63082
-0.769054
0.451984
-0.523597
0.0716133
3.48334
-1.55534
-1.8489
3.04687
-1.19797
-0.560771
0.657555
-0.0967837
2.67903
-0.124771
3.35833
-2.07242
-2.00161
3.73486
-1.73325
3.32271
-4.85119
1.52848
2.21938
3.53052
0.0659137
-0.094571
0.0286573
0.420156
-2.89515
2.53172
-3.819
1.28728
0.338446
-0.148506
-0.308735
2.5712
2.49379
1.44604
-2.66167
3.65972
0.782641
-4.43289
-4.19655
1.50269
2.69385
2.63731
-0.517443
-2.11987
3.74067
-0.722948
-1.68645
-1.90387
-1.66633
1.858
0.10739
0.340363
-0.447753
1.30838
-1.31484
-2.9109
2.60217
4.19494
1.09716
-3.19504
1.34614
5.13837
-0.870165
-0.810436
0.800833
0.00960332
-0.028621
-2.3171
2.34572
-3.5978
0.656974
2.94083
3.36358
-3.36358
4.6989
-0.0213443
-4.67755
1.26928
0.150114
2.39129
-1.43675
-0.954539
-3.72815
3.87196
-0.143809
1.43744
-0.108942
-1.3285
1.15827
-0.406354
-0.751916
0.551626
-1.17799
0.520933
2.07479
-2.84299
-3.24608
3.83956
-0.593483
-1.16203
2.60639
0.0267034
0.0295023
-0.0562057
1.16325
-1.27635
0.113099
-1.5293
1.75147
4.3542
-3.52178
-0.832413
-0.370939
-2.04249
2.41343
-1.04021
1.10767
-0.0674605
0.656881
-1.17748
0.520602
-5.49398
3.67813
1.81585
0.443852
0.195326
-0.904772
0.0943361
-0.0616266
-0.071775
0.133402
2.1777
2.45195
0.0947415
-0.0680381
-0.35035
-0.949117
1.29947
-2.01588
3.23604
-1.22017
0.754072
0.571142
-1.32521
1.26045
-0.882074
2.40778
2.78626
-5.19404
0.163286
-1.75415
0.45841
2.96417
1.72101
1.2365
-2.95751
1.95898
-1.60263
-0.356354
-4.04471
0.756522
-1.47585
0.699263
0.776592
1.70109
2.26771
-3.9688
-2.55028
2.31973
0.268747
-3.63506
3.36631
-0.600581
0.714958
0.298396
-0.335406
0.0370096
0.192446
-1.39707
0.0114769
0.273096
-0.284573
-2.73458
-0.92495
2.43705
0.120023
0.23273
-0.352754
-0.605267
0.044496
0.61843
-2.79612
2.17769
0.834987
2.06399
-2.89898
1.40588
-2.80888
3.37147
-0.562591
-2.8983
2.18159
0.0697929
-0.0187225
-1.56369
-0.951033
-1.14449
0.271674
0.872817
-3.4965
1.48062
2.60825
-2.97919
1.07407
4.06431
-1.3783
1.25192
0.126383
1.4388
-3.83198
2.39318
0.738656
-1.18355
0.444893
2.33905
1.01928
-2.5733
-0.0379034
-1.38256
0.00291611
0.409243
-0.362102
-0.0471407
1.40234
-0.0365031
-0.123635
0.160138
3.75059
-2.04949
-3.57016
1.63846
1.93169
1.079
0.803358
-1.88236
-1.4021
0.801518
-0.992943
-0.151548
1.39362
0.997666
-3.67181
-2.05187
0.468518
-0.0165345
2.42268
1.7342
0.576571
-3.46508
3.81511
0.281083
-1.59125
1.31017
-0.364861
-3.29779
3.66265
-0.460127
0.49338
-0.033253
-0.142694
0.624282
-2.19813
3.69333
3.2256
-1.3428
-1.50279
-0.40571
-0.0252444
-1.70002
1.72526
1.41311
-3.83581
-0.333858
-1.85954
2.1934
-0.251215
1.4042
-1.15298
-2.56901
0.131075
2.43793
3.54955
-2.08447
-0.0361584
0.431086
-0.394927
-0.941922
-0.0982863
0.774772
1.45199
-2.22676
0.628239
-0.756363
0.128124
2.24627
1.26038
-3.50664
-1.76345
4.20935
0.469435
0.0134986
-0.808975
-2.9958
3.80477
3.66164
2.45754
3.50716
-2.67217
-1.51506
0.977231
-0.0840022
0.130188
-1.45338
5.08832
0.512975
-3.05626
2.54329
3.7565
-0.561983
-3.19452
-1.63718
2.62231
-0.985129
1.56156
-1.41888
-1.67979
3.09867
0.174921
-0.119908
-0.0550132
-1.11514
-1.95245
3.06759
-0.122166
1.28542
0.216687
-0.273237
2.03905
-3.15419
-2.80073
-0.864292
3.66502
-0.170523
-1.9889
2.15942
-0.466517
4.40372
-4.52967
0.125951
0.892801
-0.469199
-0.423602
-0.0973683
-1.28093
1.01283
1.02649
-1.23207
-0.0383182
-3.16511
4.00655
-0.841439
-0.0609626
0.86247
0.830072
0.281065
-4.05532
-1.23462
-0.0908069
0.0145568
0.07625
2.13691
-0.40271
-0.906853
0.992046
-0.0851929
0.888013
-0.832969
-4.18541
1.46286
3.55527
0.687667
-0.407104
1.06398
-0.884665
1.96366
2.66805
-0.593262
-0.927533
0.0206799
-0.404538
-2.50637
0.885581
1.04414
-1.02377
-3.67987
0.0820624
-0.155392
0.920417
-0.181761
-4.38964
1.34443
3.04522
2.53039
0.799845
0.869291
-0.30615
-0.563141
1.27394
-1.12142
-0.152524
-2.88469
1.04816
-4.17435
2.17275
0.22609
-0.175144
-0.0509456
-0.0719128
0.462866
-0.390953
4.44763
-0.0148768
-4.43275
0.854835
0.0741666
-0.929002
-0.588718
-1.12138
0.993104
-0.126249
0.187102
-0.172376
-0.0147262
1.63283
-0.101412
-1.53142
0.0342563
0.152846
3.28403
-2.16234
-0.122525
-0.634731
0.757257
-4.09089
0.925787
-0.0184373
-0.122875
1.38492
-0.601362
0.721385
-0.500579
-0.660441
0.986169
0.723092
-1.70926
2.73697
0.460122
1.52939
-1.2483
0.95646
-0.842338
0.404478
-1.3126
0.420403
0.571655
-0.992058
2.21888
-0.255291
-1.96359
-1.90249
-1.21149
-0.791348
0.145149
0.646199
1.35427
-1.56742
0.213152
4.34021
-0.0993774
-4.24083
-0.473316
0.0523801
0.420936
-2.00089
2.72395
-0.723064
1.89384
2.44777
-4.3416
0.404084
-0.55202
-1.13207
1.79278
-0.660703
0.932142
0.392919
-1.32506
-3.98276
2.27211
1.71065
-0.146201
-0.0261748
-3.38176
0.581031
1.32067
-0.783316
-0.537356
1.78378
-2.37171
0.587927
-0.416762
-0.806916
0.644118
3.75961
3.2842
-0.56726
-2.71694
-3.28835
0.479464
1.32084
-2.22191
2.98112
-5.13019
2.14907
-0.452567
1.21807
-0.0130293
-1.4771
1.12675
-0.680153
0.915665
-0.387468
-3.06243
3.4499
1.6561
2.30455
-2.9088
3.09931
-0.19051
0.342793
0.0664506
-3.07512
-0.850473
-0.530356
0.592738
-0.0623818
2.02557
-1.89787
-0.127691
-0.595336
0.925346
-0.33001
-0.386346
2.17013
-4.21677
-0.84664
5.06341
-3.15075
-0.959526
4.11027
1.79753
-1.47073
-0.3268
-1.08157
0.046374
1.03519
-0.375253
0.0874042
0.287849
-3.83829
0.175768
3.66252
0.0947962
0.830496
-0.925292
3.09907
-3.48755
0.38848
-1.89755
3.5038
0.636562
-4.14036
0.046852
-0.577208
0.0658944
-2.58051
2.51461
2.70276
-3.51574
-3.78425
3.30205
0.482204
0.754134
-0.125895
1.14588
-0.315806
-0.295508
-0.772116
1.06762
-0.0557781
0.758265
-0.702487
-1.75678
4.05772
-2.30093
2.58574
-4.92501
2.33926
4.03989
-3.87463
-0.165253
2.92635
-1.22348
-1.70287
0.169066
-0.980797
0.811731
-1.23451
-0.0611296
-4.08606
3.61294
0.473125
0.232455
-4.31852
-0.175264
4.54732
-4.37206
-2.15732
-1.66765
0.876162
-0.720838
-0.155324
-3.19987
-0.891022
-0.826559
0.568223
0.258336
0.255798
0.00496612
-3.75348
3.56951
0.183969
-0.638421
-0.192842
-0.126055
0.937383
-0.0825476
-2.31545
0.406335
0.667401
-0.753897
0.0864958
-2.76066
1.83868
0.921985
1.59542
-0.157978
-0.950487
2.33392
0.345107
1.45113
-1.41588
3.00181
-1.58594
-0.473769
2.04131
-2.56165
1.6307
0.930954
-0.207869
0.0616677
3.85625
-2.20015
3.26093
-1.82213
-0.730453
-0.708222
1.43868
1.39163
-3.01447
1.62284
2.25952
-2.43005
3.64776
-1.54857
-2.09919
-0.0267512
-2.14083
-0.420815
-0.998247
0.716183
0.282064
0.00948509
-1.17199
3.96831
-4.18031
0.98044
0.414372
-0.161193
-0.477914
0.0514719
0.648754
-0.0199133
-1.73427
-1.92384
3.1499
-0.669714
-0.863127
0.482369
0.380757
0.220683
0.937587
-2.93349
-1.21229
4.14578
-1.57516
2.83755
-0.0159861
-0.630575
0.646561
3.27666
-0.434973
0.0231187
0.411854
0.834931
-0.414528
-1.47403
-3.89947
0.653392
-0.948939
0.0565599
0.892379
2.84894
2.74987
2.1724
-0.59912
-1.57328
3.88413
0.155759
2.39597
-3.40258
1.00661
-3.23906
-0.0367564
3.27581
-3.23218
4.18904
-0.956856
0.61393
-0.0204583
-0.593472
-0.959556
3.66232
0.289213
-0.833831
0.544618
0.175286
-3.08408
0.373909
-0.131538
-0.242371
-3.70711
4.81197
-1.10486
-0.919789
2.17996
-1.26017
4.64966
-2.05315
-2.59651
0.0624158
-2.37441
2.31199
-0.306905
-0.0285007
-1.89208
3.78591
5.38155
-0.68265
4.613
-1.29029
-0.786411
0.663885
-3.39397
0.154916
4.94017
-1.26589
-0.0567937
-4.44198
1.1591
0.0136797
0.0502427
3.4204
-3.47065
2.18876
-0.591431
-1.59733
0.62749
-1.42883
0.801344
-0.744603
0.0393098
0.705293
-0.830795
-1.91886
2.74965
1.46804
-1.06356
-2.69208
-1.50381
4.19589
0.523926
0.935387
-1.45931
0.329313
0.546849
-4.34879
5.09933
-0.750539
-0.452894
-0.00723356
1.78573
0.85118
-2.63692
2.05631
1.86488
-3.92119
0.708887
1.92843
-0.0746692
4.66582
-0.0237104
3.14562
-3.12191
1.08078
-0.326707
0.198906
0.102338
-0.301244
3.86194
-3.48761
-0.374329
1.59815
2.04961
-0.164068
0.158127
0.00594053
-1.0598
3.15622
-2.09642
0.0098902
0.741303
-0.751193
1.90276
-2.89517
0.992415
-1.31026
-2.06577
3.37603
3.10645
-0.537397
1.07824
1.11052
-4.31942
3.04871
1.27071
1.15507
-3.19757
0.365068
-0.742776
0.377708
0.806675
-0.22494
-0.581735
0.0142831
-0.321188
-0.306983
3.39922
-3.09224
-0.562111
4.07226
3.01128
-2.49093
-0.52035
2.56764
-2.13881
-1.99483
0.748362
1.24646
0.217035
-1.65378
1.59092
-1.59973
0.00881375
0.279201
0.590091
0.598899
2.90307
-3.50197
1.00461
0.628222
0.536723
-3.68747
-1.55442
0.0570851
1.49733
-1.31653
-0.953144
2.26968
1.99038
-1.00421
-3.35145
2.18942
1.3249
-0.989006
-0.335889
-2.17049
2.54458
-0.374091
-1.71734
1.88063
-1.41526
1.5607
-0.14544
-4.71243
3.9024
0.810024
-0.0822353
0.905926
-0.823691
-0.646024
0.574112
-0.708174
-4.89161
7.3567
-2.46509
-2.15796
2.77305
1.97998
-2.11009
0.130113
-0.168632
0.725599
-0.556967
-4.2675
3.34241
0.925097
0.00886073
0.308651
-0.317512
-0.153261
2.09378
-3.85057
2.74909
-1.35746
-2.49044
-1.70611
-2.80584
2.78213
1.85155
0.074695
1.30171
0.543274
-1.84499
-1.38725
1.28979
0.0974636
0.633358
-0.942108
0.30875
-0.712825
-1.9682
2.68103
1.29316
1.56228
-2.85544
-2.86498
-0.844606
3.70958
-0.999791
0.831158
3.13947
0.722466
-2.02714
6.23393
-4.2068
-0.935071
0.532362
0.402709
0.028752
0.793048
-1.00569
0.212646
-1.83234
-2.98344
2.27061
0.597944
0.853402
-0.684336
2.00225
0.0233132
0.0128848
-2.80987
0.117474
1.16995
0.442976
0.062338
-0.505314
-2.50743
-2.12776
4.6352
-3.60379
-0.715631
-1.982
-0.279986
2.26198
0.377854
0.849871
-1.22772
0.0108533
4.42468
-2.8333
-1.59138
0.705606
2.57859
0.241479
1.3528
-2.76817
1.41537
-1.78513
3.55442
-1.7693
-2.20639
-0.892254
3.09864
-1.84501
0.712937
-1.41802
-0.576802
4.54071
-1.9991
-2.54161
0.641708
0.36535
-1.00706
1.37138
0.335243
-1.70663
-0.724426
0.819222
0.201135
-0.172712
-0.0284229
-0.370681
-0.106987
-0.87332
-0.0323521
2.70845
1.83225
-5.54959
4.51952
-1.44943
3.86226
0.974667
-0.332958
-3.2697
1.06331
2.88125
-2.46109
-0.497246
-2.55024
0.549347
4.04719
-4.22245
2.67632
-2.70495
3.25646
-0.119288
-0.789988
-0.504516
-0.79542
-0.402359
1.19778
-1.239
-0.145482
2.95835
0.518488
-3.47684
-0.0314549
-1.00178
1.03324
-0.154802
-3.57155
-2.92093
6.49249
3.34096
-0.241886
-3.96583
3.93373
0.0320972
0.844051
-0.636741
-4.17145
-0.0960582
-1.09093
3.74216
-0.129222
0.497561
4.76462
-1.87444
-2.89018
-2.37826
-0.200308
2.57857
0.665806
1.86413
-2.52993
-2.76843
0.199416
-0.744585
-0.334138
1.07872
-1.86786
2.38084
0.598895
1.95912
-2.55802
-0.997008
0.424301
0.572706
-3.59239
0.383032
3.20936
0.88006
1.86903
-1.0132
1.98645
0.9399
-0.91767
-0.558184
3.35445
-4.03237
0.34072
-0.508535
0.167816
0.578742
-0.174658
2.65737
0.145966
-2.80334
2.50605
-3.95548
0.000713701
0.021973
-1.60142
2.35953
-0.75811
-2.36667
2.43256
-0.119953
1.19208
-1.07213
-0.413422
0.268951
0.144471
-0.497098
0.354404
-1.04803
2.36887
0.00446221
0.221627
-0.653212
0.700064
0.82371
-0.695449
0.104537
-0.123733
-0.82055
0.784891
0.0356595
0.852586
-0.950873
0.0982868
-1.53332
3.95372
0.41414
-2.39614
-0.321478
-1.16812
-0.0174321
2.22814
-2.2107
1.25806
-1.4655
0.686045
-2.78324
2.0972
-1.37497
1.17288
0.202083
3.97209
-6.21848
-1.34343
-0.090545
-3.69371
0.637802
2.5121
-2.90877
-0.442675
-3.85507
3.15703
-1.69915
0.712005
0.166037
-0.0364683
-0.129569
5.20412
-2.35518
3.18088
-0.649164
-0.928862
-0.643828
1.57269
-4.18434
1.80557
2.37878
-0.496451
0.389569
-0.482881
3.98668
0.675871
-0.380386
-2.01231
-0.131352
0.420566
0.56949
-0.35347
-0.216021
-0.498289
3.45664
-1.05649
0.81601
0.240482
0.0374492
-5.40983
2.60591
2.80392
0.776087
0.809367
-1.58545
0.187651
-1.79951
1.61185
-2.06251
1.14272
-3.10939
-0.115217
1.4866
3.53063
-3.89549
1.65878
-0.726638
-1.51307
2.66815
-5.33496
2.81161
2.52334
2.16603
-3.06842
0.902389
-2.71127
2.90265
-0.191385
1.44863
-1.92239
0.0533384
0.748627
1.04891
0.717193
-1.50462
-2.22015
-3.2169
1.15317
2.06373
0.922087
-3.30035
2.42342
-0.0946338
-2.33417
0.465574
0.60664
4.0506
-1.37172
-2.67887
-1.94229
1.0219
-2.33844
0.677292
-3.6562
3.45589
-2.70442
1.28554
1.85182
-2.57042
4.24568
-1.67526
-7.39675
5.39094
2.00581
-1.07771
1.04955
-1.30076
-3.83767
2.71606
1.1216
2.85019
-3.80975
-4.22952
-0.119273
5.05202
-2.07091
-1.00073
4.30629
-3.30556
-0.0998937
-0.632652
0.732545
-0.426112
1.7175
2.06959
-4.93416
2.36374
0.576981
0.891057
0.796766
1.43433
-2.2311
1.55144
-0.900761
-0.30971
-4.38708
4.69679
-1.3386
2.00993
-3.28266
-2.15715
-1.62321
3.78035
0.948267
-1.32031
-2.67783
0.857721
1.82011
-0.250539
0.147712
0.102827
3.67188
-4.05934
0.574712
-2.17613
1.55693
1.69982
-3.25675
-0.702624
-0.160503
-3.16927
0.919099
2.25017
-3.23278
1.92252
1.7426
-3.52773
1.02882
-0.688098
-0.180218
-0.0703206
-0.0759951
3.8325
-2.31576
2.94142
-0.62566
3.1347
0.023867
-3.15857
-2.6998
-0.0657934
-0.963767
0.18322
3.18036
0.525774
0.131781
-2.52638
1.61327
-0.343994
1.95148
-0.445784
1.07914
-3.51505
-0.238425
-0.607509
5.16286
-2.71857
0.711208
0.748471
-1.45968
4.78868
0.470781
-5.25946
-0.461232
0.440773
-1.28846
-2.8859
-2.97749
-0.478266
-1.50775
4.01379
-1.29184
1.83537
-0.54353
-3.79537
1.28794
-1.14354
1.94031
-3.35231
-1.03733
-1.54187
-1.03416
1.23995
-2.29748
-0.463184
4.31836
-0.576203
0.345744
-2.69706
2.35132
-0.273834
1.67124
1.06472
3.85786
-3.58911
-0.0965007
-0.880354
1.308
-1.86037
2.0426
-1.81353
-1.55754
0.868499
0.68707
-1.55557
-3.42882
0.0652421
-0.500645
2.94762
-2.44697
-0.552269
-3.41356
-2.58611
2.97489
4.90136
-2.18626
-2.7151
-0.344196
1.04346
3.2443
-2.14048
-1.10382
1.04965
-1.15663
0.20189
-0.00298413
-0.526077
-0.0693303
0.595407
-0.502993
1.80471
-1.24626
4.09645
-0.067052
-0.653786
-1.06114
-0.374932
1.43608
0.0190999
3.65278
0.540706
1.64946
-2.19017
-1.44571
2.22049
1.54446
1.61176
-1.64255
0.0881313
2.05901
-0.760479
-1.29853
-0.154727
0.0202999
0.134428
0.403935
-2.84889
2.44496
-3.51723
0.539739
0.868105
1.89392
3.26893
-0.0336665
1.08331
0.542884
-1.83472
-3.41148
1.74516
-3.70219
1.18157
-1.78601
0.256711
-1.74085
-2.22341
3.96427
-5.54484
0.186842
0.219063
-0.405905
3.34896
-2.52176
2.74834
-2.08254
0.519835
2.03895
-2.55878
0.60025
-1.34483
1.72186
-4.90638
3.18452
0.259173
0.984923
-1.2441
-1.64777
3.76397
-2.1162
3.05214
-1.45063
-1.6015
4.81813
-1.00626
-3.81186
-2.10903
-3.3008
-1.22495
-0.157608
2.04984
4.48702
-0.0545913
0.407373
-0.352781
-2.52206
-0.647209
2.8244
2.47234
-2.02774
2.48572
-0.457983
-0.491984
0.515103
0.19096
1.45448
-1.64544
-0.168897
-0.887595
-0.394267
-3.4434
-3.65566
1.30106
0.023839
-0.501283
0.439596
0.280557
2.76362
-3.04418
-1.94227
-0.373181
5.6393
-4.02569
0.275571
-1.04599
0.0674655
-0.01303
-0.0544354
0.25231
-1.29633
1.04402
-1.17255
4.28772
-3.87642
3.17268
-1.44269
3.69146
-1.68153
-0.465339
-0.978396
1.44374
2.81823
0.360814
0.0268165
-2.58567
1.75487
2.818
-2.7989
-1.78567
-2.08468
3.87034
-2.24136
-1.94299
-3.64563
3.75183
-0.106197
0.274521
-1.27707
0.874708
2.14608
1.0266
-0.167081
-0.374779
0.541861
-1.29328
-2.30235
-3.72349
2.03178
1.69171
0.936347
-2.51151
0.725296
-0.360229
2.25414
-3.54259
1.62583
-1.36201
-0.652417
2.63965
-1.98723
2.20848
2.02289
0.993651
-3.01654
3.9301
-2.31367
-1.61643
-1.77567
-3.45137
4.78798
-1.33661
3.38061
-3.03487
-1.12921
1.09554
1.6076
3.04207
-0.863895
0.764001
0.0573886
-0.0938916
3.60446
-2.01446
2.24432
2.9598
-1.60326
0.868073
0.73519
0.842551
-1.573
2.79955
-0.142178
3.9271
-4.92783
-2.49464
-0.348543
2.84318
0.749283
-0.103294
-0.645989
0.639388
0.253413
0.528678
-3.76086
-1.08489
1.27734
2.58498
-2.31074
-0.274239
0.633621
1.42539
-0.613975
0.307825
1.01194
0.821251
-1.83319
-1.63266
3.69452
-0.260406
-2.04721
4.75974
-2.71253
-0.882827
1.40675
-0.251176
-0.745832
4.04108
-1.98936
-1.28749
2.32881
-2.14116
1.08237
-1.40385
-0.71344
0.631205
-1.10053
-0.583352
-0.0219159
1.15983
-0.594362
3.05193
-2.45756
0.00723093
-0.0688575
-1.19892
0.426806
-1.29752
0.0725648
-3.73252
2.92355
0.922256
0.870521
-0.772202
-1.27775
2.04995
0.744015
0.425219
3.28485
1.83593
-5.12078
-0.43394
-0.0700174
0.503958
-2.49992
-1.07023
3.26443
1.63693
2.91847
-2.63791
-4.90475
-0.0047979
0.0471626
1.20324
1.70143
2.26927
-0.318801
-1.95047
1.50809
-0.250035
-0.10798
-1.212
-0.391262
-3.30193
-1.59643
1.81347
-1.8411
3.47957
2.09328
-2.05553
-0.0377457
0.758697
0.0261938
-0.256632
0.981518
-0.128932
2.93013
0.79088
-3.72101
0.343992
0.225498
-0.899378
0.551594
0.347785
-1.32219
-0.0276235
1.34982
1.15304
1.81493
-2.96797
0.814981
1.1754
2.55021
-0.0636806
-1.02653
1.38185
0.231422
0.89685
-0.538319
-0.358531
-2.95421
2.05876
3.12052
-2.47117
-0.649347
0.0638903
-0.589451
0.525561
3.2907
-3.59768
3.66847
-2.73212
1.16494
1.5834
-0.542176
-0.0411755
-0.237856
0.0412021
0.196654
-1.98732
-0.506574
3.99226
-2.04584
-1.94642
5.20481
-3.81295
-1.39186
1.53787
-2.6274
1.08953
-0.28323
1.83746
0.0528948
-1.51262
2.9152
-1.40258
-0.215153
-0.0227032
3.61217
1.05831
-0.242296
3.41564
0.0114138
-3.42705
-0.729144
-0.15318
0.596156
0.190367
-0.0322395
1.26241
1.09712
-1.08392
0.488585
0.0229665
-0.137812
-0.364806
0.451284
-1.46246
1.98229
0.0235462
1.02059
0.407828
-1.55593
2.64589
-0.0776539
2.17093
-0.564115
-0.488531
-0.805044
1.81698
-0.632649
3.08479
-2.45214
-2.94825
-0.433515
-2.19516
3.1696
-0.974435
0.267643
0.790664
1.20938
-0.221812
-0.0614466
-0.945192
1.00664
-2.97696
0.987604
0.506748
-0.542906
1.30627
-4.23975
0.989364
-3.98516
-1.59597
3.5983
-0.911564
1.86378
-1.04252
0.0431074
-2.23765
2.64158
-0.00197906
-0.608737
0.377814
-1.84855
-0.410865
-2.1686
2.57946
-0.236107
-0.229086
5.01897
-3.11977
-1.89921
-0.830653
0.282176
0.8945
0.0812796
-0.975779
-2.90932
0.593559
0.768609
0.0380653
-0.0301419
-0.508166
0.538307
1.22488
-3.42005
0.328408
1.61999
0.19893
-1.81892
-3.45237
2.81972
0.585937
0.148386
-0.734323
2.31995
-7.21157
-0.560319
-0.0077746
0.568093
0.76222
-0.176282
0.00127442
2.64617
-1.93728
2.14336
1.8321
-1.01712
-3.22252
1.06538
-2.38997
2.00602
0.383958
1.97089
-3.75656
-1.79684
-1.1184
2.91524
0.0921884
1.31188
-1.09936
0.990419
3.91046
-0.541999
-3.36846
-0.00499451
-3.51006
3.0856
1.73252
1.11556
2.12873
-0.618518
-0.0120573
0.592942
-0.959241
-1.23615
0.181459
-0.290721
0.109262
0.142095
-3.39648
3.25438
-0.653228
1.4168
-0.763567
0.448231
-3.19018
2.74195
-0.262531
-1.97189
-0.111426
0.0578241
2.3806
-1.24459
-0.710185
1.95478
-1.18931
-1.54527
1.65455
-0.967485
0.454713
0.385926
-0.84064
-2.47418
1.70198
-2.00163
-0.420036
-0.253487
0.673524
0.348485
0.869983
-1.21847
2.97764
-1.68139
-1.29625
0.207689
-2.03086
0.589027
-4.29614
-2.12
-1.0999
3.2199
-3.38386
0.148736
3.23513
-5.12233
-2.82608
0.114812
-1.16412
1.12723
0.0368946
-4.006
-1.30512
4.23525
1.41361
-0.690523
0.37702
-1.18206
-0.558386
1.73378
0.585979
0.382514
-1.44366
0.0695702
-0.596604
0.527034
-0.553367
0.0597189
-0.410256
0.474146
-0.924848
1.70093
-6.58099
4.40109
2.1799
-3.21628
1.75242
1.89755
0.784604
-0.0353213
-1.01692
0.849839
-1.70956
-0.968268
-1.97058
0.689662
1.28092
-0.0429656
0.62341
-0.580445
-1.42898
1.68129
-0.340692
2.60293
3.68198
-3.14128
2.09543
-3.28473
1.57897
-1.96017
0.381193
0.452418
-0.0213321
-0.0868753
-0.00769566
-3.92281
2.18195
4.25776
0.947054
0.0533064
-0.762388
0.709081
-4.72657
1.85779
1.18982
-1.38037
-0.726493
-0.0640588
-0.823219
0.887278
-2.0309
0.786305
-3.64493
3.25066
3.58306
-2.02613
-0.960136
0.900753
0.0593828
-0.0799421
0.0944989
-0.59046
-3.94945
2.83526
1.1142
-0.570749
0.500732
0.21724
1.06292
-1.28016
0.256397
3.41207
0.25587
-0.0177668
-0.238103
-1.05804
1.08159
0.230094
0.108352
0.924272
-2.86185
3.63082
0.253309
0.593778
-2.9221
3.33102
-0.115018
-3.216
-0.0931274
-1.23546
1.32858
1.91287
-3.64714
-0.436386
2.82539
-2.38901
-0.161729
-0.0381992
0.199928
-2.93398
2.93072
0.00326509
-1.26384
1.94989
-1.50298
4.08872
4.37028
-1.00132
-3.36896
-0.0208247
0.727236
-0.706411
-0.265263
-1.17829
-0.0562133
-1.13199
-0.0463071
0.237967
-1.22852
0.990552
-0.314727
3.33566
-3.02094
-3.18117
1.38129
1.79988
1.02616
3.42147
0.109528
0.226149
-0.335677
1.99167
0.903271
-2.89494
0.0905154
0.0755221
-1.15988
3.37495
-2.21508
-2.85057
0.355932
2.30829
1.0049
-2.80174
-0.00788534
-0.454789
0.462675
3.42901
-0.899263
-2.52975
1.27169
0.84448
-3.8266
1.90276
3.83412
-4.14383
-1.79093
0.313527
1.47741
-0.243559
0.186319
0.391138
-0.577457
0.0655546
-0.0218365
-0.0437182
-0.0366001
0.489168
-0.452568
0.859406
-0.921649
0.0622425
-1.99656
4.2507
-1.09775
1.0725
1.21981
-1.00257
1.2635
-1.95931
0.69581
-3.69767
-1.63728
-0.36865
-0.00660277
0.132773
-0.00991177
-0.122861
1.10184
-0.240034
-0.861809
0.332143
2.25284
-0.895683
-0.491565
-2.07435
0.374336
1.42912
1.35639
-2.78551
-0.0168581
-0.0665123
0.0833704
-0.0385064
1.31245
0.102447
0.193864
-0.296311
3.6727
-1.57033
-2.10237
-3.5431
0.480672
2.24231
-2.47517
0.0314326
2.44374
3.7799
-1.28611
-1.29494
1.17207
-0.107555
0.0206796
-2.11003
3.34201
-1.23198
0.575386
0.100485
1.02231
0.762787
-0.894013
0.826961
-0.407239
0.459619
-2.40881
1.84409
0.564724
2.38313
-1.22139
-1.16174
2.4687
-3.64125
0.911475
0.196194
-0.871267
0.715228
-0.229029
-1.29447
-2.7201
-2.20491
-2.83886
1.32624
-0.323408
0.410812
0.526638
0.235581
-0.153501
-0.00822817
3.04162
-3.09844
0.0568141
1.81
-1.70362
0.796659
0.906966
0.403288
-1.28364
3.313
-3.12644
-0.911194
0.8079
-0.624091
-0.994112
1.6182
-2.81762
0.659663
0.84682
1.06277
-1.90959
0.699559
-0.440387
-1.0975
-2.02434
3.88922
-2.88268
-1.46357
0.820608
-1.8224
1.00179
-0.994308
1.26988
-1.86997
-2.8566
-0.210871
-0.202551
2.6556
-1.4256
0.358492
1.06711
-0.0948847
-1.15767
0.131845
-1.31379
1.18194
-3.05827
-1.60712
-0.617955
0.610181
3.28425