/*--------------------------------*- C++ -*----------------------------------*\
| =========                 |                                                 |
| \\      /  F ield         | OpenFOAM: The Open Source CFD Toolbox           |
|  \\    /   O peration     | Version:  2306                                  |
|   \\  /    A nd           | Website:  www.openfoam.com                      |
|    \\/     M anipulation  |                                                 |
\*---------------------------------------------------------------------------*/
FoamFile
{
    version     2.0;
    format      ascii;
    arch        "LSB;label=32;scalar=64";
    class       volScalarField;
    location    "9.1";
    object      p;
}
// * * * * * * * * * * * * * * * * * * * * * * * * * * * * * * * * * * * * * //

dimensions      [0 2 -2 0 0 0 0];

internalField   nonuniform List<scalar> 
5098
(
0.275538
0.809393
0.119731
0.818626
-3.24806
1.1978
0.494127
-1.14542
0.133138
0.771336
-6.15603
0.229293
-0.783615
1.68505
-0.832336
-0.042212
-5.89931
-5.25277
-1.79149
-5.66707
1.53563
-0.0410802
-1.33493
2.65238
-3.2866
1.11274
1.21965
-0.211241
-1.78764
-2.22547
0.153509
1.96827
1.09346
-5.1272
0.23298
-1.29395
0.357423
0.907792
1.56914
-0.980768
0.749788
-4.63215
1.05909
0.290095
0.450603
0.874602
-5.38587
2.05474
0.116343
0.893109
0.622269
1.75702
-2.80261
0.69646
1.21253
1.69049
1.41367
0.612658
1.9804
-0.306728
0.0694906
-4.8
0.235718
-0.565387
-2.80886
1.72715
-0.0209366
0.566883
0.184421
0.444042
1.39935
-0.0208592
-0.586783
-0.280872
-0.123651
0.882378
-0.0902368
1.8126
0.455205
1.63484
-0.353541
-1.38674
1.0361
-5.35254
-5.5353
-2.43333
3.10909
-0.105791
-1.07749
0.0548863
-0.0924275
-2.47876
0.233159
0.826334
1.57451
0.450979
0.381263
1.92063
-0.0989481
-0.216697
-10.309
1.10498
-5.29176
-0.0961437
1.7756
0.435424
1.34819
0.519785
2.10995
-5.93574
0.609247
-1.60235
0.883437
-2.85376
1.48746
-1.83178
-2.06346
-0.150067
-0.189864
2.5977
1.7039
1.13652
0.668364
-3.0629
-2.5256
-5.45308
0.604065
-1.19552
1.81056
-2.82965
-3.49322
1.87086
1.82273
0.0149785
-8.30138
-2.53217
0.0842547
1.31801
1.56818
0.660115
1.81505
-7.22325
-0.406055
0.127575
0.880475
-0.0941103
0.264627
-3.35835
-0.748739
-0.942947
-5.80651
-2.63387
-4.05871
1.11234
3.1065
2.44391
0.625478
-9.71435
0.755184
-1.84078
0.184354
-0.956348
-2.53032
0.956244
-4.22135
0.239004
-3.7481
-1.6689
-3.23867
0.674881
0.367336
0.908226
0.827785
-0.174538
0.228907
0.95168
0.990404
-1.22278
1.12249
3.03428
-0.749702
-1.97359
0.502505
-4.0029
0.915538
-0.00575614
1.87528
0.330067
0.835387
-3.0751
-1.70478
0.248413
-0.698303
-0.136616
0.213559
-2.65311
-0.505849
-2.49195
-0.00112168
0.604875
-3.01255
1.69014
0.466847
0.801513
0.686057
2.43405
-0.264979
1.61956
0.271946
-0.743578
0.763383
1.6416
-0.00804338
0.83759
-0.890029
-1.7467
-0.160565
-5.98508
-2.43229
0.981021
-0.0912199
1.2447
-0.0634528
-0.171018
-2.79003
0.600635
2.88595
1.23782
-0.0740492
-3.70177
1.55508
2.65404
-0.672734
-0.0104136
0.211752
0.214811
1.63035
-2.65669
-1.34678
1.19865
-1.43839
0.804952
0.0128783
2.21926
1.44833
0.192539
1.6082
-5.90136
-5.93175
0.185775
0.907372
-0.326802
-1.82898
-2.76965
1.13328
-2.68731
-8.19619
1.01191
1.99037
-0.126895
-0.0324541
-2.81156
-3.13233
-0.557825
-0.0397462
-4.55799
-1.84108
-6.45357
0.643418
1.22973
-3.05176
0.412889
-1.82657
0.658754
1.93153
-4.24353
-5.18344
-6.0336
-1.81652
0.790662
-3.4
-0.96962
-2.81138
-1.02239
-6.16742
-7.61565
1.1545
-0.101911
0.234967
0.232898
-3.09898
-2.61298
2.30166
0.48236
-0.267657
0.906688
0.133574
0.192598
1.21231
1.07672
-0.114757
-0.258082
1.14032
1.42114
-4.53202
0.108254
-0.23718
0.965279
0.560956
-5.47608
-0.0504994
-1.94639
1.13662
-0.262902
-0.94295
3.05795
0.0926178
-0.0696229
0.263551
2.33372
0.430346
-2.49675
-1.1863
-1.97423
-0.0959508
1.63169
0.964035
1.22514
2.06313
-0.174651
0.384271
0.254226
1.57387
-2.10525
0.365222
0.583817
-0.398559
0.923346
0.449697
0.599614
-0.490704
0.498099
0.413904
1.24205
-1.74515
-0.0880568
0.586842
-1.89065
-0.166555
0.222882
-2.98327
2.59178
2.28925
-3.12029
-0.291499
-3.30339
-2.97768
0.23232
1.78147
-0.105721
1.25284
0.055597
0.294488
-0.110879
0.249277
1.97813
1.24913
1.09766
-2.11923
-2.73225
1.83242
0.328825
-1.50308
0.00457909
-0.0797849
-4.81897
0.532867
0.331788
-1.42725
-0.120884
0.741625
-5.63423
1.20514
-0.305026
0.152488
-0.781781
0.316313
-2.67757
0.795158
-6.61955
1.22398
0.350858
1.24515
0.631841
1.52782
-0.720753
0.941668
-2.24643
0.794062
-1.13124
-2.76837
2.339
1.80652
1.23553
-1.82388
0.766273
0.587075
-4.22304
0.168713
-0.917254
1.23269
-2.23857
-2.78144
0.538551
-0.352851
-0.909048
1.39738
2.601
-0.547366
0.034311
0.674959
1.45271
0.293868
0.995975
-3.44785
-2.50613
0.000910785
-2.64018
0.295791
-0.178367
-0.0436095
-1.81801
-0.00634863
0.138052
-0.596278
-1.95831
0.0226769
-1.24673
1.17694
-0.450315
1.124
0.505157
1.13766
-6.1538
1.70592
-0.338912
-1.79179
-0.775228
-1.74758
0.587855
-5.73193
0.214167
1.23993
-6.39571
-6.01093
0.167968
-4.52873
-0.422252
0.214474
-1.2204
1.00901
-0.223768
2.51602
-0.596555
0.830305
-5.55525
-2.87681
-3.79588
-4.59066
0.687512
-1.73003
-2.24841
-3.20573
-1.32191
1.2146
-1.34247
-1.7858
1.30977
-1.36467
1.03689
1.47225
0.266143
-2.62085
-0.718669
0.338737
0.252875
0.749686
-1.01737
1.04307
0.775673
-1.47922
-3.32064
0.319737
-0.458709
-2.22005
-0.0100805
1.36906
-2.03773
1.21566
1.15455
-5.1728
-1.34931
-1.83907
-5.93595
-1.83504
-2.5368
1.14564
1.04265
-0.917049
0.1569
-2.44483
1.2339
1.8058
0.252947
0.94133
0.554266
2.33828
-2.80899
-0.844518
2.10847
-4.18009
-2.64408
2.27943
-0.147632
-1.98841
-0.00512514
-1.46387
-2.37443
-0.220997
-2.09357
0.323718
2.84782
-4.48043
0.508736
-9.12362
0.433376
1.06677
-0.415845
-2.78386
-6.14232
1.23236
-3.65551
-2.80306
1.15731
-6.15877
-4.72156
0.240806
-8.01596
2.97457
-1.75395
-0.443938
0.470646
0.0413886
-1.96837
-0.754018
-6.18549
-3.82186
1.19316
-5.82818
-1.13277
-6.12362
-2.1817
0.896434
-2.77565
-3.84002
-3.47005
-1.99617
-0.153042
-3.29166
-2.06893
-1.6922
-2.56962
-2.38588
1.4739
1.76389
3.05683
-3.19252
1.1085
2.07913
-10.2216
0.588878
-6.59905
0.96228
-6.13548
0.677753
-0.437339
-0.128951
1.25717
1.22613
-2.80529
-2.50471
2.44026
-0.519744
-4.79725
0.351975
0.921186
-1.29397
1.09352
-1.35107
-1.13146
-0.246956
2.25739
-2.07915
-3.55392
1.88627
-7.15491
1.64996
-3.55615
-2.81906
-2.91222
-7.52307
-2.80516
-2.20342
1.75306
-1.33022
-1.08122
1.83957
-0.858075
0.625803
0.538634
2.3403
-1.86654
1.35869
0.772376
-0.133523
-0.288085
-2.86825
-0.82787
-3.27225
0.0145022
-4.28142
-0.205535
1.89096
-3.0953
-0.0758741
0.767815
2.52733
-2.79681
2.01075
3.00451
-1.13334
0.248446
-0.891299
1.24565
2.00599
1.63432
-1.69751
-0.137448
-0.159867
-4.21666
0.281259
0.229418
0.731028
-7.87614
0.0117827
-1.25099
-5.56802
-0.882412
-0.266353
-0.0192465
0.767951
0.629815
-6.32542
2.01552
0.997421
1.77626
0.624043
-4.40511
-0.655318
-0.313727
1.93917
2.50438
-1.85331
1.48304
-4.4521
-3.13352
-3.3842
0.783148
-1.7729
-1.83222
-4.49947
-5.93527
-0.461265
0.0849302
-1.1802
0.14292
1.18464
-1.81729
1.12441
-0.0509015
1.15394
-2.79765
-8.79331
0.0143826
2.12013
-2.88112
-6.62981
-0.458228
-1.87018
0.638747
-3.14539
-1.51902
1.78344
-4.65017
-5.47678
-2.07962
-7.31562
-1.79779
0.857223
0.39137
2.65295
2.08678
1.72661
-3.78491
-2.70042
-1.73928
-1.84006
0.652655
-2.64809
-2.37152
-2.96013
-4.43434
1.42465
-2.70554
0.560407
-3.32492
1.66848
1.22141
-3.55989
0.653044
-1.97248
2.70278
-0.198468
-0.267667
-1.05429
-4.88838
-8.82342
-5.04925
-2.41311
1.69263
-1.80143
-0.941935
-2.63913
-2.91955
-0.908026
-4.71634
-0.62578
-0.300247
-0.0596936
0.727621
-4.28228
0.936338
1.77055
-2.95036
-0.982261
-3.61402
0.799461
-1.83787
0.691723
-1.036
-4.29265
0.0418098
-2.67868
-4.01537
-3.26447
-8.77851
0.986053
0.186686
-1.68128
-1.49926
-1.23637
1.22291
0.502538
-2.51327
-4.00392
2.80997
-0.664394
1.64311
-2.84894
1.00319
-2.76911
-4.56688
0.291005
-2.84352
-5.94376
1.89047
1.81921
-5.09195
0.16161
-4.78268
1.42829
-2.04198
-2.78387
-2.80272
-3.02498
-1.86483
-0.111653
0.233175
1.18225
-0.17188
0.360316
-3.19831
-0.495155
-5.32181
-2.55873
1.16732
-1.47666
1.94516
-0.785365
1.60788
0.966912
0.712834
-5.65637
0.399396
-0.561149
-0.34974
1.05276
0.739919
-0.335826
-2.24734
-2.79633
-10.5505
-5.15852
1.0712
-0.0543182
0.821254
-2.74321
-2.89127
2.99947
-4.9416
0.769518
-0.0266045
1.76903
-2.22122
1.58264
-5.91436
-4.48823
2.08419
-5.30074
-1.83175
1.03067
2.20976
0.706034
0.0462055
-0.823924
-0.685786
-3.43977
-1.45967
-2.64898
0.630821
-3.66983
-1.96858
-2.81595
-0.702743
-0.00726797
-1.78481
-0.774469
-2.62903
1.12248
0.602469
0.23227
-9.71191
-2.27207
1.83789
-2.79397
-1.02261
-2.69857
0.18397
-2.72337
-2.76134
-2.80949
-0.454305
-0.226462
1.29556
-2.7889
-8.0536
-1.99488
0.0662738
0.0387355
-2.89883
0.307076
-2.80488
1.24438
-8.31418
2.43776
2.04181
-0.277097
1.25756
1.30857
1.41225
2.50373
0.93897
-3.6783
-10.1405
-3.26393
-10.7588
-0.0486983
-3.15816
1.26346
-2.17201
1.42583
1.57379
0.0822607
0.0413724
-4.88701
-0.486662
-1.22006
-0.259166
1.89613
0.711276
0.305805
0.441919
-2.83714
-10.8046
-7.59922
-2.05575
-1.08368
0.272387
0.534569
-6.57104
-2.32691
2.03989
0.531048
1.69772
1.67898
0.782653
-0.39002
-0.534043
-0.724905
-2.87612
0.862072
-0.068141
-0.420679
1.27169
2.21463
-4.47044
-0.446815
0.561581
1.52482
-6.0958
-0.496112
-2.05902
2.63709
1.16254
-2.33943
0.0131453
0.0502243
-5.37022
1.28799
1.29301
0.239042
0.911864
-1.89578
-6.34374
0.315431
0.66847
1.86376
0.042649
1.65601
-2.88932
-6.3633
-2.75439
1.27156
1.66648
-1.67322
-0.8056
2.61637
0.810032
0.0285599
0.266573
2.43594
0.78006
0.471486
0.514324
1.11479
-0.505442
-0.685449
1.41938
2.89796
0.272503
-9.28194
-1.80618
-0.820709
-3.2386
1.61997
1.12204
-1.31476
-0.0745781
0.865969
-0.117865
0.40745
0.050145
1.47548
1.47807
-1.89096
2.39444
0.794885
-1.54335
0.00622113
0.00611679
-0.0562114
0.262777
0.777803
1.05388
0.792946
0.376855
-7.13466
-8.50829
0.890865
0.358762
1.78238
-2.28211
0.80385
0.83597
-0.161855
0.978397
1.49355
-0.0142731
0.0199932
0.090878
1.32333
-1.67552
-0.793832
-0.814207
1.57269
0.323119
1.11208
2.28019
-3.4325
2.17849
2.57407
-0.896679
-1.1522
-4.05998
2.91895
-1.75954
1.11255
2.39717
0.947362
-2.81565
1.14565
0.258514
2.63735
-0.640684
0.395424
2.74496
2.03311
0.0612758
2.68525
1.7817
0.158253
-5.02015
-3.60278
0.00342143
0.0157991
0.706812
1.70489
-1.91069
-0.245329
1.22286
-0.179615
2.22145
-0.970214
2.54721
-1.88088
-3.75443
-0.394717
-0.986972
1.76111
-0.0528762
0.320385
-4.5586
1.72785
0.303918
1.33939
1.05525
-5.85064
0.330346
-0.227638
-1.34072
-0.219185
1.9592
0.565204
-0.0547134
-0.255632
-0.401543
-4.1071
1.67589
0.162171
1.09051
-0.423504
-2.80084
-4.90006
0.340699
-0.0631951
2.28895
-0.461993
0.359678
-4.68612
-9.01298
1.5326
2.34993
-3.64049
1.44021
0.990292
-4.35565
0.636457
-1.20542
2.86563
-1.33502
-1.07938
1.06712
-8.28228
1.91045
-2.89154
-3.09242
-0.0518138
-2.40365
-2.78133
-2.61738
0.601605
-0.244913
-2.80399
0.0017295
0.636209
-0.998284
1.31956
2.01752
1.25931
1.34233
-6.21293
-6.14813
0.124872
0.456721
-1.99616
0.0060602
-0.0621601
-3.65758e-05
0.639459
1.58732
0.893141
0.980814
1.16841
-1.03124
-0.478323
-2.05931
0.159998
-1.59433
2.62709
1.23512
0.936226
-6.048
-0.72397
0.546613
-0.192547
-5.27592
-1.78994
-0.646316
-0.961322
0.632947
-2.11928
-0.18212
0.686172
-2.80385
0.32681
1.98882
-0.998639
-1.03085
-0.269139
1.37027
-6.78243
0.288505
-10.7657
-0.00298302
-5.74589
-5.86489
0.957216
-3.35176
-0.760287
-0.602165
-3.95551
-6.37612
-2.49358
1.32054
0.228317
-4.60394
1.92077
-2.87352
1.10925
0.195151
-1.84195
-0.582926
-1.8294
-3.02599
0.155285
1.23311
0.946019
0.385797
-2.82571
1.69198
-5.83624
-1.10035
0.00647168
-3.16714
-0.168458
0.0280906
1.52932
-2.90911
-1.84776
-9.65783
1.1607
1.29406
-4.50294
0.333482
-0.0420435
-0.167784
0.199161
0.263523
-0.175811
-3.69737
-4.5588
2.11844
0.255035
-0.0488659
-0.425487
0.00199177
1.28963
-3.98075
-0.68301
-7.69066
1.17978
-0.133864
-0.0241723
0.240458
-5.88424e-05
0.566632
0.348202
1.0147
-0.28474
-2.15196
0.272841
1.45251
-0.120909
1.0002
1.00601
1.38123
1.24759
0.739333
1.00038
2.41879
0.375965
-1.01871
-0.554505
-3.36631
0.264066
-0.589069
0.920504
0.40119
2.36001
-0.0449705
0.223141
-7.49253
0.0128117
-6.06774
-0.393736
-2.98598
0.509767
-7.38744
0.649767
1.0663
1.3121
-3.04186
1.44864
-2.86643
0.735499
1.32207
0.854997
-5.66482
-1.52109
-5.18392
0.648148
-5.01262
-1.86199
0.897466
-0.671813
-0.0623879
1.01829
1.77428
-0.743746
1.96055
-0.277908
-2.65448
-1.55669
-0.781203
-0.0783717
-0.55558
-2.57202
2.15842
-0.00180036
0.911035
-2.41462
-6.99481
1.66623
1.56691
0.00500735
-0.143771
1.32329
-2.32062
-0.169334
1.20907
-0.569826
-0.636381
-0.980438
-0.523698
2.22317
-2.80178
1.18898
-0.156582
-0.203847
2.65938
0.529235
0.035215
1.32276
-10.5918
0.958537
1.12622
0.389817
1.23818
-0.0328814
1.16962
1.34277
-0.165073
1.43636
-3.41038
-1.67298
0.00287668
-1.91402
1.99745
-2.80412
-2.26898
0.431025
-0.268657
-0.762068
-2.90914
0.641458
0.151327
0.992783
0.842413
-0.589806
-3.10657
0.103771
-9.00722
1.47426
-1.34236
-2.79456
-1.53387
-6.82733
1.17751
-2.82531
-2.89572
1.28176
-2.85527
0.848941
1.22535
-2.75161
-2.97702
1.20236
2.02498
-2.16978
1.20904
-2.53869
-1.06686
-3.44101
0.279424
-0.861356
-3.01957
2.51344
-1.74353
-2.55866
-0.00784515
-0.833073
1.38021
-0.572419
-1.98636
-2.96709
-4.16317
-9.65436
-2.77091
-0.811217
1.75918
0.154244
-5.32735
-0.000917136
-2.80161
2.24082
2.55601
-2.77919
-0.50873
0.221438
-2.86573
0.209878
2.18595
-1.46435
-2.57231
1.19274
1.20671
1.17104
-0.910648
-0.359221
0.00050845
-1.11467
-0.84954
-0.825795
1.10166
-0.592354
0.310838
0.0234295
1.23908
1.05494
-0.435595
1.02299
1.19023
1.18226
-0.0694792
2.23859
-0.882021
2.05775
-0.125743
1.93158
2.84765
-0.179576
0.0915133
0.746258
1.2659
-1.73973
0.964662
-0.249087
-0.261684
0.340472
1.43784
0.456908
0.550127
1.19034
-0.915605
-3.40343
2.68639
-2.80606
0.645488
-4.29983
-0.503507
-2.75974
1.13001
0.582611
1.05781
0.728447
-0.917676
-0.339293
0.866558
-0.0970802
-0.986913
-2.71562
0.518081
-3.32808
0.266848
1.07342
2.5211
1.23522
1.11965
0.983587
0.42653
2.32156
1.10389
1.23706
0.645138
-6.30649
-1.56961
0.154788
-0.649646
2.7237
-2.60526
0.195362
0.000629385
-0.739054
2.49829
1.06368
0.0687599
-4.88937
-0.429861
-0.900886
-0.165625
1.26057
1.65228
-0.232386
1.56511
0.159853
2.23849
-2.21047
-0.226054
0.738855
0.440811
0.479498
1.70885
0.694923
-0.0183619
1.16479
-0.026861
-8.88579
1.40546
1.78403
-0.516138
-3.21308
-2.79555
-1.91425
-0.74511
-2.91537
0.0109353
1.22966
-0.104723
-0.772619
0.452179
-1.86197
-0.754279
-0.230396
-2.3742
-4.28565
0.201712
-2.80458
-2.8596
0.829609
1.24228
1.11008
-5.42606
0.917799
-1.32712
1.30565
2.16455
-3.02312
-0.00846116
-0.150581
1.92302
0.413401
-6.2906
-0.613833
-1.93688
-0.168757
0.104157
2.28035
-0.151289
0.000546795
0.939486
-0.521424
0.00148976
1.11054
0.214941
-0.473353
-1.92337
-2.99434
1.01992
-2.72995
-0.166983
-1.31827
-3.10251
1.22818
1.14406
2.4949
0.200378
2.41711
0.110515
1.58368
-4.40426
-1.83836
-8.64296
1.62662
0.763368
0.228719
0.373204
-2.69921
-7.1067
0.00472759
-0.327711
-0.139514
-0.441527
-0.237469
0.110285
1.11162
1.35946
-2.17905
0.055802
0.1055
-0.38047
-0.279969
1.15257
-0.385935
1.0294
-0.850226
-0.123341
1.32214
-2.50639
-0.554267
-0.000597838
-0.258873
-2.14572
1.20847
-1.72901
-0.119716
-0.170349
-3.19285
-1.66666
-0.189015
1.86209
1.60025
0.00159518
-1.69555
-7.74401
1.06439
-0.0421098
-0.518484
-0.00356249
0.239266
0.0895227
-0.132852
-1.62102
0.00189714
0.922881
-0.285134
0.26361
-2.99074
-1.97064
0.987932
0.884209
0.0362248
0.238407
0.881613
0.708753
-0.550258
-0.66519
-0.215937
-6.5944
-0.121124
0.964528
-3.01906
-0.0116641
0.0668693
-0.0130617
-0.352141
0.0908433
-0.149326
-0.0831249
1.43922
1.12402
-1.89903
-0.124474
-3.17368
-5.78015
0.667846
-0.175228
1.76228
-1.5163
1.19767
0.88108
-0.935744
-1.82957
-9.92874
-1.81446
-6.8671
1.16495
-0.177077
-0.111379
-2.80331
0.890254
-0.491164
1.38957
-0.0142263
0.0204508
1.61326
-0.0119757
-0.034313
-1.42669
1.34466
0.0721473
1.27368
1.13743
-9.24311
-0.127834
1.30186
-2.10873
1.26091
-4.55716
1.16408
-3.72421
-0.115742
0.0193153
1.02855
1.06391
-1.08623
1.2242
0.909579
-0.185908
1.5708
0.874607
-3.50372
1.237
-0.135144
-0.0159346
-1.59166
-4.27988
-0.130852
-2.85522
0.00136298
1.22104
1.26153
-0.202503
-0.371116
0.944541
-0.0620236
1.23252
-5.94551
0.0006204
-0.605746
-2.85282
-0.603745
-7.6076
-0.186274
-3.28464
-0.131828
-1.91188
0.353268
-0.192436
-5.21824
-0.203797
0.247846
1.82311
-2.75838
-0.00124889
-0.811157
0.399967
-0.322246
-3.86888
-1.41174
0.866897
-0.257658
0.64808
1.29947
0.00251998
-0.132671
-0.705344
-0.136499
-0.132749
-1.72371
1.22656
-0.723545
-0.00215253
-1.65483
-5.25878
-0.0409139
-0.139256
-1.16756
-4.81154
0.092357
0.109563
-0.121348
-0.165345
-0.00242127
0.00473264
-5.21312
-1.53608
-6.21286
0.85012
-0.947967
-0.12091
0.942687
0.979341
-0.132685
0.00195699
0.966462
0.500445
0.00182476
-5.75045
-0.0165194
0.700172
0.27717
-4.1852
0.000317499
0.857504
0.0471487
1.12007
1.05991
-0.13585
0.544575
1.15331
-0.359158
-4.29299
-0.132364
-1.04052
1.06709
1.23376
0.00457949
-0.0718764
-0.13763
-0.163124
-0.153403
-0.124254
-4.64574
0.000880992
1.23715
0.110983
-0.15537
1.23674
-0.142963
2.17049
-0.135697
0.115091
0.0690194
-0.159732
1.28777
-0.127509
-0.164833
-11.1022
-0.116916
1.14384
0.869219
-0.134735
1.24999
-0.154241
-0.0898255
1.1207
-1.47093
1.05023
-0.187679
0.0644915
-0.610631
0.365737
-0.996345
-6.84837
-0.437237
1.05071
0.840166
0.00782946
0.97887
-0.00281314
-0.275948
-0.206181
0.482874
-0.845991
-7.15354
-0.169887
-0.000730609
-0.316202
-0.158787
-0.478498
-3.26337
1.93714
-6.33328
-2.80288
1.90693
0.00708648
-0.267366
-0.138121
-0.464678
-0.000519717
-0.395264
-0.155106
-1.86143
-10.9434
0.66645
1.23406
-0.205293
-0.19553
0.190143
-0.000718981
-0.0244776
-0.127281
-0.142568
-0.230577
1.21015
-4.3048
-6.64578
0.926117
-0.190248
-1.8872
-0.103741
-5.69438
-0.0555936
0.326652
-1.90577
1.31319
-0.234127
-0.253954
-2.78902
-0.181796
-0.315288
-0.147382
-3.85828
-6.64114
1.87657
-5.04844
-0.748975
0.000485725
-1.10159
-0.05465
-0.148717
-2.9273
0.00119956
-0.124692
-0.288123
-0.16549
-0.127442
1.57948
0.29229
-0.0212035
-0.109365
-0.123719
-3.73916
-0.179876
-1.63195
-0.126698
-0.290549
1.37208
0.125212
1.24087
-0.0241892
0.0506038
-0.0618458
0.000757628
0.000493272
-1.82307
-5.07097
-0.257882
0.248119
0.132521
0.890127
-0.0667772
-0.0934011
-0.044807
1.16965
-0.130545
0.202056
0.223087
0.00433184
-0.143993
-2.57002
-0.120918
-0.0022224
-0.251122
1.24235
0.00194984
-0.265489
-0.0519172
0.582111
-0.192369
-1.06828
0.00295562
-0.0554954
-2.80884
-0.154488
-0.124297
-0.387787
-0.0257946
1.18874
-0.0628729
-1.46534
-0.128528
-0.140418
0.300533
-0.137194
-0.132633
-3.20995
-2.848
-0.115683
1.45643
1.4075
-0.007692
-0.138591
-1.44209
-0.00475516
0.26619
-3.06219
-0.0450602
1.25879
0.456247
-0.0110589
-0.039051
-2.67362
1.17965
-0.088366
-0.0154024
-0.0271724
-2.74173
0.0577009
-0.13521
-2.92254
0.936776
0.310603
-0.681369
0.292686
-0.0208119
1.24204
-0.0337486
0.0014338
-0.0518434
-0.0268642
-7.01208
-0.155594
-0.15852
-0.00883833
-0.138878
-0.00452844
0.117689
-0.0181538
-0.0562384
-0.390096
-0.223643
-0.0791618
-0.00125514
2.57203
-0.108986
0.0207948
-0.00763761
-0.0753652
-0.55417
-0.0976913
0.00610518
0.31599
-0.102207
-0.110801
-0.0615687
-0.0254667
1.25583
-0.0119863
-0.104682
0.0213533
0.00491071
0.00204927
0.0322128
-0.114497
0.669116
-0.151262
-1.16202
0.489177
-0.0605354
-0.0856339
-0.0632159
0.00922645
-2.93012
-4.53699
0.163499
-0.119109
-0.0338407
-0.000365865
-2.12502
1.19351
0.866258
-0.0511517
-0.348058
-0.158398
-0.0641238
1.24836
-0.0136847
-0.218413
1.41269
-0.100847
1.37178
-0.0997286
-0.166106
-0.0405772
-0.0264356
-0.0152671
1.52202
-0.132863
0.00176025
-0.527517
-0.658716
0.437805
1.33758
-0.00450417
-0.468335
-0.227479
-0.00687985
0.00138513
0.161294
-2.70889
0.00173477
-0.0634856
-0.108468
-0.121441
-0.115389
-0.132212
-0.655724
0.00152875
-0.0180816
-0.246402
1.33132
-1.36474
-0.0265968
-0.129986
1.20633
1.46533
-0.00613041
-0.00170313
-3.2362
-3.41044
-0.00118897
-0.0854401
-0.0200893
-0.109809
-0.000254117
-3.16462
-0.00509527
0.00402003
-0.059465
1.8842
-0.0281854
-0.125329
-0.245197
-5.79611
-0.0235483
0.851354
0.0203274
1.04648
0.00424101
-2.81796
-0.0198164
-0.144638
-0.329626
-0.357477
-0.221726
-0.00828285
-0.0191756
-0.130216
-0.016421
-0.0295582
-0.0985277
-0.00878076
-0.0208654
-0.107586
1.23912
-0.0337207
-0.579909
1.11981
-0.0447937
-0.0943946
-1.22173
0.862498
-0.120885
-10.8887
-0.0432916
-0.035022
-2.17241
0.0562921
-0.0752159
-0.00312255
-0.0693302
-0.0808562
-4.06238
-0.0100187
-2.75178
-0.178438
-0.0600195
-2.61282
-2.72871
-0.00749714
-0.0280001
-0.0713401
0.165974
-0.0718652
-0.0773384
0.699658
-0.0056889
-0.0113837
-0.0227047
-7.62385
-0.0348009
0.00522128
-0.0675561
-0.129105
-0.179459
-0.156701
-0.0132653
-5.59744
1.88513
-0.0576715
-0.039832
-0.0363192
-6.10951
1.27242
-0.138717
0.0915108
0.00131948
1.34142
-0.034276
0.218046
-0.0720965
0.00107172
-0.0133492
-0.06392
-1.82212
-0.397522
0.235294
-0.239892
-0.0330699
-0.016586
-0.144044
0.561548
-0.291413
-0.0109325
-0.0254472
-0.136567
1.45897
-0.151357
-0.016232
-0.00603019
-0.114293
-0.0599895
-0.0198967
1.31821
0.531585
2.1368
-5.47736e-05
-5.1812
-0.342762
2.65446
-0.837091
-0.0871454
-0.0305712
-0.09854
-0.85348
1.28347
-0.330036
-0.277672
-0.0751455
-2.76906
-0.120812
-0.0977629
-0.0335919
3.00733
1.09889
1.72023
-0.207824
1.21378
-0.0250039
-7.83932
-2.82468
1.02492
-2.88924
-2.86057
-0.0141327
-0.632015
-0.216458
-0.0886144
-1.76042
-0.268751
-0.993699
0.853855
-8.06901
-0.0982862
1.07945
-0.133807
-1.92062
-0.0316234
-0.0310741
-0.0748667
1.52186
-0.0808591
-5.83146
-0.0389394
-1.91481
7.842e-05
-0.498101
-0.531436
1.90208
-2.93789
-0.336497
-0.595727
-0.0186616
-0.046922
1.12411
1.30305
-0.114885
-0.359315
-2.95741
-0.468775
-1.35938
2.4287
1.00472
0.178371
-0.116118
-0.467646
-0.093907
0.78687
-0.073027
-0.694292
-0.0683634
0.964579
1.23585
0.419115
-2.7151
0.275233
-0.531541
-0.01245
-2.64454
-0.0942821
-0.593642
0.945261
-0.0346176
-3.05373
-0.0544208
1.81866
-1.48806
-0.334293
-0.203095
-0.968778
0.0435323
-1.91238
2.34306
-0.0884985
-6.36792
-3.04187
-0.646198
-0.0648014
0.758372
-0.559814
-0.108696
-1.01654
-2.77357
1.346
-0.114276
0.0204704
-0.780026
-1.15164
-0.133871
-2.82477
-0.060902
-4.74458
2.54618
-0.072786
-2.93785
2.15942
-0.000780643
-0.0789061
-0.138386
-0.00266493
1.53773
-2.94799
1.23533
1.19156
-0.0704488
-0.328503
1.17017
1.05973
-0.0746472
-0.469678
-3.59396
-7.64868
1.21475
-0.138609
-1.53608
-2.89428
-0.222605
-2.88772
-0.131031
-0.134375
1.30789
-0.191576
-0.211185
-3.40345
-0.0487497
-0.0374653
-0.0408682
-2.84688
-8.5618
0.013117
-0.178056
0.0817644
-0.830233
-0.104776
2.39908
-0.0916162
-2.77339
0.207502
-0.0234773
0.286313
-0.148583
1.19588
-0.0925953
0.721321
-2.57288
-0.114483
1.50044
-3.50966
-6.66675
1.56706
0.917392
-0.138784
-0.143771
1.20396
0.4058
-0.0506221
0.514178
2.28667
-0.959141
0.598512
-0.577918
-0.104857
1.68728
-2.39075
0.0155066
-0.0913641
1.29689
-0.301868
0.666121
0.519254
0.806217
-4.71654
-0.112525
0.145157
-0.0607894
-0.024601
-8.37704
-4.42929
-0.0955946
-0.0539199
-5.23234
-0.101226
-0.488759
-2.2569
0.931549
1.1961
1.05226
-0.0727525
-0.743241
-0.311946
0.773052
-0.058674
-0.116647
2.28362
-0.0483636
-0.0567461
0.0718336
-2.88882
1.37863
-0.0631445
-0.696961
-2.82921
0.0394051
0.848586
-1.52354
-2.97047
-0.498162
-0.0358005
0.0136205
1.15062
-3.90256
-7.06919
0.0818271
0.361925
-0.169881
0.00122809
-0.104782
-0.00407754
-0.298223
0.79944
-0.072719
2.81448
1.6885
-0.15789
-0.0941271
-3.46508
1.98258
-0.108921
0.328089
2.70381
-0.030672
0.0725747
0.873525
2.37971
0.198272
-2.5385
1.14496
-2.33217
-0.000463844
-0.394639
0.0943353
-3.36997
2.22692
0.100294
-0.0182351
0.0105691
-2.99834
0.0890743
2.57105
-0.0184615
-0.0643189
-0.125269
1.17014
-0.311461
0.291992
0.921383
0.472859
-0.122273
-0.233084
-8.34181
0.0708903
0.241659
-0.121208
-0.0977622
2.10718
-0.0567916
-0.107034
1.29478
-0.00598387
-0.00705585
0.036597
0.0789289
1.01255
-0.0233047
0.235228
-1.21436
-0.0438976
-0.235684
-7.32184
-0.149809
0.0497064
-0.0357395
-0.0377198
-0.363177
-0.0562943
-0.0694636
-0.00220925
0.186043
-0.159312
-0.439221
-2.59343
-0.0678613
-1.10829
0.359587
-0.00587313
0.253476
-0.257705
-3.25382
-0.0387457
1.26925
-0.501726
-0.165177
0.0480102
-0.408789
1.48333
-0.0375445
-1.97083
0.18538
2.94739
2.47769
-0.0846362
0.286507
-1.78507
-0.00320023
1.26304
1.23175
0.775588
-0.00703843
-0.0125562
0.0297008
1.94495
0.102599
0.470916
0.25382
-5.6247
0.150404
0.0427207
1.30429
1.71909
-0.153934
-8.33473
-0.142634
1.23642
1.60279
0.0301637
-0.0175774
-0.336451
2.45619
-0.00662974
-0.112835
-0.0604669
0.0595513
-0.0179984
-0.0165279
1.22868
-0.00847367
-0.00703742
-0.0229306
-1.74767
-0.0935501
0.0022674
1.62578
1.00639
0.921879
-0.00627875
-8.53071
2.73419
-0.0700793
0.0428322
1.0011
-0.548264
0.38411
1.25803
1.0786
0.00257041
-5.65978
-1.61166
1.22154
-0.715891
-0.00178309
-0.131955
0.971581
0.592905
-0.0171906
-0.0673655
0.744719
-0.349253
-0.00283553
0.0485921
-0.00158089
-0.566601
-0.303665
1.20265
2.1251
-4.25703
1.83301
-0.137595
-0.920772
-0.0144847
-3.87534
0.213002
-6.29631
0.212568
0.136215
-0.0076693
-0.0526393
0.271567
2.85809
-0.000519375
1.37772
1.15009
-0.198802
-0.0442821
0.289886
-0.417774
-0.557535
-5.47337
-0.094235
-0.10975
-0.0339551
-0.425978
1.5669
0.524691
0.261964
0.169836
-1.78496
0.0578338
-0.32735
0.221602
0.280696
0.0858873
-1.43457
1.37987
0.921814
-0.928476
-0.308569
-0.00666875
0.967715
1.25525
1.34733
-1.90375
-8.24903
-1.75891
-0.00852797
1.22463
-1.35742
1.38098
-0.00720547
0.00338187
-4.75532
-1.82903
1.25146
-0.511534
1.28803
0.693762
0.110279
0.0604892
-1.06306
-6.93671
-0.437407
-1.24758
1.18409
0.181289
1.40823
1.39069
-0.0935743
1.37261
0.0750155
-0.00457633
0.893035
1.306
-1.6978
0.0808801
1.17627
0.932496
0.193466
1.21665
0.557797
1.11625
-0.131599
-0.243774
0.0412022
-2.84167
0.696225
0.585154
0.578768
-3.77059
1.3923
-0.00132888
-0.987012
-0.0674729
1.28006
0.348224
0.980048
-0.0453552
-2.82884
-0.662272
-0.0703356
-1.98908
1.05432
1.07288
-3.47112
-0.726576
0.184858
-0.0969896
-0.918611
1.26034
1.81579
-0.158374
0.229411
0.478748
0.217989
0.238745
-0.00953199
0.725625
-6.14532
-0.0566892
-1.4381
-1.47608
-0.274924
1.46341
0.842753
-0.264904
-0.0547104
-0.0734001
1.22979
1.2328
0.679075
-1.97484
1.48718
1.21198
1.26086
0.144332
0.0343775
0.164631
0.28857
0.6884
-6.34571
1.27586
-0.396625
0.248269
1.33176
-0.66685
-7.24901
1.89553
2.06815
0.130038
0.0736722
0.821609
1.10506
0.0536809
0.0720236
-0.169747
-0.20864
-1.47439
-1.17408
-1.90626
-1.27532
-0.277526
1.22508
2.1634
0.0920653
1.23756
0.119783
3.15438
-0.806075
1.17723
0.0694511
-1.84936
-5.89625
3.11135
0.177958
-0.132502
3.03541
0.493645
-2.28423
0.677707
2.96108
0.389824
2.87413
1.0529
0.0596029
-4.96467
2.70803
-0.231305
-0.104645
-1.85277
0.681591
0.000760642
0.957314
2.4671
-0.00173898
0.215573
1.18857
0.650204
0.786394
1.2578
-0.185279
-5.61469
-1.96769
2.38636
0.14279
-5.31452
0.173984
0.106885
2.31428
-0.165903
0.200226
-5.13129
2.23668
-2.22054
-4.97573
2.1612
1.31108
-4.8067
-1.19494
-4.73523
0.957743
1.52253
-4.72147
2.03946
1.21436
0.232197
-4.54083
1.15591
0.874712
0.208452
-1.25618
-3.03781
1.3331
1.20646
-7.21049
0.988433
0.602643
-0.796684
-2.69757
1.82321
-1.09143
1.24763
-3.38922
-4.10797
-3.97979
-3.82014
-3.67488
-3.53647
-3.41653
-1.06039
-3.28963
-3.03996
2.14972
1.75515
-0.713706
1.10277
0.204545
1.17831
-2.98235
1.69938
-0.000833017
-2.93657
1.13337
-3.01454
-2.89638
-0.0389732
1.55275
1.235
1.07682
0.981728
1.25876
-1.08412
-2.86169
1.49585
-2.83029
0.0618698
-2.75937
-2.80879
1.29064
1.42831
-0.123562
1.19337
-0.00661944
1.23619
-2.81065
-0.876641
0.381944
1.36128
-0.774951
-1.83679
1.29459
-4.68988
-0.686027
-1.22671
-2.80471
1.23376
0.665587
0.235672
1.24707
0.371877
-0.108778
-0.088451
-2.81061
-3.11433
1.15845
0.19168
-0.0706006
1.32049
0.105137
-5.85939
-1.36837
-2.81337
1.1001
-4.2414
0.844973
-0.311911
-0.00607696
-2.81749
1.02838
1.23203
-3.09004
0.950994
-2.8231
-0.171912
-0.597169
-1.82873
-5.05064
0.891197
-2.80734
0.795509
-2.79604
-6.42742
1.13344
-0.0108581
1.06749
-0.0691905
0.718155
-2.71863
-1.43074
2.34599
1.32355
-2.71225
-9.92641
0.649898
-5.64073
-5.30454
1.37575
-2.58669
1.21283
0.578776
-0.0712115
0.541767
-0.299323
1.22939
1.17921
0.135893
-3.69815
-2.45785
-1.83433
0.489032
0.114595
-0.698707
-0.861272
-2.65113
-1.50222
-3.87484
1.00222
0.413796
1.88636
0.534998
2.01136
1.11688
-2.14578
-1.18785
0.81125
-4.99707
1.03529
-0.0622464
0.0178205
1.0615
1.23873
-0.209737
-1.99432
-4.31372
0.250089
-3.72963
0.0950754
1.00246
1.59988
0.806608
2.17424
-6.67938
0.786989
0.233163
-1.86007
0.386745
-1.07094
0.146177
1.46266
1.28421
1.14833
-1.75536
0.0400933
-0.0796168
-0.171164
-0.303058
-0.418854
-0.565109
-1.726
-0.046642
-0.698519
1.05055
-0.998656
-2.85611
2.32393
-1.6915
-0.165012
-2.94663
1.18693
-1.77257
1.38952
-1.67241
0.281495
-1.68842
-3.54253
-1.73654
1.2305
-0.351979
-1.74184
-1.78635
-2.83985
-8.57305
1.25853
-1.41037
-1.85294
1.23767
1.26143
-1.00807
-6.9428
1.35348
0.271083
-3.93272
0.47148
0.913644
1.74402
-1.57111
0.278879
-8.3142
1.50905
-5.94743
-1.02953
-4.00416
1.07372
1.05733
0.546901
-2.65144
0.95809
1.42939
-0.0913529
-2.84754
1.04127
0.154831
0.330824
-0.477758
1.04322
-3.81773
-0.00647261
-0.000730929
0.969563
-0.995125
1.53016
0.539119
-2.44816
0.870941
-1.86214
1.47417
1.26773
1.38702
1.42774
0.190614
0.359875
-2.49242
-0.896251
-1.87972
-0.0522676
0.341291
1.28156
-1.683
-0.955594
2.45759
0.000391938
1.03194
1.05412
-3.99205
-0.0528886
-0.346499
0.110986
0.962438
0.492709
1.17609
1.16632
0.866812
0.393539
1.42206
-1.84489
-0.0158742
-2.65293
-8.25393
-0.0386878
-2.97653
0.866603
-3.8342
0.948424
-0.459105
-2.97197
0.244636
-1.24874
-2.96471
-8.48291
0.216702
1.32751
-0.501953
-0.83002
-0.0389984
0.871603
0.221795
-6.64962
-0.0140988
0.182594
0.481388
-4.52548
1.22987
0.631468
1.22259
-6.34368
0.229928
-0.0116332
-0.0355273
0.537894
-3.60469
0.631999
-0.053769