/*--------------------------------*- C++ -*----------------------------------*\
| =========                 |                                                 |
| \\      /  F ield         | OpenFOAM: The Open Source CFD Toolbox           |
|  \\    /   O peration     | Version:  2306                                  |
|   \\  /    A nd           | Website:  www.openfoam.com                      |
|    \\/     M anipulation  |                                                 |
\*---------------------------------------------------------------------------*/
FoamFile
{
    version     2.0;
    format      ascii;
    arch        "LSB;label=32;scalar=64";
    class       volVectorField;
    location    "9.1";
    object      U;
}
// * * * * * * * * * * * * * * * * * * * * * * * * * * * * * * * * * * * * * //

dimensions      [0 1 -1 0 0 0 0];

internalField   nonuniform List<vector> 
5098
(
(2.33111 1.00215 0)
(2.05508 0.0888939 -6.97011e-20)
(2.49566 -0.0363504 -1.36075e-21)
(1.68464 -0.738963 3.20968e-19)
(3.62875 -1.06734 0)
(1.03285 -0.493166 0)
(2.48901 0.0152593 1.33828e-19)
(3.0705 -0.158435 1.78549e-21)
(2.68107 -0.0499552 -3.07134e-20)
(1.69597 -0.233396 3.11409e-19)
(-2.87776 1.24688 0)
(1.97473 -0.00971108 4.68374e-20)
(2.23305 0.332702 2.32412e-20)
(1.07621 -0.52895 0)
(2.66501 -0.543091 1.69516e-19)
(1.81645 0.0766503 -1.45278e-21)
(-2.24339 0.697601 -9.5115e-19)
(-2.38697 1.78411 0)
(-0.235338 0.205583 1.79622e-19)
(-2.05875 0.691949 1.08856e-18)
(1.77652 0.459754 -8.48906e-20)
(1.75532 0.0729657 -5.38213e-21)
(2.5223 -0.781261 0)
(0.904081 -0.0619784 2.57137e-20)
(-0.0136298 0.148668 0)
(1.60216 -0.64706 0)
(1.99517 -0.00431498 1.14465e-19)
(2.10605 -0.823409 -2.17898e-20)
(-0.318774 0.186404 -5.51836e-19)
(2.39046 -0.93927 0)
(2.28747 -0.0614808 -2.55145e-20)
(0.855198 -0.419276 0)
(2.10251 0.0386795 -9.52161e-20)
(-2.89758 1.30017 0)
(2.46372 0.38754 1.80869e-20)
(3.65665 0.611037 6.22491e-19)
(2.03519 -0.393159 4.14681e-20)
(2.11612 -0.00329442 -2.02482e-21)
(1.45762 -0.504054 3.64472e-19)
(1.80007 -0.787857 0)
(1.70144 -0.757534 -1.3432e-19)
(-0.100248 2.53505 -8.70926e-19)
(1.62671 -0.646897 0)
(2.43979 -0.3523 8.14316e-20)
(2.29408 0.670473 -6.56213e-20)
(2.03689 0.0552384 9.72161e-21)
(-2.32229 0.925301 3.15226e-19)
(1.22089 -0.43343 0)
(2.26565 -0.0666092 0)
(1.67832 -0.701142 3.5084e-20)
(2.17526 0.12032 1.3375e-19)
(1.64163 0.375414 -4.46462e-19)
(0.20291 -0.107875 7.48696e-23)
(2.1305 -0.0449955 7.74769e-20)
(1.09301 -0.542446 -1.89737e-19)
(1.64031 0.0507373 0)
(1.87136 0.215927 -2.32269e-19)
(1.79322 -0.693091 0)
(1.00221 -0.495502 0)
(2.10622 -0.0177211 -4.04957e-20)
(1.6688 -0.500165 -1.89793e-20)
(-1.30496 0.700478 -8.79135e-19)
(2.47733 0.426301 0)
(2.12693 0.353826 0)
(0.261334 -0.121069 1.07296e-18)
(0.950707 -0.479562 2.92236e-19)
(2.58142 0.0751421 -3.36367e-21)
(2.23751 0.17532 3.3372e-20)
(2.18655 -0.147034 2.11231e-20)
(1.85609 -0.742621 6.3645e-20)
(1.90758 0.15638 7.58177e-21)
(0.913737 -1.3703 -4.98911e-21)
(2.2303 -0.830924 0)
(-1.03098 0.588456 0)
(1.88082 -0.35252 2.57302e-20)
(1.28853 -0.623827 -1.72763e-19)
(1.72349 -0.22922 0)
(1.57737 0.128832 3.59649e-19)
(2.13356 -0.300107 1.04261e-19)
(1.67723 0.090111 0)
(1.79392 -0.0725433 0)
(0.79261 1.56833 1.82311e-19)
(1.82427 -0.308252 2.8732e-19)
(-2.81943 1.38603 -2.005e-19)
(-2.25496 1.78035 5.48627e-19)
(2.21405 -0.875662 -9.17127e-19)
(0.242953 0.116052 -2.57004e-19)
(1.73668 -0.24719 8.24811e-22)
(3.06506 0.00312741 6.21604e-20)
(1.54426 -0.470707 -1.24503e-20)
(2.29395 -0.0675058 6.99761e-22)
(0.976903 -0.517946 4.01339e-19)
(2.45273 -0.041625 -6.32677e-20)
(1.69963 -0.720242 -1.70707e-19)
(1.4347 -0.526087 6.39871e-20)
(0.486345 -0.873397 -1.12205e-19)
(1.24782 -0.612735 -7.74579e-20)
(1.50589 0.188277 2.76003e-19)
(1.81287 -0.324454 8.15921e-21)
(2.24896 -0.369692 2.34098e-20)
(2.29685 -0.349346 -9.60175e-19)
(1.15345 -0.567136 -2.0964e-19)
(1.95238 2.0064 -1.39449e-18)
(2.51682 -0.100176 8.51423e-21)
(1.59455 0.103344 -4.08824e-19)
(2.21694 1.04753 0)
(1.93689 0.197199 2.50267e-19)
(2.30169 0.0962431 8.33895e-20)
(1.16611 -0.480839 5.82557e-20)
(-2.79115 1.29341 0)
(1.23135 -0.583364 -2.80446e-19)
(0.733273 0.293947 2.54994e-19)
(1.93714 -0.0257551 -1.51904e-19)
(1.03213 -0.422584 1.01883e-19)
(1.72241 0.533771 1.23741e-19)
(-0.49124 0.277848 0)
(1.32291 1.45925 6.84347e-19)
(2.34114 1.36841 0)
(1.56633 -0.294506 -3.76325e-20)
(0.94176 -0.108019 -3.87817e-19)
(1.70522 0.347283 3.66742e-19)
(1.40281 1.63764 -4.2175e-19)
(1.61644 -0.302342 -1.9989e-19)
(-0.760347 2.2273 -4.10664e-19)
(0.381119 -0.605394 -5.38036e-19)
(-1.03223 0.384384 1.26244e-19)
(2.29927 -0.0343151 6.07568e-20)
(2.4696 -0.741448 3.03057e-19)
(1.45573 -0.202942 -8.59955e-20)
(1.00375 -0.41847 -1.90115e-19)
(-1.17725 2.07477 -5.88583e-19)
(1.2616 -0.568812 -4.03735e-19)
(1.2854 -0.566168 3.34733e-19)
(2.26039 1.37033 -3.85433e-21)
(0.413495 -1.51165 -3.01158e-18)
(3.68767 0.016131 4.90818e-19)
(1.69659 2.05723 -5.80426e-20)
(1.91725 0.19067 1.75161e-19)
(1.00212 -0.494145 0)
(2.13789 -0.0419449 -2.62501e-19)
(1.59749 0.461751 -3.03126e-19)
(3.73209 0.417246 9.81373e-19)
(2.04744 -0.885172 -1.2737e-19)
(2.46072 -0.0353442 -6.23862e-21)
(2.02891 0.0436862 -6.88089e-20)
(2.42478 -0.00482077 0)
(2.17677 -0.162875 4.21837e-20)
(3.15057 -1.71568 0)
(2.86656 0.0362946 2.6356e-19)
(2.03894 -0.884019 -1.29967e-19)
(1.28863 1.97128 -7.75403e-19)
(1.38361 0.881782 0)
(3.48353 -1.60038 3.96614e-19)
(2.07697 0.038923 0)
(0.242694 0.0445538 -3.11684e-19)
(0.955275 -0.383486 -1.53861e-19)
(1.79266 -0.691832 -1.37997e-19)
(1.98203 -1.10092 -6.53393e-19)
(1.65461 -0.756316 -1.16771e-19)
(-0.131476 0.07983 5.95599e-19)
(2.11508 -0.360411 -6.22021e-20)
(2.69409 -0.57221 -2.19886e-19)
(0.453618 0.710016 -2.55494e-19)
(1.91481 -0.1915 -1.70082e-19)
(-1.9771 1.66638 -3.82781e-19)
(2.2576 -0.107352 -5.07946e-20)
(3.68729 -1.37204 -1.45769e-18)
(2.66063 -0.0851765 0)
(-0.521756 0.590017 3.70865e-19)
(1.85875 -0.566251 -1.76507e-19)
(0.537703 -1.02788 7.98286e-20)
(1.67773 -0.670982 -1.22473e-19)
(2.14479 0.533801 2.12443e-19)
(2.09243 -0.780024 -5.61617e-20)
(2.58892 -0.0399755 0)
(1.93344 0.00473477 0)
(1.85108 -0.304172 -1.01289e-19)
(3.13993 0.645713 -1.99994e-20)
(1.85277 -0.172918 2.7072e-19)
(0.416625 -0.0257607 0)
(1.52408 1.93221 0)
(1.68068 1.36928 -3.99267e-19)
(1.94424 -0.53487 1.64688e-19)
(-1.85547 1.69874 0)
(1.94848 -0.195757 0)
(2.52554 0.847169 -9.21229e-21)
(1.55601 0.214035 0)
(2.06024 -0.376624 1.17209e-19)
(1.1445 -0.552473 3.13492e-19)
(0.310984 0.204262 -2.2227e-19)
(0.773109 0.548493 0)
(1.48713 0.473329 5.42069e-20)
(2.26551 -0.860743 0)
(1.8824 -0.375229 2.55912e-20)
(2.26589 -0.0929072 5.26666e-21)
(1.10126 -0.46266 -4.57986e-19)
(2.16074 0.590586 9.95902e-20)
(3.96947 0.235471 0)
(2.09973 0.0347041 1.18498e-21)
(1.90397 -0.543493 -2.37821e-20)
(-0.847816 1.52409 -8.74041e-19)
(1.71406 0.284096 5.48423e-21)
(2.29762 0.66976 -5.44027e-20)
(2.35495 0.0130752 7.81895e-21)
(1.5384 0.00122527 9.76189e-20)
(0.927515 -0.386241 -1.08864e-19)
(2.66225 0.123871 -4.78166e-21)
(1.32732 -0.616874 0)
(2.41026 -0.0507018 0)
(1.62091 -0.759485 2.4218e-19)
(2.04309 -0.135747 -7.98411e-20)
(1.74974 0.248691 2.87639e-19)
(1.68069 0.610224 -4.58781e-20)
(2.07443 0.0856878 -2.55318e-19)
(2.46977 -0.0781136 -2.52894e-19)
(-0.156043 0.238778 -1.48581e-19)
(1.9625 -0.394829 0)
(-2.73574 1.4505 -1.22859e-18)
(0.604814 -0.534839 7.4029e-20)
(2.00038 0.0498617 1.57545e-19)
(2.27708 -0.0468138 2.65491e-21)
(1.70342 -0.350912 0)
(2.6533 0.0940089 -9.971e-21)
(2.27659 -0.0988639 -3.6053e-20)
(0.799031 -0.221641 1.2269e-19)
(2.10817 -0.129614 0)
(0.54341 -0.17385 0)
(1.98669 0.00623308 0)
(2.19393 -0.396016 0)
(2.68497 -0.823866 -8.54017e-20)
(1.78912 0.361144 0)
(0.737646 -0.326127 -4.18174e-19)
(1.61013 0.833456 -1.93113e-19)
(1.89726 0.0581495 2.21197e-21)
(2.55903 -0.0663313 -3.65067e-20)
(2.28148 -0.058461 0)
(1.39235 1.23424 -2.96255e-19)
(0.0521314 0.515163 -8.95081e-19)
(3.17273 0.443186 0)
(1.91539 -0.0369002 2.20539e-19)
(0.480802 1.56033 -6.2904e-19)
(2.16381 0.560853 0)
(2.72731 -0.00964551 0)
(1.17083 -0.305416 6.60202e-19)
(1.78949 0.394925 -4.12276e-19)
(2.27324 -0.0267466 -4.4623e-20)
(1.19981 -0.574728 5.95402e-20)
(-2.76473 1.30282 -8.39133e-19)
(-2.67687 0.848825 0)
(2.35232 -0.0323781 1.22809e-20)
(2.06717 0.721566 -2.03785e-19)
(2.1306 -0.81479 -9.90457e-20)
(-0.696446 0.037595 2.44182e-19)
(-0.368477 1.11126 4.54679e-19)
(2.00201 0.0280489 -1.64113e-19)
(0.140911 0.418665 8.29994e-19)
(1.53284 -1.56013 2.60473e-18)
(0.609472 0.228503 -2.63832e-19)
(1.25509 -0.454337 -2.57334e-19)
(1.69772 0.00806801 1.72014e-20)
(2.53464 0.840853 -9.21127e-21)
(0.351504 -0.11438 4.93442e-19)
(0.14319 -0.0302376 5.34754e-19)
(2.17446 -0.868158 0)
(2.15535 0.0711275 2.00055e-21)
(-1.89183 1.10796 2.83334e-19)
(-0.100066 0.0676042 -6.9949e-19)
(-2.75397 1.15526 0)
(0.451872 -0.641011 0)
(1.90377 -0.0348659 -2.03718e-20)
(0.503064 0.263775 2.73581e-19)
(1.78002 0.0851876 -1.29678e-19)
(-0.199999 0.0893267 -3.13235e-19)
(0.660371 -0.623926 0)
(1.26152 -0.518062 2.90275e-21)
(1.4146 2.09651 -9.06332e-19)
(-0.290724 2.52573 -1.20977e-18)
(1.8385 1.63367 0)
(2.70041 -0.480159 0)
(2.03466 -0.106065 0)
(-1.3063 1.94703 -3.28955e-19)
(2.97616 -0.180994 1.83064e-19)
(0.843536 -0.184383 -5.21364e-19)
(2.89365 -0.101449 -2.03407e-19)
(3.82665 0.212715 -9.21717e-19)
(-1.15352 1.37806 0)
(1.98642 0.0180629 0)
(2.71051 -0.0456467 4.3468e-20)
(2.31531 -0.11063 4.1224e-20)
(1.5424 -0.000876107 -7.65776e-20)
(-0.485585 2.31588 0)
(-1.27019 -0.622 3.60465e-19)
(1.17568 -0.108394 -1.98289e-19)
(2.31207 0.553952 -7.46338e-20)
(2.21735 -0.567374 -6.76697e-20)
(1.09938 -0.227307 -1.89736e-19)
(2.50691 0.147233 0)
(2.27506 -0.0821539 -3.24731e-20)
(2.03475 0.00402607 0)
(2.06794 0.0357277 -9.77779e-20)
(2.3439 -0.0967239 -3.56791e-20)
(2.71512 0.104143 3.40678e-20)
(1.71489 -0.45317 3.04467e-19)
(1.85432 0.376984 2.35685e-19)
(-1.74196 1.03711 -4.60083e-19)
(1.99283 -0.745418 -1.48955e-20)
(2.18799 1.68579 -2.10751e-20)
(2.08953 -0.00368564 0)
(1.96054 -0.3917 0)
(-2.5665 0.93437 0)
(2.28784 -0.113939 -6.57335e-22)
(-0.880112 -0.0403654 2.63578e-20)
(0.958766 -0.474312 2.33167e-19)
(2.05038 -0.0804789 -8.51768e-20)
(2.29777 0.381643 1.43606e-19)
(0.30772 -0.0365484 6.16435e-19)
(1.69106 1.97373 5.83635e-20)
(2.65789 0.100865 9.97084e-21)
(2.26498 -0.04005 1.29481e-19)
(1.00482 -0.431659 0)
(2.25456 -0.301582 -1.27824e-19)
(-1.25375 -0.649481 -6.94281e-19)
(3.16222 0.292338 -3.67471e-19)
(0.0743289 -0.467212 -1.75739e-20)
(1.80435 -0.293469 9.12244e-21)
(1.44077 -0.476295 2.58844e-19)
(2.05642 0.776712 0)
(1.99754 0.06034 -8.11296e-20)
(1.18175 -0.485929 -6.09777e-19)
(1.57592 -0.309489 3.6457e-20)
(1.47218 -0.697757 0)
(2.31883 -0.0517743 -4.03831e-20)
(1.16346 -0.562267 1.62138e-19)
(2.80934 -0.506552 4.04535e-19)
(1.89025 -0.741863 -6.82881e-20)
(2.29679 0.0883779 -1.29293e-19)
(2.25769 0.0341563 -1.95745e-20)
(1.09594 -0.539685 2.21619e-19)
(2.1805 -0.0505947 7.77701e-20)
(1.96029 -0.34154 0)
(2.07316 -0.897585 1.24016e-19)
(1.83345 -0.745355 -2.71391e-19)
(2.17276 -0.237777 2.77672e-20)
(2.00034 0.0148735 3.13455e-20)
(1.33551 0.942328 0)
(1.7631 -0.29129 0)
(2.15774 -0.0336984 -7.58018e-20)
(0.281666 0.242238 1.37996e-19)
(2.39412 1.31819 0)
(2.2272 -0.0407526 4.72996e-20)
(2.34093 -0.958015 -1.36342e-20)
(1.00017 0.212236 -5.43294e-19)
(1.00208 -0.434509 -3.45864e-19)
(-1.06067 1.71819 3.21544e-19)
(1.94651 -0.0766485 5.06754e-20)
(-1.23916 1.73804 1.27586e-18)
(4.03083 0.119249 -6.86777e-19)
(1.95283 -0.0216397 0)
(1.49343 -0.169977 -7.6005e-20)
(1.16396 -1.48043 0)
(1.97543 0.0573749 -3.84435e-19)
(2.15593 -0.324727 0)
(1.99458 0.001404 -4.32821e-20)
(1.68964 -0.248432 2.12266e-20)
(2.49667 -0.323241 -6.80649e-20)
(1.23963 -0.493188 3.3946e-19)
(1.98059 0.0311301 -2.92248e-19)
(1.98535 0.14567 -4.56843e-19)
(2.57457 -0.97249 0)
(-0.0157887 0.767795 0)
(1.31038 -0.532651 -3.1947e-19)
(2.42986 -0.365477 0)
(3.21935 0.94291 -4.79869e-19)
(1.58416 -0.382755 0)
(0.702011 -1.42131 6.67915e-21)
(-1.67677 0.835172 7.70581e-19)
(1.9172 -0.567916 2.07654e-19)
(1.1367 0.665392 -5.07206e-20)
(2.60634 -0.118908 0)
(1.67952 -0.262302 -2.3179e-20)
(1.75261 0.0245507 -1.22643e-19)
(-1.17714 0.403324 -1.31274e-19)
(1.97663 0.0143777 -1.48751e-19)
(2.75602 0.100203 -2.90768e-20)
(2.55401 -0.174659 -2.63408e-20)
(2.74489 1.13558 1.11373e-19)
(2.4142 0.478073 7.91492e-20)
(-0.0523669 0.704636 -1.9585e-19)
(1.83975 -0.51703 0)
(1.75854 2.03467 1.46253e-18)
(1.98712 0.0832678 -1.4479e-19)
(2.1231 -0.144405 0)
(1.99439 0.0173792 1.10828e-19)
(1.30843 -0.620773 -1.12015e-19)
(1.55965 1.07148 2.35864e-19)
(2.56808 0.402589 0)
(1.51645 -0.71056 5.81306e-20)
(-0.909896 -1.00054 0)
(2.15419 0.0607156 6.05849e-20)
(2.88516 -0.380073 -2.17975e-19)
(0.197765 0.801773 7.05691e-19)
(1.13982 -0.12276 0)
(1.58697 0.195782 1.94808e-19)
(1.98008 0.0283608 1.21852e-19)
(-0.425084 0.246547 0)
(1.58592 0.0133566 0)
(2.08893 -0.131548 0)
(-0.171979 0.120712 8.76052e-19)
(1.20201 0.771947 -2.46311e-20)
(2.97399 0.099428 0)
(1.99172 0.00199405 0)
(1.55761 -2.16508 6.10765e-19)
(0.597885 -0.124742 0)
(2.28802 0.488997 7.11912e-20)
(2.5294 1.25972 2.67208e-20)
(1.87309 -0.105664 -1.18449e-19)
(1.82339 0.333579 -6.80295e-21)
(0.99517 0.278797 6.23977e-19)
(2.50944 1.41291 -5.80808e-20)
(2.26114 -0.0678077 1.96153e-22)
(2.1734 -0.0446614 6.91175e-20)
(1.68803 -0.205755 -1.70275e-19)
(1.24148 -0.53803 -1.59319e-22)
(2.00988 0.00374189 0)
(-1.41709 1.8485 -1.23546e-18)
(0.843117 -0.549847 0)
(-1.09274 0.36651 3.15049e-20)
(2.71636 -1.8698 0)
(1.91824 -0.387631 0)
(1.54784 -0.721205 3.22728e-20)
(2.33992 0.110004 8.79668e-21)
(-0.245146 0.0987911 -6.21346e-19)
(2.13585 0.0155017 -1.51931e-21)
(1.99388 -0.707797 2.82661e-20)
(2.67969 1.20234 4.93077e-20)
(-0.0731781 -0.469482 5.33196e-19)
(2.66811 0.0269267 3.48801e-21)
(2.45728 -0.844695 -1.9625e-19)
(1.96245 0.0274021 -2.49893e-19)
(0.304863 -0.448147 0)
(1.87831 -0.127153 -2.79454e-19)
(1.98795 -0.449779 1.08006e-19)
(1.99203 0.0917513 -5.84533e-19)
(-1.51133 0.399384 -8.86525e-19)
(1.49603 1.0632 -1.7468e-19)
(2.46392 1.31193 5.83038e-20)
(3.44329 0.57277 0)
(2.57686 -0.51562 0)
(-0.041096 0.107001 -2.24403e-19)
(2.14255 -0.0731063 4.21065e-20)
(-2.64905 0.960874 0)
(2.27334 -0.0394213 -3.18106e-20)
(2.00044 0.00584198 -2.48281e-19)
(-2.19542 0.625305 -5.48831e-19)
(-2.98761 1.08113 2.10734e-18)
(2.49811 -0.209751 -1.93485e-21)
(-0.590144 2.53721 -3.3846e-20)
(2.29207 -0.0332573 1.93674e-19)
(2.0908 -0.364529 2.85562e-20)
(3.02426 1.23584 3.26447e-19)
(1.63957 -0.666805 1.68814e-19)
(1.47918 -0.281621 5.38184e-21)
(1.08503 0.15414 4.43625e-19)
(1.7631 1.84579 0)
(1.85067 -0.494832 1.00137e-19)
(-2.53598 1.55265 0)
(1.09082 -0.249169 -1.35884e-18)
(0.350326 2.3099 0)
(-1.35652 0.764918 -1.83155e-18)
(1.7592 -0.72311 -1.70758e-19)
(0.524606 0.462447 -1.03449e-19)
(2.62915 -0.915651 0)
(-2.02223 0.187999 0)
(3.24901 0.416298 0)
(1.99543 0.0643847 1.06219e-19)
(-0.209415 -0.740013 -4.93074e-19)
(-0.142679 0.392005 4.5277e-19)
(1.67387 -0.332845 -8.30444e-21)
(2.93938 1.2595 -4.02284e-19)
(2.02643 0.203161 0)
(1.13456 1.61879 4.34059e-19)
(2.19241 1.2717 -3.72379e-20)
(-0.867038 -1.16926 -2.00256e-19)
(1.88378 -0.840742 -1.87944e-19)
(2.24966 -0.391323 8.99416e-21)
(1.36006 -0.645714 8.4316e-20)
(2.19451 0.449694 0)
(2.87786 -0.349052 2.04038e-19)
(0.0586944 0.141328 3.24079e-19)
(2.00727 -0.0231062 6.98992e-21)
(3.20386 1.09085 -2.39036e-19)
(3.08953 -1.79914 0)
(2.35374 0.790041 0)
(0.307539 0.0822634 0)
(0.725228 -0.499863 0)
(1.76158 0.031602 0)
(1.51285 -0.584707 9.20044e-20)
(3.26406 1.23782 3.93681e-19)
(1.55637 -0.649885 2.25177e-19)
(2.08935 0.0433007 1.7938e-19)
(-2.37548 1.6282 0)
(2.44527 -0.894543 2.74152e-21)
(-0.306593 0.422986 0)
(-2.40382 1.76575 -1.03895e-18)
(-0.235365 0.209011 2.57335e-19)
(3.0807 0.920026 -2.55988e-19)
(1.98124 0.0703577 2.93141e-19)
(2.02616 0.210905 -1.05313e-19)
(2.88822 0.576771 -1.309e-19)
(2.54415 0.021503 0)
(0.0400374 -0.624181 5.14852e-19)
(2.00867 -0.00934105 0)
(1.52495 0.72456 1.71845e-20)
(2.29791 -0.128551 0)
(2.06129 0.184341 -1.46786e-19)
(2.10669 -0.0608911 0)
(1.03548 -0.403186 -2.45099e-19)
(0.366188 -0.291148 8.96562e-19)
(2.69673 -0.273388 -1.59208e-19)
(1.40557 0.263955 4.01849e-19)
(-0.294459 0.210436 -1.7871e-18)
(3.43904 -1.18256 0)
(1.14118 -0.274736 -9.35318e-19)
(1.63525 -0.225786 -1.20305e-20)
(3.12437 0.51134 -6.63993e-19)
(1.67244 0.0212267 -2.73487e-21)
(2.12926 0.774175 5.34991e-19)
(1.92846 0.894944 0)
(2.00833 -0.854341 9.77574e-21)
(2.05055 -0.872905 0)
(2.19447 -0.151019 1.10285e-20)
(0.597488 -0.209868 6.63225e-20)
(-1.8353 2.0411 0)
(2.31609 0.479267 0)
(0.309226 -0.72995 -1.76295e-18)
(2.30445 0.727926 0)
(1.54864 1.52192 3.86374e-19)
(2.6233 1.08586 -9.62879e-20)
(1.04029 -0.319462 -4.35921e-19)
(-2.74875 0.909243 -9.00207e-19)
(1.98482 0.00551848 -2.22719e-21)
(-0.137535 2.22351 -2.00368e-19)
(0.28847 -0.225116 -5.6403e-19)
(1.93916 -0.0281094 3.25415e-19)
(-2.06822 0.580836 6.27569e-19)
(-1.15703 0.645299 0)
(2.41506 0.191136 5.19364e-20)
(-0.891169 -0.417939 2.22084e-18)
(0.533213 0.0966471 7.42712e-20)
(3.22647 0.718098 5.07707e-19)
(2.38967 1.57687 0)
(1.98245 -0.48783 -1.10442e-19)
(1.63291 -0.301606 4.27457e-22)
(1.17578 0.718623 -4.10732e-20)
(2.92203 0.0272545 -2.78661e-19)
(-2.96054 1.2103 5.58517e-19)
(-1.42567 2.17932 7.78892e-19)
(1.56983 -0.635443 -5.55185e-20)
(-2.88531 1.07473 -1.56044e-20)
(3.05491 0.0261241 -3.43081e-19)
(-2.92553 1.11912 -6.27819e-19)
(3.02302 -1.39798 0)
(1.97552 -0.143932 -2.40974e-19)
(-1.04289 -0.169555 0)
(-2.08213 1.71077 -9.40983e-19)
(-0.681846 0.121865 1.67774e-19)
(-0.914893 -0.114105 4.07738e-19)
(1.71616 -0.247874 8.14314e-21)
(-0.095858 0.151846 7.3553e-20)
(-0.847369 0.23942 0)
(2.62665 -0.738736 -7.26028e-19)
(2.77549 -0.883166 -3.77586e-19)
(-1.00526 0.0610459 -3.79834e-19)
(1.74231 0.443302 0)
(1.6628 0.417791 0)
(0.335544 0.190902 0)
(0.847558 -2.01269 -4.21964e-19)
(1.95898 -0.0600371 -2.87102e-19)
(1.39385 0.0681098 0)
(2.33519 -0.388129 0)
(2.23846 0.198812 -3.87859e-20)
(1.03926 1.90283 -1.389e-20)
(2.06788 0.307968 -4.53495e-19)
(3.55921 0.906394 -1.49031e-18)
(1.61177 0.0381711 1.04376e-19)
(2.09724 -0.0634536 -6.73464e-20)
(1.67713 -0.23105 3.60064e-20)
(1.90013 0.487966 -3.10215e-20)
(1.75095 1.06671 0)
(0.317878 -0.23716 -2.94474e-22)
(-0.538593 -0.745445 0)
(1.12089 0.0526105 0)
(2.89241 0.489412 -1.88596e-19)
(-2.19591 1.83865 0)
(2.4162 0.467775 0)
(1.98535 -0.10629 3.75619e-19)
(2.28058 -0.908719 0)
(1.9972 0.179652 4.63909e-19)
(3.17573 0.891397 2.38345e-19)
(2.96973 0.900099 7.5928e-20)
(1.5017 -0.370684 -4.70447e-21)
(1.11982 1.04758 2.94851e-19)
(2.70331 -0.820022 -1.4729e-20)
(2.93448 -0.874545 6.50403e-20)
(1.28534 -0.511837 3.20261e-19)
(-1.68485 1.18242 0)
(1.07931 -0.5354 0)
(-1.33012 1.22054 -9.89797e-19)
(0.399861 -0.292709 -1.1928e-18)
(-1.92709 0.930564 0)
(-2.04691 0.932713 1.70944e-18)
(0.219713 -0.158114 0)
(-0.298556 -0.612623 5.08442e-19)
(1.25114 -0.587231 -3.95306e-19)
(3.29415 0.76041 -1.07508e-20)
(2.89365 1.02895 1.59167e-19)
(1.32877 -0.46955 6.30899e-20)
(2.96867 -0.0118934 1.41011e-19)
(2.15826 0.893381 0)
(2.23419 0.892988 0)
(1.17071 -0.0538431 0)
(-0.586293 0.306881 -2.47877e-19)
(1.51334 -0.581286 0)
(2.16373 0.658602 0)
(1.61594 0.022573 0)
(1.94865 0.400867 5.14689e-20)
(0.777565 -0.420818 1.92661e-19)
(2.33938 -0.7609 1.61284e-19)
(0.449159 -1.86457 1.24658e-18)
(1.73326 -0.423566 0)
(-1.5633 2.14884 0)
(2.21964 -0.506012 6.21797e-20)
(1.57311 0.460729 6.4659e-19)
(-0.196073 0.289284 -4.74004e-19)
(2.57577 -0.0840815 3.64207e-21)
(1.88028 -0.460708 1.69447e-19)
(1.05878 0.299972 -1.00224e-18)
(0.377914 -0.306032 0)
(1.18012 1.08617 -7.02954e-19)
(0.499702 0.203198 -6.28528e-19)
(3.01429 0.773962 0)
(2.21839 -0.00536757 0)
(2.29878 -0.0405021 0)
(2.05558 0.0398843 -3.45129e-19)
(1.46484 0.19125 -4.03189e-19)
(1.69675 0.0677984 0)
(1.98766 1.2231 6.38981e-19)
(2.0246 -0.856906 -3.46993e-20)
(2.10682 0.105047 -2.35055e-20)
(-1.74621 1.20413 5.40987e-19)
(2.14772 -0.17936 0)
(2.48479 0.11426 -5.67217e-20)
(1.90524 -0.401933 0)
(-0.549982 -0.544201 -2.17408e-18)
(1.94815 -0.844193 0)
(2.4857 -0.693466 -5.56078e-19)
(3.50017 0.91424 1.3972e-20)
(2.35503 0.07051 1.37474e-19)
(2.14201 0.113071 0)
(2.02971 -0.808654 0)
(1.72762 -0.718538 -2.06415e-19)
(2.23628 0.427465 -7.86605e-20)
(-2.57546 1.57136 5.99284e-19)
(0.994279 -0.481572 3.35908e-19)
(1.97472 -0.0755419 0)
(1.60375 0.139678 -5.85956e-19)
(2.39402 0.0211647 -1.05527e-19)
(1.13842 -2.25469 -5.7906e-19)
(2.19092 -0.556007 1.09208e-19)
(2.28061 -0.598186 0)
(1.30238 -0.410546 4.62951e-19)
(1.07213 0.0853681 -6.03654e-19)
(3.09363 1.051 5.96293e-21)
(1.81713 0.167327 -6.97832e-19)
(-1.95614 1.22891 5.02605e-19)
(-0.0146823 0.654107 -1.15335e-18)
(2.76828 1.32308 1.28779e-18)
(2.12458 -0.0368558 -2.10174e-20)
(0.244144 0.323187 4.90876e-19)
(-0.193073 0.131005 -2.14796e-21)
(-2.14649 1.46287 9.27625e-19)
(-2.43364 1.56521 1.11128e-18)
(1.91486 -0.160266 8.12847e-20)
(2.27214 -0.0555155 0)
(0.284684 -0.477709 4.05274e-19)
(1.37615 -0.655461 2.33709e-20)
(1.7918 -0.263889 1.46702e-19)
(-0.24682 0.30013 0)
(1.74362 -0.407844 -3.60469e-20)
(1.74058 0.103139 -1.88394e-21)
(2.06428 0.0309634 0)
(0.496684 -0.153412 3.94082e-19)
(-1.7743 1.23369 5.1767e-19)
(1.7758 -0.382841 0)
(1.17127 -0.452285 0)
(1.48307 -2.24548 -5.91102e-19)
(1.55255 -2.41012 -2.53423e-19)
(2.8531 0.454056 6.47379e-20)
(-0.416309 0.313432 0)
(1.93575 0.00134927 -1.82552e-19)
(3.75612 -0.952716 -3.22712e-19)
(2.59169 -0.593356 -5.30327e-20)
(1.33445 -0.533142 3.87349e-19)
(-2.2218 1.65435 -7.35775e-19)
(-2.21635 1.9335 6.02146e-19)
(3.42691 1.05975 -5.1641e-21)
(2.25079 1.50674 0)
(1.56612 0.811345 -4.89028e-19)
(1.7044 -0.653384 1.13948e-19)
(1.78117 1.73913 2.72888e-20)
(0.91551 0.436941 0)
(1.25931 -0.284419 -4.32526e-19)
(1.34345 -0.579495 -4.62562e-19)
(-1.76121 1.68346 7.32003e-19)
(0.476608 -0.549447 -6.02664e-19)
(1.84817 1.32459 0)
(-0.170424 0.473077 -2.85606e-19)
(2.21538 0.563291 0)
(-1.10514 -0.892394 -4.34334e-19)
(-0.119149 0.787871 6.84258e-19)
(0.0893422 0.350542 0)
(-1.9688 1.82615 3.01368e-19)
(1.72276 -0.150278 -6.94195e-20)
(1.03562 -0.486721 2.40974e-19)
(1.82641 -0.674414 1.49229e-19)
(-0.858053 0.87926 -1.54769e-18)
(1.31751 -0.609302 0)
(1.99613 0.00782389 1.21659e-19)
(0.58375 0.374949 0)
(2.21452 0.21873 -7.90346e-21)
(-0.612316 0.454181 -5.73141e-19)
(0.688684 -0.28834 2.52273e-19)
(2.00179 -0.512858 0)
(2.13355 -0.763634 5.28461e-20)
(3.10873 0.447568 9.61693e-20)
(-2.02025 1.99559 1.32411e-18)
(-1.88714 0.691437 0)
(-2.05946 1.95749 -1.18363e-18)
(2.63396 1.0224 -5.9284e-19)
(1.66335 0.133352 7.51148e-19)
(2.9205 -1.11768 0)
(2.92434 -0.251609 4.00748e-19)
(-0.538155 0.488963 5.59783e-19)
(1.10738 -0.310986 -1.05325e-19)
(2.44882 -0.37034 -1.35523e-19)
(-2.11273 1.2106 0)
(2.23513 -0.904213 -8.61528e-20)
(1.3043 0.0164746 -3.22607e-21)
(2.01673 0.139585 -6.40044e-21)
(2.3567 0.0147371 0)
(-1.61105 2.21666 5.12514e-19)
(1.79806 -0.475293 3.68454e-21)
(1.38322 -0.433081 4.78334e-20)
(1.0495 0.624626 0)
(2.38706 -0.785555 1.79545e-19)
(-1.48401 1.48322 1.18241e-18)
(1.89091 -0.41403 -2.1675e-19)
(-0.251731 0.0878011 0)
(1.02236 -0.469591 -1.68643e-19)
(2.41287 -0.736337 -1.21338e-19)
(-1.92231 1.37892 -9.14216e-19)
(1.56969 -0.408516 0)
(0.984115 -0.413467 8.35291e-19)
(1.992 -2.34418 0)
(-1.19504 2.04015 6.32936e-19)
(1.77237 -1.78742 0)
(1.95274 -0.109667 -1.44107e-19)
(2.19681 -0.113437 -4.76806e-20)
(2.26568 1.23906 -3.19485e-19)
(1.34799 -2.01264 0)
(2.39945 -0.920988 3.2078e-19)
(2.00795 0.0107227 0)
(2.30277 0.450494 0)
(2.75551 -0.931603 -3.26812e-19)
(-1.42633 2.18868 4.84481e-19)
(0.700005 -0.141924 1.61733e-19)
(2.38824 -0.422703 5.60874e-20)
(1.71927 0.225098 2.5773e-19)
(-0.558952 1.90429 -5.96118e-19)
(2.05599 0.306081 2.068e-19)
(0.402725 -0.301526 -8.94269e-20)
(0.535783 2.266 0)
(2.42289 0.300384 0)
(0.359964 -0.230902 0)
(-2.8404 0.922847 2.63338e-18)
(1.30169 -0.470761 -2.84071e-19)
(1.55856 0.0490029 0)
(-1.78987 0.777004 1.92622e-18)
(2.27636 -0.0422914 -3.20262e-20)
(-2.02805 1.05355 -6.52074e-19)
(1.49847 -0.555857 -7.6542e-20)
(2.71427 -0.855854 0)
(1.07698 -0.3501 7.51612e-19)
(0.523512 -0.113483 -8.95655e-19)
(0.169041 0.250092 0)
(-0.33232 0.444917 -3.93686e-19)
(1.61752 0.0235059 -1.881e-20)
(2.68995 -0.291117 1.05147e-19)
(1.9996 0.030027 1.90532e-19)
(2.47845 1.14854 -6.45071e-20)
(2.36987 0.235957 -1.38851e-20)
(-1.19485 -0.469518 0)
(2.21856 -0.759666 0)
(-1.295 0.480362 2.03829e-18)
(-0.169721 -0.679442 0)
(1.73338 -0.367356 -3.71216e-20)
(2.57573 -0.696223 4.37963e-19)
(1.12584 -0.533386 3.43992e-19)
(2.57174 -0.287454 -1.48111e-19)
(1.77287 0.265836 -2.63998e-19)
(1.66138 -0.65018 -1.21963e-19)
(1.76341 -0.665511 -1.83136e-19)
(0.946896 -1.9168 0)
(1.89578 -0.676258 1.0969e-19)
(2.17104 -0.23637 0)
(2.07756 0.249003 -5.15925e-21)
(1.83879 1.13456 5.00293e-20)
(0.557353 -0.412383 2.01571e-19)
(2.29578 -0.140655 6.78158e-20)
(0.0392972 -0.580324 -4.11379e-19)
(0.323216 -0.269312 0)
(0.0968522 -0.35758 -6.69891e-19)
(-0.856431 2.63781 -8.81545e-19)
(2.03575 0.484525 -2.39207e-19)
(2.05494 -0.749878 -1.12359e-20)
(2.12335 0.0146109 -7.25022e-21)
(0.626659 -0.550721 2.04896e-19)
(2.6258 -0.925475 5.49647e-19)
(0.491994 0.0232769 0)
(-2.17904 1.11446 1.9712e-18)
(1.90192 -0.356345 1.18815e-19)
(2.16636 0.0520105 7.5723e-23)
(1.31967 -0.58655 6.82208e-19)
(-1.12879 -0.229285 3.70638e-20)
(1.68179 0.509155 0)
(-2.94031 1.25682 -1.06918e-18)
(-1.70823 2.17984 -7.62819e-20)
(1.21765 -0.393807 -5.70403e-19)
(-2.79136 0.922522 1.27374e-18)
(1.87579 0.948115 -1.34575e-19)
(2.05586 0.42201 4.83152e-21)
(1.09323 -0.451788 2.62536e-19)
(1.92937 -0.352897 0)
(2.51438 0.209083 8.1315e-21)
(2.6626 -0.044979 -4.59247e-21)
(2.76208 1.02714 -1.37613e-19)
(-1.0188 -0.713537 0)
(3.19017 1.26151 2.13204e-21)
(-0.728182 -0.774857 4.16125e-19)
(1.77816 -0.744773 3.4764e-19)
(0.132957 0.115321 1.0432e-20)
(-0.855495 -1.0932 -3.06358e-19)
(1.1193 -0.274391 1.45398e-18)
(2.3052 -0.725887 -2.29754e-19)
(2.33397 0.015694 1.01727e-21)
(-0.552265 -0.0398349 -9.62194e-21)
(2.9062 0.109486 2.91527e-20)
(0.339562 0.774827 0)
(1.99765 0.0235856 0)
(2.26106 0.523142 0)
(1.96352 -0.687653 -5.83373e-20)
(1.93588 -0.932072 1.65206e-18)
(-0.95876 0.14238 0)
(1.34547 -0.431381 -1.16588e-19)
(0.0253985 0.621377 0)
(3.27979 0.607807 0)
(-1.07287 -0.0662485 0)
(1.84265 0.0058151 0)
(1.02672 -0.395861 -2.60081e-19)
(0.525947 -0.197217 0)
(2.15984 1.16238 7.04534e-19)
(1.14355 0.0174222 0)
(1.39506 -0.0724506 0)
(1.9339 0.141705 2.66967e-21)
(0.387195 -0.320898 0)
(3.14112 0.733867 0)
(-0.778567 0.276713 0)
(2.54531 -0.0203619 7.99226e-21)
(1.63969 -0.232388 0)
(2.93177 -0.816849 5.06927e-20)
(1.11433 -0.58384 3.18957e-21)
(0.623521 -0.159498 -2.53787e-19)
(1.98368 0.012439 5.45994e-19)
(0.131755 -0.00988037 -1.20259e-18)
(1.10634 0.656642 -5.67965e-19)
(1.4676 0.567464 0)
(2.23371 -0.00195766 -1.72999e-20)
(1.78108 -0.216496 -1.43237e-19)
(1.48525 1.39373 1.91925e-19)
(1.83441 0.299699 4.07077e-19)
(0.915085 -0.342839 -5.92032e-19)
(1.6549 -0.715764 -1.78988e-19)
(1.40349 1.73284 8.97573e-20)
(-0.86564 0.68914 0)
(2.97096 0.824169 -4.62321e-19)
(-0.45887 0.456793 7.89401e-19)
(2.61344 0.365351 1.00456e-22)
(-0.394439 0.509056 0)
(1.91162 0.00458658 -2.14468e-19)
(2.16639 1.04057 -5.67664e-19)
(1.48308 -0.605899 3.12451e-19)
(1.37399 -0.629804 -3.99196e-19)
(1.88704 -0.839706 0)
(1.9882 -0.828813 0)
(2.31053 1.35484 1.1352e-18)
(2.32957 -0.085466 9.66063e-20)
(3.26142 0.63467 -2.78478e-19)
(1.80154 -0.0555094 4.23929e-20)
(1.32714 -0.398928 -1.11521e-19)
(1.88173 -0.517619 1.60774e-19)
(2.41071 0.31612 0)
(2.32678 0.308818 -5.50154e-20)
(1.03253 -0.118739 -1.13335e-18)
(1.54799 1.03249 2.91814e-18)
(3.45192 0.393577 -1.07581e-18)
(-0.710878 0.459828 3.51327e-19)
(3.0415 0.665075 2.32524e-19)
(2.38067 0.753552 -5.50962e-20)
(2.26702 0.613428 0)
(-2.72919 1.42509 0)
(2.834 -0.769097 3.52447e-20)
(1.27877 -0.311679 0)
(1.99644 -0.354631 5.15594e-20)
(1.67032 0.18349 4.40856e-19)
(1.68815 0.375228 -1.42932e-19)
(1.72836 -0.679342 4.02058e-19)
(1.26069 -0.0906456 2.091e-21)
(1.3647 -0.0769846 0)
(2.04957 -0.0922192 -8.03296e-21)
(-0.837431 0.309823 -5.7392e-19)
(2.10325 0.246167 0)
(1.91562 0.256316 0)
(2.18374 -0.794446 -5.39372e-20)
(1.90819 0.488409 2.56282e-19)
(1.19725 -0.22788 0)
(4.3651 0.291173 1.8176e-19)
(2.85875 0.0543222 9.0979e-20)
(2.27089 0.326586 9.53824e-20)
(1.77526 0.360564 4.15322e-19)
(-3.03535 1.02934 -1.18734e-18)
(1.17274 -1.68125 0)
(-0.272689 -0.522675 -9.6081e-19)
(0.651077 -0.292466 9.03087e-19)
(1.99839 0.0129924 1.18594e-20)
(-0.51678 -0.662374 -4.35211e-19)
(2.02012 -0.773848 1.06876e-21)
(2.56118 0.416419 -2.18994e-20)
(0.489282 2.19538 0)
(1.98346 0.100914 2.69136e-21)
(1.88584 -0.0110887 6.49219e-20)
(1.97061 -0.0107459 -4.26943e-20)
(2.11869 0.449151 -2.35467e-19)
(2.71748 -0.702473 0)
(-2.74029 0.864245 0)
(2.55978 0.0256714 0)
(2.21658 0.396276 -1.64359e-19)
(1.19879 -0.566604 5.26602e-19)
(2.09394 1.60052 4.89565e-21)
(1.5805 -0.156915 0)
(0.355987 -0.13105 -2.1125e-19)
(-2.8465 1.01612 1.11259e-18)
(-0.369171 1.01969 0)
(1.90242 0.198769 -1.27387e-19)
(1.6842 0.166295 -1.44202e-19)
(3.31432 0.261306 -7.78331e-20)
(2.01865 -0.428168 9.33175e-20)
(0.813797 -0.305863 0)
(2.13492 0.177065 -2.57045e-19)
(2.17818 -0.318517 0)
(2.16239 -0.153997 1.31306e-20)
(1.1036 -0.0122743 0)
(2.10804 0.765192 2.27562e-19)
(1.85627 -0.699028 -1.15267e-19)
(2.25756 0.791983 0)
(1.8985 -0.10024 -2.79143e-19)
(2.16929 -0.680492 -8.19465e-20)
(2.20125 -1.10673 0)
(1.2798 -0.604417 0)
(0.648408 0.0758518 -8.24399e-20)
(2.17864 -0.138063 -6.48042e-21)
(-0.954272 -0.0647481 -9.48986e-19)
(0.955802 1.94884 2.33375e-19)
(2.86878 -0.0210254 -8.96886e-21)
(0.770302 0.707601 4.74783e-19)
(1.77482 0.302554 -1.74748e-21)
(1.99305 0.488225 0)
(3.03393 1.08681 2.41615e-19)
(1.95545 -0.852435 0)
(1.65387 -0.743378 -1.81816e-19)
(2.04809 -0.82726 5.12683e-20)
(2.03542 -0.326183 -1.36286e-19)