/*--------------------------------*- C++ -*----------------------------------*\
| =========                 |                                                 |
| \\      /  F ield         | OpenFOAM: The Open Source CFD Toolbox           |
|  \\    /   O peration     | Version:  2306                                  |
|   \\  /    A nd           | Website:  www.openfoam.com                      |
|    \\/     M anipulation  |                                                 |
\*---------------------------------------------------------------------------*/
FoamFile
{
    version     2.0;
    format      ascii;
    arch        "LSB;label=32;scalar=64";
    class       surfaceScalarField;
    location    "7.6";
    object      phi;
}
// * * * * * * * * * * * * * * * * * * * * * * * * * * * * * * * * * * * * * //

dimensions      [0 3 -1 0 0 0 0];

oriented        oriented;

internalField   nonuniform List<scalar> 
7520
(
-0.988503
0.801045
0.187458
-1.33331
-0.197152
1.53046
-0.0817066
-1.86565
1.94736
0.233154
-0.0321784
-0.200976
0.252533
1.90089
-2.15343
-0.090475
0.0973708
-0.00689575
-0.315749
2.13584
-1.82009
-0.213356
-2.02764
2.241
-1.54923
1.46752
0.822329
-0.0916889
-0.73064
0.435131
-0.07541
-0.359721
-0.275995
-1.55945
1.83545
0.646186
-0.0559484
-0.590237
-0.0983983
0.136483
-0.0380852
-2.16847
0.944832
1.22364
0.0769475
1.51806
-1.59501
0.297692
-0.032549
-0.265143
0.0118483
-0.455373
0.443525
0.033973
0.0213198
-0.0552928
-0.0813462
0.379038
-0.393899
-0.283203
0.677102
-1.0536
1.13054
-0.0363086
-0.312583
0.348892
0.138666
-0.141118
0.00245203
0.106832
-0.234125
0.127293
0.252645
-0.244877
-0.00776794
0.867263
1.12031
-1.98757
-0.0360276
0.315774
-0.279747
-0.0201545
0.0541275
0.206461
-0.0348653
-0.171596
-1.12503
1.73249
-0.607467
-0.0476393
-0.0182198
0.0658591
-1.85149
2.03579
-0.184303
0.0422592
-0.263438
0.221179
-0.327436
-1.23535
1.56279
-0.357531
0.972649
-0.615118
0.269843
-0.539673
0.269831
0.825955
-1.58467
0.758719
0.09001
-0.313929
0.223919
-0.0461206
-0.103254
0.149375
-0.0277216
0.260876
0.303689
-0.500835
0.197146
0.286257
-0.0336119
2.08842
-1.58993
-0.49849
-0.555952
-0.607923
1.16388
-1.46213
1.59347
-0.131337
-0.127781
-0.154145
0.281926
0.26392
-0.0776749
-0.186245
-1.32537
0.200342
0.273322
-0.0761111
-0.19721
1.79435
0.179165
-1.97351
-0.711705
0.265529
0.446176
-0.0321958
0.0332527
-0.00105682
1.07911
0.486508
-1.56562
0.0143198
-0.104795
-0.759994
0.132071
0.627923
0.39911
-1.2595
0.860387
-0.041863
-0.122591
0.164454
-0.115953
0.068314
-2.21205
1.14837
1.06368
1.55982
-0.706869
-0.852951
0.0380775
0.166331
-0.204409
-1.28581
0.958372
0.797853
-0.151668
0.00750186
-0.0396977
0.00417535
-0.102574
1.17704
-2.41817
1.24113
0.134483
1.65986
-1.26488
0.98692
0.277959
0.314354
-0.237094
-0.0772606
-0.49888
0.89799
-0.107121
-0.564493
0.671614
0.338657
-0.0923784
-0.246278
-0.153093
-0.0415331
0.194626
1.01909
-1.5878
0.568711
0.1287
-0.112575
-0.0161253
1.79844
-0.50464
-1.2938
0.392805
-0.746484
0.353679
1.6553
-1.15144
-0.503859
-0.818899
0.0589045
-1.53611
-0.675947
1.01546
-0.727565
-0.287891
0.238289
-0.619612
0.381323
-0.309173
0.351432
-0.511358
0.523206
0.22363
-0.0171696
0.0159056
-0.0470075
0.0311019
1.15201
0.646436
-1.98517
2.37207
-0.386897
0.727379
0.832441
-0.982962
1.11689
-0.133925
0.0125327
-0.0853718
0.0728391
1.3521
-1.6281
0.241143
0.195583
-0.105573
0.0380128
0.329067
-0.36708
0.00752586
0.0847691
-0.0922949
-0.525305
0.385358
0.139947
1.46619
-0.447102
-0.718716
0.617401
0.101315
1.24669
-1.70265
0.455959
-0.0886449
0.111656
-0.0230107
-0.0594557
0.115048
-0.0555919
2.90169
-1.88816
-1.01353
0.524876
-0.409525
-0.578979
-1.33435
0.835473
-1.92396
1.60821
0.165054
-0.0779664
-0.0870876
0.443068
-0.00793705
-0.159716
0.15858
0.00113566
-0.104742
0.134005
-0.0292635
1.99557
-1.16962
-0.125666
0.0110317
0.114634
-0.755651
0.361753
0.0348743
-0.0219004
-0.0129739
0.653401
0.362055
-0.775347
0.489076
0.286271
0.810681
-1.24481
0.434133
0.0378413
0.100825
-0.195233
-0.516471
-0.366474
0.09546
0.271014
1.00149
-0.179159
0.702387
-0.627754
-0.0746333
-0.0293941
-0.0878536
0.117248
-0.260125
0.23712
0.0230051
0.700613
-1.86654
1.16593
0.381543
-0.417852
-0.346688
-0.0478561
0.394544
-0.0235309
-0.102135
-0.372951
-0.22727
0.600221
0.141523
0.0318847
-0.173408
-0.0636666
0.20519
-0.587427
-0.18792
-0.733675
-0.49421
1.22789
-1.34332
2.40715
-1.06382
0.384748
-0.397345
0.0125969
-1.16227
-0.172083
-0.0337866
-0.0501874
0.083974
1.4218
-0.342686
-0.630631
0.411023
0.219608
-0.0270623
0.171116
-0.144053
0.288509
-0.0741654
-0.214344
0.26341
-2.12906
0.310577
-1.77271
-2.92017
1.13439
1.78578
-0.848746
-0.416134
-1.59662
1.64291
-0.0462973
2.15184
0.211388
-2.36323
0.181734
-0.227855
0.74886
0.195538
-0.944398
-0.264091
-0.19186
0.455951
0.390703
-1.98732
-1.84601
-0.00547622
0.00318658
0.012719
0.0623708
-0.119321
0.05695
0.284214
-0.326077
1.66057
-0.413886
-0.154381
0.12666
-0.0188063
0.00271046
0.0160958
0.752639
-0.42127
-0.331369
-0.443217
-1.72526
-0.0738271
-0.190264
0.0465589
-0.578949
0.53239
0.266219
0.19651
-0.462729
-1.55528
0.929153
0.626123
1.05287
-0.800335
-0.080504
0.460633
-0.380129
-0.236505
0.343337
0.510318
-0.237964
-0.272353
0.61405
-0.576037
0.235543
-0.311655
0.902727
0.313071
-1.2158
0.297484
-0.333511
-0.353781
-1.44125
1.79503
1.28148
0.662967
0.684691
-0.446403
-1.33479
0.977259
-0.708271
0.913814
-0.205543
0.00534034
-0.0329555
0.0276152
0.261192
-0.30109
0.0398972
-0.744712
1.39811
-0.268578
-0.148442
0.41702
0.409411
-0.143192
-0.848772
0.895331
0.599722
-1.07787
0.478146
-0.512122
-0.0131827
0.671311
-0.401468
0.139611
-0.0109108
-0.0836495
0.117722
-0.0340729
0.0769073
-0.181649
-0.397757
-0.0800252
0.477782
0.129802
0.208854
-1.03862
-0.549184
-0.755583
-0.799692
0.022294
0.0597527
-0.0820467
1.02898
-0.104761
-0.924219
-1.578
0.234673
-1.19866
2.19347
-0.994814
0.354343
0.155975
-0.396225
0.489004
-0.0927793
-0.761764
0.566531
0.579925
-1.13588
1.752
-0.0656102
-1.68639
-1.42832
1.89171
-0.463389
-0.0230912
0.085462
0.37105
1.54426
-1.91531
0.0338805
-0.164283
0.130403
-0.133383
1.80412
-1.67074
0.00101124
0.111533
-0.112544
-0.887839
1.23358
-0.345745
-0.113164
-0.6486
0.0460762
-0.443833
0.260156
-0.165353
-1.86558
2.03093
0.030996
-0.00967621
-1.74703
0.708408
-0.379801
-0.120618
0.500419
0.0940991
-0.123493
0.120245
1.59491
-1.71516
-0.539592
-0.576276
1.11587
-0.509664
0.401805
0.107859
2.81047
-1.86789
-0.942574
0.465564
-1.00516
0.0489868
-0.0498324
0.000845643
0.09842
0.735736
-0.834156
0.0458908
-0.0490304
0.00313961
0.840537
0.805435
-1.64597
-0.228317
-0.490398
-0.0673585
0.181776
-0.114417
-0.898703
0.68861
0.210093
-0.0729948
0.0389889
0.0340058
1.45823
-0.429252
1.05314
-1.95049
0.897351
-2.79544
1.21869
1.57675
-1.16949
-1.62595
-0.362582
0.474708
-0.112126
0.458601
-0.276584
-0.182017
1.00778
-1.73553
0.727746
0.0260238
1.08531
-1.11134
-0.604291
-0.123274
1.13031
-0.227581
1.27456
1.30518
-2.57973
-0.180362
0.0851871
0.0951753
0.05528
-0.953983
1.87433
-0.476087
-1.39824
0.134208
-0.100327
0.0632674
0.311894
-0.344443
1.06095
0.813376
0.170676
0.678912
-0.849587
0.357306
-0.0415321
-0.0588802
0.00796729
0.0509129
0.537046
-0.407533
-0.129513
-1.82657
0.8763
0.950266
0.420487
0.0381134
0.87408
-1.60776
0.165166
-0.00141102
-0.163755
0.133844
0.130076
-1.653
1.59442
0.0585721
1.17563
-0.575904
-0.00526238
-0.0344178
0.0396802
0.0330917
-0.150888
0.117796
0.119365
-0.211744
1.74045
-0.563411
-0.115298
0.378929
-0.263632
0.00104802
-0.0198543
0.436831
-0.512241
0.715799
-0.386732
-0.668449
0.694473
-0.0289216
-0.0547279
2.13584
0.0114055
-0.0160481
0.00464255
0.0879095
0.62789
-0.200989
0.130248
0.0707405
-0.100704
0.0412484
0.444765
-0.141076
1.45903
-0.710167
0.423802
-0.363201
-0.0606011
0.304005
-1.19184
0.0265501
-0.399501
-2.03677
1.87142
0.0394605
0.00952628
-2.25013
0.22957
-0.256632
0.0391366
0.104938
-0.144074
-0.608737
-1.21783
1.58115
1.32054
1.70196
-0.772808
-1.55945
0.167367
0.53502
0.257431
-0.258043
0.000612194
0.171244
-0.233634
0.0623893
-1.2465
0.638576
-0.19489
-0.256617
0.451507
0.262252
-0.353941
-0.101501
-2.02016
2.12166
0.976909
0.215478
-1.51169
1.29621
0.952304
1.08349
-1.33903
1.57831
-1.20726
-0.0542301
0.38485
-0.33062
-0.87956
0.736066
0.143494
-0.239017
0.12372
-0.0826367
0.324143
-0.241506
-0.241167
-0.255437
0.496605
-0.529705
1.81118
-0.271391
-0.363532
0.634923
-0.3893
0.261519
0.237281
-1.22024
-0.0982287
0.0393485
0.00872586
-1.87617
0.978721
0.897451
0.368804
-0.424752
0.00852692
-0.0157121
0.40046
1.25048
1.55999
1.65329
-0.521613
-1.13168
0.117042
-0.0432406
-0.073801
0.697091
0.958209
0.121758
0.135672
0.562339
-2.20975
1.64741
-0.0988112
0.0915764
0.00723479
0.854393
0.611801
-0.214646
-0.0992823
0.729802
-0.559126
-0.569821
1.43708
0.154302
0.0107516
1.26824
-0.457563
0.144126
-0.1366
1.77941
-0.12611
0.100421
0.399236
0.0245661
0.0173269
0.297027
-1.74479
-0.836052
0.942973
-0.106921
0.00590436
-0.118479
1.79402
0.029085
-1.82311
-0.705801
0.43441
0.222306
0.0662031
-0.30538
0.0682866
0.0276409
-1.17908
1.53971
-1.57837
0.0386636
0.0026827
-0.252007
0.249324
-0.60178
1.45617
-0.835695
1.53631
0.0223357
-0.019653
0.76062
-0.271545
1.94875
-0.596647
0.0026824
0.1289
-0.131583
-0.0722939
-0.0899339
0.162228
0.11406
0.00298144
-0.369675
-0.727799
-0.0747581
-0.299779
0.374537
0.923703
1.48345
-1.64069
1.2869
0.108871
-0.455559
-0.990438
0.883316
-1.13232
1.3259
-0.193577
0.524322
-1.69068
1.55729
1.57273
-0.420725
1.30969
0.77873
-0.0671448
0.263027
1.27668
-1.32928
0.296214
1.03307
0.251683
-0.286549
0.408506
0.0119814
-0.212456
0.148789
-0.105945
-1.48398
0.441869
-1.25278
0.810916
-1.52209
1.01176
0.510328
0.188026
-0.752518
-0.228271
0.266349
0.0857645
-0.0543078
0.0410471
0.0132607
-0.542916
0.462412
1.04862
0.524112
-1.42832
-0.120125
-0.14
1.62089
-1.4316
-0.189289
-0.403994
1.94825
-1.63745
2.47089
-0.833444
-0.720845
1.02859
-0.307742
0.0588572
-1.34467
0.139997
-0.41658
-0.266368
0.417192
-0.150825
0.0714053
0.0436423
1.33579
0.694264
-1.24263
0.548366
-0.0137344
-1.54561
1.55935
-0.052461
-0.107255
-0.00678242
-0.459617
0.4664
-0.400416
1.10248
-0.702065
0.19769
-0.137263
-0.0604269
0.240174
-0.244575
0.00440072
-1.98661
1.78946
2.44391
-0.50814
-1.93577
0.0687102
-0.00463791
-0.0640723
0.00660877
0.164636
0.0885155
-0.600637
-0.830491
1.67103
0.0299282
0.00494605
1.752
-0.97641
1.07483
0.134281
-0.134281
-0.134333
0.356361
-2.34153
2.24343
-0.928698
-1.31474
-1.24582
0.825494
0.420329
-0.00927839
0.0362872
-0.0270088
1.01138
-1.20596
0.194586
-0.581008
-0.195619
0.776628
0.432256
-1.94679
1.51453
-0.0916554
-0.787905
-0.208191
0.135897
-0.179612
-0.577712
0.757324
0.73567
0.431993
-1.16766
-1.38003
-0.425867
0.681544
-0.255677
-0.62949
0.91466
-0.285169
1.44545
-1.3252
0.30292
-0.377678
0.106632
-0.372643
0.21955
-1.3894
1.49841
-0.109007
-1.23567
1.75636
-0.520695
-0.0170136
0.131837
-0.114823
-1.61176
-0.806409
-0.0317301
0.0115756
-1.66254
0.46389
-0.365555
0.282918
-0.174123
-0.546722
-0.0474562
-0.051355
-0.816592
2.09115
0.0463572
-0.358941
-1.52495
0.122387
1.40256
0.397579
-0.328262
-0.0693166
-0.868021
0.15975
0.211046
-0.556575
0.345529
1.6051
-0.138141
-1.46696
-0.0274848
0.206897
-0.179412
-0.369364
0.519955
1.06971
-1.58966
-0.691136
1.63597
0.165001
0.695497
0.726303
-0.077406
1.58275
0.196658
-1.41294
1.39921
0.292628
-0.0364374
-0.256191
0.41422
-0.107252
-0.306968
-1.99089
0.353438
-0.104954
-0.395881
-0.582579
-0.253472
0.25004
0.803149
-0.211489
-0.59166
0.188846
0.0974107
-0.938104
1.39269
-0.454584
0.151344
-0.241277
-0.0600946
0.321287
0.246498
-0.512866
0.0210499
0.424644
-0.445693
-0.0642418
-0.0355742
0.099816
0.716103
-0.185221
-0.530882
-0.0278421
-0.167438
0.19528
-0.286631
0.318504
-0.0318732
0.0120137
-0.29491
0.282896
0.311303
-0.0596194
0.448867
-0.325558
-0.123309
1.57012
-1.03708
-0.950491
-0.067202
0.0989189
-0.0317169
0.0614444
-0.0711206
-0.272887
-0.236777
1.1156
-0.312455
-0.0527102
-1.2186
1.27131
-0.34102
-0.0254543
-0.00797138
-0.579456
0.200995
0.0391793
0.168751
-0.16774
-1.34161
-0.0349733
-0.0801773
0.115151
1.31535
-1.00228
1.23821
1.2057
0.254347
-0.0891808
-0.153962
-1.68946
1.84342
0.794895
0.395668
-1.19056
0.253515
-1.04615
0.700825
0.34533
0.35045
0.0471284
0.0243745
0.0722747
-0.0966492
2.11723
-1.12709
-0.990142
0.134472
-0.301074
0.166602
0.745615
0.329168
-1.07478
0.0688056
0.10069
-0.169496
1.71313
0.0140116
-1.72714
-0.450326
-0.00504676
-0.251473
0.29783
0.0350917
0.0431381
-0.0782298
-0.537335
0.0259774
0.0290196
0.0202011
-0.0492207
-0.372461
-0.672161
1.04462
1.12669
0.478406
0.991471
-1.04418
0.766218
-1.16663
-1.91132
1.80982
-0.0230466
-0.064807
0.249971
-0.594396
0.344424
0.715115
0.986846
1.10913
-1.33689
0.227752
1.23337
-0.537876
-0.130986
0.0877454
-0.0107486
-0.0564375
0.0671861
-1.71756
-0.449351
2.16691
-0.406782
0.44178
-0.0349982
0.0139888
0.120293
0.155938
1.74496
-0.135906
-0.0444564
0.861213
-1.35601
0.4948
-0.706619
-0.36942
1.07604
1.51748
-0.464345
0.71352
0.568906
-0.760766
-0.260756
0.00487976
0.255876
0.0209732
-0.192569
-0.462635
1.1569
0.0117533
0.0341375
-0.347648
-0.215846
0.563494
0.0117461
0.999631
0.726079
-1.22029
-0.466229
-0.398811
0.494271
0.751923
-0.926046
0.0739855
-0.0629538
-0.0711869
-0.273256
-1.94301
0.905926
-0.101214
-0.0467353
0.147949
0.0332379
-0.0203253
-0.0129127
0.230024
0.85529
0.199644
-0.0333125
0.0360111
-1.6929
1.65689
0.665399
-0.879719
0.21432
-0.022318
0.0618917
-0.0395737
-0.768822
1.21069
-0.114936
-0.358006
0.472941
-0.272575
0.483621
-0.977247
1.44786
-0.470611
-0.465097
0.476851
-0.0117532
2.21239
-0.0605462
0.466973
-0.175324
-0.291648
-0.590838
0.363567
-0.176072
0.336814
1.34134
1.03073
0.105973
-1.69866
1.59269
-0.801239
-0.174481
0.975721
-0.27813
0.25447
0.0236604
0.0761448
-0.248992
0.172847
-0.0218214
-0.100377
0.122199
-0.099973
0.00174432
-0.383602
-0.223467
-0.0106581
-0.0944797
0.133828
-0.1315
0.392885
-0.261384
-0.229464
0.27129
-0.0418256
-0.0434301
0.203356
-0.159926
0.791346
-0.365102
-0.0591524
0.0121449
0.449489
-1.09364
0.644153
1.19791
-0.967889
0.00675695
-0.340274
0.333518
-0.953674
-0.748972
-1.37194
1.50643
0.665026
-0.469487
-1.29639
0.806112
0.490273
0.272249
-0.098455
-0.173794
1.75227
-1.75227
-1.63921
0.103104
-0.307394
-0.240673
-0.611095
0.851768
0.570476
-0.526561
-0.0439149
0.0224893
0.0702831
-0.0871952
0.0169121
-0.00158077
0.198748
-0.197167
-0.415046
1.24962
-0.834572
0.418808
0.122005
-0.540812
0.767307
-0.70845
-1.04717
0.245927
-0.0415467
-0.213827
0.255374
-0.0185705
-1.31071
-0.457889
-1.22797
0.770076
0.33014
0.0118796
0.223858
-0.235738
-0.269452
0.334689
-0.0652371
-0.239078
0.171719
-0.0822075
0.170556
-0.13142
0.0361561
0.132065
0.222205
-0.35427
-0.037544
-0.0188935
0.317092
0.131775
-0.205852
0.211377
-0.00552494
0.0133521
0.0199007
-0.0332528
0.100153
-0.0283825
-0.0717708
-0.0640741
0.165635
-0.101561
-0.546127
1.35704
0.490863
-1.12792
0.637057
-0.150832
-0.0797412
0.230574
-0.0388269
-2.56875
2.60758
0.885446
-0.555941
-0.329505
0.475922
-0.0443771
-0.189257
0.0529981
-0.0748985
-0.0538213
0.188293
0.287679
-0.938461
0.650782
-0.416041
-1.23696
-0.22461
0.772047
-0.547437
-0.11043
0.0868993
0.402275
-0.27232
-0.129954
0.799166
-0.349677
-0.794712
0.565879
-0.545849
-0.0200304
-0.516206
0.321316
-0.158138
0.56916
-0.2205
0.253592
-1.74711
-0.141053
-0.284458
0.530957
0.0255212
-0.233712
0.0303934
0.0367927
0.305669
-0.29379
-0.0814704
-1.2984
0.752273
1.98863
-0.184505
-1.86558
2.24067
-1.08362
-1.15705
-0.084021
0.469379
-0.0763483
-0.742551
0.459289
-0.382382
-0.24258
-0.018176
-0.543212
-0.413792
0.957004
0.122079
0.241094
-0.363173
0.0390209
-0.887767
-1.98415
-0.310295
-0.320645
0.63094
0.626987
0.0384122
-0.241576
-0.0375229
0.279099
0.467772
-0.0862287
0.168251
0.103998
2.06432
-1.63207
-0.872938
0.329726
-0.248193
-0.0497301
0.297923
-0.0454877
-0.121559
-1.0844
0.516285
-0.0570844
-0.459201
-0.0821646
-0.0337887
0.914955
-1.18339
0.268436
-0.657968
-0.067817
1.82009
-0.542746
-0.550897
1.75111
-2.11559
0.364484
-2.31462
1.86019
0.454434
0.147553
0.102964
-0.250517
0.149763
1.14128
0.0194775
0.824038
-0.843516
0.0542204
0.324709
0.121975
-0.0532647
0.0308055
-0.34232
0.311514
1.26984
-1.4238
0.0734581
0.329652
-0.397565
0.0679127
-1.54945
-0.0897594
-0.589698
-0.308753
0.24155
0.108803
0.00336805
-0.112171
-0.614087
0.296325
0.317763
-0.389067
0.334837
-1.0841
-0.465908
1.55
-0.132885
-0.0470552
0.0377768
-0.375011
0.118489
0.256522
-0.381597
1.39336
-0.155641
-0.928142
-0.317682
1.45169
-0.577607
1.01293
-1.42798
-0.0098354
-0.0244191
0.0342545
1.05602
-0.632378
-1.52105
-0.336272
-0.0834667
0.419739
-0.0539257
0.202715
0.0972873
-0.458301
0.361013
0.425483
0.0977225
0.527767
0.93126
-0.129909
0.302476
-0.0669325
-0.407587
0.391875
-0.174356
0.0668907
0.107466
0.239748
-0.106323
-0.133425
-0.141116
-0.0411475
0.182263
0.318936
0.117936
-0.436871
0.0836393
0.0336084
-0.188708
-0.0632989
-0.0279825
1.19379
0.0422943
0.137984
-0.180279
0.078465
-0.126344
0.0478793
-0.0298101
-0.269334
0.299144
0.615318
0.2358
-0.661667
-0.0798408
0.357478
-0.073264
-0.4024
0.165895
-0.12755
-0.0367333
1.79623
-0.990798
0.0668429
-0.215056
0.148213
-1.59063
0.218684
-0.107787
0.0171613
0.090626
-0.0394952
-0.0334996
-0.648053
-1.66657
0.35643
-0.0589463
-0.738048
-1.4717
-0.547488
0.19984
-0.541578
0.166567
0.898074
-0.734317
-1.51228
1.61825
-2.106
0.388439
-0.163478
0.0322744
0.131203
0.0503923
-0.193257
-0.374531
0.567788
-0.294155
0.0305226
-0.332732
-1.12508
1.45782
-0.518304
-1.14335
1.66166
0.555584
0.347385
-0.902969
-0.000271524
0.307465
0.258414
-0.2592
-0.253666
-0.168529
-0.102707
0.271236
0.0930814
0.36287
0.270369
0.131906
0.451001
-0.594753
-0.0248641
0.0362696
-0.578694
0.738086
-0.159392
-0.147483
0.451731
-1.35884
0.0714637
-0.0117109
-1.47089
0.456546
0.143675
-1.06695
-0.540803
-0.132211
-0.932372
-0.316316
1.24869
-0.116205
0.575494
-0.169108
0.994602
-0.293019
-1.01167
-0.931336
-1.25233
1.44692
0.0818385
-0.283372
0.0159989
-0.0662927
0.0502938
-0.623052
0.560128
0.0629236
0.681877
-0.795041
-0.195282
0.0940681
-1.10387
-0.192512
-0.047406
-0.00984707
0.0572531
0.0947962
0.621306
-1.43874
-0.181066
1.6198
0.0574583
-0.0950022
0.221246
-0.423966
0.20272
-0.23304
0.388646
0.13623
-0.204925
-0.060351
0.265276
-1.31027
0.834181
-0.294665
0.000510842
-0.172201
-0.128873
-0.329072
0.0532215
0.020764
-0.0523175
0.0879123
-0.0161504
-0.0620794
0.296692
1.29773
-0.644568
1.95425
1.01215
0.627525
-0.823144
0.0450842
-1.48382
-0.299951
-0.321918
0.380012
-0.0580945
0.216756
0.0203642
0.0472365
0.0127383
-0.0542683
0.122582
-0.196155
1.8356
-1.63944
0.188965
-0.837565
-0.122808
-0.256988
-0.069089
0.900791
-0.280218
0.353836
-0.0736189
-0.0471331
-1.53698
1.58412
0.573243
0.27348
0.296996
-0.490785
-0.547694
0.946523
-0.398829
0.0353463
0.0170127
-0.0373379
-0.23292
0.850529
-0.617609
0.105196
0.265171
-0.370367
-0.124429
-0.645297
0.769726
-0.274412
-0.0590989
-2.05222
-0.0267909
0.186782
-0.184099
0.0289362
-0.305915
0.0112493
0.338234
-0.658878
2.28786
-0.968061
-1.3198
-0.143403
0.405407
-0.185563
0.406809
-0.259377
-0.286472
-0.172961
-0.0132833
0.114841
-0.424015
-0.182201
0.850352
-0.97478
0.136044
-0.0920904
-0.0439536
-0.367568
-1.96692
1.09154
0.875383
-2.00869
1.96987
-1.13947
0.310822
0.828646
-0.0840987
0.314763
-0.230664
0.699701
0.415903
-0.0449009
0.195913
-0.0335344
-0.145656
0.0176473
-0.257301
-0.0150199
1.12745
1.16041
-0.0091396
0.0171069
1.6337
-1.42231
-0.0339925
-1.39461
1.4286
1.23475
-0.0409622
-0.289526
-0.076029
0.593622
0.108876
-0.24827
-0.0572427
0.465748
0.790221
-1.5623
0.772077
0.0945436
2.35001
-1.41845
-0.931561
0.00850984
-0.0114458
0.047733
0.647773
0.75034
1.09819
-0.99509
1.04864
-1.56694
-1.23547
0.0143304
1.22114
-1.75319
0.480986
1.27221
0.088543
0.0452853
2.43983
0.0585581
-2.49839
-0.686723
1.37669
-0.689967
0.0522961
0.218994
-0.814539
0.185049
-0.00242145
0.0418819
-1.34306
0.210734
0.00402053
-0.01952
0.0154995
-0.0937274
0.2171
-0.123373
0.138853
-0.480364
0.341511
0.532186
0.410787
-0.516896
-0.0971916
0.0758966
0.846547
-0.938203
-0.0650276
-0.0542932
-0.250242
0.0530314
0.732774
0.323092
-1.05587
-0.441999
0.38789
0.0541086
0.117088
-0.445628
0.32854
-0.674918
-1.60037
0.811819
0.788556
0.122837
0.845782
0.240847
-1.08663
-0.283915
0.218726
-0.242624
0.0238976
0.165977
-0.0355742
-0.245535
0.0039595
-0.285716
-1.38055
0.67038
-0.416516
0.782791
-0.366276
-0.627815
-0.706975
1.71352
-0.734801
-0.100717
0.179228
-1.41642
0.0834615
-1.39763
1.31417
0.0457852
0.0261492
-0.0719344
1.0841
-0.825151
-0.258947
0.189778
-0.0186621
-0.0192442
-1.43774
0.809922
-0.578939
1.27976
-0.142988
0.579819
0.292864
0.210176
0.0295724
0.804168
-0.369758
-0.00793706
0.689814
-0.943096
0.426625
-1.54551
0.402158
1.01718
-1.06431
-1.58158
1.38543
-0.068934
-1.46348
0.19022
1.27326
0.531586
0.240461
0.0345122
-0.927788
0.687116
-0.108274
-0.125589
0.233863
-2.29208
0.677629
1.61445
0.403148
0.826705
-1.22985
0.0780881
-1.33042
0.754131
0.107436
-0.861567
-0.378155
-0.0495242
-0.940913
-0.0758387
-0.0119115
0.0509005
1.49186
-1.47785
-0.0548586
-0.978584
-0.621791
0.539561
-0.0117216
-1.22375
1.11587
-0.270086
-1.55729
-0.00215927
-0.309858
-0.90594
0.327647
-0.309693
1.91132
0.224515
0.154945
-1.23935
0.133636
-0.101751
0.203636
-0.444803
0.330158
-0.55487
0.224712
0.0673841
0.0857102
-0.153094
-0.456194
0.28087
0.291777
0.245268
-1.11705
1.13713
-0.0200835
-0.742254
1.11328
-2.1283
1.01502
-0.195679
-0.0561946
0.0902004
-1.47113
0.132774
1.33835
-0.368534
0.892856
-0.662794
0.701815
0.154371
0.966591
0.54867
-1.0149
-0.828158
-0.167557
0.995715
-0.255401
-1.38432
1.05159
-0.121357
0.124407
-0.00305003
0.0503026
-0.0898763
0.951388
-1.41402
-0.69689
0.153688
0.543202
0.14105
-0.106783
-0.0342669
-1.07531
0.43001
0.036519
0.0250021
-0.225978
0.4027
2.28422
0.155605
-0.798863
0.818341
-0.261173
0.0889723
-1.26605
2.21652
-0.950465
-0.074036
0.0632854
0.0763254
0.36677
-0.017878
1.00144
1.19203
0.645135
-0.91668
0.295328
-2.16322
-0.164693
0.12972
0.141914
-1.14419
-0.224636
-0.958755
-0.206567
0.0521856
0.777041
-0.374341
-1.22543
-0.234615
1.16588
0.181565
-1.68177
0.307641
1.37413
-0.0816402
0.470286
1.06448
-1.12221
-0.306115
0.733591
-0.325609
-0.407982
0.865917
-0.30478
-0.561137
-0.175138
0.0378745
0.6341
-0.661972
0.0278726
-1.42979
0.898512
0.531277
0.511045
0.936813
0.000658008
0.108145
0.750819
-0.515018
-2.16536
0.89616
1.2692
-2.03093
1.58158
0.987549
0.71758
-1.70513
0.793584
-0.734679
1.76709
-0.582553
-1.18454
-1.05279
0.168435
-0.0806899
-0.180195
-0.100439
0.185626
-0.0363746
0.113866
-0.0774916
-0.229794
0.188261
-1.80308
-0.224566
0.160392
-0.129586
-0.0312018
-0.0178286
0.942795
-0.498018
-0.444778
0.769812
-0.473487
-0.115638
0.122247
-0.167437
1.27657
0.0587965
-0.0130113
-0.335304
-0.740004
-1.48957
0.557199
-0.0651553
-0.0759629
0.122712
0.112251
0.0992678
-0.0832689
-0.490803
-0.526403
0.0925692
-0.0766221
-0.0159471
0.176648
-0.722537
-0.455725
1.17826
-0.307957
0.00204234
-0.117633
1.1502
0.996741
-2.14694
-0.386433
0.942017
0.210742
-0.0840823
0.65888
-0.82731
-0.825458
1.65277
-0.946398
-0.946888
0.533096
0.292455
-0.188842
-0.103613
1.04248
-1.14724
-0.148835
1.97033
-0.857055
-0.176507
0.102342
-0.43025
-0.69767
0.0891767
2.07009
-1.80982
-0.260266
-0.900151
-0.589421
-0.343344
0.161567
0.0643108
-1.02787
-0.210587
1.23846
0.239158
-0.287186
0.392382
-1.64782
-1.42707
0.642385
0.784689
-0.161332
-0.00455572
0.165888
0.945547
-0.578523
-0.367024
0.102667
-0.156936
0.0764261
0.0821542
0.751629
-1.83572
0.753267
0.11265
-0.332942
-0.539995
0.328891
-0.0877963
0.14553
0.305404
-1.02794
0.0287891
0.356061
-0.316183
-0.0564604
-0.165059
0.0781859
0.0868731
0.980483
0.786609
0.540611
0.0563613
0.680536
-0.148782
-0.531754
1.69068
-1.38304
-0.390388
-0.153639
0.140501
0.0254759
0.198728
-0.0823425
-0.271928
0.0031689
-0.124526
0.540493
-0.101716
-1.81261
-0.0209811
-0.140351
-0.0685583
0.00226563
1.08692
-1.25603
0.849969
-0.40756
-0.44241
0.00395096
0.107705
-0.0145723
0.0185928
0.388824
0.0374079
0.0624081
0.27139
-0.456611
-2.71813
1.17221
1.54592
-0.0923618
0.00699004
-0.0212928
0.102261
0.12137
-0.267408
-0.289167
0.653739
-1.48105
-0.0239858
-0.949503
2.0997
0.603499
-0.0651308
-0.538368
-0.590909
-0.484252
-0.0423086
0.0871576
-1.10272
0.488632
-0.722811
0.234179
0.262995
-0.345903
0.082908
-0.11516
1.13019
1.3407
-1.35395
1.38304
-2.1446
1.65307
0.491532
1.16444
-2.11394
2.40673
-1.15625
-1.04334
-1.05072
-0.0357372
0.0767843
-0.0501427
-0.409475
-1.55729
0.0938169
-0.0386829
-1.2982
1.21438
-1.97437
0.759987
-0.0530738
0.234808
-0.387545
0.109043
-0.120796
0.991483
1.35853
-2.18894
0.922887
-0.182466
-0.763932
-1.32954
-0.180033
-0.165869
2.00869
-2.06924
-0.126331
-1.09329
-0.0256829
1.28778
-0.767822
-1.76927
1.77666
-0.00738808
0.461742
2.14584
0.413835
-0.0400902
-0.373744
1.62643
-0.577796
0.229003
0.0452786
0.729221
-0.737193
0.0827212
0.127455
0.711686
0.79608
-1.50777
-0.528324
-0.414702
1.02484
-1.064
0.0391561
0.419771
-0.476855
-1.71007
0.718914
0.991159
1.10523
-0.0211361
-0.918744
-0.201471
1.0371
-1.6147
0.27991
-0.53911
-0.257576
0.423471
-0.620456
0.427199
-1.64217
-0.536294
2.17846
-0.399472
0.517408
-0.456351
0.482329
1.12861
-1.44629
0.0588662
1.35533
-1.9999
-0.26686
-0.326576
0.206054
-1.17394
0.109329
0.691716
0.504072
0.00972023
-0.587432
-1.80901
0.296731
0.0266778
0.113211
-0.139889
0.0674918
-0.308998
1.136
1.10467
1.24104
-0.972601
0.10225
-0.0513232
-0.35621
0.439029
-0.43934
0.537062
-0.641739
-0.936545
2.10098
-0.221874
0.344711
-0.603017
-0.741244
1.34426
-1.40215
0.715432
-0.0655906
0.250743
0.0484004
-1.45268
-0.0722641
-0.148229
0.636862
-1.43904
-1.27908
2.07009
0.545214
-1.34491
0.987173
-0.576386
-0.225232
0.565425
-0.30701
-0.232132
0.238889
-1.5195
0.239238
-0.786932
1.16612
-2.10267
-0.784295
-0.208258
0.571825
-0.191703
-1.57757
1.2008
-1.7416
1.33677
0.6408
-1.5513
0.910503
1.51246
-0.613952
1.83545
-0.875375
-1.10989
1.98527
0.584937
1.2564
-1.01724
-0.629102
-0.797972
-1.094
-1.0506
0.445672
-0.864476
1.45704
-0.592567
-0.123808
1.36384
-1.24003
-1.01246
-0.954344
1.9668
0.910402
0.114438
0.233923
0.366023
-0.269989
0.236506
0.0334834
0.00119955
-0.242477
0.479173
-1.37932
-0.685464
-0.374455
-0.248597
-0.137062
0.593608
-0.000957358
0.672571
-1.98246
0.63201
1.35045
-0.0168443
-1.63766
1.6545
0.0240432
-0.239453
0.0422861
0.570571
-1.80268
1.80268
-0.0913227
-0.0217755
0.113098
-0.61123
1.04322
-0.287053
0.10702
-0.747645
-0.225913
0.588783
-1.35395
-0.0352958
-1.25987
0.283464
1.25728
-1.27585
-1.21686
0.188984
-0.14657
0.560054
-0.413484
0.11631
0.51779
0.0917579
-0.0243738
-0.95587
-1.19905
0.190077
1.00897
-1.37731
-0.309125
-0.930705
-1.1976
0.0403327
-0.245257
0.158281
0.337366
-0.596744
-0.0531906
0.0370402
0.359082
-0.286396
-0.33406
-0.96133
1.44243
-0.481096
0.323409
0.193544
-0.22013
0.384159
-0.164029
-0.411136
0.155699
0.386267
-0.531901
0.145634
-1.15034
1.91378
-0.92623
-1.40843
-1.90607
0.369088
-1.72638
0.0489564
0.976166
1.14107
0.151365
-1.0573
1.26032
0.23809
0.335763
-0.478751
0.636718
0.61758
0.176004
2.06184
-0.895713
-1.05814
-0.618765
1.67691
1.13589
-0.0120835
-1.1238
-0.0265712
-0.0997731
-0.189918
0.172905
0.132214
1.3498
-1.48201
-1.19372
1.06431
0.129415
1.19372
-1.38543
0.209505
-0.262579
-1.11299
1.06346
0.0763449
-0.0591241
0.0927325
-1.66591
0.154221
1.53594
-0.895142
-0.298521
-0.066047
0.132938
-0.421017
0.878972
0.251239
-0.0846368
0.626668
-1.24428
0.172947
-0.233373
-0.564069
-0.0555432
0.613093
-2.07248
0.526865
-0.0699998
0.422488
-0.352488
-1.0416
-0.932771
0.0718918
0.699842
0.475784
-0.871929
0.0730653
-0.143506
-0.302121
0.105386
-2.15195
1.10862
0.0701594
-0.0196691
-0.274121
-0.00457792
-0.0477396
-0.0991187
-1.40036
0.653714
-1.60523
0.951516
0.0591034
0.241714
-0.300817
-0.0148112
-0.243232
-1.01988
1.30335
0.586381
0.355636
1.32164
-1.12221
0.181452
0.040854
1.71496
-1.99698
0.282021
0.27852
-0.16003
-0.813407
-0.0481597
0.360432
-0.443898
0.224192
-0.187399
-1.29278
0.236532
-0.0724912
-0.164041
-1.47683
0.186614
1.29021
0.279274
-0.221816
-0.0423344
0.293048
-0.250714
1.17356
-1.18528
-0.217748
0.303459
0.606022
0.245745
-0.118938
0.176191
-0.0469158
0.133815
0.197504
0.648939
-0.846442
-0.42015
-0.060214
-0.92818
-1.01311
1.94129
0.138597
-0.173824
0.322038
-0.994958
1.96987
-0.0591282
0.10952
0.0488387
0.0565378
0.145419
2.16493
-1.03748
-1.22034
0.766928
-0.52769
-0.906509
2.17571
-0.0477307
0.0851386
-0.259358
0.273347
-0.0322204
-0.148058
-0.27908
0.176373
-0.310033
0.634154
-0.296787
1.17012
0.0557451
-0.060323
0.289438
-0.0655801
0.0359072
0.399051
0.0666974
0.466445
-0.752841
0.204655
-0.23415
0.0294952
0.0793111
-0.0531619
0.171142
0.868809
-1.03995
-0.229411
0.103822
0.469876
-0.586081
2.14895
-1.22524
1.01626
0.902846
0.10429
0.530008
-1.15521
0.33998
-0.426209
-0.386848
1.49219
0.572133
-1.48639
1.48639
1.6994
-0.850784
1.08806
-0.0295629
1.53941
-1.50984
0.918596
1.02585
0.727414
-2.36958
0.168944
-1.14372
-1.34461
-0.194955
-1.43445
1.6294
-0.393737
-0.122469
0.0701066
1.17573
0.146904
-0.253227
-0.676952
1.49685
-0.819896
-0.172792
0.255513
-0.0182557
-0.180236
0.530686
2.6512
-1.07888
-1.57231
1.61581
-1.48303
1.11947
0.206436
0.0253917
-0.00305604
0.0323753
1.56254
0.546717
1.04562
0.347065
0.0205675
0.192299
-0.212867
-0.337376
0.208503
0.17713
-0.189057
0.0119271
0.157815
-0.21229
0.0544752
0.498382
-0.422485
0.325419
-0.472902
0.589252
-0.421885
0.0226457
0.0294721
-0.00698281
-0.0708627
0.320505
-0.249642
-0.31928
0.297822
0.0214578
2.06924
-1.66609
0.535789
-0.541629
0.00584002
-1.49186
-0.333179
0.259915
-0.990101
1.9087
0.252327
-0.321416
2.31411
-1.5867
0.240013
-0.306946
-0.153399
0.0536886
-1.31954
0.0943142
1.57751
1.28114
-1.07509
-0.102052
0.139893
-0.0878419
-1.49053
-0.286892
0.279124
0.236994
-0.359802
-0.356085
0.282467
-0.0795446
-1.3337
1.29971
-1.43769
1.47635
-1.17547
-0.472002
0.411401
0.670604
0.375062
-0.390082
-0.0554423
0.0746776
0.336852
-0.411529
-0.358374
1.41933
-0.921563
-1.06123
-2.16836
-0.0772668
0.073574
0.00369287
-0.00745372
1.44411
-1.43666
1.72361
-1.05323
0.314221
-0.372316
2.15537
-0.979643