/*--------------------------------*- C++ -*----------------------------------*\
| =========                 |                                                 |
| \\      /  F ield         | OpenFOAM: The Open Source CFD Toolbox           |
|  \\    /   O peration     | Version:  2306                                  |
|   \\  /    A nd           | Website:  www.openfoam.com                      |
|    \\/     M anipulation  |                                                 |
\*---------------------------------------------------------------------------*/
FoamFile
{
    version     2.0;
    format      ascii;
    arch        "LSB;label=32;scalar=64";
    class       volVectorField;
    location    "7.6";
    object      U;
}
// * * * * * * * * * * * * * * * * * * * * * * * * * * * * * * * * * * * * * //

dimensions      [0 1 -1 0 0 0 0];

internalField   nonuniform List<vector> 
5098
(
(2.53563 1.07563 0)
(2.11629 0.108202 -4.82849e-20)
(2.5537 -0.0192846 -1.91758e-21)
(1.52161 -0.679321 7.04084e-19)
(2.78652 -1.07682 0)
(0.895918 -0.430435 0)
(2.51758 0.012228 3.62275e-20)
(2.83177 -0.265602 2.10943e-21)
(2.72957 -0.0310163 -4.04725e-20)
(1.88409 -0.285838 1.78825e-19)
(-2.30022 0.301746 0)
(2.11406 -0.0280113 1.5283e-19)
(2.39119 -0.277332 -3.51622e-21)
(0.929463 -0.450617 0)
(2.35565 -0.420348 1.51747e-19)
(1.87973 0.0761907 -5.79494e-22)
(-2.0126 0.65445 -6.40837e-19)
(-2.66456 1.24168 0)
(-0.259971 0.201796 3.3529e-19)
(-2.04975 0.675426 7.31663e-19)
(1.80708 0.580821 -8.59414e-20)
(1.85505 0.0638596 -1.88237e-21)
(2.11081 -0.782529 0)
(0.75037 0.0388139 2.96828e-20)
(-1.72714 1.18312 0)
(1.46724 -0.584799 0)
(1.9811 0.0239783 1.34304e-19)
(1.84079 -0.774591 1.63367e-19)
(-0.353412 0.270633 -1.02728e-18)
(1.75419 -0.749242 0)
(2.39012 -0.179219 -9.71073e-20)
(0.711549 -0.343868 0)
(2.06043 0.0426501 -1.38122e-19)
(-1.51067 -0.152124 0)
(2.53587 0.403056 -2.92503e-20)
(3.69126 0.455934 1.18188e-18)
(1.84736 -0.445695 1.31988e-19)
(2.06031 -0.0122561 -2.83775e-21)
(1.32901 -0.43125 5.43505e-19)
(1.40666 -0.646071 0)
(1.52938 -0.694355 -3.27882e-19)
(0.549624 1.57464 -1.81838e-18)
(1.48331 -0.587933 0)
(2.57842 -0.184963 7.02156e-20)
(2.43047 0.700634 2.49403e-21)
(2.04556 0.062956 8.33673e-21)
(-2.23478 0.717436 2.74407e-19)
(1.07384 -0.357198 0)
(2.35853 -0.203807 0)
(1.52548 -0.643788 7.52152e-20)
(2.24402 0.132034 8.19697e-20)
(1.58602 0.484918 -4.97263e-19)
(0.332861 -0.176699 1.23953e-21)
(2.0809 -0.0408912 1.65261e-19)
(0.958229 -0.477533 -3.23969e-19)
(1.55166 0.134991 0)
(1.82829 0.294535 -2.67047e-19)
(1.62266 -0.661607 0)
(0.839914 -0.411351 0)
(1.95071 -0.017002 -4.07509e-20)
(1.65132 -0.365019 2.86695e-21)
(-2.20405 1.08593 -9.38265e-19)
(2.50512 0.429561 0)
(2.32657 -0.248964 0)
(0.365642 -0.188234 1.67147e-18)
(0.806356 -0.403514 4.16502e-19)
(2.34916 0.0157015 4.6936e-21)
(2.30811 0.172116 1.65924e-20)
(2.14478 -0.234388 1.53308e-19)
(1.66799 -0.701184 2.1169e-19)
(1.89211 0.230062 1.36013e-20)
(1.01513 -0.808539 1.09693e-20)
(1.91676 -0.784175 0)
(-0.37204 -0.602427 0)
(1.78637 -0.264585 3.78081e-20)
(1.12674 -0.550674 -3.61806e-19)
(1.57417 -0.201279 0)
(1.50213 0.229412 4.44053e-19)
(2.48023 -0.260561 7.50991e-20)
(1.61078 0.180895 0)
(1.70149 -0.0759918 0)
(2.07109 1.15214 5.92052e-19)
(1.68652 -0.299089 4.9787e-19)
(-1.42216 -0.38724 -1.03103e-19)
(-2.50997 0.886585 7.52567e-19)
(1.59689 -0.68588 1.05538e-20)
(0.0665342 0.281026 -2.72217e-19)
(1.58984 -0.214896 -2.93006e-21)
(2.94447 -0.143974 7.81745e-20)
(1.54829 -0.340425 7.15567e-21)
(2.27881 -0.209833 -6.34749e-21)
(0.979787 -0.29802 7.01111e-19)
(2.48819 -0.0840389 -1.92742e-19)
(1.54086 -0.663618 -3.753e-19)
(1.3153 -0.460147 9.57209e-20)
(0.845128 -0.648126 -5.5741e-20)
(1.05345 -0.528213 -2.89288e-19)
(1.43878 0.307758 3.30598e-19)
(1.71864 -0.253665 1.68656e-20)
(2.01713 -0.457526 -9.71127e-20)
(3.12023 -2.13511 -6.38089e-19)
(1.0112 -0.49865 -3.81181e-19)
(-0.337585 0.348953 -2.24823e-19)
(2.67531 0.0162508 1.15653e-20)
(1.5096 0.20212 -5.04763e-19)
(2.3907 1.16804 0)
(1.92422 0.284284 2.84718e-19)
(2.34934 0.106031 2.80726e-20)
(1.00703 -0.401704 7.56401e-20)
(-2.31767 0.296761 0)
(1.05743 -0.508207 -7.89746e-19)
(1.03734 0.433566 4.89176e-19)
(1.94809 -0.00795917 -2.50076e-19)
(0.90456 -0.119821 1.54455e-19)
(1.7497 0.658619 1.23929e-19)
(-0.318522 0.0118228 0)
(2.45696 0.921034 1.69021e-18)
(2.59277 1.48195 0)
(1.20385 0.0607059 -7.86509e-20)
(0.78179 -0.0152919 -4.54611e-19)
(1.65484 0.464578 4.08324e-19)
(1.53969 1.99943 -1.79142e-19)
(1.95557 -0.310039 -1.13128e-19)
(-0.558818 2.34744 -8.79807e-19)
(0.764854 -0.352418 -9.5291e-19)
(-1.90773 0.815197 6.32802e-20)
(2.2317 -0.0328734 1.34956e-19)
(2.09113 -0.747518 -1.42158e-19)
(1.34654 -0.123559 -1.1649e-19)
(0.965401 -0.11989 -3.00976e-19)
(-1.80421 2.22178 -1.1801e-18)
(1.09672 -0.481701 -5.52717e-19)
(1.13056 -0.482788 4.62144e-19)
(2.49245 1.50277 -8.17766e-20)
(1.05609 -2.54693 -1.55382e-18)
(3.43874 -0.593037 5.83706e-19)
(1.9244 2.47108 4.3794e-19)
(1.90348 0.284755 1.95962e-19)
(0.865625 -0.42299 0)
(2.09638 -0.0392173 -5.34536e-19)
(1.55454 0.58487 -3.29927e-19)
(1.6995 -0.227154 1.81022e-19)
(1.74598 -0.789877 2.96435e-19)
(2.52232 -0.0337533 -1.03999e-20)
(2.02768 0.0586021 -5.66738e-20)
(2.95215 0.1367 0)
(2.11703 -0.239754 1.63455e-19)
(2.4166 -1.47766 0)
(2.85931 -0.0434032 4.42723e-19)
(1.6483 -0.748092 9.65044e-20)
(2.58417 0.474338 -1.21225e-18)
(1.81862 0.778572 0)
(2.5951 -1.43199 2.31847e-19)
(2.05603 0.0463584 0)
(0.0545617 0.176179 -3.41999e-19)
(0.790964 -0.30223 -1.87143e-19)
(1.6279 -0.654655 -3.84791e-19)
(2.31191 -2.2378 -3.38896e-19)
(1.47698 -0.688747 -2.70016e-19)
(-0.189511 0.135164 1.09039e-18)
(1.93668 -0.42419 -3.49441e-19)
(2.38509 -0.417932 -2.03961e-19)
(0.521076 0.572032 -4.30315e-19)
(1.80445 -0.183145 -3.07642e-19)
(-2.60258 1.50956 -6.28674e-19)
(2.42449 -0.183619 -1.00855e-19)
(2.80421 -1.34708 -8.63537e-19)
(2.34745 -0.462581 0)
(-2.03705 1.42086 6.7799e-19)
(1.67043 -0.538885 -4.26088e-19)
(0.838251 -0.68898 3.96875e-20)
(1.53405 -0.618984 -2.56798e-19)
(2.22454 0.591602 1.56899e-19)
(1.83699 -0.74665 2.88297e-19)
(2.63152 -0.0242729 0)
(1.9402 0.00675362 0)
(1.69673 -0.290593 -1.90929e-19)
(3.3821 0.5202 -1.69795e-20)
(1.74816 -0.123658 4.34006e-19)
(0.248493 0.111089 0)
(1.66231 2.1424 0)
(3.03853 0.599732 -1.14501e-18)
(1.72899 -0.532535 5.12107e-19)
(-2.5424 1.59905 0)
(1.84073 -0.178974 0)
(2.70118 0.878145 3.4921e-19)
(1.49086 0.348876 0)
(1.87445 -0.428376 4.48916e-19)
(0.994429 -0.484978 6.97605e-19)
(0.163434 0.420143 -3.15166e-19)
(1.00376 0.651595 0)
(1.54757 -0.152532 1.42459e-19)
(1.94292 -0.803978 0)
(1.75987 -0.274398 3.94391e-20)
(2.42715 -0.178404 1.10628e-20)
(0.830281 -0.210644 -7.41877e-19)
(3.47302 0.515513 4.38166e-19)
(3.636 -0.404201 0)
(2.03521 0.0331819 -3.59263e-21)
(1.69688 -0.519403 -7.54128e-20)
(-1.81646 2.17409 -1.72622e-18)
(1.65857 0.395918 6.19359e-21)
(2.45914 0.692735 -1.97311e-20)
(2.33391 0.0279907 6.2544e-21)
(1.50841 -0.00762848 1.93392e-19)
(0.76267 -0.30788 -1.33606e-19)
(2.72239 0.108473 -1.7392e-20)
(1.16241 -0.529883 0)
(2.37823 -0.088836 0)
(1.28029 -0.617592 -2.87798e-19)
(1.94742 -0.148716 -1.55494e-19)
(1.70409 0.338851 3.29455e-19)
(1.69761 -0.139084 -1.415e-19)
(2.05154 0.099742 -2.06639e-19)
(2.25492 -0.079031 -3.12098e-19)
(-0.0818183 0.213609 -2.80119e-19)
(1.81412 -0.287005 0)
(-2.52507 0.695855 -1.31474e-18)
(1.01026 -0.363598 1.34425e-19)
(2.00651 0.0530859 1.43107e-19)
(2.29499 -0.218854 -2.36736e-20)
(1.57454 -0.305401 0)
(2.4649 0.0942766 1.62659e-21)
(2.28751 -0.263586 1.16882e-19)
(0.366276 -0.12803 1.92459e-19)
(2.02324 -0.149339 0)
(0.374139 -0.0885244 0)
(1.97479 0.0186739 0)
(1.97615 -0.468359 0)
(1.83498 -0.689362 -1.03429e-20)
(1.79447 0.487957 0)
(0.576353 -0.238611 -4.92002e-19)
(2.87948 0.644222 -7.05281e-19)
(1.98154 0.0342553 -6.65907e-22)
(2.65735 -0.0469461 -5.83329e-20)
(2.39232 -0.0477776 0)
(1.41995 1.51486 -2.11633e-19)
(-0.822854 2.19456 -1.55329e-18)
(3.26492 0.182029 0)
(1.85804 -0.00792326 3.19161e-19)
(1.72055 1.32135 -1.9844e-18)
(2.24287 0.602862 0)
(2.69152 0.0309126 0)
(1.01662 -0.226859 8.23333e-19)
(1.76967 0.528596 -4.39921e-19)
(2.29689 -0.119047 -1.69504e-19)
(1.04401 -0.493679 8.83931e-20)
(-2.51124 0.459326 -8.39829e-19)
(-2.07812 0.525752 0)
(2.39341 -0.109248 4.6945e-20)
(2.16455 0.833117 -1.26617e-19)
(1.84948 -0.768432 2.90458e-19)
(-0.426788 -0.131981 4.58376e-19)
(-1.28454 2.28394 8.17166e-19)
(1.96979 0.0378006 -2.36829e-19)
(-0.889173 2.07507 1.42548e-18)
(2.11839 -2.52656 1.32066e-18)
(0.414679 -0.280232 -1.21133e-19)
(1.10734 -0.379995 -3.41387e-19)
(1.72139 0.0402022 1.49689e-20)
(2.69903 0.895509 5.20837e-20)
(0.361858 -0.218256 7.66373e-19)
(-1.30638 0.961521 9.4282e-19)
(1.86474 -0.797733 0)
(2.06804 0.0257503 -1.37027e-21)
(-2.53249 1.19744 3.54476e-19)
(-0.162116 0.112192 -1.27777e-18)
(-2.25117 -0.0786047 0)
(0.926762 -0.508865 0)
(1.83852 -0.010848 -2.94932e-20)
(0.186483 0.422819 3.87943e-19)
(1.84297 0.0801226 -3.51046e-20)
(-0.189874 0.139037 -5.75466e-19)
(1.0585 -0.434333 0)
(1.11024 -0.439531 2.50487e-21)
(-0.524685 0.414032 -1.45483e-19)
(0.79444 1.41824 -2.21793e-18)
(3.02653 -0.214891 0)
(2.26156 -0.651853 0)
(1.9325 -0.106837 0)
(-2.03716 2.18179 -6.62505e-19)
(2.72433 -0.20898 2.20418e-19)
(0.401146 -0.165253 -8.07095e-19)
(2.70935 -0.193226 -2.449e-19)
(2.31886 -0.421464 -1.69846e-19)
(-1.06194 0.422389 0)
(1.94178 0.0399173 0)
(2.85975 0.0344973 1.01515e-19)
(2.45811 -0.166079 8.1283e-20)
(1.63321 -0.0123783 -2.36743e-19)
(-0.408866 2.42348 0)
(-1.08545 -0.824875 5.48865e-19)
(1.01948 -0.0147637 -2.42464e-19)
(2.4467 0.534111 -2.87588e-21)
(1.93521 -0.595547 3.10258e-19)
(0.828725 -0.191765 -9.37645e-20)
(2.58157 0.154858 0)
(2.39706 -0.181469 -8.85343e-20)
(2.02419 0.0357285 0)
(2.08492 0.0367446 -1.44494e-19)
(2.78101 0.0636579 -8.57229e-20)
(2.73838 0.103594 1.12154e-19)
(1.56331 -0.397425 5.17229e-19)
(1.85248 0.484604 2.45233e-19)
(-2.49688 1.25563 -5.78969e-19)
(1.76878 -0.718092 -1.92723e-19)
(2.45845 1.87823 -1.04512e-19)
(2.0649 0.00348464 0)
(1.78626 -0.423798 0)
(-2.27289 0.637474 0)
(2.26971 -0.222348 3.14699e-20)
(-0.587203 -0.173257 4.67621e-20)
(0.82865 -0.41215 4.22506e-19)
(1.90384 -0.0357851 -9.01108e-20)
(2.43173 -0.26514 -3.46183e-21)
(0.139861 0.0900861 6.71821e-19)
(1.88825 2.29639 -2.39933e-20)
(2.44563 0.0962801 -7.02316e-22)
(2.23388 -0.129469 4.72831e-19)
(0.839697 -0.35002 0)
(2.63778 -0.261955 -9.02056e-20)
(-1.08329 -0.805057 -1.12794e-18)
(3.24054 0.152182 -6.04496e-19)
(0.487193 -0.55426 -2.27942e-20)
(1.78108 -0.235533 1.6351e-20)
(1.30749 -0.398113 3.68485e-19)
(2.15639 0.892097 0)
(1.98735 0.0919731 -9.63914e-20)
(1.01927 -0.408067 -7.98283e-19)
(1.30645 0.134805 6.98782e-20)
(1.26346 -0.613416 0)
(2.30433 -0.119691 -1.38433e-19)
(1.00903 -0.483506 2.45018e-19)
(2.31543 -0.650742 -1.76389e-20)
(1.692 -0.705486 -2.8258e-19)
(2.29746 0.0915963 -7.39278e-20)
(2.32655 -0.265334 2.91382e-21)
(0.951474 -0.47089 4.58731e-19)
(2.13359 -0.0556427 1.99861e-19)
(1.80924 -0.377132 0)
(1.76901 -0.80263 -2.79798e-19)
(1.64816 -0.700806 -8.69038e-19)
(2.53073 -0.255842 2.60349e-20)
(1.9739 0.0436162 3.99003e-20)
(1.54464 1.05593 0)
(1.65849 -0.237846 0)
(2.08892 -0.0375606 -1.65441e-19)
(0.347968 0.274759 2.53421e-19)
(2.64216 1.411 0)
(2.27751 -0.0829119 1.39614e-19)
(1.60502 -0.69415 -6.02439e-21)
(0.874935 0.380602 -6.07627e-19)
(0.834737 -0.355233 -4.30354e-19)
(-1.97342 2.12341 6.33904e-19)
(1.82597 -0.0581716 5.09524e-20)
(-2.17171 2.03502 2.5183e-18)
(3.57647 -0.353935 -6.56277e-19)
(2.12364 -0.0021414 0)
(1.37834 -0.0956907 -1.01012e-19)
(1.41266 -0.828956 0)
(1.96191 0.102684 -4.65129e-19)
(1.98072 -0.429538 0)
(2.04648 -0.0145101 -1.34606e-19)
(1.50323 -0.2161 3.60825e-20)
(2.68551 -0.177214 -5.78051e-20)
(1.08774 -0.415395 4.50428e-19)
(1.9709 0.0580546 -3.70611e-19)
(2.02592 0.204673 -4.46155e-19)
(2.00569 -0.839262 0)
(-0.726572 2.42151 0)
(1.16498 -0.455947 -4.40918e-19)
(2.66631 -0.213699 0)
(3.44586 0.861437 -7.64262e-19)
(1.60462 -0.303374 0)
(1.02839 -0.871871 -1.46877e-20)
(-2.33583 1.06981 8.19509e-19)
(1.71437 -0.553877 6.11488e-19)
(0.106949 0.103685 -3.38128e-20)
(2.32451 -0.441802 0)
(1.49787 -0.249167 -3.75009e-20)
(1.74145 0.00467219 -2.20082e-19)
(-1.93062 0.831536 -9.2895e-20)
(1.93807 0.0516953 -2.04918e-19)
(2.77808 0.0477637 -7.59912e-20)
(2.62505 -0.100273 -3.28331e-20)
(3.02465 1.12777 2.63882e-19)
(2.47042 0.503141 -1.90314e-20)
(-1.11098 2.32251 -3.6295e-19)
(1.64999 -0.480525 0)
(-0.556158 0.456371 2.43215e-19)
(1.97998 0.113309 -1.68569e-19)
(2.44321 -0.25856 0)
(1.98981 0.0421513 1.4002e-19)
(1.12933 -0.544138 -2.98616e-19)
(1.59168 1.30988 1.83531e-19)
(3.40562 0.373467 0)
(1.35547 -0.641001 1.12401e-19)
(-0.886673 -0.23317 0)
(2.19338 0.0422493 4.71152e-20)
(2.6266 -0.343026 -2.14227e-19)
(0.255376 0.657172 1.08246e-18)
(0.983176 -0.0380896 0)
(1.53719 0.320401 2.29993e-19)
(1.98385 0.05426 1.49366e-19)
(-0.259785 0.0169833 0)
(1.63947 0.029391 0)
(2.00944 -0.152035 0)
(-0.987597 0.50859 1.21108e-18)
(0.216149 0.104526 -4.1455e-20)
(2.89825 0.00924357 0)
(2.00828 0.0146441 0)
(1.5825 -1.49724 1.86833e-19)
(0.316647 -0.0523277 0)
(2.37806 0.479267 2.9386e-20)
(2.79027 1.31565 1.34887e-19)
(1.99836 0.728836 -1.86697e-20)
(1.8131 0.44433 -5.15854e-21)
(0.877649 0.471684 6.98723e-19)
(2.78992 1.49195 -1.48691e-19)
(2.33412 -0.212561 5.74885e-21)
(2.11329 -0.0557785 1.42804e-19)
(1.59304 -0.135454 -2.41823e-19)
(1.35872 -0.245328 1.21981e-21)
(2.01636 0.0369969 0)
(-2.20486 2.02453 -2.42605e-18)
(1.00552 -0.327232 0)
(-0.112591 -0.809703 8.40619e-21)
(2.14771 -1.37195 0)
(2.1522 -0.216295 0)
(1.27091 -0.605947 -2.19857e-19)
(2.17235 0.0257341 -1.87666e-21)
(-0.264672 0.191091 -1.1437e-18)
(2.08286 0.0157055 4.60625e-21)
(1.77611 -0.69172 3.11793e-19)
(2.95217 1.23159 1.62948e-19)
(0.377938 -0.564076 1.04207e-18)
(2.64421 0.0786854 5.78856e-21)
(2.06718 -0.802695 7.89616e-20)
(1.95483 0.0590163 -2.72131e-19)
(1.08474 0.282685 0)
(1.77513 -0.0768654 -4.50658e-19)
(1.77001 -0.460137 3.38647e-19)
(2.00003 0.140759 -6.12738e-19)
(-1.87581 0.766863 -4.78252e-19)
(1.51945 1.31542 -1.56663e-19)
(2.72864 1.38497 2.05521e-19)
(3.49769 0.0353272 0)
(2.31417 -0.380876 0)
(0.0343943 0.16565 -4.30831e-19)
(2.10225 -0.0644095 8.91059e-20)
(-2.17672 0.592966 0)
(2.2574 -0.131917 -1.19047e-19)
(2.00396 0.0147003 -3.08641e-19)
(-1.83315 0.595279 -2.99948e-19)
(-2.11912 0.348481 1.49451e-18)
(2.57234 -0.122752 -3.47635e-21)
(0.0241568 1.94796 -4.77324e-20)
(2.31061 -0.27906 -2.00082e-19)
(1.91203 -0.44609 2.26479e-19)
(3.3445 1.216 6.32221e-19)
(1.4963 -0.607782 3.28696e-19)
(1.44155 0.282662 3.7294e-21)
(0.965394 0.310983 5.08147e-19)
(1.97748 1.99543 0)
(1.65242 -0.454287 2.04822e-19)
(-2.56664 0.897014 0)
(0.725158 -0.111481 -2.07701e-18)
(1.48985 1.32438 0)
(-2.32866 1.14962 -2.18067e-18)
(1.59018 -0.675711 -4.46813e-19)
(0.930223 0.589766 -2.02756e-19)
(2.07487 -0.820371 0)
(-0.884694 -0.887009 0)
(3.31328 0.0686298 0)
(1.98637 0.095636 1.20878e-19)
(0.0458446 -0.351542 -7.53281e-19)
(-0.136516 0.361968 8.48241e-19)
(1.56367 -0.284077 -8.18778e-21)
(3.27439 1.23985 -7.26058e-19)
(2.03863 0.304044 0)
(1.14981 2.00914 2.89549e-19)
(2.40269 1.39904 6.31376e-20)
(-1.07851 -0.392958 -2.33539e-19)
(1.52454 -0.706174 2.1991e-19)
(2.48465 -0.209023 5.162e-21)
(1.14098 -0.5547 4.77974e-19)
(2.30887 0.497024 0)
(2.6141 -0.34202 1.99845e-19)
(0.458238 -0.307312 1.40042e-19)
(1.97076 -0.0160121 2.31251e-20)
(3.46928 1.0142 -4.03387e-19)
(2.32472 -1.39305 0)
(2.5335 0.846578 0)
(1.46311 0.253683 0)
(0.996287 -0.406999 0)
(1.83417 0.015419 0)
(1.38863 -0.51663 1.45388e-19)
(3.6717 1.19727 6.06139e-19)
(1.41825 -0.58229 3.96269e-19)
(2.06916 0.0540268 2.45032e-19)
(-2.63301 1.02185 0)
(2.03676 -0.8294 3.11259e-21)
(-0.318869 0.394409 0)
(-2.48901 0.899801 -1.3479e-18)
(-0.295852 0.239199 4.70625e-19)
(3.55607 0.841648 -3.52997e-19)
(1.99891 0.130286 3.07168e-19)
(2.05399 0.292674 -1.00944e-19)
(3.41818 0.587502 -3.44716e-19)
(2.58186 0.000391041 0)
(0.480341 -0.3846 9.09557e-19)
(1.99151 -0.00274879 0)
(1.50064 0.912752 1.67558e-20)
(2.4413 -0.163437 0)
(2.08804 0.251606 -1.3324e-19)
(2.06908 -0.0611684 0)
(0.874248 -0.326602 -3.04142e-19)
(-0.153097 0.355613 1.4198e-18)
(2.45433 -0.244716 -1.82134e-19)
(1.33601 0.41523 4.6151e-19)
(-1.39674 0.791962 -2.49975e-18)
(2.62193 -1.1758 0)
(0.984996 -0.195354 -1.16534e-18)
(1.29917 -0.209799 -2.50844e-20)
(3.45791 0.467907 -9.83794e-19)
(1.78059 0.0226306 8.2335e-22)
(3.53597 0.505166 1.76096e-18)
(2.51263 0.943252 0)
(1.73178 -0.7746 -6.36358e-20)
(1.48604 -0.666748 0)
(2.46784 -0.230585 1.33109e-20)
(0.42551 -0.114754 7.56175e-20)
(-2.40208 1.62772 0)
(2.40083 0.451475 0)
(1.41406 -2.33331 -1.1334e-18)
(2.47698 0.792618 0)
(1.66379 1.82638 1.73083e-19)
(2.86066 1.08607 -2.60197e-19)
(0.643627 -0.137157 -6.79316e-19)
(-1.99148 0.407147 -5.63976e-19)
(1.99032 0.0295985 -6.45781e-21)
(-0.686304 0.0600327 -3.85479e-20)
(0.273343 -0.113574 -8.97712e-19)
(1.89058 -0.0255931 4.87855e-19)
(-1.90006 0.608476 3.42303e-19)
(-2.09386 1.00389 0)
(2.48477 0.196605 -5.77521e-20)
(0.398813 -2.12578 1.41335e-18)
(0.358252 0.248102 8.22537e-20)
(3.48606 0.626822 8.06627e-19)
(2.69413 1.71368 0)
(1.7632 -0.492346 -3.4068e-19)
(1.82318 -0.336545 -6.01322e-22)
(1.72863 0.794852 -7.41354e-20)
(2.86757 -0.0340169 -4.38242e-19)
(-2.05997 0.0746247 4.14918e-19)
(-2.03302 2.15559 1.56415e-18)
(1.43645 -0.571168 -9.58738e-20)
(-2.22313 0.362174 4.98052e-20)
(2.92564 -0.142752 -4.40096e-19)
(-2.13045 0.0203626 -4.65864e-19)
(2.37455 -1.15445 0)
(1.86703 -0.137837 -4.30741e-19)
(-1.13794 -0.610613 0)
(-0.978666 -0.146193 -3.30201e-19)
(-0.672482 -0.324822 2.37714e-19)
(-0.677089 -0.309251 6.99623e-19)
(1.21264 -0.122937 2.02653e-20)
(-1.66083 1.06941 1.2723e-19)
(-0.875234 -0.0578754 0)
(2.18166 -0.758902 1.70931e-19)
(2.18309 -0.814369 5.87996e-21)
(-1.0707 -0.282744 -6.24397e-19)
(1.74419 0.567898 0)
(1.6309 0.534916 0)
(0.174162 0.365172 0)
(1.25884 -1.86151 -1.36157e-19)
(1.90062 -0.0410955 -4.32983e-19)
(1.28947 0.177995 0)
(2.87573 -1.89596 0)
(2.27399 0.200627 -1.92821e-20)
(2.12595 0.193238 -9.002e-20)
(2.0677 0.315809 -4.00537e-19)
(1.96069 -0.200448 -2.83859e-19)
(1.66227 0.0458906 6.48615e-20)
(1.98794 -0.032142 -6.23215e-20)
(1.35641 -0.248359 8.68242e-20)
(1.93173 0.585699 -2.99326e-20)
(1.82953 1.26874 0)
(0.22512 -0.0863389 -6.95627e-21)
(-0.0927962 -0.476322 0)
(0.98329 0.18105 0)
(2.97029 0.387123 -4.40911e-19)
(-2.64084 1.45595 0)
(2.47017 0.458741 0)
(1.88 -0.10017 6.6424e-19)
(1.85822 -0.803165 0)
(2.02817 0.214954 4.56779e-19)
(3.38663 0.785775 4.01688e-19)
(3.17959 0.844801 1.39313e-19)
(1.33243 0.262378 -6.405e-21)
(1.05525 1.38719 2.78728e-19)
(2.20601 -0.802444 8.69074e-22)
(2.04547 -0.768742 5.40376e-21)
(1.1419 -0.43533 4.32599e-19)
(-1.11844 0.320213 0)
(0.925671 -0.454835 0)
(-2.56235 1.66333 -1.76699e-18)
(-0.232082 0.48577 -1.90933e-18)
(-0.676535 -0.925194 0)
(-1.40023 0.364538 4.97516e-19)
(0.324362 -0.18872 0)
(0.159391 -0.555782 9.47559e-19)
(1.08958 -0.500648 -5.56609e-19)
(3.45053 0.650168 -1.83395e-20)
(3.13076 0.993896 3.09182e-19)
(1.19775 -0.396901 8.72079e-20)
(2.87201 -0.0892951 2.06408e-19)
(2.30895 1.01404 0)
(2.40307 0.982541 0)
(1.02008 0.0455805 0)
(-0.548936 0.0312854 -4.44726e-19)
(1.386 -0.518791 0)
(2.26439 0.72128 0)
(1.66494 0.04616 0)
(2.26312 -0.231156 -4.48948e-20)
(0.959885 -0.0992194 3.04513e-19)
(2.00271 -0.747598 -1.36081e-19)
(1.0218 -1.89213 4.14758e-19)
(1.64855 -0.309035 0)
(-2.1129 1.75853 0)
(1.93338 -0.560479 -2.82878e-19)
(1.53209 0.590538 7.03359e-19)
(-1.80394 1.33793 -8.48182e-19)
(2.68058 -0.0894453 8.1752e-21)
(1.69145 -0.439926 3.72014e-19)
(0.955356 0.493945 -1.10663e-18)
(-0.169863 0.49165 0)
(1.15345 1.36433 -6.47774e-19)
(0.350965 0.407321 -6.82218e-19)
(3.21486 0.68998 0)
(2.20176 -0.0533555 0)
(2.03766 -0.0572966 0)
(2.03043 0.0503822 -4.45819e-19)
(1.38955 0.312926 -4.71457e-19)
(1.62554 0.147595 0)
(2.38766 1.35319 1.19296e-18)
(1.76572 -0.786752 3.00525e-19)
(2.35109 -0.267897 5.58823e-20)
(-2.5896 1.36758 7.97401e-19)
(2.09162 -0.258623 0)
(2.48787 0.105415 2.875e-20)
(1.73573 -0.40832 0)
(-0.0479266 -1.94465 -1.40288e-18)
(1.70658 -0.77323 0)
(2.11398 -0.7245 2.62999e-19)
(1.94087 -0.137875 -2.73757e-22)
(2.17387 0.632735 2.677e-20)
(2.37412 -0.279168 0)
(1.78743 -0.76171 0)
(1.56813 -0.664571 -4.72829e-19)
(2.35735 0.440633 -3.24639e-20)
(-2.39441 0.468805 6.96587e-19)
(0.837209 -0.399898 4.41131e-19)
(1.90415 -0.0633299 0)
(1.54718 0.247701 -7.1271e-19)
(2.41416 0.0263318 -6.55763e-20)
(1.39375 -2.01866 -1.95133e-19)
(2.13537 0.836765 5.90084e-20)
(2.38756 0.687526 0)
(1.16367 -0.327963 6.17633e-19)
(0.936219 0.233026 -6.96299e-19)
(3.44959 0.970244 9.13829e-21)
(1.78596 0.231839 -8.20773e-19)
(-2.57007 1.30496 6.94293e-19)
(-0.0809702 0.365597 -1.72855e-18)
(1.99453 -0.00476565 2.3025e-19)
(2.07131 -0.0405131 -3.85056e-20)
(0.458534 0.316643 9.338e-19)
(-0.252207 0.189527 -6.26778e-22)
(-2.62942 1.32265 1.29736e-18)
(-2.46112 0.536258 1.42712e-18)
(1.82515 -0.0681274 7.52143e-20)
(2.34974 -0.188915 0)
(0.686977 0.175789 7.46302e-19)
(1.14432 -0.556482 2.12893e-19)
(1.65616 -0.218682 2.34094e-19)
(-0.261445 0.30747 0)
(1.59484 -0.363989 -6.17817e-20)
(1.85571 0.102346 -3.90456e-22)
(2.07471 0.0400118 0)
(0.377326 -0.178069 6.14776e-19)
(-1.36146 -1.0184 5.15282e-19)
(1.6676 -0.286977 0)
(1.01863 -0.377523 0)
(1.57343 -1.67299 -1.80788e-19)
(1.54139 -2.36593 -1.16158e-19)
(2.91106 0.376615 1.57598e-19)
(-0.373677 0.131421 0)
(1.90908 -0.0137252 -3.68215e-19)
(2.9481 -1.05875 -2.32886e-19)
(2.18825 -0.686616 1.11787e-20)
(1.19548 -0.457136 5.4094e-19)
(-2.65054 1.38003 -1.12453e-18)
(-2.49341 1.16298 9.05978e-19)
(3.74578 0.965143 -7.91534e-21)
(3.17706 -0.0472326 0)
(1.95202 0.926404 -9.22365e-19)
(1.55963 -0.611235 2.38998e-19)
(1.96616 2.04712 1.32873e-19)
(0.791168 0.646062 0)
(1.1114 -0.197645 -5.49749e-19)
(1.19077 -0.497896 -6.54757e-19)
(-2.54203 1.70661 1.27358e-18)
(0.833281 -0.23434 -9.85165e-19)
(2.09013 1.44796 0)
(-0.171593 0.445721 -5.34844e-19)
(2.32621 0.566818 0)
(-0.718782 -0.695935 -7.24305e-19)
(-0.0803276 0.656035 1.17572e-18)
(-0.380076 1.35429 0)
(-2.56874 1.47593 4.93444e-19)
(1.60582 -0.0823832 -9.87887e-20)
(0.970793 -0.216668 3.76633e-19)
(1.6557 -0.648971 4.20926e-19)
(-2.42851 1.68178 -2.81078e-18)
(1.1565 -0.522525 0)
(2.00463 0.0376635 1.45687e-19)
(0.602364 0.0771221 0)
(2.25493 0.223865 -4.90607e-21)
(-0.739622 0.20603 -1.01217e-18)
(0.535439 -0.204583 2.94111e-19)
(2.49184 0.441778 0)
(1.86764 -0.739924 -2.82745e-19)
(3.2057 0.207628 1.64138e-19)
(-2.47657 1.42723 2.14437e-18)
(-0.549488 -1.23638 0)
(-2.43874 1.27323 -1.9144e-18)
(3.12161 0.923059 -9.22143e-19)
(1.60724 0.236451 9.13386e-19)
(2.37593 -0.873707 0)
(2.64216 -0.242508 4.61656e-19)
(-0.719313 0.160718 9.06275e-19)
(0.908373 -0.0984347 -1.39346e-19)
(2.16848 -0.503939 8.73414e-20)
(-2.51661 1.14646 0)
(2.00371 -0.605647 -6.54969e-20)
(1.7219 0.372797 -8.1082e-22)
(2.39892 -0.284224 9.77375e-20)
(2.36179 0.0235613 0)
(-2.20284 1.97306 9.85417e-19)
(1.62985 -0.435262 6.57172e-22)
(1.2495 -0.354015 6.71843e-20)
(1.33315 0.573292 0)
(2.03344 -0.765708 -9.66022e-20)
(-2.45611 1.68847 2.1518e-18)
(1.7061 -0.402172 -4.66408e-19)
(-0.254512 0.151798 0)
(1.34819 -0.312132 -8.05349e-20)
(2.05894 -0.738071 8.40052e-20)
(-2.60062 1.3454 -1.33256e-18)
(1.52922 -0.300209 0)
(0.643501 -0.199075 1.35356e-18)
(1.8625 -1.88421 0)
(-1.81302 2.24094 1.29178e-18)
(1.95517 -2.45184 0)
(1.87683 -0.0926473 -2.46639e-19)
(2.19071 -0.207201 -2.2656e-19)
(2.61922 1.33621 -5.9727e-19)
(1.42495 -1.24892 0)
(1.99286 -0.835034 -1.42784e-19)
(1.99938 0.0229267 0)
(2.38313 0.474786 0)
(2.12066 -0.839987 1.54394e-21)
(-2.00773 2.02612 9.40339e-19)
(0.537315 -0.0371979 1.85471e-19)
(2.09783 -0.507325 -5.77013e-20)
(1.69123 0.321486 3.02091e-19)
(-0.750767 0.0216397 -1.58303e-19)
(2.05597 0.360228 1.85607e-19)
(0.019772 0.343013 -1.40922e-19)
(1.79865 1.13923 0)
(2.49608 0.312994 0)
(-0.467978 0.756985 0)
(-1.76595 -0.439004 1.73738e-18)
(1.16428 -0.397181 -3.82557e-19)
(1.47069 0.143103 0)
(-2.23274 0.888428 1.70662e-18)
(2.32175 -0.134854 -1.56272e-19)
(-2.47876 1.04562 -7.286e-19)
(1.37263 -0.48944 -1.21083e-19)
(2.18489 -0.831248 0)
(0.607515 -0.145059 1.16621e-18)
(0.414976 -0.249206 -1.39095e-18)
(-0.0477996 0.777352 0)
(-0.387207 0.377394 -7.15636e-19)
(1.67459 0.0346432 -1.63693e-20)
(2.75461 -0.1424 9.54609e-20)
(1.93479 0.0431365 2.62474e-19)
(2.71383 1.18637 -2.62415e-19)
(2.43345 0.251533 1.65327e-21)
(-1.41345 -0.807199 0)
(1.92564 -0.743131 0)
(-2.10097 0.939804 1.61931e-18)
(0.243663 -0.393611 0)
(1.60535 -0.327271 -6.2716e-20)
(2.16229 -0.729985 -1.12181e-19)
(0.960054 -0.447699 4.60627e-19)
(2.35894 -0.237355 -1.67463e-19)
(1.73074 0.349077 -3.02371e-19)
(1.52025 -0.598326 -2.3745e-19)
(1.60707 -0.631237 -4.3053e-19)
(1.4903 -2.27197 0)
(1.70702 -0.660826 3.94192e-19)
(2.10356 -0.112658 0)
(2.3832 -0.27825 -3.20734e-21)
(1.94486 1.34191 2.70095e-20)
(0.853801 -0.295539 9.62247e-20)
(2.2244 -0.321205 -1.6926e-19)
(0.435162 -0.510666 -7.83528e-19)
(0.230707 -0.0668569 0)
(1.01407 -2.30492 -5.61643e-19)
(-0.531872 1.99421 -1.75102e-18)
(2.0867 0.57711 -2.04626e-19)
(1.81349 -0.725496 3.40869e-19)
(2.12658 0.0211195 -5.79947e-21)
(0.909663 -0.181112 3.44682e-19)
(1.87576 -0.759795 2.63711e-20)
(0.31353 0.142746 0)
(-2.46174 1.01452 2.13462e-18)
(1.74851 -0.369512 2.47969e-19)
(2.08227 0.039876 -1.11282e-22)
(1.15778 -0.500158 9.61448e-19)
(-0.888335 -0.390695 2.88519e-20)
(1.66482 0.640463 0)
(-1.7647 -0.166753 -6.62736e-19)
(-2.26502 1.79634 -1.40008e-19)
(1.07529 -0.319992 -7.36572e-19)
(-1.56454 -0.462859 7.23006e-19)
(2.28752 1.02125 -2.54694e-19)
(2.11361 0.557524 4.78695e-21)
(0.931266 -0.373342 3.33916e-19)
(1.7708 -0.358968 0)
(2.58286 0.190302 -1.263e-19)
(2.53781 -0.0515355 -6.60383e-21)
(2.98236 1.00452 -3.03869e-19)
(-1.18522 -0.916414 0)
(3.51753 1.21969 1.68764e-20)
(-0.32253 -0.495492 6.94803e-19)
(1.60444 -0.690723 9.03833e-19)
(0.0369884 -0.30729 1.30275e-20)
(-0.750032 -0.160407 -4.19145e-19)
(0.600058 -0.131795 2.25389e-18)
(1.98416 -0.726224 2.97254e-19)
(2.2365 0.0361176 -3.40188e-21)
(-0.236021 -0.174768 -5.37998e-21)
(2.88058 0.0225329 4.82524e-20)
(0.38903 0.623802 0)
(2.00928 0.037989 0)
(2.39101 0.502646 0)
(1.7556 -0.67562 -3.34749e-19)
(2.60743 -2.45602 1.00732e-18)
(-1.17543 -0.236792 0)
(1.21605 -0.354877 -1.58249e-19)
(-0.7368 2.11276 0)
(3.72208 0.507429 0)
(-1.3874 -0.511987 0)
(1.94529 0.00736347 0)
(0.577441 -0.173762 -4.18652e-19)
(0.204681 0.120384 0)
(3.37559 0.461311 1.40575e-18)
(1.28059 0.021549 0)
(1.63471 0.298002 0)
(1.93357 0.208004 2.79144e-21)
(-0.0772807 0.348391 0)
(3.65518 -0.747274 0)
(-0.886531 -0.029549 0)
(2.62197 -0.0102861 1.25062e-20)
(1.71507 -0.214169 0)
(2.22464 -0.812435 1.32509e-21)
(1.31215 -0.315135 1.08166e-21)
(0.308874 -0.1519 -3.9399e-19)
(1.97671 0.0493693 6.60643e-19)
(-0.200603 -0.00469872 -1.9657e-19)
(1.04526 0.933006 -5.96945e-19)
(1.44288 0.73722 0)
(2.33049 -0.270599 2.5918e-21)
(1.64703 -0.158069 -2.28569e-19)
(1.5194 1.70788 1.62178e-19)
(1.83875 0.404192 4.40391e-19)
(0.755547 -0.264218 -7.09659e-19)
(1.49979 -0.650967 -3.64697e-19)
(2.72429 0.782831 1.9729e-19)
(0.305194 -1.57906 0)
(2.48336 -0.233992 -8.58437e-20)
(0.7209 -1.55665 6.61357e-19)
(2.6917 0.37565 -6.42535e-20)
(-2.11455 1.58472 0)
(1.86352 0.0520657 -2.93847e-19)
(2.61045 1.0213 -9.59292e-19)
(1.3444 -0.532893 4.89179e-19)
(1.21348 -0.543763 -5.95288e-19)
(1.64799 -0.760787 0)
(1.75358 -0.77089 0)
(3.34414 0.199539 1.70546e-18)
(2.26685 -0.305273 -9.43256e-20)
(3.42481 0.555272 -5.171e-19)
(1.75081 -0.0153717 4.49305e-20)
(1.18951 -0.317188 -1.47608e-19)
(1.6722 -0.487944 3.89735e-19)
(2.49931 0.34505 0)
(2.40158 0.348845 -8.03609e-22)
(0.513066 -0.226112 -1.73488e-18)
(2.50862 -0.957628 2.90367e-18)
(1.42637 -0.152944 -1.89813e-19)
(-0.827982 0.190103 6.06096e-19)
(3.24812 0.531337 4.31837e-19)
(2.55055 0.834137 3.40794e-20)
(2.38259 0.603288 0)
(-2.29157 0.244256 0)
(2.25882 -0.804357 3.48624e-21)
(1.12557 -0.225423 0)
(1.83142 -0.379613 1.5926e-19)
(1.63961 0.285368 5.21049e-19)
(1.62469 0.491903 -1.56396e-19)
(1.57741 -0.635225 9.34287e-19)
(1.6465 0.459924 7.70949e-22)
(1.35547 -0.0144458 0)
(1.86606 -0.0801499 -9.32032e-21)
(-0.950603 -0.0380782 -8.50093e-19)
(2.16915 0.301512 0)
(2.40243 -0.293763 0)
(1.89989 -0.75819 1.15218e-19)
(1.92718 0.582927 2.51536e-19)
(1.04518 -0.13903 0)
(3.97031 -0.650008 1.31016e-19)
(2.86601 0.0128075 1.87911e-19)
(2.35999 0.362197 4.767e-20)
(1.74058 0.459767 4.62504e-19)
(-2.06205 0.264593 -8.33818e-19)
(1.28307 -0.936501 0)
(0.140378 -0.602791 -1.85801e-18)
(0.504664 -0.217117 1.06311e-18)
(1.95114 0.0323899 1.63533e-20)
(-0.118262 -0.556752 -8.08769e-19)
(1.78628 -0.738832 2.45174e-20)
(2.64002 0.426211 1.64959e-19)
(1.33173 0.883934 0)
(1.97562 0.155957 2.6819e-21)
(1.81572 0.0223491 9.08833e-20)
(2.06433 -0.0288481 -1.37442e-19)
(2.17669 0.55105 -1.73861e-19)
(2.22778 -0.757225 0)
(-1.89846 0.410763 0)
(2.59071 0.0179729 0)
(2.32916 0.437118 -9.76168e-20)
(1.03116 -0.477977 7.20076e-19)
(2.3192 1.79629 -6.29807e-20)
(1.50288 -0.0833054 0)
(-0.825432 1.00687 -3.53571e-19)
(-2.00696 -0.270066 8.79992e-19)
(-1.40553 2.37804 0)
(1.90614 0.28184 -1.41889e-19)
(1.65256 0.266755 -1.73062e-19)
(3.31015 -0.02432 -1.13415e-19)
(2.03246 0.765033 4.77017e-20)
(0.655938 -0.225168 0)
(2.15635 0.187742 -2.02347e-19)
(2.01103 -0.406848 0)
(2.06905 -0.24227 1.07207e-20)
(0.959379 0.095009 0)
(2.22468 0.872577 1.41442e-19)
(1.6775 -0.670302 -4.03606e-19)
(2.42461 0.866846 0)
(1.83449 -0.0658425 -4.36205e-19)
(2.22704 0.762737 -1.13005e-19)
(1.94906 -0.710184 0)
(1.12428 -0.52797 0)
(0.497957 0.216535 -9.13017e-20)
(2.4213 -0.225891 -1.16953e-20)
(0.145558 -2.06215 -7.147e-19)
(-0.487748 0.155269 4.96031e-20)
(2.83615 -0.0947212 -3.86286e-21)
(1.05055 0.435129 6.95785e-19)
(1.74741 0.399318 -1.97319e-21)
(2.04313 0.591031 0)
(3.30863 1.0131 4.25899e-19)
(1.69755 -0.772196 0)
(1.48867 -0.676703 -3.95754e-19)
(1.79511 -0.772974 -4.28757e-19)