/*--------------------------------*- C++ -*----------------------------------*\
| =========                 |                                                 |
| \\      /  F ield         | OpenFOAM: The Open Source CFD Toolbox           |
|  \\    /   O peration     | Version:  2306                                  |
|   \\  /    A nd           | Website:  www.openfoam.com                      |
|    \\/     M anipulation  |                                                 |
\*---------------------------------------------------------------------------*/
FoamFile
{
    version     2.0;
    format      ascii;
    arch        "LSB;label=32;scalar=64";
    class       volVectorField;
    location    "7.4";
    object      U;
}
// * * * * * * * * * * * * * * * * * * * * * * * * * * * * * * * * * * * * * //

dimensions      [0 1 -1 0 0 0 0];

internalField   nonuniform List<vector> 
13486
(
(4.92018 -1.00933 7.61067e-21)
(5.23893 0.313697 4.43793e-21)
(8.41077 0.273071 0)
(9.23627 -3.95397 -7.60514e-20)
(8.30153 -0.347074 -4.90612e-21)
(6.92543 0.437564 -7.58084e-22)
(8.39262 2.11533 -4.42698e-23)
(7.13612 -2.19735 8.89187e-22)
(6.50415 -1.06168 0)
(5.63525 1.48247 0)
(-1.17297 1.4451 -4.48622e-21)
(6.41971 -0.201692 0)
(4.57635 -1.58729 -7.40036e-21)
(6.6114 1.84205 -1.72997e-21)
(7.52507 0.974317 -1.91719e-21)
(5.56278 1.53347 -4.46172e-21)
(-1.15106 -1.06909 4.52817e-21)
(-0.112613 0.888082 3.68015e-21)
(5.8996 -0.0429115 4.44057e-23)
(5.30574 -0.506521 -7.85037e-21)
(4.48708 1.3781 -3.90627e-20)
(4.62324 -1.62162 9.53377e-21)
(5.2877 0.292056 -3.55512e-21)
(9.18556 1.81333 0)
(5.88075 1.21665 1.54351e-21)
(9.23578 1.38166 -3.79401e-21)
(2.68639 0.478974 8.35659e-21)
(8.88233 -0.109454 6.73986e-21)
(3.26965 -6.1041 0)
(9.2431 -0.414473 -7.63108e-21)
(-4.04263 9.4537 -2.60018e-20)
(6.23143 1.02378 -7.92526e-22)
(8.8058 0.560289 3.75185e-21)
(8.14782 -0.943849 0)
(7.16829 -2.0647 0)
(5.58544 -0.548709 -5.98193e-21)
(2.06312 -5.22791 -5.10527e-20)
(5.5131 -2.52807 2.40044e-21)
(4.93575 -2.15466 -4.64402e-22)
(6.39962 -0.623757 2.47801e-21)
(10.484 -1.87337 0)
(3.98834 -1.91722 -9.03242e-21)
(6.27362 -0.151134 0)
(5.92853 1.02474 -7.11323e-21)
(5.92654 1.03227 2.89976e-21)
(6.44126 -0.181102 2.15814e-21)
(-2.92153 -0.740479 2.69526e-20)
(3.39229 -6.86935 6.48473e-21)
(-0.722155 -4.64824 3.83277e-20)
(7.94221 0.245773 1.3806e-21)
(5.98531 0.0152317 5.50569e-21)
(4.26548 -0.74683 0)
(5.88659 -0.325581 -4.30349e-21)
(5.65585 -2.00411 -3.79489e-21)
(-1.00006 0.0921178 0)
(8.10983 -0.591514 2.43157e-21)
(9.27984 2.21003 2.43838e-22)
(4.9349 -1.23518 -9.83807e-22)
(8.69059 0.597339 4.83387e-21)
(7.28188 -5.47231 0)
(-1.24019 3.43502 -4.23421e-21)
(6.86495 -3.54557 0)
(10.9926 1.11304 -6.46243e-21)
(4.1496 2.37856 -4.35093e-22)
(1.71129 3.63075 0)
(5.60539 -4.09604 -2.51817e-20)
(7.70611 -3.98971 -6.80815e-20)
(4.78097 -0.339965 2.84904e-21)
(6.5135 -1.13782 -1.018e-21)
(2.24106 -0.049483 -2.75924e-22)
(9.11958 -4.24293 7.86132e-20)
(-0.61625 -0.149067 -5.47209e-24)
(6.24264 -0.365112 2.25293e-21)
(-1.27443 3.38723 -2.55579e-21)
(7.39137 -3.02954 -5.55462e-21)
(8.67584 2.24719 3.09819e-23)
(7.00555 -2.52704 2.09102e-20)
(7.67949 0.942256 8.64647e-22)
(-4.08039 -1.83476 -1.21101e-20)
(6.34952 -3.8117 0)
(7.08729 -2.44474 2.69161e-21)
(5.07892 0.49987 -2.94643e-22)
(10.6856 0.729879 -5.17404e-22)
(8.66508 -0.272954 -7.15999e-22)
(4.91917 -1.02863 -1.47797e-20)
(4.20435 3.21367 0)
(5.00101 -2.38634 1.49798e-22)
(5.98688 0.049806 -8.7267e-21)
(5.69901 0.214609 -3.70366e-21)
(5.10378 2.03839 -5.99254e-21)
(5.56379 0.599977 -1.79666e-21)
(7.60397 -1.54694 1.1688e-21)
(5.13333 -1.27092 1.80483e-21)
(5.30797 -0.162516 2.19363e-22)
(6.39542 -1.76954 3.68722e-22)
(6.20935 -9.53454 -3.3774e-21)
(2.86822 0.338226 0)
(5.11886 -4.08243 3.35194e-20)
(6.38791 -0.587693 -4.78085e-21)
(-2.25763 -1.4463 1.37231e-22)
(5.75871 -0.863055 0)
(6.58659 1.82034 -6.91853e-22)
(3.97835 -4.43781 7.15326e-22)
(4.33694 -1.1779 1.21306e-21)
(3.81479 2.97064 0)
(-2.55545 -1.55744 2.82489e-22)
(6.00202 -0.0250647 -1.01635e-23)
(5.12505 -2.08174 -9.45791e-22)
(-3.85875 -1.83635 1.59822e-20)
(7.48833 -3.23755 0)
(5.89396 -2.70287 0)
(6.50058 1.93588 1.37784e-21)
(5.69163 -1.9579 9.79382e-23)
(7.11525 1.67468 1.02272e-22)
(3.91626 -0.729082 0)
(5.78369 -2.69824 -5.8148e-22)
(5.81134 1.301 0)
(8.09218 -0.604313 0)
(6.24078 -0.341562 0)
(-0.0604167 3.58198 -2.12521e-20)
(0.764302 0.0001498 -1.84739e-21)
(-1.6148 2.80183 0)
(6.23762 -1.61442 0)
(5.25582 -2.00184 1.38843e-21)
(6.64855 -2.10371 0)
(4.66533 -1.06362 0)
(6.93529 -0.216171 2.15904e-23)
(6.2937 0.19169 3.35946e-21)
(6.84574 -0.538564 -6.54641e-22)
(4.77801 1.84965 -1.61891e-20)
(4.06639 -0.856383 -1.39638e-22)
(-1.65302 -1.03406 -6.97683e-21)
(1.5221 3.67589 5.61388e-21)
(-0.334317 0.170936 2.93065e-21)
(5.99181 0.00440589 -8.74475e-22)
(5.63104 0.761128 -4.97968e-21)
(2.78885 0.882767 -2.98856e-21)
(7.467 -3.10621 0)
(-1.56193 1.72343 4.49364e-21)
(7.0668 -1.57578 -3.48036e-23)
(8.41574 0.542361 -3.92437e-21)
(5.85959 -0.303763 3.68134e-21)
(6.09845 0.339824 0)
(6.54562 -3.57435 0)
(6.24109 -0.0729135 2.90261e-22)
(10.3626 -0.672736 -6.11472e-21)
(6.55881 -1.56664 -8.24339e-22)
(0.598628 2.1783 0)
(7.85509 0.340105 0)
(3.66637 -5.68165 0)
(6.00568 0.0156451 1.08672e-22)
(8.26681 0.746008 0)
(5.29662 -1.22108 -2.81695e-21)
(4.99399 0.485171 -2.53295e-21)
(6.26776 0.716333 0)
(9.7392 0.14493 0)
(7.79001 -3.20408 0)
(9.04499 7.36085 2.36361e-20)
(6.08595 -2.28002 3.64297e-21)
(7.76262 -2.6248 -2.70156e-21)
(7.59851 0.124997 2.00963e-22)
(6.10412 -2.22557 -5.32645e-21)
(4.53312 1.39309 1.83797e-21)
(3.62106 -1.80305 3.89862e-21)
(4.92241 -1.10066 0)
(6.89785 1.91658 1.40444e-21)
(6.47288 1.63495 4.64552e-21)
(2.38546 -0.944941 -1.16745e-20)
(6.20747 -1.5107 2.002e-21)
(-0.277347 0.206164 8.19457e-22)
(1.53222 3.73673 1.29427e-21)
(6.24854 0.638474 2.70116e-21)
(5.99179 0.0908678 -7.93447e-21)
(6.8697 0.239123 2.32116e-23)
(9.072 -6.30053 3.46932e-22)
(-8.8923 0.436444 0)
(6.39745 2.56328 -3.62966e-21)
(8.51697 0.727687 4.90011e-21)
(6.01757 -0.0328779 -7.86289e-21)
(6.07701 0.269172 0)
(6.58231 -0.671113 3.8936e-21)
(6.96787 1.44624 2.29576e-22)
(6.68985 0.370013 4.45664e-23)
(1.63463 -1.40934 0)
(7.55255 -0.925314 1.49491e-21)
(8.01834 -0.00760006 -3.0457e-21)
(5.47993 -1.55236 -4.66126e-22)
(8.59221 -0.699205 -1.82148e-21)
(10.9458 -1.89401 0)
(5.27868 -2.50515 -1.54771e-21)
(-1.73199 -1.00502 0)
(8.15583 0.379905 0)
(5.48299 -1.58027 0)
(4.6636 1.54615 -5.96536e-21)
(5.81682 -1.42445 0)
(-1.32898 1.47382 -1.38944e-21)
(2.79477 2.81151 3.65192e-20)
(7.77839 0.0553076 2.21599e-22)
(4.84075 -2.36294 -1.35707e-21)
(6.8548 1.78749 1.27451e-21)
(-4.62661 9.47478 2.33621e-20)
(6.32793 0.234371 -1.05855e-22)
(5.45382 -2.57385 -2.78161e-21)
(8.62392 -3.26764 -4.0488e-21)
(7.28284 -2.56772 3.43399e-21)
(6.01843 -1.45574 -8.94625e-22)
(-0.94953 2.7169 -1.28983e-21)
(6.00705 -0.263476 5.4021e-21)
(5.35023 -1.47783 0)
(7.54715 -0.867249 0)
(8.95677 -0.384984 5.28536e-21)
(12.0549 2.53472 1.25654e-20)
(5.35762 -0.433906 7.20719e-21)
(5.97337 -0.0101194 -7.8812e-24)
(6.95198 0.53508 8.74239e-22)
(9.94264 -4.2164 2.49204e-21)
(9.03931 -0.256527 0)
(5.15444 1.93091 1.37766e-20)
(5.39499 -1.28794 0)
(8.48597 2.43446 0)
(-1.70775 -1.00641 -7.86675e-21)
(8.03114 0.41134 0)
(6.99834 -1.60416 -7.04371e-23)
(7.81917 0.196378 0)
(5.8001 -0.717622 -8.78877e-22)
(4.71346 -2.18421 2.45663e-21)
(7.18489 0.99234 6.47842e-23)
(-9.73221 7.01735 1.20725e-20)
(7.52077 -2.71011 3.62783e-22)
(5.27249 -2.45079 -2.26949e-22)
(6.5863 -0.637348 -1.28018e-21)
(13.1576 3.40354 3.71721e-20)
(8.47526 0.587663 4.89933e-21)
(3.94177 -1.89139 3.15347e-21)
(-0.0491795 -0.0216754 0)
(4.48251 -2.17035 2.6979e-22)
(8.49502 -0.814885 3.58158e-21)
(8.27264 0.297307 -3.05989e-22)
(4.46177 -2.12701 7.58811e-21)
(6.59396 0.165148 0)
(8.74134 0.654671 0)
(5.99022 0.0808112 1.22421e-20)
(7.61195 0.757947 0)
(4.31395 -2.11834 2.28244e-21)
(6.07105 -2.70645 -1.17632e-21)
(5.68245 -0.11266 0)
(6.72922 0.0563095 -4.19996e-22)
(9.46264 0.675445 1.34006e-20)
(-1.09944 1.11756 6.22286e-21)
(5.86111 0.940488 0)
(-1.56521 -3.58906 -7.33846e-21)
(3.84378 -0.662518 1.2861e-21)
(5.42964 -2.62572 3.32525e-22)
(5.58105 -2.24529 0)
(6.62738 -2.92188 1.34707e-21)
(-7.83442 0.962588 2.62676e-21)
(6.11179 0.965891 1.1202e-21)
(10.0864 -4.86053 -3.14909e-21)
(9.89423 8.41316 -2.47437e-20)
(8.84349 0.586121 3.39562e-21)
(5.48862 0.223519 0)
(4.51772 -2.71999 1.19435e-22)
(7.5124 0.918951 4.24854e-21)
(-8.33974 0.448804 -3.2797e-21)
(8.44574 -1.91935 5.62497e-21)
(1.30849 -1.60828 0)
(8.24865 -2.76632 -3.10215e-21)
(-2.83218 7.61828 -4.02369e-20)
(6.41476 -0.010405 -2.88729e-21)
(2.60957 -2.04718 0)
(4.58968 1.64805 4.85282e-21)
(5.98036 -0.00981792 -2.23046e-21)
(8.99795 -0.292106 0)
(6.21843 -0.391581 2.13705e-21)
(4.81444 -2.25924 3.24482e-21)
(9.75907 0.507378 -7.43547e-21)
(7.36413 -2.79948 0)
(-1.92085 -0.0928109 0)
(5.77126 -2.26462 -8.23537e-22)
(6.3541 -1.29876 1.72807e-21)
(-2.39612 -1.3436 2.35162e-20)
(6.67926 -0.281861 -1.41005e-21)
(5.93906 -0.0110285 4.78034e-21)
(8.34048 1.05841 -1.16713e-21)
(-1.58115 2.10569 5.96925e-21)
(0.731699 -1.6857 1.63861e-20)
(8.39219 0.686514 3.88253e-21)
(7.09901 -0.730502 8.60829e-22)
(6.0129 -0.747939 1.48497e-21)
(6.31383 -0.0213503 0)
(1.6942 0.0611445 0)
(5.12101 -3.42698 3.91267e-21)
(5.69238 -2.63874 1.17523e-21)
(6.00268 0.0142805 -8.4891e-22)
(8.41861 -0.773692 2.82922e-21)
(8.59553 -0.841526 0)
(7.102 -0.00264812 -4.33249e-22)
(6.52651 -0.477241 -1.86992e-21)
(5.93954 -0.0398115 -4.3014e-21)
(9.78925 0.914278 -1.03289e-20)
(4.55253 1.19454 -2.15361e-21)
(-1.15519 3.71622 6.8516e-22)
(6.25098 -1.42973 -1.47261e-21)
(6.30216 0.990277 9.3337e-22)
(-1.19116 -0.382961 4.43732e-21)
(7.9254 -3.6399 0)
(13.214 2.92884 0)
(6.07518 0.00564544 7.55183e-22)
(5.23753 -2.56197 9.66854e-23)
(2.02093 0.392581 0)
(5.12204 3.8911 -3.09379e-21)
(7.50448 -3.52525 0)
(6.17199 2.44493 2.34853e-21)
(6.3659 1.94367 5.44999e-22)
(1.25649 2.27776 0)
(5.61657 0.666874 -3.14345e-21)
(5.78952 -2.84119 -6.0311e-21)
(5.661 0.204866 -3.15959e-22)
(5.96402 -0.260551 -6.11149e-21)
(8.45992 -2.57213 0)
(1.70717 -6.4258 4.67804e-20)
(4.35766 -3.25395 -2.47462e-22)
(6.0221 -0.00325724 9.98027e-22)
(5.27721 -0.061571 -4.22566e-21)
(2.89165 0.794919 5.40535e-21)
(5.54855 0.743376 3.8102e-21)
(7.35944 -0.24594 2.55749e-21)
(6.71232 -0.266477 0)
(6.59811 -0.771772 3.47775e-23)
(7.45797 -0.112645 1.11439e-21)
(5.99065 0.00146151 1.26077e-20)
(7.69845 -1.49719 0)
(5.27517 0.634223 -1.08448e-21)
(4.66426 0.443286 0)
(8.41546 2.20151 1.5489e-20)
(6.59178 -1.57022 -6.67653e-22)
(3.18368 -1.52336 4.13797e-21)
(8.2417 0.537541 5.0082e-21)
(5.97419 0.287625 0)
(5.64724 -2.90765 -2.64017e-21)
(8.17684 -2.42054 3.49053e-21)
(5.27928 -0.0535116 3.99595e-21)
(7.55093 -0.0990475 -3.19849e-21)
(6.65041 0.404114 1.04544e-21)
(-0.771851 0.0695808 -7.86192e-21)
(4.30717 -8.0496 6.62934e-22)
(6.85343 -0.0128079 0)
(3.84051 -1.44921 9.4854e-21)
(8.51224 2.43999 0)
(4.75728 -2.80827 9.85819e-23)
(6.59011 0.0166425 2.3891e-21)
(6.43293 -0.709054 -2.24462e-21)
(6.42313 -0.440818 1.8858e-21)
(1.21891 0.498883 -8.9807e-21)
(5.95302 -0.0320976 5.34598e-21)
(6.68848 1.03854 0)
(-1.41679 2.71951 -1.77735e-21)
(6.92881 -0.171638 -4.24279e-22)
(5.52738 -2.67767 -1.56242e-22)
(11.0745 2.26436 9.72102e-21)
(7.0034 -0.0340862 0)
(5.32643 0.351575 3.25027e-21)
(5.58632 0.0615617 8.82256e-21)
(5.97224 -0.0039434 6.78956e-21)
(9.22513 -0.388049 0)
(4.67258 -0.720456 -4.5037e-22)
(8.70385 -0.690088 -3.36378e-21)
(-0.242981 0.51516 3.96135e-21)
(5.26074 -0.489603 1.00562e-21)
(6.91296 -0.144758 4.04685e-22)
(6.5335 -0.137214 -2.07837e-22)
(6.81874 -0.0488463 0)
(5.81994 -0.83236 -3.49767e-21)
(-2.03 -2.36762 4.40846e-21)
(6.76779 1.03814 -2.10504e-21)
(6.009 0.0107659 4.57171e-21)
(4.75115 0.00446644 0)
(5.12682 -3.46519 -4.48485e-21)
(0.902652 -1.40919 0)
(8.05149 3.78397 -1.19231e-21)
(6.456 -0.038871 0)
(7.89723 -1.90916 -2.41366e-22)
(4.63154 -0.778816 -2.2357e-21)
(4.52329 1.37037 1.09991e-20)
(-1.93414 0.061283 -1.78611e-20)
(7.17138 -2.70994 0)
(6.47378 0.157391 -3.17195e-21)
(5.98302 0.311348 -3.4867e-21)
(-3.58877 1.74307 -2.73741e-21)
(1.1842 6.99508 4.45956e-21)
(5.4254 -0.474769 -1.07062e-20)
(8.88241 -0.205281 2.85757e-21)
(6.08317 0.360283 2.77448e-21)
(5.1052 -1.63363 0)
(4.52688 0.214685 5.03586e-21)
(2.20365 7.43491 -1.41007e-20)
(7.85691 -3.98095 4.36414e-20)
(-1.20601 -2.50088 -1.74793e-20)
(-3.57876 1.2057 -4.7752e-21)
(8.42722 0.662615 0)
(-3.82654 1.67976 0)
(5.55669 2.50892 0)
(6.5723 -0.141486 0)
(13.7655 1.16427 -2.63355e-20)
(8.1192 2.1012 0)
(5.27525 -1.95128 0)
(5.35815 -0.102972 1.61173e-21)
(8.5423 0.705192 -5.03475e-21)
(6.77909 -0.0903844 -1.54196e-21)
(5.27766 0.405588 1.56945e-20)
(6.00352 0.0555479 -1.72876e-21)
(5.72092 3.75474 0)
(8.7135 -0.001283 0)
(5.92133 -0.032094 4.6061e-21)
(6.02767 0.0402642 8.03208e-22)
(3.91064 1.51398 0)
(1.77145 -1.21925 8.81023e-21)
(8.41363 -1.93628 -6.30969e-21)
(1.32244 4.46164 0)
(6.58497 0.177369 1.55617e-21)
(6.0128 -0.0129458 -5.29283e-21)
(4.0566 4.35993 5.70725e-22)
(3.82727 -1.42729 0)
(5.96065 0.315335 6.27222e-21)
(7.33635 0.644451 0)
(8.74437 -0.537152 0)
(6.35584 0.442615 -5.01452e-22)
(5.91821 -0.00287581 2.54739e-21)
(3.34177 0.213681 -1.09772e-20)
(6.42663 1.5778 1.53125e-21)
(4.7253 -1.36558 -3.61041e-21)
(6.4977 -0.131043 3.56471e-22)
(6.12698 0.390367 2.22149e-21)
(6.02761 -0.932782 9.1693e-21)
(8.74889 -1.47673 0)
(9.37965 0.535994 5.80084e-21)
(4.61733 -0.621392 0)
(5.40458 -3.19442 2.68668e-21)
(6.85519 0.172479 0)
(4.83363 -0.320769 6.10504e-21)
(-5.05924 0.852167 -1.87735e-20)
(8.94611 -0.158158 0)
(-0.600454 -0.132567 1.1831e-22)
(8.78881 0.00302711 -5.44584e-21)
(5.85042 -2.87808 -6.12329e-22)
(5.94477 -0.898829 7.88238e-21)
(4.28825 1.31215 -6.90831e-21)
(4.70012 -1.34198 -1.059e-20)
(8.57088 3.60961 0)
(-2.28505 -0.505701 1.62318e-20)
(-0.578363 0.218848 -1.71602e-20)
(5.95649 0.325673 0)
(5.64804 0.247052 3.46167e-22)
(7.72453 0.135691 -3.16595e-22)
(6.96042 2.86497 0)
(6.00195 0.00186568 0)
(4.02631 -2.84906 0)
(-9.52438 1.57324 1.43001e-20)
(8.19904 1.51495 1.38227e-21)
(9.15637 -0.250631 1.905e-22)
(6.1515 2.31597 0)
(5.66634 -0.724499 6.20779e-21)
(10.6344 -6.49295 1.06139e-21)
(6.43239 1.45327 -3.56206e-21)
(7.36571 -1.26748 7.21866e-20)
(5.81265 0.150064 0)
(3.65532 -6.55713 0)
(3.11664 -0.911962 -6.91766e-21)
(5.02472 -1.62998 -2.38044e-21)
(6.33015 -0.483685 0)
(6.62885 -3.0216 1.7307e-21)
(7.2073 -0.204556 3.66287e-21)
(6.84622 -10.0945 4.60316e-21)
(3.42559 -1.6094 0)
(6.17096 -0.460529 1.37451e-21)
(0.683012 5.30025 1.03268e-20)
(7.39758 0.616238 -5.47833e-22)
(6.56957 -1.65856 0)
(-0.139143 -1.91825 -2.48363e-20)
(6.38259 -0.497348 2.04216e-21)
(5.98261 0.117613 1.2258e-21)
(5.08687 1.86731 -4.6413e-21)
(7.06959 1.91393 0)
(5.26785 0.404785 -4.16886e-21)
(8.52563 1.65909 -1.50733e-21)
(-3.23756 0.568253 6.52518e-22)
(5.99062 0.0641279 0)
(1.49299 3.66988 -4.5766e-21)
(2.50745 -0.811048 0)
(5.99854 0.0633818 -4.90773e-21)
(5.97867 0.0263328 1.84353e-21)
(5.87999 -0.102543 -8.95616e-22)
(-8.39956 0.342752 0)
(7.28056 -0.14004 -1.17603e-21)
(3.8629 0.472226 1.41038e-20)
(8.6797 -1.73457 0)
(5.3101 -0.142101 4.91334e-21)
(9.75825 0.688179 1.18959e-20)
(6.57134 0.0486753 0)
(-3.23487 6.48093 1.86474e-20)
(6.82184 -3.98143 -2.85658e-21)
(6.47389 -0.150517 0)
(-3.10904 -1.8637 1.20292e-20)
(5.61786 0.206125 0)
(6.35361 -2.7959 5.75149e-22)
(-1.21744 -3.31077 1.06509e-20)
(4.96111 -1.66038 4.73552e-22)
(6.9876 0.442976 1.2851e-21)
(4.52736 0.172827 2.61392e-21)
(5.9206 -0.964701 -2.83766e-21)
(7.37424 -2.48469 -1.18903e-21)
(6.34001 -2.69415 9.13521e-23)
(6.88974 -0.19399 5.11894e-22)
(7.03219 1.89856 -2.50167e-21)
(8.05612 -3.31153 0)
(5.99807 -0.00341543 -4.05481e-21)
(1.50472 4.79987 -3.43883e-21)
(4.69756 -0.639242 0)
(5.65427 9.85683 -6.13419e-21)
(2.59285 -0.208721 0)
(4.41719 -1.41865 9.43695e-21)
(7.75499 -2.32096 0)
(5.82169 -0.078654 1.03748e-20)
(6.79248 -0.0068751 -1.38669e-21)
(-6.8271 8.08655 3.09955e-20)
(4.28342 -3.22569 2.59287e-20)
(6.90348 0.0287345 -1.95612e-23)
(7.08454 -3.25041 -4.9104e-21)
(6.19369 -1.6243 1.9905e-21)
(5.12362 -1.26839 0)
(-0.98631 0.213814 -4.99345e-21)
(8.90317 -1.36016 1.20649e-21)
(-0.738143 0.0548109 -5.82654e-21)
(5.92076 -9.70821 -2.3687e-21)
(5.11335 -1.96628 0)
(6.5951 -0.00507778 -3.66182e-23)
(1.99188 -1.52056 0)
(3.0113 -3.61398 9.25466e-23)
(4.28 4.52073 -1.16924e-21)
(9.97126 7.23682 0)
(7.25721 -1.27518 -1.22819e-22)
(0.897971 3.25499 0)
(6.97912 2.76789 0)
(6.05689 -2.79283 -7.845e-22)
(4.73505 0.325114 4.11991e-21)
(5.34477 -4.68577 0)
(5.58636 0.121311 -2.48827e-21)
(9.5171 -0.57722 7.89845e-21)
(-2.26053 -1.23525 1.5471e-20)
(6.80016 3.49587 0)
(6.36738 -0.0380013 0)
(-0.391913 -0.861765 -7.06511e-21)
(6.03966 -0.418148 0)
(7.58513 -0.367183 0)
(-2.15275 3.85828 2.26136e-22)
(6.93669 -0.816128 -1.07768e-21)
(6.00888 -1.36176 2.04149e-21)
(8.85786 0.619518 4.9761e-22)
(-0.654181 -0.502564 1.03705e-20)
(5.97788 0.0150025 2.08815e-21)
(5.24842 -1.31988 0)
(6.17527 1.06848 -1.35015e-21)
(4.88678 -0.951057 0)
(7.39216 -0.001086 0)
(5.9864 0.149105 0)
(6.36003 0.415139 -4.07582e-22)
(5.96451 -0.275833 2.81906e-21)
(7.52151 0.435492 -6.28204e-22)
(5.3735 -1.32995 0)
(1.60981 0.484521 -7.51083e-21)
(5.52901 2.3585 3.37751e-21)
(6.65021 -2.12441 3.92245e-23)
(7.39271 -0.859812 -2.06952e-21)
(9.73157 0.344647 1.40074e-20)
(6.18772 0.0512744 -3.00045e-21)
(-4.78885 1.2733 0)
(6.34886 -0.437531 0)
(4.30216 1.50322 0)
(4.48799 -2.00087 -6.45853e-21)
(-7.37811 6.38177 -2.07446e-20)
(9.48501 6.06455 0)
(6.22964 1.07103 0)
(5.72374 -0.48109 3.5286e-21)
(6.07374 -0.0149726 -5.8325e-22)
(5.53945 1.24891 5.9517e-21)
(9.12035 -3.33108 0)
(2.10896 1.32015 -2.82205e-21)
(6.56626 0.173901 1.73049e-21)
(4.91524 -1.54119 -5.80333e-21)
(6.3531 0.190521 -2.5946e-21)
(6.41161 1.46635 4.6207e-21)
(8.05324 3.80035 7.81416e-21)
(4.43604 -1.98239 1.1211e-20)
(10.7719 -4.04159 2.52616e-20)
(7.34245 1.34878 2.23303e-22)
(6.00358 0.00296879 -9.63003e-22)
(6.14493 -2.88301 9.00605e-22)
(7.17814 -3.67809 1.31537e-21)
(4.19021 4.12556 -3.80042e-21)
(6.40947 -2.93682 -5.41415e-22)
(7.40086 -0.894131 0)
(5.6673 -2.33181 -1.43355e-22)
(6.43141 -0.0338586 -5.55248e-21)
(7.75267 2.27675 1.59104e-22)
(4.8184 -1.44518 -5.46571e-21)
(6.56268 -2.04172 -9.45532e-22)
(6.15034 0.0278256 4.23611e-21)
(8.03852 -0.110569 -2.43447e-21)
(4.84396 -1.61922 -2.7733e-21)
(8.34534 0.74453 -2.07476e-21)
(4.16159 -0.941992 -1.3695e-20)
(6.52892 -0.0265191 -4.82772e-21)
(4.14803 -1.1251 0)
(-10.3906 7.41627 -5.47036e-20)
(6.61839 0.0467377 6.64621e-21)
(5.55694 -0.13652 -1.83594e-21)
(-1.31223 3.44274 0)
(7.44113 -3.16737 0)
(5.88333 0.876138 5.27928e-21)
(3.82719 -0.954728 8.70914e-21)
(-0.0571313 3.63087 -1.83595e-20)
(7.914 -1.92668 2.03909e-21)
(7.43371 -0.198488 -1.50844e-21)
(8.68371 2.28628 0)
(5.86993 0.957784 3.04768e-21)
(-0.57229 1.78303 -5.1801e-22)
(6.53518 2.50797 -3.08177e-21)
(6.49601 -0.639869 -2.59124e-21)
(-0.446897 -0.943797 -1.64591e-20)
(9.8446 0.128741 -1.29342e-20)
(9.18776 0.591244 2.20589e-21)
(5.92776 2.69892 0)
(8.81065 -1.84643 -2.15536e-21)
(5.89468 -0.10798 7.88065e-22)
(7.35625 -3.5594 2.04162e-21)
(3.64274 -1.7884 1.10173e-20)
(6.44827 -0.693258 3.94087e-21)
(7.42212 -2.73637 2.57786e-21)
(-1.30407 -1.88116 -9.84232e-21)
(7.9529 -0.0586749 -2.62469e-21)
(6.47542 0.0644574 4.33269e-21)
(-0.984574 1.75362 -7.87981e-22)
(6.34191 2.39094 6.57985e-21)
(-2.87881 -1.95676 -1.30705e-20)
(4.57327 -2.19691 -2.90933e-21)
(5.55094 -1.97237 0)
(8.23504 2.07704 -4.90776e-22)
(-4.34007 2.55246 -3.37351e-21)
(4.60272 -0.844619 1.18701e-20)
(6.25705 -0.608675 0)
(4.23427 0.853062 2.61565e-21)
(4.2961 -1.78056 2.6666e-21)
(5.99105 0.0263305 -8.9773e-21)
(1.45467 -1.57958 -9.48847e-21)
(5.42804 -4.59856 -9.12019e-22)
(6.81315 -0.0678591 1.03697e-21)
(6.56734 0.181842 4.76897e-21)
(6.46453 -2.8389 -1.97655e-22)
(7.52909 0.765833 8.30982e-22)
(-7.51688 6.23406 -4.44373e-20)
(6.40687 -0.0228367 5.20942e-21)
(6.47183 -0.123768 -1.57833e-21)
(6.24898 0.233074 -5.21824e-23)
(7.27099 0.0814028 -2.97014e-21)
(4.17791 -1.84164 -5.15392e-21)
(7.1955 1.19259 0)
(-9.42976 1.22536 2.20287e-20)
(6.43384 0.0542101 5.79396e-22)
(4.27774 4.14499 1.04585e-21)
(7.1577 0.134702 1.26455e-21)
(7.35398 -0.448695 5.16029e-22)
(6.00049 0.0307868 -7.77176e-21)
(6.0899 0.666282 1.70803e-21)
(2.21919 -1.28771 -9.05563e-21)
(8.12759 -0.313839 0)
(5.059 -3.46551 2.423e-21)
(6.62769 -0.769335 2.30061e-21)
(5.13711 -1.92232 0)
(6.22691 0.180697 3.53653e-21)
(7.12378 -0.802656 2.87402e-21)
(7.8253 -0.248891 3.41045e-25)
(11.0637 -2.52403 1.0994e-20)
(6.17697 -1.38955 0)
(5.40837 0.572009 8.06422e-21)
(8.96696 -1.77595 -2.99044e-21)
(6.15955 -2.80939 1.06444e-22)
(6.47026 -0.405618 0)
(4.73171 0.290953 -1.18313e-20)
(1.38429 -0.0765462 -2.84779e-21)
(6.20608 3.48016 2.92182e-21)
(4.19995 -0.989521 1.33502e-20)
(6.98706 -0.222956 9.48082e-22)
(3.58702 -2.73483 1.73995e-20)
(6.19642 -0.338063 -3.88345e-21)
(9.0966 0.478824 -7.05169e-21)
(5.57548 0.0758662 -5.11025e-21)
(6.08749 -0.0634548 0)
(6.00666 -0.000672105 -3.60866e-21)
(6.11672 -0.230934 1.21847e-19)
(-0.906537 1.43382 0)
(10.0227 2.18865 0)
(7.57982 -3.59192 0)
(-2.64765 -0.390889 0)
(5.99973 0.603747 0)
(4.0189 -0.934714 0)
(10.3683 -3.34523 2.22203e-23)
(8.79126 -0.034024 -2.42625e-21)
(7.25113 1.06571 0)
(5.38371 0.49506 1.20129e-20)
(2.34688 -2.71203 3.24965e-21)
(6.08617 0.388222 7.36949e-23)
(-3.53559 3.31332 -1.34407e-21)
(3.97654 -0.381523 3.33648e-23)
(1.84426 -1.61627 8.28234e-21)
(5.59697 0.0379069 -1.23037e-21)
(7.91814 0.234176 2.29171e-22)
(5.96089 0.560584 -3.50197e-21)
(5.72468 0.174375 -7.24707e-21)
(5.44274 2.11924 -6.05524e-21)
(8.28716 3.58914 0)
(4.26347 3.0409 1.34449e-20)
(4.47293 -1.4675 -1.03216e-20)
(6.01548 0.0181711 -1.07666e-20)
(8.93243 -1.18412 1.18888e-20)
(7.12354 -0.00310099 5.56311e-22)
(11.381 0.814816 -1.60987e-20)
(6.94831 -0.413019 -1.14131e-22)
(7.27018 -1.25274 4.80434e-22)
(5.98909 0.278814 3.61394e-21)
(5.29169 3.95107 0)
(7.12894 -2.2626 -9.7386e-22)
(5.42532 -0.16081 -1.52905e-21)
(7.58968 2.2896 0)
(5.61076 -1.9642 0)
(6.92975 -2.98795 -9.39555e-23)
(3.79751 -3.40328 2.0589e-20)
(10.6252 -4.18302 -1.23586e-20)
(3.17515 -1.06982 0)
(6.0622 -0.28011 -5.57003e-21)
(5.55511 0.217967 -1.39645e-21)
(-8.80599 3.25638 1.71872e-20)
(7.26926 -0.775263 1.59268e-21)
(2.19754 -1.83126 0)
(5.34108 2.38865 1.61039e-20)
(6.98627 -0.791911 0)
(8.68763 -1.95571 2.44918e-21)
(5.41554 0.385537 -2.18116e-21)
(6.00584 -0.00185895 2.08896e-25)
(6.48306 1.66341 -8.23981e-21)
(6.84548 3.15006 -2.9587e-22)
(6.00072 -1.60519 4.55791e-21)
(-1.1454 9.36625 0)
(1.18906 1.82026 -4.26678e-20)
(1.48825 -5.80029 0)
(7.40206 1.08005 1.65504e-22)
(-7.07787 1.31147 4.45999e-20)
(10.3321 1.69615 1.00601e-20)
(4.6593 -3.099 -2.06643e-21)
(-6.5185 1.6075 -1.1883e-20)
(5.62322 -2.59348 -1.22938e-22)
(4.58936 -1.46704 -5.83758e-21)
(-0.318706 4.60254 5.57795e-21)
(2.51666 1.39034 3.46357e-20)
(4.22702 -1.86284 4.24071e-21)
(4.75357 -1.52527 6.13122e-21)
(-7.85534 5.60509 2.35579e-20)
(5.73602 2.62746 -1.74881e-20)
(6.45015 -1.77022 1.29313e-21)
(-2.15667 1.27135 1.70672e-20)
(7.47883 0.0613483 3.37417e-22)
(2.27172 -2.84621 -2.61108e-21)
(6.57227 1.07827 -1.93397e-21)
(8.19116 -0.643046 0)
(-2.30783 0.0372585 -8.06156e-21)
(6.24378 -0.0294042 -6.10291e-21)
(5.96858 0.151663 0)
(7.32795 1.00604 0)
(-1.99662 -0.403415 -3.18718e-20)
(8.74161 0.842984 -4.96431e-21)
(6.87973 0.620705 -3.6318e-21)
(6.91025 -0.779908 1.38034e-21)
(5.46604 2.06538 5.19983e-21)
(4.74066 -0.0837637 2.74621e-21)
(-7.72787 0.202873 2.56989e-21)
(5.28501 1.19775 0)
(4.87273 -1.60737 5.66598e-21)
(-5.442 -2.40452 2.2273e-21)
(-6.9957 0.883565 9.45201e-21)
(6.0456 -2.16099 5.79954e-22)
(8.38332 -3.62124 4.7696e-21)
(5.6239 -0.0297527 1.44975e-21)
(5.26382 -2.29924 6.23009e-22)
(9.11592 -0.600973 7.75364e-21)
(-7.45887 0.246964 -2.36864e-20)
(6.85439 0.593565 2.74811e-21)
(5.96719 -0.0425563 2.63976e-21)
(4.11391 -1.10164 -5.47513e-21)
(6.06522 -0.356833 3.33729e-21)
(4.7245 -1.72337 0)
(6.79311 1.01455 3.62151e-21)
(6.01912 -0.0234116 5.91218e-22)
(5.08247 -1.18355 -1.87e-21)
(4.85975 3.64563 -3.16548e-21)
(6.34124 -1.75486 1.25742e-21)
(6.21053 0.0111441 1.04608e-21)
(4.56526 -0.144798 -8.51152e-21)
(7.79997 1.88609 0)
(3.96098 -3.16027 -4.48039e-21)
(6.4127 0.215644 3.5082e-21)
(7.91956 -0.927871 0)
(4.71241 -0.380251 4.7121e-21)
(7.14975 -0.861824 0)
(4.32618 3.50633 1.27422e-20)
(7.6177 -0.0317103 0)
(6.99604 -2.54038 0)
(6.6261 -0.179806 1.02727e-21)
(6.84645 0.462556 2.21773e-21)
(8.24741 1.04708 -2.4803e-21)
(5.82248 0.115136 -3.3256e-21)
(4.46906 2.06469 -3.58819e-21)
(5.98412 0.0990899 -1.53129e-21)
(6.05381 0.637262 0)
(2.61322 -1.07265 -2.44165e-21)
(7.10393 0.455446 -1.33202e-21)
(8.67124 -2.1646 -4.95377e-21)
(8.21889 -0.670347 0)
(7.83515 2.2074 4.56797e-22)
(5.4694 3.67463 -5.66376e-22)
(7.34007 -0.029746 1.62813e-21)
(0.0247945 4.52951 0)
(-1.38942 4.10631 3.38769e-21)
(6.05335 0.292664 0)
(8.98231 -0.450481 -3.70252e-21)
(-0.775348 0.703985 0)
(7.83168 0.129899 0)
(9.67807 -3.03833 0)
(7.52165 -2.34005 0)
(-1.28559 1.67849 -1.15724e-21)
(-9.47861 1.72269 -3.56672e-21)
(5.95198 -0.26245 -4.22859e-21)
(-8.05751 8.96008 -3.92359e-20)
(4.48941 -1.92293 0)
(-11.6128 7.85457 -1.81574e-20)
(-1.66387 1.69178 -6.17202e-21)
(5.62303 -2.58522 0)
(5.12603 -1.80657 -5.56711e-21)
(8.46391 -3.12331 -6.34984e-21)
(6.53871 1.01866 5.08039e-21)
(10.4397 -2.05172 -9.5689e-21)
(5.70004 0.134369 0)
(8.25758 -1.61271 0)
(9.34435 1.29717 1.94666e-21)
(7.1088 -3.23681 2.66469e-22)
(-0.754694 -3.09869 -9.12467e-21)
(-2.14755 -0.695158 -6.96478e-22)
(5.9975 0.00103453 2.68178e-22)
(8.34085 2.1767 -5.00313e-23)
(5.99678 0.272732 5.13742e-21)
(4.98448 -2.95723 2.46524e-21)
(6.57182 -1.50944 0)
(3.20664 0.575056 0)
(7.58091 0.62061 0)
(7.48876 1.00878 0)
(5.84873 -1.08031 2.13971e-21)
(8.24552 0.385474 0)
(-1.15051 1.13135 8.23546e-21)
(6.71789 4.3622 1.01389e-21)
(4.67935 -1.57193 -9.33177e-21)
(2.59711 -2.41249 -1.83595e-21)
(-11.3597 3.17151 -1.20471e-20)
(-2.83123 -0.128504 -3.84212e-21)
(6.55803 0.0838299 8.27025e-22)
(-7.37088 -1.87756 -1.35455e-20)
(5.47609 -2.97698 5.4239e-21)
(6.80965 -0.165538 0)
(7.56041 0.433877 0)
(4.34605 -2.76206 0)
(7.39011 -0.526216 -3.91955e-22)
(3.92172 3.01334 0)
(5.32453 1.17443 0)
(5.99913 0.00350715 0)
(6.04109 -1.34429 1.94027e-21)
(6.10452 0.3597 -5.54993e-21)
(3.01771 -0.122483 0)
(10.5434 -2.41589 -8.78195e-21)
(5.91698 0.26415 -4.44643e-21)
(6.55956 2.40738 6.32655e-21)
(5.66303 -2.54274 2.31267e-21)
(5.4714 1.37361 7.29129e-23)
(6.50404 -4.07479 -2.79947e-22)
(5.24957 -2.26836 8.09369e-22)
(7.08003 -2.74073 -2.86238e-21)
(6.78084 0.491156 -2.96845e-21)
(-1.2319 0.678865 -2.24367e-20)
(5.70781 -0.0558632 -4.67192e-21)
(6.34443 -0.0179463 0)
(5.02739 4.32925 -7.5696e-22)
(5.97444 -0.00906565 4.95991e-21)
(-0.128102 0.466548 -1.47064e-21)
(6.91424 -0.429816 -4.36704e-22)
(3.89915 -1.00494 -9.47402e-21)
(6.82374 0.411599 4.93746e-22)
(8.55506 1.74854 2.18057e-21)
(5.99067 0.0987953 0)
(5.23721 -1.82859 -7.47351e-22)
(3.93897 -1.86203 -5.62835e-22)
(7.97591 -2.90781 5.79229e-21)
(6.29528 -0.244987 -8.23725e-20)
(6.19981 0.000951862 2.21533e-21)
(7.49022 1.10206 -2.27785e-22)
(6.82124 -0.193155 -7.19448e-22)
(7.38065 0.433657 0)
(2.66132 -0.572934 0)
(5.28174 -2.47647 3.47503e-21)
(2.04606 -1.76532 1.02485e-20)
(5.54441 -1.41464 3.40265e-22)
(5.98299 -0.0126059 9.78494e-21)
(5.48477 -1.96395 2.33239e-21)
(4.71312 0.202503 0)
(5.64761 -0.0528024 0)
(5.46915 -1.25259 -1.26392e-22)
(6.39806 -0.0962848 1.56982e-21)
(5.56463 1.30595 8.51146e-21)
(6.23185 0.276868 0)
(6.76249 0.0944567 0)
(7.49346 -1.3977 -2.82852e-21)
(6.40015 -0.39113 2.52032e-21)
(1.31574 -1.77075 -1.29647e-20)
(6.41501 -0.58126 0)
(6.75228 0.274465 3.86431e-21)
(11.0116 -0.634912 -3.11779e-21)
(-4.13671 2.13399 -4.35063e-21)
(6.24131 -0.110568 -4.37668e-21)
(9.08061 -0.00929654 0)
(8.83895 0.771735 4.06376e-21)
(0.981094 4.38436 -8.48876e-21)
(0.288036 -0.479215 0)
(4.24417 1.83958 1.31664e-20)
(5.86317 0.036408 -3.33722e-21)
(8.34501 -0.0995509 1.57243e-23)
(5.32966 0.768822 1.13298e-21)
(4.20069 4.26818 9.60791e-22)
(6.47908 0.0530613 0)
(3.88515 -1.51018 -1.09364e-22)
(4.99986 -1.81747 -2.21207e-21)
(2.19255 1.78834 2.452e-21)
(5.97118 0.575116 4.14689e-21)
(-1.52554 7.64988 1.16738e-20)
(6.15946 0.025709 -1.02012e-20)
(8.09298 -3.33032 -9.35626e-22)
(4.49614 -2.46922 1.29481e-21)
(5.93311 -1.26287 0)
(4.91052 -0.252042 -5.7812e-22)
(4.14728 -1.90685 3.41567e-21)
(6.68787 0.0073295 -2.79196e-21)
(6.01942 -0.0202497 -4.39718e-21)
(8.88795 -0.631087 3.25658e-21)
(5.527 -0.694578 9.42226e-21)
(7.02992 0.0147212 -3.79627e-22)
(5.60328 -0.014244 2.7954e-21)
(6.12271 8.8174 -2.98096e-20)
(8.7611 0.652409 -5.56193e-21)
(6.3936 2.61039 5.18681e-21)
(0.00500924 4.12763 1.44552e-20)
(5.93419 -0.00169327 0)
(4.80859 -2.80346 0)
(12.4126 3.98415 0)
(4.64995 -1.47496 7.30951e-21)
(6.07839 0.0346163 -6.99822e-21)
(5.52507 0.238409 0)
(5.19865 -1.20795 -5.30076e-21)
(5.52627 0.18302 0)
(5.85735 -0.967007 -3.52459e-21)
(8.47761 -2.22105 -5.99733e-21)
(6.46493 -1.40815 -1.58137e-21)
(6.57082 0.0513037 0)
(5.99039 -0.0600984 0)
(7.5525 -1.05333 1.98829e-21)
(7.20051 0.920546 -6.44511e-23)
(8.05635 0.133452 2.25341e-21)
(5.65704 3.91634 -2.8805e-22)
(5.91038 0.604104 0)
(6.07759 -2.1017 -9.02129e-22)
(-0.942345 1.15743 0)
(3.08841 1.41831 -5.87082e-21)
(6.91791 3.15044 0)
(7.42984 0.969766 4.54081e-22)
(4.1715 -0.885899 3.5711e-21)
(5.10199 -0.71501 3.26645e-21)
(6.55641 -0.863125 -1.9688e-21)
(7.37383 3.98755 -4.26492e-20)
(6.34664 -0.497779 6.31712e-21)
(6.00488 0.617333 -8.00707e-23)
(10.9276 0.717292 1.98007e-20)
(6.7346 -1.06481 -6.02903e-22)
(-0.613287 0.79279 1.79249e-21)
(7.20944 1.39911 0)
(6.02137 -0.000551789 -4.41337e-24)
(5.30207 -1.37716 0)
(5.83966 -2.47378 -1.17936e-21)
(6.1632 -2.07104 -3.99118e-22)
(5.5713 -0.629311 -3.05264e-21)
(4.88183 -0.7963 4.99995e-22)
(7.59938 0.225852 -2.68076e-22)