/*--------------------------------*- C++ -*----------------------------------*\
| =========                 |                                                 |
| \\      /  F ield         | OpenFOAM: The Open Source CFD Toolbox           |
|  \\    /   O peration     | Version:  2306                                  |
|   \\  /    A nd           | Website:  www.openfoam.com                      |
|    \\/     M anipulation  |                                                 |
\*---------------------------------------------------------------------------*/
FoamFile
{
    version     2.0;
    format      ascii;
    arch        "LSB;label=32;scalar=64";
    class       volScalarField;
    location    "2.5";
    object      p;
}
// * * * * * * * * * * * * * * * * * * * * * * * * * * * * * * * * * * * * * //

dimensions      [0 2 -2 0 0 0 0];

internalField   nonuniform List<scalar> 
13486
(
21.3292
22.0488
-1.04844
-67.0105
-25.5162
0.673635
-35.93
-11.5789
0.839703
17.2854
-38.634
-1.75161
22.0895
5.71718
-21.4577
17.579
-35.5722
-5.85131
-2.52872
19.1475
-87.5851
21.4913
21.6686
-39.4212
14.6618
-41.6884
-59.0657
-21.3735
-0.223769
-28.7807
-86.5095
-9.54572
-24.901
-17.3112
-11.3135
-0.17126
-2.34351
6.44285
-1.78176
3.8738
-57.8407
24.1242
-0.665662
14.3009
14.2347
-1.57424
-115.89
-0.106039
-2.19893
-13.416
14.6375
-3.18866
-0.413097
7.84342
-18.2326
-23.7844
-6.63134
-2.91603
-24.9842
-2.40097
-33.6015
-2.71741
-61.8444
-89.241
-196.144
-2.55303
-63.2428
25.063
0.323677
-1.81889
-62.483
-13.4309
7.48516
-34.7729
-2.92221
-4.73198
-3.04808
-23.166
-100.386
-6.49264
-0.0915238
23.4696
-65.0645
-0.938483
21.2495
19.2427
3.20712
14.4568
17.634
20.7318
-3.36003
-15.6162
17.9131
20.3645
-0.193147
-0.0471862
-57.1715
-61.6124
3.97493
-41.3292
-0.0322944
6.38004
-63.2528
-2.89846
24.2306
-44.861
14.1013
-1.67689
-105.641
-21.4004
-4.91878
-16.6916
7.84591
-5.49952
31.5746
-3.62701
15.3233
-16.3028
7.73488
-2.05983
-5.05498
-36.3119
2.52342
-1.88061
-4.7306
-2.9078
-6.55747
7.70275
-13.5774
-227.778
-2.9252
-122.263
-41.609
-23.7317
14.629
18.021
36.5607
-20.4203
-1.98901
-8.80201
-20.5983
-0.473249
-4.52931
-6.28182
-1.55333
-25.6628
1.36378
36.6431
-14.0058
-0.037231
12.2854
-29.2939
-0.033157
24.3762
9.48439
-1.02933
-29.0182
-120.128
1.41116
-0.997053
-8.60852
1.43917
-2.23815
23.5714
-3.16836
2.12085
7.51837
40.2427
0.650703
-23.4848
-48.068
9.40921
13.6343
-8.48461
-0.112198
-64.6236
6.32147
-21.6451
13.7952
-4.25939
0.686674
-4.94197
-7.72674
-50.8021
-0.625168
-21.0077
-0.0232109
-22.9816
-57.8415
-0.521044
-2.24565
-1.34386
-3.37416
31.3374
-4.1938
-44.581
-232.263
-9.26872
12.0314
3.20085
-86.8518
7.52808
6.41394
-36.2173
-2.55201
-4.52472
-18.4956
11.7997
-3.28485
-0.651829
-21.6316
-68.8866
18.8957
14.1832
0.652042
-35.5712
-27.7511
20.7512
14.7906
-20.4234
-37.8661
-14.0501
-7.78445
-9.25061
0.698084
16.6804
-1.62084
-95.3557
-16.814
3.14616
0.553988
-103.108
-21.3896
25.56
-73.5134
14.2583
-20.2007
-1.18883
14.8403
-5.02138
-25.8273
13.553
-2.62104
11.4703
-0.873764
16.8995
-3.53814
-38.9066
-20.8123
15.1136
-53.5867
32.2436
-5.71509
-1.86427
-9.6785
-59.3995
-8.45444
-36.1986
-105.998
-25.9964
19.4831
-0.849645
-20.6163
-59.749
-27.8334
-51.2697
-16.8072
-90.8004
7.89731
5.24446
25.8798
14.5029
-27.4374
-0.83453
16.7924
-37.5968
-9.43136
-113.76
-1.82226
1.99066
-110.317
-1.13072
14.8341
-17.0531
-41.1508
-60.2862
-19.6595
-14.3811
0.647042
8.24701
-73.4864
-1.17398
-1.24594
14.4094
-19.6376
-21.771
-9.41023
-0.673585
14.5541
-49.8275
-0.89889
-23.2016
1.44793
-10.1287
-1.89552
-37.8582
-106.009
-3.55897
2.79953
-2.30864
-12.7721
-67.7872
8.987
-14.7261
-0.14653
18.2311
-1.19249
17.8754
12.3442
-19.0962
-2.42851
-1.18165
13.8476
21.0366
38.5934
-3.79906
-13.2101
-1.61998
-0.157748
-15.0977
14.6084
-17.3941
-2.24129
27.1952
-37.835
-2.25048
31.9147
-28.4904
13.5113
-0.75814
-17.5665
21.0109
-16.4575
-8.15257
-51.0722
-0.141551
-5.69955
29.3268
-21.15
-1.11879
-3.45478
-0.16865
-0.699057
-55.3855
14.4194
-0.857834
-26.8358
-6.39868
2.4349
-69.4142
-2.64064
-1.0532
18.3576
14.5779
-29.2251
0.0182909
-21.4021
-133.168
19.6831
-5.71145
-0.752947
-5.14038
0.8568
-51.5031
3.72834
14.3774
13.8334
-1.0387
3.66571
-16.305
7.06715
-20.2157
25.1442
26.1509
-128.498
-10.4054
4.70955
13.338
-36.8605
-95.9212
18.0182
-26.231
10.928
16.3255
28.3796
-2.10441
-65.0087
-51.6464
-35.7816
-20.5761
-36.6758
15.1178
3.32677
-112.402
-34.19
4.39849
20.1098
-21.7618
-4.01876
21.6816
12.3545
5.64154
-24.8965
14.8005
13.7858
29.4842
-49.7756
-27.0502
-70.0846
-5.25942
13.9372
-16.1041
29.6129
13.9845
-4.48288
-22.8493
7.71153
15.0626
-58.1075
8.22793
21.6891
3.55578
10.7144
0.788007
-32.6515
-34.133
25.6777
-1.08591
-8.20754
24.5675
-95.6203
-26.5463
-20.9372
-25.8578
1.28961
9.66427
28.8429
22.0857
-16.4882
-2.02423
-51.3193
13.797
18.1047
-13.8378
-0.302031
14.2626
-50.3014
-67.3064
-14.7561
-26.8519
9.5743
14.0508
-0.15176
8.19197
-79.3303
16.5472
-0.0552961
36.3485
17.2349
5.30046
-14.3061
-0.128065
-0.122205
31.4735
-9.00298
-1.97528
-5.12367
-2.11852
-60.0312
-0.454954
13.8475
-1.16539
0.233668
21.8573
-20.1458
-34.5949
13.2217
-91.5944
39.7929
13.3124
14.6734
14.7968
-61.7297
-0.651142
33.3994
-31.0958
20.4093
-46.8703
8.3521
-89.4124
-4.65344
-0.830577
-52.1197
18.2141
-4.31576
-53.9232
-0.0262572
-0.223461
28.2552
9.53674
-10.0246
-3.40954
-5.19595
0.992198
-28.5221
14.4297
-60.5894
24.9549
-3.22858
-1.80267
24.4628
-20.1918
-0.263129
-3.07565
-90.4948
-51.8643
-3.43904
-23.7619
3.08621
17.8901
-51.9562
-33.3129
-52.8339
-0.10988
14.4278
7.86364
-51.4299
-62.8866
-13.9891
-111.634
-10.7992
-201.105
-0.377961
-3.33244
26.6289
-4.46573
18.5663
-31.368
-50.564
-1.88782
10.0678
-52.5141
10.3163
-0.814974
-33.8014
-5.64245
6.79808
-27.3194
-51.6014
14.7368
16.2106
11.1812
21.9402
-0.871188
13.6169
7.74559
12.5295
-1.93691
14.7156
-55.5738
15.4078
-4.97108
-13.1993
-39.8789
13.2005
-92.4901
-0.770424
28.9266
20.7624
-135.63
-77.3648
10.6873
0.836092
4.46249
18.6103
-43.4149
-50.6949
3.53296
18.8335
6.509
8.50369
-69.5743
21.0553
-111.639
-4.39506
14.2947
-15.7529
-5.39109
12.5445
-11.4135
-0.197881
3.02652
9.70163
-8.7958
20.3028
-3.54744
-1.96347
-1.09147
3.68176
-19.2828
28.7641
8.72065
28.2286
-93.9755
9.76191
-0.214731
-27.4051
-24.6192
14.8554
31.4882
-114.37
-21.2667
-14.4273
-23.0358
15.0287
-12.1899
4.97952
2.27326
-51.6186
-37.3891
-36.7878
10.4168
-21.7352
14.4951
-0.130133
25.0007
2.82934
-1.07153
-50.648
-20.8954
8.91412
-43.0647
7.47167
-48.7834
13.8092
-0.00661226
-8.79654
-44.6948
25.0609
-0.106651
0.243288
23.7242
14.5389
-49.5309
-3.06971
-4.6224
5.01788
-5.99114
-2.61281
-143.649
9.60492
4.34204
8.70233
1.26518
24.5507
-4.07423
-72.2766
13.2203
-12.9485
-0.716467
-12.3716
13.8853
11.947
-49.7614
-0.669142
-0.912494
-0.00736235
14.3712
8.78769
-0.0323429
-0.911581
-64.0754
-5.32963
20.6718
-2.04296
-7.45591
3.11577
26.5545
-0.834092
3.45298
28.212
-0.458617
-51.0844
8.65335
-30.8637
18.5046
-1.64157
14.2906
-118.338
-23.6355
-58.0921
-0.0883112
-32.3346
13.2583
30.0431
-37.4069
-22.5624
-2.40734
20.9637
3.24839
11.1653
-40.6728
31.9266
-49.9599
-3.24584
-14.5118
13.7739
17.3708
16.9685
-12.5532
-98.0567
23.7787
14.1953
-33.9897
4.66215
-64.837
-5.93725
-10.8454
13.2081
-19.5176
-8.46797
19.3027
-30.6319
-2.36086
-12.537
-52.5565
-38.9484
-2.22952
11.0904
18.8422
-77.3105
-0.537823
-49.7264
-95.5192
-0.243923
-22.1881
-1.82882
14.3144
7.57779
-0.451975
5.69701
-63.5766
-247.596
-24.1296
-4.41694
-74.4417
-56.0558
-0.905929
-54.1553
-6.30386
22.553
-2.13257
-251.361
23.7721
20.4849
-130.05
-210.207
-0.939293
-122.139
-1.82188
1.89065
6.19827
-24.0564
-32.7017
10.6198
13.7116
-3.4902
-188.436
-29.9471
1.5039
-5.03522
17.3784
-2.49431
-70.4297
21.136
18.835
-52.669
-53.6097
2.3482
-42.248
-1.86043
-1.62386
-26.8466
-68.9066
1.78054
14.206
28.644
10.4397
4.18288
3.37379
13.8933
18.778
10.9256
0.635302
11.3781
27.5097
-30.9511
-1.18292
6.22849
-11.7068
25.3881
-0.493357
18.0708
-1.79034
-8.62513
-1.70298
2.04529
-16.5679
16.333
26.4446
13.8309
12.532
-78.9489
-1.67532
-20.2832
-24.0684
-9.90912
6.90423
-1.78955
-50.0038
-30.7661
12.3498
-26.21
-22.0018
-80.5667
-134.551
-17.2703
-50.8671
-71.1274
12.7796
-91.293
21.1025
-102.151
-23.0295
4.7508
15.0745
-3.91893
6.46669
-51.9874
17.5107
-25.6711
-33.7972
-4.11762
-1.94355
-188.565
14.3036
-8.92343
13.0399
-1.20497
-1.58172
-61.9218
-2.41081
-0.83279
10.0743
-18.6114
-36.8557
-81.3919
21.1411
2.86418
-76.5927
-29.216
11.1608
-63.2445
-1.23371
-1.38881
-19.0752
5.68584
-12.9504
-203.498
20.9029
14.2602
6.28304
11.4022
-1.69283
-39.0653
14.8905
5.19965
5.55715
19.0216
-6.40683
-1.637
-12.4313
2.56673
-1.91953
16.7224
10.0371
-13.168
14.3368
-10.6952
-5.14962
30.8281
1.89679
-20.4513
13.6008
3.43496
-2.04201
-14.1896
-81.0581
11.0094
-3.6569
-0.475475
-1.95542
3.76615
9.30434
-47.4038
-0.0253484
14.3051
3.72727
26.8927
17.5196
13.9349
-1.57133
18.5367
-4.45876
-0.969893
-14.6863
4.56518
-124.299
-13.0032
-93.5361
-47.3465
-46.1544
9.01096
-24.3405
-28.4448
-52.2217
-128.924
-1.07119
15.803
-0.445048
-2.84968
-19.2378
13.7623
28.7117
4.04422
0.389456
13.6771
-60.5673
10.1913
-1.43432
-1.04932
8.1871
-3.8088
24.6797
-2.75476
13.9387
-24.9802
15.7596
-1.76927
17.8037
-3.17382
-26.8392
6.59944
-115.592
-2.75757
4.77969
-96.0958
21.9031
13.7734
19.342
17.2964
19.2774
10.3098
-20.9762
0.289235
13.8968
13.8174
-11.9776
-2.03756
-18.0485
4.13803
-4.99488
2.40307
-23.3054
39.0294
-0.882717
-3.21018
28.863
20.5078
-12.6719
-102.528
5.12615
13.1769
-66.4108
-2.89471
-20.0016
-1.45571
13.916
15.4177
-1.22176
1.51131
15.6636
-0.033754
-7.82989
17.8324
-4.24589
-2.1053
-50.4562
-0.792896
-16.2446
16.4456
23.2217
-1.99332
-71.6815
-36.8856
-6.52849
-2.25716
-1.50026
24.7252
-2.66743
34.5663
9.40761
-2.28186
12.0646
-48.2104
-13.7316
-63.6776
11.2117
-1.40978
-17.2592
-90.1126
11.4054
14.9522
-0.730384
-19.5509
-132.663
-19.0488
4.38504
-1.11721
-1.71407
-4.22236
12.399
14.7559
18.7801
3.35734
-11.9762
-25.4208
-17.8905
-0.842089
-141.361
11.0512
-2.25768
-92.9566
-1.71305
-2.00968
2.03975
-39.4131
-2.01446
14.5027
-0.802528
-38.4544
-7.6313
-12.597
-32.1766
-0.166337
4.46834
1.55516
13.9335
9.30629
-21.7158
14.4261
-2.28356
18.5779
11.0513
12.3634
5.90721
2.25512
24.7617
34.2862
1.31452
-28.5905
14.4665
-3.75175
24.9076
-16.1054
-24.2364
-42.3097
-1.05441
2.01273
-89.6119
13.669
8.71367
4.94801
-47.8422
-12.8736
4.10607
30.4739
-20.92
15.2947
-39.8576
7.96226
24.1926
-9.28856
-6.98574
-117.135
18.8192
-3.12039
33.3825
1.12415
-18.5665
11.5764
-0.333614
-51.6782
-20.7166
-0.842603
18.6724
-0.167654
-26.4945
20.7354
19.0556
-5.00287
-15.3857
0.948669
8.6062
4.09797
7.34472
14.2978
-2.8682
-20.0844
17.115
-7.00018
-29.9714
-12.4281
17.765
8.60253
0.164079
-114.375
0.0240243
14.7596
22.7184
-3.4319
3.06808
-17.172
30.8166
-44.9035
-19.8606
25.3893
14.5317
4.06735
-4.5743
-65.0319
-17.1494
-75.4175
-46.7658
-0.88132
-60.0497
4.01655
-40.7978
-114.603
-32.4794
-75.0309
-68.8442
-34.2631
-52.0343
28.56
16.4947
-29.7079
-134.111
-8.02644
8.42495
-13.7399
34.2161
-17.9842
-15.7237
14.617
-38.3493
-59.9745
-12.6935
-13.7338
8.88506
35.9347
-0.14005
-8.8959
-41.3438
-0.563839
-15.7726
-5.15133
-1.58245
17.3111
18.2412
14.933
-90.405
-3.40519
-1.64661
-0.301999
13.7543
-0.759766
15.6148
32.1249
27.3669
-38.3532
14.6174
18.1124
-15.7391
13.5972
-2.18255
26.4978
13.1778
4.02185
18.0641
12.7979
-12.1065
-1.42941
18.669
-24.2676
-0.34721
-27.4826
-20.6798
0.266132
10.2717
-2.29946
-4.4237
24.216
23.7809
-12.5555
-23.2045
-1.39858
-68.1092
-8.11826
17.3454
17.8502
-23.9058
14.073
-0.919461
-5.29909
-0.111574
-49.8977
-132.045
-1.93923
35.7282
-21.6544
0.694451
21.234
-0.0701083
-5.37667
11.3259
-0.993367
14.7888
-38.8015
-23.8425
-2.94049
-11.3507
-17.654
-13.7623
29.4217
20.3002
7.30254
37.2866
23.0002
-18.2484
-2.39094
-19.6873
-2.29223
24.3624
-97.935
5.21498
-3.33346
-49.0259
-18.2064
11.7729
-104.193
-5.01291
17.1428
36.2558
-53.9977
-4.51593
4.60617
2.60144
-1.09381
-75.7301
23.1429
12.806
-0.290569
11.1264
-48.9328
-35.4952
-53.7913
27.2094
-5.11477
33.0505
-85.6686
1.82751
-58.0684
-29.3738
-22.493
-1.36685
-2.23753
9.19359
3.19753
9.23827
-70.8567
-0.0509533
-220.845
-20.4516
-20.3965
-36.8073
2.56361
-5.81762
-82.8781
-40.0196
-2.40037
-1.38805
29.1739
14.1097
-7.3718
-3.22364
41.7246
4.78335
-64.7304
-0.183352
2.79526
15.0369
0.218324
17.2989
-17.3179
-17.7798
-13.8587
-0.0316592
-1.48103
22.2704
-25.9672
-50.4781
-53.187
27.9809
-60.0325
-2.08912
14.5131
-89.6365
-8.39469
-1.85047
-51.4242
-54.7781
-1.67057
14.3863
6.28195
14.1121
-38.4331
-18.9581
-21.8632
-83.9939
-34.9822
-13.3331
-2.72408
-136.713
2.33086
-64.3269
-54.4468
-35.2085
20.2554
-83.6627
28.136
-51.1857
-45.1888
-10.8331
5.70052
15.7238
-5.1309
23.59
3.68968
-66.7104
-50.4871
12.6944
-17.92
14.0779
-1.19232
25.4562
17.3847
-1.09626
11.1405
24.3781
3.11678
11.146
-10.9675
-69.2888
-7.83166
-31.2387
-1.97143
-19.578
-19.0211
-1.03258
-48.89
-1.56267
-2.31085
-9.95613
-16.7916
-21.6661
26.3456
-0.721732
-0.186936
-0.200691
14.1813
-205.513
-0.230841
3.94023
-1.90918
-0.87991
-0.892336
-1.5746
14.1488
14.4179
2.03164
16.1845
17.2339
6.29783
-34.7558
-3.10544
9.40472
-2.2348
-16.8148
-90.2645
-81.4549
-21.2606
-66.1334
0.0447486
-2.21024
-6.82861
-14.015
-13.4978
-33.2772
-2.11422
-139.317
10.0884
-52.74
15.3272
40.7574
11.2469
-208.221
12.1682
7.15693
-1.39846
-0.459316
-35.7033
-62.7033
-0.796163
13.0426
-0.161384
23.0827
-0.377264
14.3756
-9.57275
-7.14215
-74.0085
-26.3334
34.6351
-81.7514
14.2712
14.5624
17.1908
-1.18155
12.7254
-0.708903
-48.3662
2.54987
-55.7461
-65.5006
13.368
14.58
-32.5396
11.5837
18.3458
-61.8473
-139.248
-8.80872
-2.054
17.6519
12.22
18.3918
-6.1226
1.24332
-20.2049
-20.0533
-40.4984
18.5552
32.6473
-37.574
-44.6058
-75.4505
-4.19589
-0.862333
-0.86249
-34.0663
-13.6276
-8.21131
-99.6293
-11.7891
36.2339
10.5461
-4.40413
-92.0155
-54.7906
-38.5286
-40.9355
-34.4607
-50.2068
21.1335
12.0398
-23.3303
31.9379
-0.206516
-48.7446
-235.254
-69.6146
3.41083
-17.0399
9.39645
0.26672
2.07305
-33.6386
-88.9536
-65.1258
-93.7378
18.7418
-36.1159
-1.98516
-50.5982
14.6466
11.7372
-59.982
14.8751
9.04171
19.7737
24.8123
3.47387
-0.630113
35.9075
-59.5644
-3.37945
-45.1635
-23.6906
21.773
-76.7917
27.5939
11.8605
-18.2156
-125.971
-135.89
17.5023
-86.3029
-240.439
-0.282835
2.89824
-5.08386
13.0495
6.72096
-10.812
27.9644
-24.6123
-37.9392
8.9932
-2.34683
17.2253
-56.5147
40.7137
-2.12971
-2.47054
17.5302
-10.8893
14.3626
2.01186
8.03528
3.29501
0.704747
-17.0242
3.61082
-1.25125
-108.11
-0.612133
1.73984
12.171
13.5778
-106.794
-0.887259
-31.4943
12.6807
-0.331006
-25.1332
15.7985
-151.965
14.5976
15.669
-32.3099
21.6593
-118.877
34.1568
5.31578
-37.4006
-0.099484
-3.00672
17.7082
17.4292
-46.9529
14.0273
16.5424
-28.8193
-1.62991
-1.09644
4.55577
-30.111
-42.2896
-20.5974
-93.0235
14.5323
-90.8014
-85.9068
-40.8853
18.9595
15.1544
18.9455
-95.3739
11.9205
-5.47559
-0.774148
12.2796
-126.335
-114.947
27.4425
-1.18053
-26.884
-24.0257
-64.4945
-109.392
14.2002
-37.8505
-20.0787
17.6314
-12.6589
13.2793
-49.7131
-4.76689
31.0375
-26.0009
18.4832
-7.48489
-94.3039
9.15706
-1.36678
11.5633
30.9804
6.79184
4.23519
32.9604
12.6179
20.349
-91.5378
-97.8737
-22.6142
-19.4316
-93.2738
-32.6187
-14.5499
-32.1523
-5.18408
-3.07445
-18.9834
-13.1462
-94.7302
-16.5052
20.0006
-36.2205
-2.12276
13.1472
13.9874
-5.48382
-1.19801
-60.3005
-46.5933
-50.9269
-21.9077
19.9367
-21.2133
19.8273
-48.727
14.3301
-23.1437
-1.89274
-45.0914
7.71232
13.2329
7.82122
-1.90281
12.0239
-12.5362
16.0214
24.7742
-57.717
-14.5523
-77.477
15.9979
5.15147
-35.6869
-33.8974
3.44771
-7.304
0.378941
0.094533
-12.4696
2.48217
13.1992
4.79777
-1.92708
-33.886
21.6416
-55.1422
10.3589
0.0241458
14.8352
8.75187
12.8118
-0.227776
-72.1392
-72.2186
-1.59682
-41.3664
-75.108
-119.381
4.7266
-118.678
15.3627
2.52362
14.2291
-93.8234
-15.2884
-29.4884
-2.10593
8.60418
-54.7733
4.31494
-1.70321
-67.3806
-82.6291
-56.0349
-1.86815
14.4293
-1.86261
-0.932359
-14.2898
3.87266
-57.61
-8.06312
-50.858
14.8451
-4.2245
-1.21111
12.5057
2.5957
10.5955
21.3643
24.7337
-22.3177
-1.89171
-117.768
-6.12136
13.1734
-1.83768
-57.5045
-32.8497
-48.4473
-16.1628
-1.34503
-45.402
35.7229
-11.5255
7.83377
-3.86584
-242.713
-2.83402
-1.66748
-3.0255
5.90366
-0.38403
15.9856
-1.62704
14.066
-32.5023
-36.7152
-116.354
-17.1547
-29.2123
7.18068
30.2853
13.6705
-27.5484
-52.7908
17.2264
-62.8331
-61.6761
1.54252
-7.62654
-68.514
-35.3249
-32.5374
-23.0452
-1.98148
-4.43961
-46.7092
-1.50278
16.1672
-16.1451
-28.405
17.2462
-2.56335
-42.2348
-1.49556
-1.43707
-0.185778
33.6499
1.29814
-3.51274
-13.3946
-8.48326
-16.3307
1.4147
-16.067
-7.81022
-3.48405
-20.0316
-1.05532
-34.9484
18.1757
0.606798
7.44337
-103.627
-18.5226
31.2709
-107.952
7.66064
7.20626
9.4386
-3.78479
-4.22842
-86.2995
1.33065
15.7405
14.652
4.53087
-70.7347
17.0035
6.16469
24.2516
-31.4993
16.3244
17.412
15.7114
-0.797113
-47.8283
9.09699
-68.0019
-11.7802
11.9562
10.796
5.14116
19.578
-0.743284
23.1705
4.82953
8.58473
2.55967
-3.54518
1.56716
14.533
-7.26873
12.8932
32.818
15.5685
-2.19327
-20.0253
-4.31628
14.3878
-2.137
-33.8059
-1.47555
-0.726994
16.258
-57.4897
21.0533
8.19204
41.7484
26.6249
-17.5146
-22.2414
-0.349865
4.65008
27.0407
0.544158
2.50235
-6.1241
36.4537
13.9795
-2.85917
32.4186
-10.0164
11.7033
-18.5722
6.91303
-6.02376
2.48621
7.36117
13.2953
-2.94527
-99.5797
-1.81668
-53.1576
-8.2367
-55.4703
0.870255
26.6591
18.8302
-1.89943
-40.2421
-11.517
9.93708
-0.159773
-0.424577
12.8491
-94.6054
-46.8775
-82.0443
15.6702
-29.2792
-58.1941
14.9718
-11.0217
-4.31732
-18.8051
31.7266
-136.044
19.7872
-43.5092
34.5136
-37.5866
-10.0937
-2.14965
-1.75462
1.17917
14.1696
1.97428
-54.1454
5.72838
-64.694
15.967
1.71866
3.40175
-122.057
-45.1406
-43.3304
6.91297
-25.8826
-1.51685
-4.8243
14.56
32.9388
-53.7251
-0.850311
-0.850718
-46.9144
11.41
-0.892367
-19.0324
-48.2244
-127.207
13.5957
-145.07
-19.2338
1.57727
-27.8468
-144.38
6.80364
14.5717
9.37973
14.4549
30.7043
-32.2047
35.7909
-18.2144
32.9599
-46.7084
-12.7814
28.3688
11.3708
-181.903
-4.54558
-2.93853
0.539544
-116.74
-45.2812
-0.740264
-24.2803
-31.2673
-0.139626
-11.7191
10.392
7.0943
-40.8644
10.7191
-33.122
-5.60931
-132.077
-2.06046
-0.149867
-120.823
-22.1255
29.2578
-1.62081
30.9429
-3.24667
-54.3511
11.4888
-6.42727
-2.26725
14.511
13.1878
35.0043
14.6772
18.4311
-24.9517
-21.2371
33.8859
33.2717
17.2917
-6.61312
-67.4128
-67.773
0.219634
-16.8412
-10.0811
22.8855
-87.3348
-1.85636
-23.3525
31.8108
4.50211
5.68281
-75.5717
-4.00803
18.6357
39.2688
36.4844
2.81571
12.3523
-22.4485
-22.0439
14.8017
37.0819
-61.6647
-2.30289
-13.268
-0.0828644
-1.05113
-0.129851
-3.89004
-1.21938
0.724882
-3.1821
-2.95915
9.80821
16.5936
-44.8832
9.49732
-76.9831
-5.4122
25.9198
-18.7345
-6.51092
-47.2526
11.7713
13.4195
-56.8191
-51.4422
-1.15419
0.317214
40.0682
-65.4104
-40.0932
-81.1555
1.30623
-73.84
-46.3032
-59.5644
-29.2315
-1.2989
-61.6909
-5.39898
-29.5122
13.3018
-0.720427
5.15953
39.2762
6.81756
-2.01908
-21.2811
6.98629
-19.4836
-23.4753
25.5423
11.5719
-1.75949
-36.9213
7.52843
11.287
-50.9368
-39.5965
1.08203
25.792
-18.586
14.376
4.00419
21.7524
0.480473
-79.744
6.04131
14.1859
-19.9579
15.7269
-9.73815
34.959
-64.0023
-1.77711
-47.0813
14.972
-61.0093
-15.7288
-65.1294
-0.449341
-34.691
-72.3076
-130.594
-5.03741
-1.45137
-74.93
-6.12887
0.621135
-65.9888
-2.76808
-66.475
13.9529
32.5342
-5.25886
-17.4717
-1.19188
-1.07868
-6.81173
-6.07327
-6.45832
-52.1219
0.760955
-46.5457
-34.9515
4.71158
3.76228
-90.9732
-1.54311
-3.33651
13.904
4.35981
-57.2555
-0.808129
-2.28701
-45.1388
-10.6823
-10.3136
-58.2069
19.9509
-96.6286
-27.1592
-23.5542
2.96867
-53.5951
-26
41.4815
-9.86249
-22.9031
15.6636
32.732
26.0695
-85.1296
-18.4902
14.0012
-1.89074
0.888819
32.2812
-5.16483
-10.3886
42.115
2.41053
-43.1074
6.68735
24.1419
14.9215
-1.10634
26.0511
13.9459
-13.618
-1.51908
11.5213
-1.62574
-43.8542
29.8082
9.84218
1.64011
-2.8709
-58.1215
-10.8407
-77.6181
-22.8963
-2.20466
1.90134
16.6768
3.36192
-60.0898
26.7582
28.2981
-36.1007
-3.47241
-6.6176
0.382414
-8.41396
13.5159
-107.299
-16.1407
3.0025
33.4415
-57.201
6.34211
10.7485
10.759
-13.6627
-1.26703
-50.7742
-10.9737
-26.3797
-2.70599
-49.8209
-29.5148
-0.976867
-65.8231
12.6223
-76.4299
-1.66026
8.91142
-19.5868
-71.9156
-45.2692
3.58715
-17.3069
2.33766
10.6185
-56.9683
-8.55174
-47.3095
-5.42404
12.846
-47.6846
33.157
-2.22191
36.8781
-0.0611508
1.86128
-0.840067
14.8832
-3.58151
-52.8609
-7.11899
3.96348
-0.569202
-10.6188
43.0175
10.8005
-22.3495
-18.8275
-16.0327
-11.381
3.24659
-56.4071
13.7083
-81.9261
-70.3787
-21.7257
-41.086
-13.7895
-18.9029
13.2395
-3.75381
26.1443
34.1689
-36.8923
-53.3323
3.03157
-11.3203
27.7652
-64.7333
3.77598
10.6585
14.0455
-100.92
-64.1079
0.558061
-2.96225
-7.69996
-96.5304
-43.1915
4.11917
-9.3173
-41.4246
1.61502
-40.6964
-35.8036
3.65383
-91.4358
-80.1131
-34.3565
-5.09483
34.6717
-17.4059
14.7105
-102.198
-9.6508
2.19004
-18.9099
9.0137
-61.1923
-110.226
27.406
12.468
4.058
-27.7619
37.6188
-68.8218
-75.0821
-83.0088
-22.5302
-60.9452
-91.7569
23.3168
3.5447
-2.38086
10.4438
-67.9142
-14.0793
1.9175
-3.35936
-41.4
4.29569
11.0442
4.05353
-55.8553
-51.7611
-60.0924
-37.6058
-12.0459
-13.8524
35.63
13.8253
-46.3111
-24.5267
8.02566
24.766
-15.0001
-106.713
-21.0504
19.1314
0.0656991
-26.1565
15.8816
-58.6462
26.8586
-13.5898
17.1812
-55.7261
-24.4359
-2.65433
-77.8035
-23.6424
9.795
-93.3196
-59.1461
8.80154
-54.0321
1.44134
19.4295
14.1806
18.477
14.345
-20.1332
-0.82846
4.47729
0.682693
-0.0180165
8.59106
-14.5901
27.4186
-63.7892
17.632
-31.5576
32.1693
-68.098
-8.15282
30.3698
-65.0485
-16.5448
-59.7946
18.5837
30.1109
13.842
-11.4353
14.0474
13.0173
-67.5677
13.5247
-93.2051
15.5666
-66.7777
-104.54
-53.3652
-56.7168
12.5214
-29.9366
-69.5183
-8.25386
29.3045
2.62902
4.59037
-61.6303
-13.8692
-12.4065
-20.0625
14.5402
1.4771
-71.5285
36.6473
-3.76391
25.4246
14.7512
-1.86661
-0.989209
-4.80262
-28.2744
-28.1721
-7.87384
-10.1641
-0.81687
1.11951
-80.1331
34.8786
17.8707
-10.6816
-69.9933
1.08767
-84.9798
15.4415
11.248
-1.2098
-2.11022
11.1057
3.40985
-14.8805
-23.5082
-15.0914
4.89323
26.8249
-46.8611
30.6757
37.964
32.1634
-66.1172
12.118
-53.5171
13.7177
11.6012
19.5133
4.93592
17.6452
38.712
15.969
-65.4333
-60.4082
-109.758
38.8115
-7.21243
-59.7143
-57.4825
19.4208
27.2543
7.46334
-10.1043
-6.054
23.3311
-38.3063
1.6491
-58.508
10.9121
-1.93359
-44.7871
-5.18801
-48.9181
-49.2559
-130.702
-33.1502
-15.9501
11.6527
3.29499
-0.162857
1.86608
-2.72179
-23.4657
-2.46068
-7.41885
-52.1639
-84.7247
16.3498
24.0985
-68.6728
20.3822
16.7582
26.6717
-1.50881
-77.8625
4.91528
-43.1992
19.2339
-12.9403
18.3224
15.5456
6.50761
18.5975
-1.98871
13.6741
-9.26978
11.533
-20.4696
-18.6135
-4.22782
-0.63072
13.1749
-41.2914
-100.726
-41.4804
30.6761
11.7759
12.3496
-9.14322
22.2139
-32.8293
1.31759
3.97072
-20.4412
1.70356
-85.038
-61.5776
-12.4865
-47.4999
-20.9484
-42.0755
3.76804
-61.0586
-20.9174
-3.72929
29.705
34.6216
25.9993
-50.501
1.83252
-48.6066
2.18081
26.1054
7.78938
12.7559
-40.071
-7.95693
-21.5866
2.4435
15.7049
0.185778
5.31807
-64.9364
0.663726
-55.9658
14.5072
5.45547
13.9299
-54.2238
2.08959
-130.915
-71.1424
-67.8011
-9.17609
28.1573
-48.5867
-84.7223
-59.3112
9.23796
14.5673
-3.69762
12.8373
-61.946
22.983
29.7339
-105.816
1.17744
18.1575
-95.0813
-26.6395
3.94469
17.5095
19.8094
-54.5929
-17.9405
5.75269
29.2668
-53.802
-148.447
1.79315
23.4926
3.47036
-19.797
-66.7376
13.39
14.1627
15.0789
1.35442
-40.1137
5.38098
37.4412
-13.8588
-9.29179
3.18328
-72.1561
3.79827
-6.8412
-53.7717
-19.3884
-75.0468
13.2369
-93.7431
-34.3682
12.2785
17.7331
2.39994
-25.508
-134.933
3.38163
-64.6975
-29.9085
-17.519
-7.88666
-35.0233
20.4185
4.24667
3.70834
0.116751
25.5645
-212.85
-12.6427
13.8158
-60.8908
14.2566
-4.41362
-10.0924
-36.9801
15.1036
-0.214609
-7.30139
-11.1694
-9.10946
14.0111
-34.7405
-3.06544
-102.23
-32.6261
13.6186
-61.852
31.7487
-54.5136
-89.24
-84.2809
18.4733
4.8438
11.4305
-126.717
22.9437
-10.0478
-14.8405
0.903859
-22.8341
15.6755
-6.92217
-12.491
-11.3368
-84.9724
14.5378
-36.6492
-90.21
-0.106383
-18.8858
-19.8629
-6.96773
25.7937
1.66481
-54.3666
11.3825
-34.8286
19.3049
-34.4483
4.16811
18.8894
15.4326
-7.6347
-76.2907
-53.4068
3.0425
9.94831
11.7767
-7.91323
-62.3784
-4.00558
-25.201
10.7728
39.9568
2.1553
13.0839
19.0296
8.40941
15.9845
-38.9549
-136.141
-86.4525
13.7239
38.7599
2.67685
-8.85663
14.8339
-7.20891
-5.34172
1.90469
4.01701
-4.65583
31.8921
-80.7475
-32.5251
30.6579
15.326
-1.53744
5.40054
11.8388
-1.80374
-116.041
-65.6432
5.37792
-23.1097
-17.6753
11.3893
-79.8365
-71.5785
-40.1229
0.557736
1.73406
4.9689
6.03108
11.9308
12.6341
-8.97242
5.97256
2.3874
25.6142
19.8357
-20.8216
-8.82352
-3.87571
16.6261
4.87277
0.132252
-6.6105
5.50548
-1.88909
25.6977
7.70911
-0.206812
-49.6039
4.08371
8.62786
-15.1832
13.8131
-1.90747
-0.525843
-185.899
-0.914035
-50.8379
-0.378193
-17.934
-167.549
-17.0979
-55.7128
20.3645
-53.6966
-38.8745
-53.8388
27.2427
-145.384
-3.94844
9.25362
-64.7311
20.0162
14.7634
-19.1139
16.5431
-0.52927
3.85115
-114.433
-50.0536
-0.759137
20.8312
2.55995
-54.2718
-59.3974
-237.029
-61.2953
-55.3455
-49.2552
-11.2358
10.1326
14.1259
9.79186
-232.84
2.80897
17.3236
10.9858
-51.7807
8.28905
-115.571
-13.273
0.741904
-4.37149
14.4158
-49.6951
-160.042
-174.882
10.3765
-23.2376
-104.605
-0.712664
-82.1457
-51.1947
-68.3269
-50.9858
-0.940107
-121.407
-7.48366
-53.337
15.3872
14.8996
-16.7538
19.0712
-46.1606
25.0005
-35.4407
4.51125
-10.208
5.80623
-3.93183
-24.7666
-133.15
15.8427
20.6693
27.5622
-50.9686
-54.2915
-52.653
-9.85597
-0.15166
-57.5165
-36.2703
-58.9656
-4.03507
-53.79
-16.1727
-51.8529
-5.73086
23.0206
-1.35325
3.10795
-1.67476
-21.3844
-65.9903
25.8934
34.0109
-28.0883
6.339
6.49594
-0.11611
-106.66
18.1404
20.2989
-51.6025
-131.853
-80.8311
-44.327
-8.02952
-66.4451
-3.19326
17.031
-7.11836
18.0257
-47.8531
-61.9017
15.6362
-5.41947
-56.9212
5.97276
19.45
-60.8655
-3.00643
-65.6215
-55.0285
-54.0604
28.5001
-137.228
1.3744
-48.1322
10.5516
-64.7826
-65.2436
-34.5939
-24.6842
-19.9522
6.75416
-0.489915
-59.0504
1.82743
0.000961666
-147.865
-12.8156
-56.3804
-14.7425
-7.05581
13.4362
-128.686
18.0681
-219.932
-0.103781
-1.70453
-16.7587
-60.3838
-59.5939
-26.7489
-3.32897
10.3939
2.28331
2.62374
-22.8361
-2.03362
-24.4337
14.3944
3.73694
12.8676
-23.447
-85.52
-2.30788
45.3343
-100.923
-65.1127
-109.258
-27.8106
13.8661
0.674779
2.20819
-6.66755
-57.5742
-50.1408
-24.2377
-64.2998
0.188653
-33.9314
6.11219
-68.136
2.17793
2.23602
-2.07155
-27.109
-7.03694
10.5951
-43.2493
-78.5726
14.2357
-11.3905
-51.2394
2.05544
-7.47268
-23.4889
-1.26553
11.9614
-81.4937
12.6714
-42.7745
-11.9025
-19.314
-26.6315
-70.0377
-24.617
-193.152
12.3885
12.4916
-1.88662
43.464
-55.8055
19.7448
17.1849
-65.7241
9.34849
10.1863
14.2429
-14.0193
-48.93
-18.1074
-19.864
13.5731
8.97362
-28.7967
-7.82406
-19.9586
20.6419
3.15637
-13.8647
5.80254
14.1936
-17.0471
-19.5213
-1.71753
14.4549
11.497
-9.70109
18.4448
17.5538
1.93372
-49.585
10.8275
12.7153
4.3386
-8.24665
-54.8175
-24.3838
-17.5773
-43.8612
19.701
-0.382546
-7.98961
-18.5375
0.0471868
-75.4484
3.33385
-50.1336
-16.1215
11.1947
14.767
-173.504
10.7745
-7.19256
0.880206
4.14653
4.53158
5.08467
-0.127435
15.257
17.0668
13.532
-50.7593
15.9621
11.2505
14.4363
15.8908
-103.66
-12.2353
-2.25648
-23.5896
12.0155
28.8617
-78.7337
32.8385
-44.8498
-17.1749
4.94222
10.582
-29.7342
1.53497
-49.453
-61.155
1.25861
-75.1644
-27.6559
2.71786
0.0740401
36.2732
7.96887
-248.836
-79.025
1.64801
11.6376
-107.444
-25.9446
-155.604
-15.8923
-22.521
-16.2097
14.4671
4.35294
10.9986
-7.67802
-6.73998
-22.9123
-1.13968
-3.38487
-21.2894
20.5602
-33.874
-31.5923
-15.7916
-28.9549
-4.31126
12.4276
-5.60555
-55.8652
16.6902
-2.76206
12.6398
-23.4189
12.4635
0.209211
22.6852
13.4584
-55.6473
1.34048
-19.8242
-169.483
-1.85895
-1.72033
-40.6481
-78.8151
36.7933
-1.04212
-45.6884
17.7271
-56.5325
-0.706823
-118.301
-49.0687
-126.565
-41.2546
-14.3355
-3.62172
-75.6297
-67.7769
4.89042
-161.526
-16.6567
-83.3213
2.71568
15.1483
-62.1313
-69.7314
-16.2131
-6.36176
-25.3027
12.2019
19.099
-192.939
12.5617
-13.8038
13.9005
26.9765
-52.3416
14.0341
-4.13011
10.5894
15.3083
6.22126
-10.1782
-87.6497
10.2956
19.1669
-97.8263
2
-31.2477
-28.0559
12.7309
-87.9917
-32.4329
-163.684
12.4683
-41.4136
-1.29821
-7.69484
15.5526
-0.846844
-53.9561
3.87186
-1.33344
-102.757
23.2512
31.3568
12.1032
37.6611
18.4412
30.7765
1.89003
-5.23708
22.4747
-50.7835
5.08907
0.504605
-23.4433
20.5965
-11.3221
-22.0416
30.7162
5.08818
-42.5004
12.3068
10.9454
17.6262
-93.0315
15.842
31.4942
-54.6909
-16.618
-25.8122
-2.62681
-54.0625
9.64209
1.16171
19.1868
13.8052
-65.6972
9.37933
-12.397
-95.2747
-72.828
-74.6355
6.04628
-28.8244
14.1448
-3.33567
-62.4186
-0.413138
-43.9721
0.289005
-129.437
-124.817
8.54843
7.60601
-48.6956
0.513712
16.5608
-1.60856
-68.2778
13.4977
0.624194
11.8751
-58.5328
16.8098
9.21313
-24.8119
-6.31462
6.75104
-3.58224
9.79776
-54.4341
36.1863
-15.4675
-72.6456
7.13222
0.558405
-63.3052
-22.5715
-48.9696
-18.3619
-15.1054
-26.7306
1.386
-1.60082
39.1979
5.58976
-60.0944
-0.94202
-20.847
-16.2963
-20.2556
2.47729
16.9938
-52.7084
-3.21074
-51.209
-15.2581
-3.3577
0.980263
14.6074
-0.194964
-0.117043
-16.28
12.5006
-9.65633
-0.892582
-67.3596
1.78432
-7.98987
18.3115
-69.5342
-10.9712
-121.476
5.59729
-64.6229
0.775369
13.5019
10.2655
17.3201
-49.4943
-109.575
13.0323
-42.7976
16.3312
12.3048
4.58004
11.5416
-6.62923
9.57551
-0.919569
-25.1862
-48.0996
16.3423
-84.5503
15.2157
-2.31618
39.1807
2.90484
8.51255
12.129
6.04026
-1.83172
12.1304
-8.3363
-5.58891
-29.7247
-1.53372
3.83037
-4.84716
-21.4076
-38.8375
-19.5484
-50.3525
-65.5776
-28.7366
14.7862
-2.40146
14.5096
6.04461
31.3637
28.4288
10.9067
-6.1458
10.6275
-63.6855
19.4187
-1.88764
6.04284
-6.73485
14.1868
6.24716
-1.16438
-33.0805
-28.4119
-3.33788
-17.073
6.46412
13.4453
-40.3674
-4.92323
-52.9487
5.54538
11.7267
-0.571508
11.1542
8.83968
-6.28635
2.20741
10.3485
-0.87813
-50.2331
16.7251
0.633875
22.0607
-10.8725
16.683
6.81091