/*--------------------------------*- C++ -*----------------------------------*\
| =========                 |                                                 |
| \\      /  F ield         | OpenFOAM: The Open Source CFD Toolbox           |
|  \\    /   O peration     | Version:  2306                                  |
|   \\  /    A nd           | Website:  www.openfoam.com                      |
|    \\/     M anipulation  |                                                 |
\*---------------------------------------------------------------------------*/
FoamFile
{
    version     2.0;
    format      ascii;
    arch        "LSB;label=32;scalar=64";
    class       surfaceScalarField;
    location    "2.5";
    object      phi;
}
// * * * * * * * * * * * * * * * * * * * * * * * * * * * * * * * * * * * * * //

dimensions      [0 3 -1 0 0 0 0];

oriented        oriented;

internalField   nonuniform List<scalar> 
20045
(
1.06668
-1.19149
0.12481
-2.19296
0.872261
1.3207
0.591391
4.1437
-4.73509
-0.308868
0.564521
-0.255653
-1.94054
1.66403
0.276511
-1.24418
4.38472
-3.14055
-1.87343
0.318023
1.5554
0.0953066
0.988493
-1.0838
1.05575
0.844627
-1.90038
-1.49438
-0.27139
1.76577
-0.123836
-0.771692
0.895528
4.17511
-1.99951
-2.1756
0.790911
-0.790406
-0.000504995
-2.3715
2.0725
0.299002
-0.289636
1.88448
-1.59485
-2.05349
0.559111
-0.344017
0.334384
0.00963296
-0.484633
0.142338
0.342295
-3.25756
4.75645
-1.49889
-1.53149
0.0210657
1.51042
-1.41258
1.02759
0.384996
0.274846
0.516065
-0.384911
-1.80805
3.23186
0.323946
-3.55581
1.61616
0.335965
-1.95213
-0.741422
3.97328
0.505904
-0.379167
-0.126737
-2.58246
5.34584
-2.76338
2.88366
0.865682
-3.74934
-5.97
3.62218
2.34782
0.178941
1.41376
-1.5927
2.43773
-2.0031
-0.434628
-0.931899
2.98752
-2.05562
5.96457
-3.26894
-2.69563
-1.25765
1.35295
3.94489
-1.93784
-2.00705
2.00597
0.851223
-2.85719
-0.13629
0.843329
-0.707039
-4.34535
2.29834
2.04701
1.22459
1.13409
-2.35868
-0.0447483
1.14315
-1.0984
0.392831
-0.538897
0.146065
4.94096
-4.93533
-0.00563613
2.85841
-1.00415
-1.85426
1.28128
1.57712
1.86914
2.30598
-0.642866
-0.220737
0.863603
2.67129
0.590303
-3.26159
3.0381
-1.03213
0.53414
3.71513
-4.24927
2.65098
-4.38514
1.73416
3.91641
-2.65713
-1.25927
-2.11515
-1.46121
3.57636
-0.213192
-0.641981
0.855173
-0.216367
-0.664848
0.881214
-1.42858
-0.511961
1.56801
2.67476
-4.24277
3.186
0.633546
-3.81954
2.67577
-3.60767
3.4086
-2.83696
-0.571637
-0.356718
-0.605779
0.962497
0.75421
2.65439
1.39801
-3.97523
2.57722
-0.85237
-0.560214
-1.54066
2.53225
-0.991594
2.1437
0.990379
-3.13408
0.208808
-0.600886
0.392077
-1.36402
0.227814
1.13621
1.81875
-0.763005
3.27101
-3.32628
0.0552713
0.485547
-0.276738
0.620054
-0.836421
-0.538517
-2.14108
2.6796
1.19495
-0.735454
-0.459494
2.32113
0.210076
-2.53121
3.76126
-2.19325
-0.719737
3.04087
1.19679
-1.48642
1.69163
-0.488701
-1.20293
-0.180609
-2.5915
2.77211
1.95868
2.09412
-4.0528
1.74519
-1.4716
-0.273589
3.1723
-1.77428
-5.0355
0.733274
4.30222
0.0112869
1.0554
-0.897583
1.13657
-0.238982
0.705223
-2.24233
1.53711
-3.19018
0.0799865
3.1102
1.97071
0.452035
-2.42275
-1.60084
1.38815
0.212688
-2.48992
-0.16661
2.65653
1.65005
-0.397081
-1.25297
0.865372
-1.27177
0.406399
-0.434832
-1.5841
2.01893
1.26846
-1.38252
0.114057
3.03392
0.341595
-3.37551
0.186967
0.318937
-0.020033
0.654335
-0.634302
2.54205
-1.31746
-0.477571
0.474093
0.00347812
2.72756
1.21733
-0.831355
-1.54015
0.842847
-0.862879
-0.957886
4.14388
0.0282516
-0.925835
-0.52869
0.0511187
0.802187
2.48525
-3.28744
2.07407
-4.02608
1.95201
1.04876
-1.05548
0.895486
0.159997
-0.62535
0.781482
-0.156132
2.00997
-1.87881
-0.131166
-1.07988
0.866692
3.04149
-5.90154
2.86004
-0.439142
0.718268
-0.279127
0.113655
-0.750523
0.636868
2.17282
-0.556663
4.20568
1.7589
-2.43088
1.89236
2.0284
-3.25926
1.23087
0.0786764
-0.563309
-0.929304
0.572586
-1.69659
1.34929
0.347298
-2.27128
0.245327
-1.29095
1.04562
2.54896
1.36744
2.14425
-2.94918
0.804936
3.12789
0.381415
-3.50931
-5.32971
3.85943
1.47028
-2.67497
-0.0298437
2.70482
4.03727
-1.48831
0.575739
-0.796475
0.851047
0.275724
-1.12677
0.213686
-0.106629
-0.107058
2.30923
1.57076
-3.87999
2.39945
-2.2189
-0.18055
-0.707525
0.192958
0.514567
-0.754266
-0.301217
3.59928
-1.57089
-1.43968
1.47036
-0.0306769
2.22286
-4.49092
2.26805
0.552532
-2.66768
1.84402
0.931351
-2.77537
3.04731
-3.22792
4.62251
-0.534713
-4.08779
1.3043
-3.1148
1.8105
3.63237
-2.04676
-1.58562
-0.383836
0.675938
-0.292102
-0.336355
4.44337
-4.10701
4.11208
-1.22842
-3.29154
0.0859859
3.20555
-2.09554
1.51018
0.585366
3.65829
-1.69961
0.542477
1.20271
-2.45944
2.99822
-0.538788
-3.46693
4.05832
0.0286852
-0.944912
0.916227
-0.681785
-0.48537
1.16715
-0.0943901
-0.795023
0.889414
2.48975
0.495187
-2.98493
5.528
-2.75799
-2.77001
-0.96645
0.87206
1.37467
-2.13918
0.764516
0.486145
-0.0933134
-3.61502
-1.69612
2.56128
-0.865166
-2.52075
1.81749
0.703265
-0.0315743
-0.195413
0.226988
2.05486
1.57751
0.156947
0.0567392
-0.638953
1.49
-2.73659
0.277154
-2.97895
3.70635
-0.727402
-2.72643
2.91693
-0.190502
-1.98208
-1.70458
3.68667
0.434168
0.912248
-1.34642
1.6398
-1.6744
0.0346054
3.94545
-0.104823
-3.84062
-0.0466
-2.97925
3.02585
-1.40189
3.2459
0.775217
-2.29359
1.51837
-2.67816
5.71965
-3.03948
2.18337
0.856109
-0.220341
0.276663
-0.0563222
2.09983
-4.81373
2.7139
-4.2435
1.66104
-2.04505
-2.13556
5.34773
-3.40885
-1.93888
-1.39515
1.3504
0.738848
-0.790084
0.0512361
-2.13885
-0.936297
3.07515
-3.91491
5.53381
-1.61889
4.05093
-3.21861
-0.832314
0.149364
-0.86139
0.712026
-1.6401
-1.87077
3.51087
0.657336
-0.781172
-1.63569
-1.03928
-2.98752
-0.907621
3.89514
0.518306
0.124813
-0.643118
0.58963
-2.28575
-1.21739
1.39633
3.37004
-0.242151
-0.706624
0.570334
-0.851087
1.05109
-0.200005
-1.04818
3.53793
-3.80716
2.16707
-1.09909
0.0286806
1.07041
-2.88681
0.609461
2.27735
1.07251
2.97841
5.0935
-2.99367
3.60513
-5.80238
2.19725
4.13592
-5.62217
1.48625
0.196277
-1.72776
-2.02321
2.8254
2.51034
-3.75451
2.90328
-5.04264
2.13936
-6.31013
3.25504
3.05509
-0.168954
-1.43189
0.766297
0.627121
-1.39342
2.93883
-1.14997
-1.78886
0.130076
-3.09113
2.75478
-1.07201
-0.367672
2.54048
3.89387
-3.0556
-0.838272
-0.0434981
-0.582687
0.626185
2.53332
0.553437
-3.08675
-1.19434
-0.799584
1.99393
-1.67155
4.11568
-2.44413
-2.0647
2.76992
2.36949
-1.59427
-0.537355
1.83137
-1.29401
3.79764
-1.57478
0.513078
-0.0458368
-0.467241
-0.74125
-0.377853
1.1191
-0.597533
0.623759
-0.0262264
5.31082
-3.36757
-1.94325
1.14159
-5.0565
-0.66464
0.0671075
-3.27772
0.961382
2.31634
4.97883
-1.99131
0.922636
-3.90158
6.45737
-2.8213
-3.63606
-0.0785984
0.596904
3.75386
-2.30184
-1.45202
-2.4362
0.455587
1.98061
-3.80364
3.785
0.0186402
2.80876
-4.77382
1.96506
0.0441017
0.254398
-0.2985
-1.85317
2.3978
-0.544631
0.186017
0.615303
-0.801321
-0.659442
0.2203
-0.758406
0.133056
-2.20781
-1.81827
1.5512
-4.17234
2.62114
-1.47678
1.2443
0.232481
1.65312
0.784609
4.90038
-1.9971
-1.71013
1.02835
2.29522
2.68361
-2.05224
0.179486
1.87276
1.882
1.87186
1.62962
0.25486
-1.38408
-0.0927025
-1.21705
-0.206163
1.42322
0.0314145
-0.251755
-4.24841
2.57686
1.22679
-1.92072
0.693929
-3.69927
3.56543
0.133843
-1.15443
0.907971
0.246458
-0.659353
-0.514915
1.17427
2.99858
-3.35171
0.353128
-3.42914
-2.88099
4.65694
-2.93378
-1.72316
-0.469108
0.42561
5.10851
-2.29975
-2.61543
4.16663
-1.97412
2.1669
-0.192776
3.93422
-1.27993
-2.65428
3.98244
-1.30877
-2.67368
0.43297
-2.40709
3.42047
-2.06839
-1.35208
-0.764922
3.2239
-2.45898
0.476551
-2.71271
2.23616
0.600738
0.29202
-0.892758
-0.176362
0.206772
-0.03041
4.9561
-4.2908
-0.665298
-3.06664
-2.26306
2.47946
1.41441
-3.36636
-0.33291
0.374941
-1.11619
1.49248
-3.18978
1.69729
0.0129993
0.725849
-2.13993
4.44915
2.10653
3.2043
5.83053
-3.63385
-2.19667
-4.22053
3.31291
2.57502
-4.39131
1.81629
-2.48728
-0.253256
2.74054
-1.36924
-0.519293
1.88854
2.00943
-0.634766
-0.38662
-0.712471
1.93569
-0.402708
-1.60039
-2.11607
3.30207
-1.18601
-1.02867
0.177578
-1.11966
0.582304
0.428116
-4.23176
1.02359
-3.08828
0.899244
-0.790481
0.974015
-0.183534
0.0862948
-0.395162
-1.81345
1.34596
0.467492
1.46197
0.547998
0.544143
-0.121415
-0.422728
1.87132
0.528127
-1.61978
3.11227
2.29446
-0.323745
-0.890543
-1.99627
5.34103
-4.45293
-0.888103
2.99492
-3.59851
1.87495
1.72356
3.14454
-3.50694
0.362402
-1.84778
1.41294
-0.579925
-0.1276
-0.569389
-1.92053
1.3523
-2.24614
0.893839
1.67172
1.74875
2.42023
-4.18449
1.76426
1.15505
-2.24117
1.08612
-3.90594
0.715753
0.132568
1.51748
-1.94539
2.7069
-0.761505
-0.897296
1.24313
-0.34583
-1.99963
0.126204
-0.508536
-0.998073
1.50661
0.458189
0.00865006
-0.466839
-1.16868
-0.926867
1.41668
1.81952
-3.23621
3.49286
-1.61085
1.09262
-1.80582
-0.0419603
2.00788
-0.852838
-2.60511
-0.434372
0.626134
-0.552096
-0.0740381
3.64396
-0.972674
-2.01433
3.05359
-1.03926
-0.531325
0.617669
-0.086344
2.7349
0.203925
-1.78411
-1.40566
-2.09171
3.68969
-1.59798
2.19547
-4.14576
1.95029
2.18734
2.4696
-0.325327
0.0727724
0.252554
0.448699
-2.93598
2.35691
-3.51731
1.16041
0.401462
0.793487
-0.431661
2.57591
-1.76207
2.78565
-1.42946
5.56538
0.781254
-4.03881
-2.83984
1.59408
1.24576
2.62851
-0.518016
-2.11049
3.76969
-0.771109
-2.71496
-1.99434
-1.68883
2.46295
-0.197484
0.315451
-0.117967
1.3043
-1.28323
-2.99183
2.56017
3.87073
1.07023
-3.17732
1.16299
3.82066
-1.3412
-0.915145
0.792636
0.122509
0.123731
-2.41083
2.2871
-3.59492
0.636543
2.95837
3.36931
-3.36931
-1.8548
3.45409
-1.59929
0.774334
-0.230191
2.29114
-1.06425
-1.22688
-3.81041
3.96776
-0.157348
1.45346
-0.11335
-1.34011
1.12613
-0.412709
-0.713426
0.502058
-1.16141
0.378255
1.8332
-4.44863
-3.26389
3.81915
-0.555254
-1.17121
2.5879
-0.800763
-0.0700837
0.870847
0.691078
-1.45849
0.767415
-1.5279
1.72418
5.57262
-4.1263
-1.44631
-0.361195
-2.01589
2.37709
-1.00321
1.08328
-0.0800699
0.606956
-1.12694
0.519987
-3.28024
1.47013
1.81011
0.348298
0.216223
-0.873295
-0.0418501
-0.187282
0.739751
-0.55247
2.55593
2.40017
-0.675344
-0.125419
-0.240918
-0.988075
1.22899
-2.07551
3.26586
-1.19035
0.136129
0.828213
-0.964342
1.56329
-1.24526
2.17206
-0.944653
-1.22741
0.148572
-1.73267
0.794916
3.15053
1.83053
1.09603
-2.92656
1.91774
-1.58625
-0.331498
-4.05086
0.759324
-1.40997
0.593245
0.816727
1.61032
3.051
-4.66132
-2.58298
2.32972
0.288061
-3.64118
3.35312
-0.552086
0.70145
-0.222247
0.259441
-0.037194
0.184774
-1.40183
-0.422732
1.33796
-0.915224
-2.62206
-0.655657
2.43865
1.48157
-0.722469
-0.759102
-0.56496
0.0336348
0.594861
-2.76514
2.17028
1.05438
2.02132
-3.0757
1.71388
-2.77861
3.37855
-0.599939
-2.93264
2.16772
-0.0483863
-0.330781
-1.48156
-1.03919
-1.10878
0.270642
0.838135
-3.52431
1.4488
2.59957
-2.96077
1.66558
2.15509
-1.40842
1.30335
0.105075
0.493324
-4.20377
3.71045
0.700018
-1.14956
0.449543
1.38852
-3.17264
-2.47588
-0.250549
-1.34743
-0.0165905
1.20781
-0.377339
-0.83047
2.14348
0.328248
-0.21411
-0.114138
4.42934
-2.81902
-1.82799
3.31485
-1.48685
1.10036
0.774494
-1.87485
-1.36763
0.815547
-0.951644
-0.157133
1.79562
0.495515
-1.09927
-2.15999
0.476944
0.149191
2.41438
1.73307
0.561389
-3.59201
4.12614
0.518135
-1.70277
1.18463
-0.371687
-3.29308
3.66477
-0.192933
0.240066
-0.0471334
-1.2456
1.67977
-1.95384
2.43039
3.2096
-1.9053
-1.54278
-0.270668
0.0025435
-1.70798
1.70543
1.59749
-3.57957
-0.466871
-1.76816
2.23503
-0.522023
0.876588
-0.354565
-2.54859
0.0919713
2.45662
3.41753
-2.82723
-0.0371908
0.40679
-0.369599
-0.919986
-0.0832247
0.723314
1.50369
-2.22701
0.635645
-0.765116
0.129472
2.34909
1.28941
-3.6385
-1.14342
4.17734
0.452524
0.00566438
-1.54929
-2.48662
4.03591
1.41311
2.18617
3.71885
-2.66447
-1.49099
0.982449
0.160957
-0.337319
-1.67994
4.25496
0.469599
-3.02637
2.55677
3.11974
-0.494471
-2.62527
-1.87293
2.65019
-0.777265
1.53283
-1.88233
-1.51314
3.39546
-0.406298
0.677782
-0.271485
-1.09477
-1.96666
3.06143
-0.716488
1.40757
0.207033
-0.238607
2.05759
-3.15236
-2.76614
-0.908583
3.67472
-0.165152
-2.01136
2.17651
-0.471833
5.0438
-5.23601
0.192213
0.856977
-0.488302
-0.368674
-0.0953776
-1.31304
1.01081
1.00812
-1.39396
0.0247136
-3.1601
4.00319
-0.843091
-0.348712
1.57551
0.544107
2.50321
-3.8541
-1.08123
0.619829
-0.0105277
-0.609301
2.1179
-0.384835
-0.885665
0.96803
-0.0823644
0.89778
-0.711762
-4.69661
2.65156
3.58848
0.79624
-0.415358
1.02231
-0.852231
1.95259
4.28607
-2.45287
-0.902807
0.0171416
-0.526554
-2.46528
0.688355
1.02766
-0.998979
-3.69728
0.102362
-1.06169
0.896338
-0.19632
-2.84426
1.65311
1.19115
2.71913
0.551885
0.818937
-0.280615
-0.538322
1.26493
-1.11642
-0.148512
-3.06618
1.12834
-4.1122
2.02049
1.86091
-1.36439
-0.496513
0.0697786
0.255438
-0.325217
4.07513
-0.00866774
-4.06646
0.863233
0.0719529
-0.935186
-0.603123
-1.09346
0.97799
-0.112618
-0.133828
0.068395
0.0654331
1.69003
-0.126836
-1.5632
-0.123646
-0.0101819
2.92769
-2.58609
-0.127962
-0.600342
0.728303
-4.06812
0.908023
0.054416
-0.115575
0.958422
0.465567
1.016
-0.320115
-1.39002
0.956709
0.754518
-1.71123
0.100571
-1.64123
1.61994
-1.10181
0.940486
-0.826831
0.368505
-1.2658
1.81881
1.4156
-3.23441
2.2198
-0.259916
-1.95988
-2.30011
-0.814693
-0.909136
0.263372
0.645764
1.44412
-1.47382
0.0296999
4.31052
-0.100233
-4.21029
-0.605039
0.217023
0.388016
-2.03081
2.73654
-0.705727
2.36809
2.36001
-4.72811
0.418936
-1.02471
-1.20421
1.81389
-0.60968
0.892902
0.416868
-1.30977
-4.23127
2.92146
1.30981
0.0308563
0.0375387
-3.39806
0.631925
1.30196
-0.782612
-0.51935
1.83021
-2.3507
0.520496
-0.386291
-0.805204
0.606303
4.4375
3.29669
-0.609005
-2.68769
-3.29652
0.517909
1.35154
-2.24209
3.6303
-5.46126
1.83096
-0.438694
1.20499
-0.138359
-1.40128
1.16036
-0.664655
0.909982
-0.913332
-3.72636
4.6397
3.10847
2.00004
-2.92807
3.13482
-0.206747
0.379861
0.827949
-2.20397
-0.865576
-0.503634
0.561228
-0.0575932
-0.944171
2.16711
-1.22294
-0.633332
1.91981
-1.28648
-0.291774
2.12198
-2.79319
-0.256077
3.04926
-3.19765
-0.970212
4.16786
1.78105
-1.40798
-0.373061
-1.09568
0.0798751
1.0158
-0.0818995
0.318944
-0.237044
-3.85851
0.213694
3.64482
0.101185
0.799508
-0.900694
3.0791
-3.49049
0.411395
-1.94843
-0.98063
3.52802
-2.54739
0.0414272
-0.545062
-1.31892
-4.54995
5.86887
2.91969
-5.59785
-3.78079
3.30746
0.473327
0.765201
-0.129556
3.22715
-2.68305
-0.221174
-0.794031
1.01521
-0.0556016
0.766632
-0.711031
-0.56714
3.27274
-2.7056
2.62941
-1.13485
-1.49456
4.00569
-3.84151
-0.164174
2.88657
-0.950125
-1.93645
0.172626
-0.952738
0.780111
-1.21522
-0.0757233
-4.01852
3.5196
0.498924
0.204633
-4.22315
-1.05025
1.35497
-0.304722
-2.19106
-2.09974
0.823445
-0.686929
-0.136516
-3.1812
-0.886925
-0.778926
0.529706
0.24922
-1.86601
0.671666
-3.80345
3.62562
0.177822
-0.71709
0.0535305
-0.788985
0.941874
-0.0786402
-2.28916
0.435984
0.61513
-0.705781
0.0906512
1.23852
0.335408
-1.57393
1.61943
-0.165979
-0.888874
2.80613
-0.0712292
1.39366
-0.368306
-0.512264
0.88057
-0.299952
1.93975
-2.5497
1.67254
0.877154
0.189223
-0.158367
5.10732
-1.99885
3.33011
-2.83679
-0.823554
-0.570379
1.39393
2.35383
-4.56581
2.21199
2.28305
-2.4482
3.55226
-1.65725
-1.89501
-0.0258187
-2.17107
-0.378625
-2.00465
3.48909
-1.48444
-0.1165
-1.31655
4.92168
-4.14906
0.967865
0.859524
-0.258786
-0.328444
0.0911393
0.643042
-0.0192828
-1.89465
-1.78163
5.40987
-1.64861
-1.14469
0.849928
0.294759
0.231364
0.89477
-2.50065
-1.93817
4.43882
1.01673
0.992709
-0.0125305
-0.59534
0.607871
3.28753
-0.042
0.162491
-0.120491
3.05889
-1.24008
-1.34679
-3.89751
0.633616
-0.928352
0.0566332
0.871719
2.6797
3.77767
-1.66458
-0.347091
2.01167
3.84619
0.159496
2.45161
-3.43717
0.985554
-3.22596
-0.0466866
3.27265
-3.2766
4.19041
-0.913804
0.578357
-0.0164181
-0.561939
-2.44355
5.36325
0.119226
-1.56575
1.44652
0.1798
-3.10787
1.62588
-0.890495
-0.735389
-3.73747
4.90764
-1.17017
-0.862184
2.22677
-1.36459
4.64619
-2.05718
-2.58901
0.0234422
-2.33059
2.30715
0.269629
-0.0101879
-1.87971
4.24781
1.48969
-3.34449
4.04537
-1.8499
-0.75926
0.631298
-3.38329
0.157331
4.37442
-1.95418
0.0429606
-5.07846
1.16741
-0.0242591
1.83926
2.18222
-4.02148
2.17004
-0.569853
-1.60019
1.70783
-3.36745
1.65962
-0.752546
0.039497
0.713049
-0.777861
-1.97634
2.7542
1.41526
-1.04675
0.158292
-0.385556
0.227264
0.393744
0.991812
-1.38556
0.318148
0.505297
-3.89454
4.61676
-0.722222
-0.31035
0.117417
1.83337
0.827973
-2.66135
1.44232
2.93975
-4.38207
0.713156
1.91535
-0.124641
4.74715
-0.0613978
3.1655
-3.1041
0.174076
-0.0379474
0.539739
-0.292263
-0.247476
5.31265
-3.11359
-2.19906
1.70372
1.84853
0.526188
-0.103862
-0.422326
-1.06842
3.13188
-2.06345
0.0203924
0.68945
-0.709842
3.2268
-5.05872
1.83192
-1.56107
-1.60646
3.16753
3.2535
-0.720182
1.08459
1.08546
-1.46298
0.704838
0.758137
1.15153
-3.16743
0.382242
-1.1157
0.733453
0.761083
-0.230385
-0.530698
0.0272136
0.242415
-0.252965
3.08792
-2.83496
-0.762629
4.47776
2.99785
-2.47364
-0.524212
2.57512
-2.12309
-1.91739
0.649476
1.26792
0.719227
-1.78348
1.30309
-0.730952
-0.57214
0.258509
0.560428
0.609613
2.89877
-3.50839
1.02381
0.666226
0.510332
-3.70798
-1.92208
0.39577
1.52631
-1.40956
-0.875867
2.28543
1.997
-1.04029
-3.32588
2.15467
0.990315
-0.746977
-0.243338
-1.83321
4.08663
-2.25342
-1.71627
1.86484
-2.00851
1.92916
0.0793466
-2.24633
4.03665
-1.79033
-0.0804088
0.887529
-0.80712
-0.544894
0.614672
-1.81585
-2.22449
3.73219
-1.5077
-2.19588
2.80534
1.95944
-2.09573
0.13629
0.102225
1.31557
-1.4178
-4.76834
3.02056
1.74778
0.028644
-0.2293
0.200656
0.450722
2.67737
-3.24451
4.37454
-2.02072
-1.04537
-1.79448
-2.83579
2.77439
1.85802
-0.0405348
1.40634
0.36522
-1.77156
-1.37268
1.25257
0.120109
-1.96841
1.79464
0.173762
0.910313
-0.952883
0.0425699
1.83118
0.684467
-2.51565
-2.80137
-1.08106
3.88243
-1.11965
1.22187
2.38686
2.92579
-3.7095
2.13326
1.57624
-1.54927
0.529654
1.01961
0.0289356
0.746452
-0.955878
0.209426
-1.86713
-0.507513
1.41783
0.565827
0.820014
-0.647388
-2.03987
1.0957
3.28869
-3.31853
0.0981309
1.17033
0.066567
0.68106
-0.747627
-2.9726
-2.15925
5.13184
-1.26806
-0.194912
-1.91999
-0.37876
2.29876
0.361267
0.898387
-1.25965
0.11989
4.41247
-2.82858
-1.58389
0.743706
2.55299
0.452128
-3.2129
0.897312
2.31559
-2.41518
3.55519
-1.14001
-2.13689
-1.01254
3.14943
-1.86674
0.662531
-1.43333
-0.484058
4.29052
-1.89347
-2.39705
1.00292
0.18414
-1.18706
1.37306
0.290687
-1.66375
-0.688737
0.789923
-0.982891
-0.236217
1.21911
-0.304967
-0.121901
-0.844548
-0.0445871
2.51597
1.77454
-1.3698
3.66815
-1.57874
5.20091
1.21703
-0.214114
-3.29739
1.16051
2.91595
-2.46725
-0.460779
-2.55439
0.523581
0.177068
-1.22732
2.76564
-2.64191
3.2954
-0.150866
-0.792704
-0.479067
-0.822386
-0.330505
1.15289
-1.21872
-0.163796
3.01565
0.532466
-3.54812
-0.00634791
-0.987937
0.994285
-0.445224
1.97902
-3.71336
1.73434
3.34733
-0.26823
-4.44838
5.04047
-0.592086
0.833862
-0.606049
-3.95198
-0.816358
-1.04356
3.61025
-0.0906565
2.45286
4.18707
-1.51877
-2.66831
-2.47711
-0.116895
2.59401
0.985791
1.86023
-2.84602
-2.78871
0.240111
-0.688928
-0.374968
1.0639
-1.87848
2.34808
0.560789
1.95535
-2.51613
-0.538796
-0.273073
0.811869
-3.74668
0.496343
3.25034
1.94822
2.42632
-1.06731
2.17814
0.708432
-0.958181
-0.451792
3.72049
-4.2552
1.59303
-0.38583
-1.2072
1.01644
-0.597503
2.64772
0.128014
-2.77574
3.54842
-5.12715
-0.0662863
0.110388
-1.52282
2.51097
-0.988148
-5.95663
4.6377
-0.119751
1.18682
-1.06707
-0.444674
0.0296584
0.415016
-1.58389
0.338284
-1.04554
2.39709
0.391175
1.46973
-0.61761
0.659038
-2.29771
1.49813
0.592967
-0.338569
-0.796674
0.758765
0.0379086
0.816488
-0.922418
0.10593
-2.09516
2.30523
0.514945
-2.43494
-0.212094
-1.18305
-0.0414276
2.23854
-2.19712
1.29548
-1.50164
0.600067
-3.15747
2.5574
-0.640756
3.31343
-2.67267
1.10478
-3.22085
-2.77993
-0.0852945
-3.69549
1.65282
3.75705
-2.86764
-0.45824
-1.88449
-1.71402
-1.67907
0.680998
-0.0896687
-0.267081
0.35675
5.72905
-3.04936
3.05649
-0.699583
-0.940387
-0.609007
1.54939
-4.59944
2.20023
2.39921
-0.989956
0.218265
-2.96427
1.98364
0.644551
-0.369705
-0.449591
-1.46715
1.58638
0.0378141
-0.782198
0.744384
-0.488622
3.50427
-1.06917
0.962732
0.106443
3.26347
-4.81037
2.1482
2.66217
0.619527
1.04291
-1.66244
1.86397
-0.230605
-1.63336
-2.10171
1.23953
0.896561
-0.0635972
1.43666
3.52362
-3.89531
1.63577
-0.742865
-1.51347
2.66501
-3.47312
2.4766
0.996514
3.13308
-5.12591
1.99284
-2.68226
2.91087
-0.228612
1.53154
-1.83149
0.0466556
0.791726
0.98932
1.4307
-4.0222
1.72641
-4.90894
3.07759
1.83135
0.86842
-3.34553
2.2028
-0.0880936
-2.3481
0.469014
0.903415
4.08702
-1.41616
-2.67086
0.762392
0.93721
-2.34677
0.635522
-3.66201
3.54512
-3.08567
1.20335
1.82786
-2.2789
1.06077
1.21813
-3.57918
2.04939
1.5298
-0.793257
0.278585
-0.800608
-3.8964
2.76067
1.13573
2.92242
-5.36597
-3.89502
0.000487141
5.36915
-1.73884
0.163418
0.154064
-0.317482
-0.100577
-0.612533
0.713109
-0.0133561
1.66395
2.06381
-1.14962
-1.12928
0.573744
0.841514
0.786127
1.44336
-2.22949
1.52302
-0.895902
-0.111279
-4.04886
4.16014
-1.26177
1.34683
-2.74872
-2.77582
-1.90696
4.68278
0.929709
-1.32679
-2.68723
0.815516
1.87171
0.570485
-0.115311
-0.455174
3.8543
-4.76763
0.706168
-2.22898
3.49515
1.71347
-5.20862
-1.03917
-0.105517
-3.22028
0.920364
2.29991
-3.32972
1.76864
1.06449
-3.47967
0.417138
1.17589
0.597537
-0.0270521
-0.0961804
3.21592
-2.30878
2.96999
-0.661214
3.3037
0.0118722
-3.31557
-2.112
-0.0626348
-0.727846
0.173156
3.19616
0.489686
0.127983
1.02244
0.936206
-0.161871
1.92943
-0.407157
-1.56125
-3.56416
-0.239291
-3.05283
0.987861
-3.2897
0.670348
0.764545
-1.43489
3.41419
0.173425
-3.58761
-0.437401
0.420983
-1.34492
-2.76728
-2.9835
-0.52344
-1.73611
5.28453
-1.29256
1.81002
-0.51746
-4.19432
1.22173
-1.14554
1.93166
-1.35486
-1.4894
-1.93605
-1.0887
1.12331
-0.720919
1.95944
4.17539
-0.565139
2.1288
-0.513516
-1.61528
0.32405
1.50732
1.01709
3.91228
-3.62422
-0.0928007
-0.879475
1.28587
-1.84959
2.02907
-1.79262
-2.50471
0.883384
0.650266
-1.53365
-3.43149
0.0621812
-0.529038
2.98374
-2.4547
-0.0255498
-4.42283
-2.56169
3.11513
5.45921
-2.58669
-2.87252
-0.411182
1.00443
2.71292
-1.30986
-1.40306
1.02417
-1.14607
0.215285
0.324454
-0.56059
-0.0484376
0.609027
-0.345485
1.75183
-2.39038
5.3128
-0.0815807
-0.605348
-1.05918
-0.350415
1.40959
-0.288321
4.14262
3.99307
-1.21556
-2.77751
-1.48938
2.21269
1.55074
1.58114
-1.73547
-0.186606
2.07807
-0.799119
-1.27895
-0.241273
0.0197416
0.221531
0.609958
-2.98129
2.37133
-3.5628
0.5793
0.863268
-2.30355
3.29141
-0.050096
1.07427
0.51491
-1.80747
-3.517
1.82817
-3.94697
1.18898
-1.76114
0.23324
-1.42856
-2.13289
3.56145
-3.09629
-0.212229
-0.0533458
0.265575
3.7434
-3.01013
3.02165
-2.03585
0.481021
2.05951
-2.54053
0.64656
-1.33549
-1.83124
-1.38395
3.21518
0.800585
-1.91659
1.116
-3.048
5.11528
-2.06728
2.67582
-1.92503
-0.750797
2.78767
0.0984455
-2.88612
-2.00892
-2.80145
-1.21169
-0.135748
1.66546
2.37181
-0.058499
0.388349
-0.32985
-2.57148
-0.648794
2.58177
2.17468
-2.05271
2.49966
-0.446945
-0.232785
0.395276
-0.684752
1.00628
-0.321525
-0.0793183
-0.989856
-0.397259
-3.49914
-3.67335
0.869589
0.120726
0.813965
-2.03135
0.300698
2.74331
-3.04401
-1.89502
-0.39414
1.75551
1.73735
0.27163
-1.0259
-0.484646
0.0212175
0.463429
0.120833
-1.30906
1.18822
-0.0382362
0.946207
1.5696
3.19737
-1.52565
3.01231
-1.66547
-0.44132
-0.972987
1.41431
2.82139
0.402506
0.0221729
-2.58243
1.80456
2.52265
-2.81097
-1.55126
-2.71375
4.26501
-2.26998
-2.32946
-4.22362
4.29436
-0.0707437
0.502532
-1.22894
0.898436
2.09488
1.10249
-0.617243
1.95726
-1.34001
-1.08091
-2.24538
-1.18495
-1.92774
3.11269
1.93322
-0.916492
1.12675
-0.744509
2.13085
-3.47577
1.6471
-1.31114
-1.88109
3.40919
-1.52811
2.05932
1.60615
1.25015
-2.85629
4.18947
-2.3272
-1.86227
-2.76145
-2.30583
3.96479
-1.65896
0.670424
1.45837
-1.12484
1.07474
1.62088
3.02532
-0.832025
0.731448
0.0754856
0.252762
3.594
-2.02324
1.95038
3.77867
-1.57432
0.835724
0.738591
0.734672
-1.55823
2.77078
-0.123058
0.660134
-0.496716
-2.44969
-0.490321
2.94001
0.718861
-0.10997
-0.608891
0.586204
0.270772
0.501339
-3.77794
-1.09494
1.27971
2.52898
-2.28793
-0.241052
0.666333
1.41173
-0.575795
0.29518
1.06414
0.783515
-1.84766
-1.36926
4.04503
-0.265767
-2.01121
4.07367
-2.06246
-0.925828
1.31957
0.345247
-0.884043
4.08544
-2.05792
-1.30844
0.453963
1.41
1.16655
-1.37864
-0.703052
0.622643
-1.07269
-0.551589
-0.0133713
1.60314
-0.627041
3.05519
-2.42815
-0.896026
0.708745
-1.15603
0.361997
-1.26458
0.0528978
-4.15394
2.60465
0.993828
0.820059
-0.957414
2.34844
-1.39102
0.768463
0.368103
2.95233
1.67236
-4.62468
-0.405991
-0.0749419
0.480933
0.873127
-2.70112
3.78891
1.6703
2.91593
-2.61524
-3.98577
-0.128096
-0.0259881
0.236969
1.70178
1.39614
1.34865
-2.7448
1.54583
-0.25035
-0.114603
-1.20717
-0.36715
-1.96791
-1.33201
2.05123
1.88954
1.42531
2.02274
-2.07345
0.0507047
0.737867
0.0208978
-0.244981
0.955532
-0.139045
2.82601
0.73235
-3.55836
0.662363
-0.624548
-0.860583
0.521812
0.338772
-1.30561
-0.047866
1.35348
1.05881
2.27318
-3.33199
0.780351
1.21665
2.53369
-0.0809287
-0.998956
1.09137
-0.155165
-0.171412
-0.198604
0.370016
-3.96122
1.82567
3.13748
-2.43554
-0.701943
0.0637583
-0.565631
0.501872
3.08643
-3.33939
2.2279
-0.294685
1.51259
1.50906
-0.504498
-0.0470911
-0.46363
0.992289
-0.52866
-1.93499
-0.483238
3.99263
-2.05205
-1.94058
1.23599
0.126705
-1.3627
1.63351
-2.62703
0.993521
-0.252588
1.8608
0.147082
-1.31213
5.30716
-3.99503
0.473006
-0.936635
-1.95399
1.14603
-0.183299
3.47563
-0.00870161
-3.46693
-1.92564
-0.800197
0.866764
-0.238289
0.134427
0.891412
1.61955
-2.20374
1.57041
0.0644075
-0.257992
-0.394804
0.423056
-1.48669
1.96771
0.0297995
0.997865
-0.169196
-0.710064
2.36318
-0.16878
2.19152
-0.908201
-0.46449
-0.771517
1.83566
-0.458676
3.26684
-2.80816
-2.9209
-0.477161
-2.72164
5.05399
-2.33235
0.184725
0.961307
1.20561
-0.217117
-0.0601926
-0.928073
0.988266
-3.06234
1.00442
0.473526
-0.510717
2.2658
-4.76645
1.90042
-4.38704
-3.0326
3.35655
-1.79316
1.89575
-1.11223
0.0396775
-2.16446
2.77442
-0.00563226
-0.577054
0.427492
-1.83548
-0.428438
-2.17864
2.60708
-1.7131
2.5864
5.69721
-3.79918
-1.89803
-0.795687
0.316153
0.876112
0.0766249
-0.952736
-2.93757
0.628795
0.710784
0.0502998
-0.0319376
-0.481166
0.513103
2.46826
-5.1899
0.366624
1.61445
0.182377
-1.79683
-3.68074
3.22206
0.565778
0.137673
-0.703451
1.53258
-3.75707
-0.526968
-0.0108938
0.537862
0.737405
-0.171627
-0.0393652
2.63945
-1.9263
2.11153
1.84719
-1.06684
-3.97395
1.19813
-2.36735
1.99356
0.37379
2.58286
-4.13412
-1.87497
-1.05252
2.92749
-0.0166532
1.52683
-1.11102
0.997667
3.99879
-0.623477
-3.37532
-0.0112424
-3.55291
2.53876
0.24891
1.40168
1.31124
-0.580962
-0.0143776
0.567048
-0.887054
-1.35908
-0.00477728
-0.0466191
0.0513963
0.0339059
-3.39064
3.35674
-0.440169
1.34943
-0.909266
2.01624
-4.25402
2.23778
-0.275743
-1.94315
-0.120478
-0.218887
2.38692
-1.28658
-0.66914
1.95572
-1.32193
-1.30013
1.63508
-0.984812
0.636029
0.383971
-1.02
1.42839
-2.3858
-3.01618
-0.406507
-0.214312
0.620818
0.799175
0.643097
-1.44227
1.28548
-2.88586
1.60038
0.197627
-2.00568
0.645123
-4.38259
-2.56294
-2.49997
5.06291
-3.38468
0.139497
3.24518
-4.21517
-2.84113
0.158879
-1.13773
1.124
0.0137298
-5.14497
-1.1875
4.01351
1.41799
-0.663472
0.402702
-1.17422
-0.517781
1.73443
0.552933
0.358195
-1.41737
0.0666788
-0.599262
0.532583
-0.474967
0.0911316
-0.404016
0.467775
-1.13185
1.75138
-3.78549
2.1652
1.62029
0.613827
-1.00045
1.80934
0.742998
-0.0241365
1.50401
-2.12125
-1.75705
-0.930177
-1.98257
0.637905
1.34466
-0.236066
0.755761
-0.519694
-1.60462
1.72545
-0.32945
2.6068
3.71373
0.279337
1.76323
-3.08516
1.51603
-1.94434
0.428306
0.426053
-0.0192628
0.123014
-0.0502417
-3.54341
2.11486
-0.0203512
1.25634
0.0480176
-0.738887
0.690869
-5.61902
2.15208
0.861784
-1.23964
-0.697369
-0.0767478
-0.790513
0.867261
-2.02715
0.740567
-3.71584
3.31858
5.79474
-2.29958
-0.958783
0.890498
0.0682853
0.855963
-0.866491
-0.558906
-2.44205
1.06064
1.38141
-0.540457
0.465515
-0.148043
1.29544
-1.1474
1.5107
0.7172
0.45913
0.690989
-1.15012
-1.03535
1.06515
0.873192
-0.47173
1.66153
-3.52626
3.60033
0.245855
-2.08252
-0.159811
3.31939
-0.111533
-3.20786
-0.246261
-0.820918
1.06718
1.71196
-3.60661
-1.30386
0.547958
0.755907
-0.244872
0.160576
0.0842964
-3.81563
3.89018
-0.0745496
-1.68263
2.28269
2.04543
0.583982
3.89485
-1.46364
-2.43121
0.271781
0.162139
-0.43392
-0.637284
-1.17477
-0.0404587
-1.11335
-0.0614124
0.199763
-1.12732
0.92756
-0.353638
3.36143
-3.00779
-2.8655
0.933191
1.93231
0.93303
3.1421
0.0866971
0.191494
-0.278191
2.0491
0.867909
-2.91701
0.0856702
-0.175339
-1.47172
3.24274
-1.77102
-2.93396
0.484271
2.28383
0.932702
-2.80767
-0.00924569
-0.452438
0.461684
3.81542
-1.18268
-2.63274
1.62436
0.827336
-3.79785
2.01622
3.68476
-3.79603
-1.77005
0.320806
1.44925
-0.0726071
0.401187
0.323414
-0.724601
-0.152988
-0.876098
1.02909
-0.0380511
0.476321
-0.43827
0.694558
-0.686796
-0.00776265
-2.00654
4.13739
-1.06823
1.07078
0.908779
-1.05682
1.20906
-1.99834
0.789278
-1.97376
-1.49936
0.0940346
-0.175934
0.0257162
-0.015629
-0.0100873
3.50681
-1.70353
-1.80328
0.304408
2.22457
-0.867146
-0.505532
-2.05534
0.347368
1.78754
1.62687
-3.41441
-0.104239
-0.0157827
0.120022
-0.0402389
1.30517
1.55715
-1.37961
-0.177535
5.21091
-2.88042
-2.33049
-4.72716
1.00079
0.862055
-6.24828
1.81005
4.43823
1.02158
-2.78364
-0.917407
0.801832
-0.0226667
0.145681
-1.01939
3.18648
-2.16709
0.543966
0.100585
0.337685
0.689903
-0.857687
0.776106
-0.5743
0.791323
-5.02626
4.44315
0.583109
2.23999
-1.53177
-0.708213
1.3004
-1.33864
0.879526
0.203755
-0.858122
0.70199
-0.201528
-1.27007
1.28619
-2.42104
-4.52863
3.2165
0.218931
0.100013
0.505186
0.232219
-0.173492
-0.0713799
3.00413
-3.09959
0.0954626
3.46871
-1.66908
0.762249
0.906829
0.375079
-1.25455
-1.58011
-3.18337
-0.881362
0.771392
-0.582474
-1.01253
1.59501
-2.85166
0.655779
0.470536
1.28558
-1.75611
-0.504064
1.30465
-0.682123
-1.67997
4.61972
0.0794912
-2.73378
0.783584
-1.86119
1.0776
-0.976412
1.24804
-2.2952
-3.32381
-0.0511153
-0.393559
2.17815
-3.28933
1.54312
1.74622
-0.106607
-1.15104
0.138227
-1.32756
1.18934
-3.71065
-2.09173
-0.583209
0.572315
3.21242
1.88108
1.19777
2.44619
-2.4084
-1.73736
3.2063
-0.215169
-2.99113
4.06726
-0.778573
4.01607
-3.02858