/*--------------------------------*- C++ -*----------------------------------*\
| =========                 |                                                 |
| \\      /  F ield         | OpenFOAM: The Open Source CFD Toolbox           |
|  \\    /   O peration     | Version:  2306                                  |
|   \\  /    A nd           | Website:  www.openfoam.com                      |
|    \\/     M anipulation  |                                                 |
\*---------------------------------------------------------------------------*/
FoamFile
{
    version     2.0;
    format      ascii;
    arch        "LSB;label=32;scalar=64";
    class       volScalarField;
    location    "5.7";
    object      p;
}
// * * * * * * * * * * * * * * * * * * * * * * * * * * * * * * * * * * * * * //

dimensions      [0 2 -2 0 0 0 0];

internalField   nonuniform List<scalar> 
13486
(
41.508
41.8511
24.506
10.3467
6.11168
24.5121
-9.0065
18.5239
26.7935
38.4736
-13.8679
19.512
42.1372
29.3215
2.14702
39.0236
-0.823178
-42.4814
19.6341
39.9689
-15.724
41.6973
41.5664
-20.2991
36.0011
-17.5119
-4.37256
10.7079
6.22167
9.17259
-74.4666
3.19304
1.34879
18.0756
18.6528
17.2628
25.4309
31.3042
30.1859
28.5553
-12.7467
43.3747
8.15342
35.5434
35.5287
19.8224
1.06722
-9.95756
26.5445
14.3233
35.9856
30.5311
16.0839
32.256
-39.3772
7.49406
-40.3883
29.9892
1.67832
18.2954
-25.921
11.0931
2.85236
-19.622
-44.3827
23.6417
12.5724
44.2338
26.4457
33.6134
13.5346
-38.7028
31.1863
4.14272
17.2333
-20.9182
14.2787
1.28165
0.141593
33.4611
10.6362
43.1662
2.1963
24.6343
41.4732
48.551
16.9497
35.8467
38.3107
42.2481
4.65968
15.0538
39.1596
40.7003
26.494
-39.7374
-4.65386
8.16666
28.6569
-1.07299
18.1959
29.7833
6.14606
30.7219
50.7599
-0.909681
35.8973
30.0111
0.437357
12.1835
23.8105
-9.18904
32.2616
0.117896
48.8149
23.9815
36.6645
19.2907
31.3811
28.6317
-32.7899
-24.0417
28.3696
30.057
23.3315
30.9045
19.0764
29.8409
21.7586
-29.9536
31.2306
1.52239
5.84767
4.15599
36.0264
38.4809
56.4256
12.7054
28.3856
20.1165
7.68043
16.6656
11.8173
32.8933
12.4877
-5.20884
21.3249
58.7733
13.893
16.7475
33.7638
-0.326938
12.8834
43.7596
31.3814
24.7379
6.55471
-40.3042
27.773
16.7547
17.892
27.7767
-9.91971
42.7406
30.4578
26.7262
30.4869
55.1573
21.1407
4.35
1.04973
31.3383
34.8896
14.6748
7.69161
-54.1992
30.6903
6.92007
35.7016
12.3389
26.1958
4.6419
12.8834
-7.22995
25.476
10.9006
2.08664
12.9515
-11.2518
26.646
25.7372
21.1911
29.3449
49.8028
29.0744
-12.9706
-33.1154
17.6406
35.497
27.1896
-74.5794
29.689
31.2405
2.67376
12.4647
28.4323
-93.4605
34.4652
29.512
25.4495
12.0618
-23.1856
39.7609
35.9548
24.4946
25.2953
8.81332
42.0282
37.062
14.8388
-0.738191
13.8217
20.8728
17.4582
17.9205
38.4039
23.1279
-48.7163
25.8656
15.7599
26.016
-57.4117
6.67996
44.5325
-3.49222
36.8405
16.0407
20.5459
37.3407
16.4876
-0.280321
34.837
12.1807
35.0446
28.8785
38.0843
19.0999
-4.39556
4.08365
36.1698
-8.48265
49.3994
22.2101
30.0792
29.4997
-59.0434
3.68601
26.4983
-42.1084
-0.486706
39.8528
28.5746
2.13855
-56.2869
6.87765
-7.61763
25.3248
-48.764
31.3342
13.3051
46.1891
36.1607
8.25143
19.672
38.585
-3.1148
28.5775
-10.7662
29.8017
22.2321
-4.82014
23.8598
36.4465
-25.7915
-22.2533
-2.75762
9.24856
20.6881
18.6596
31.5992
-2.11699
24.0451
26.1138
36.0027
16.8929
14.3601
17.3002
20.9411
36.288
-11.0251
-11.8822
-83.867
22.094
3.45152
28.6144
0.00881418
-49.7146
19.1158
21.7211
26.1273
16.746
8.94039
32.9913
-8.23622
-27.2497
38.7695
24.875
38.5176
34.864
23.6257
22.9446
26.3811
35.7278
41.198
55.5153
4.36897
14.0338
23.3944
23.2551
12.1862
35.8786
13.7874
2.16989
45.9623
-13.8065
24.8902
48.7409
0.377736
34.7573
28.2294
24.2342
41.1956
11.2403
12.7587
-12.2187
-20.9365
18.8442
47.101
14.307
25.7746
20.2657
22.1092
20.0418
-5.02272
36.1757
34.6588
3.39899
19.1152
22.2691
-18.8434
19.4262
7.30821
39.0776
36.2177
8.24316
5.78189
15.1001
3.00811
40.2926
19.5625
7.1415
19.3387
19.0237
-12.7407
27.0657
35.9633
35.7353
26.3183
-25.134
12.9699
30.639
12.2581
44.213
46.3735
2.15728
28.2486
27.4568
34.6184
1.10914
-63.8388
39.1362
8.11481
32.5065
38.1071
46.792
28.2026
11.3849
-11.1265
0.616392
8.28907
0.983526
38.9906
27.4801
-36.7287
-6.26836
17.2964
40.5113
6.76923
20.564
41.5542
33.8405
34.2873
7.49962
36.4576
35.7003
49.5808
-7.84365
7.54074
3.0195
16.4691
35.7904
-67.3234
47.347
35.1061
20.879
13.4507
29.8905
36.6126
-4.29351
31.0047
41.7945
27.6408
32.3235
19.4105
3.31037
-2.7738
44.6458
25.5666
15.1541
43.873
1.11378
8.44622
4.7118
6.81404
-10.1459
33.192
48.4103
42.0589
12.5788
28.4478
-12.6895
34.9597
38.7354
14.1808
25.209
35.9992
-1.46972
-60.1445
-32.4007
-7.82786
33.2983
36.297
5.72134
30.8886
-3.2641
37.514
-7.26789
52.3032
38.7531
29.599
16.6054
18.6353
-39.2391
48.5438
25.248
28.8731
20.3967
25.0277
-2.9777
21.0864
35.1855
33.9472
25.1771
41.7455
13.4499
0.176845
34.6395
-64.2694
54.9215
34.7264
36.0871
36.5383
-51.5746
24.8898
50.9531
4.57457
40.7413
-9.40578
30.3869
-46.8774
33.3175
8.19241
-1.08307
38.8635
23.7413
-11.2128
7.03128
23.8503
46.655
33.1938
27.7639
24.3669
20.0546
25.7319
6.93967
35.9679
3.348
44.1224
18.927
32.8505
43.734
12.5076
18.1001
20.7586
-52.9844
1.98575
18.7626
10.1971
28.7674
39.1823
-6.48116
2.61567
-6.59381
-36.4997
36.8667
29.9026
-7.91238
4.56177
-66.84
-28.9561
18.3291
-40.8415
25.1301
24.3399
45.4957
38.6473
39.1516
-7.21863
-15.6179
24.4327
31.8113
-12.6929
33.4365
25.1674
-33.1979
21.5295
31.3293
-2.9861
-6.38699
36.0807
38.0268
32.9693
41.9605
24.3781
34.8291
29.8894
34.9642
12.665
36.9932
-4.47137
38.7855
23.2055
22.4158
-1.48038
35.2521
1.42344
20.3526
47.8252
41.1701
-62.1616
-34.4839
32.6487
15.4625
28.3423
39.4742
-2.9568
-7.2557
26.5507
39.8687
28.8774
31.1516
-55.9505
41.3523
10.9908
5.32328
35.9951
15.2211
32.0262
46.3696
18.9988
24.0907
14.1243
31.5073
19.6354
40.9018
24.1573
21.8453
22.606
19.5278
9.84835
46.7907
30.6566
46.3718
-47.5138
32.7389
19.233
3.70825
10.0894
35.9298
48.7589
-63.1141
11.3739
13.0437
13.7199
36.123
-65.2787
29.6256
27.3608
-6.62639
0.894254
-5.15059
34.7253
19.8124
36.3588
15.3635
44.1162
27.8576
13.5841
-13.0327
12.7789
30.8344
-18.5535
31.4744
-1.36724
36.6993
3.72502
-43.692
-43.9338
44.1572
3.69481
-7.51351
43.2484
35.985
-9.39193
37.4298
19.9703
27.7158
22.6948
12.3091
-53.8302
31.394
28.3598
30.661
25.4062
43.7927
7.51653
-42.4233
35.237
-57.1128
23.4545
15.4997
35.2135
33.417
-7.77279
25.3047
26.6627
22.2944
36.8079
30.739
23.7438
25.0747
-16.3522
27.8475
40.6391
8.81806
21.3934
27.6938
45.2818
-21.3317
30.554
46.3917
6.28478
-0.562728
31.9621
-1.14802
39.1845
12.1715
35.979
-43.689
3.86158
-22.5875
5.99623
-0.276997
34.499
47.7078
20.8679
-9.98544
22.6232
40.9513
18.6122
32.7379
-43.0381
49.1996
-7.76499
19.7314
13.6151
34.9385
38.2587
39.9164
13.8438
-29.1038
43.2237
36.0156
1.98022
28.6147
-16.3896
20.3784
18.1132
34.4012
7.41559
27.4933
39.9241
-12.7969
29.9791
18.0493
1.43702
21.1017
31.9081
33.8861
39.36
-27.593
25.2319
-8.07841
-25.6654
23.9322
20.1965
6.22881
35.9797
30.5696
25.4556
30.6091
-121.106
-26.0321
25.3945
21.3287
-22.6731
-21.1304
28.4944
-61.0358
22.7754
42.4051
28.1635
-24.7659
43.2415
41.0094
-63.8313
-31.301
25.9941
2.33927
13.2352
15.5731
28.9565
7.80853
0.0924129
32.3489
34.9621
21.8988
-27.0673
-8.5208
25.1701
21.9064
39.7915
20.955
-26.4146
41.4211
39.8723
-4.14424
-57.9271
28.3924
-1.76005
21.7969
30.16
10.4285
-25.6536
25.3473
36.0391
46.6935
33.4553
19.2895
26.7953
35.7465
39.7907
43.5732
27.0485
33.9422
45.9475
-12.4958
29.4318
28.672
23.5618
44.4293
24.9182
46.1366
21.9097
28.1914
20.3616
25.5094
13.0834
37.3623
47.1673
35.1379
33.9188
-0.037912
22.7279
21.7323
7.82741
18.9391
36.6912
12.1006
-91.3883
-37.149
33.7043
10.7087
4.18648
-2.48847
8.46167
14.5751
-9.3788
-62.298
35.1597
-43.9999
41.4288
-50.9014
3.9398
30.048
37.3008
9.69219
29.1585
-7.76284
38.3054
8.16481
6.45555
31.2636
29.3823
-9.20612
35.9938
-46.5085
34.3186
26.5996
25.3071
-4.11263
12.421
36.9865
33.5825
10.1157
-18.7335
-49.7756
41.4437
11.9002
-50.2533
-14.7807
33.7584
-28.8058
27.0249
21.0193
6.62283
25.9161
15.2853
-36.77
41.2306
36.0066
30.9466
32.9205
33.2624
17.5481
36.0118
29.5692
30.6343
39.7409
34.7714
29.8363
28.0339
25.9142
29.0122
37.9693
31.7912
-57.2851
36.117
-43.9455
20.9996
48.226
25.3955
13.5826
34.806
16.9297
31.4789
27.219
-6.95407
33.6978
8.46946
6.59897
12.6197
1.85003
33.3374
-8.60847
3.67226
36.0981
17.1281
45.6147
38.483
36.4308
20.7444
39.2492
12.8936
24.0827
15.6193
28.9006
-39.7855
22.5237
3.25328
5.78605
-41.4427
32.2473
-6.28145
-9.74969
-89.3152
-38.2551
37.7094
37.093
35.6235
1.99876
4.07191
35.6696
46.6653
18.7819
-34.1625
34.8558
-132.99
33.0301
16.403
29.6194
32.2709
30.9921
43.8122
21.155
35.7884
11.7756
37.5978
13.3008
38.7035
18.0003
-3.04843
31.0905
-60.8111
20.9909
25.5904
-48.0719
41.9431
35.6958
39.7187
38.7818
39.7043
33.8071
22.6163
26.6351
35.7832
35.7522
23.1598
22.8027
11.3532
34.6869
7.5823
28.4102
3.53651
55.8208
24.7665
10.4958
46.8961
40.968
23.0689
-50.1735
29.4229
34.4413
-19.6943
23.986
3.73563
23.5348
35.7725
37.4672
29.9686
27.794
37.4565
6.13096
18.3384
38.953
17.4544
27.2701
-8.63139
25.6234
13.1272
37.4329
45.7851
24.4718
-124.352
4.03789
5.60554
32.4167
20.8472
43.9672
31.1377
50.8317
32.5312
19.8768
34.6972
-10.2272
3.5493
-25.6795
33.8361
29.9954
4.17411
-84.7254
32.9463
35.9889
27.4758
13.1393
4.8132
8.41676
15.1908
26.2612
23.1451
13.8431
35.338
36.3981
39.2773
27.9401
22.9499
2.1909
10.6953
25.2801
-57.633
42.7292
22.6837
-66.9206
32.7037
20.2779
-8.84912
-48.1125
21.8594
35.8947
21.5895
1.86595
14.0871
14.8813
-2.78063
20.9084
22.7134
27.8126
35.2648
33.3344
3.45665
35.9889
12.7743
39.625
35.6562
33.7513
1.52113
25.9091
43.9328
51.5814
25.4044
6.59625
35.5458
23.3536
44.0705
13.8141
3.46513
-40.2604
20.4832
29.4495
1.77014
35.6176
31.9488
25.2216
-6.32647
17.679
28.1468
47.9479
-8.29775
36.3361
0.541579
48.6177
43.5438
24.1722
20.3866
-71.3667
49.5391
18.9915
50.0633
-8.48899
11.2084
33.0979
20.7591
-11.9086
3.90434
-32.5805
39.2562
16.6448
7.38745
41.1814
39.9636
28.1831
14.1319
-8.28477
30.823
29.6241
30.8338
36.762
20.4578
-14.1873
38.6717
21.5067
8.84583
16.8689
38.4738
32.7719
-33.3985
-31.1028
4.66505
36.0658
42.557
19.4832
-5.00598
12.2179
48.2018
-5.96798
8.61786
44.2247
35.952
20.8573
21.1749
12.4104
10.4521
3.67968
-6.24223
27.9877
-30.6913
26.9368
18.0292
2.0435
-0.34968
-0.613338
-40.3254
0.822119
-7.82731
51.1768
37.4186
6.37305
3.5876
2.5619
30.751
21.9017
50.6581
12.5648
12.5616
36.0392
12.3094
-33.6629
17.76
17.2163
32.0569
51.9102
5.2079
24.784
-22.7704
25.2678
13.9153
23.2813
23.4238
38.8635
39.1335
36.5935
-51.7703
32.4324
14.6603
26.2613
35.6829
26.2045
36.9435
49.3576
45.7482
11.1575
36.0226
39.1161
12.5632
36.4173
31.6246
45.1079
36.1668
26.9317
38.9208
34.1666
17.0034
23.432
39.146
3.71167
24.7142
-0.184521
12.0206
24.1536
33.0518
32.481
8.15413
43.5619
43.0602
14.8421
4.14929
21.0955
-15.5745
26.3166
38.1862
39.2055
3.26864
35.9282
25.2726
16.6348
26.3092
-35.5755
-69.7827
24.4477
52.1803
-3.37419
1.53443
41.1449
23.7806
-11.1259
32.9244
20.1833
35.9157
0.358295
11.9535
20.4623
18.0764
12.8461
16.0184
47.2378
40.8319
31.8668
58.4341
42.9362
7.03691
31.5663
-79.619
24.4437
43.6587
-68.604
29.4219
23.2015
-12.8243
8.83748
34.4528
-48.5218
17.2806
37.9932
52.1554
-4.84449
17.0119
20.2658
28.6138
24.7213
-6.07667
42.8258
35.7149
25.7038
33.7568
6.17954
0.865299
-0.994045
45.5746
3.49896
49.8352
-29.5093
-1.22903
2.74297
6.41743
3.99685
4.23179
30.1422
31.0499
19.9269
31.0897
-3.78006
4.36002
-15.0301
2.73838
11.3496
7.01442
11.0601
26.7355
-7.89579
-25.0997
25.0269
25.7178
47.9036
35.8901
12.3224
18.8802
56.672
28.9898
-4.51351
8.53882
26.2689
36.0832
25.151
38.686
11.3807
10.8867
17.0778
6.92087
20.8297
42.0567
3.67872
-12.2855
-0.372072
46.108
11.389
21.7101
36.6544
-31.6445
19.0061
33.5367
-7.25992
-5.79584
15.7576
35.4894
31.0918
36.3227
4.51717
2.81758
11.34
-0.675641
6.87077
21.9869
6.45253
3.67566
21.3326
0.512275
-5.41739
-14.1392
40.8672
-14.3403
46.3177
-15.4401
38.1874
7.62839
19.447
37.7075
23.2819
42.9753
17.2265
3.2622
-8.21302
35.8298
3.2741
35.352
27.38
44.6133
38.8599
28.5346
33.7706
43.6801
28.664
33.908
13.9164
-116.666
12.2039
0.164227
29.8935
10.6918
13.511
24.7869
-9.61057
20.6048
6.22609
19.5718
14.7255
11.6219
45.0571
25.7316
-20.5593
21.6445
35.935
-25.8249
3.9574
29.1069
23.6727
24.413
23.3037
25.5922
35.9136
36.0121
22.7825
37.2389
38.3215
30.789
13.3762
10.7896
31.4442
23.4078
12.2579
4.31509
-49.2447
13.7311
9.81214
15.8067
29.795
-10.9892
3.08243
14.2184
-55.5466
9.15773
-2.32835
31.8087
-7.91424
36.8908
55.568
32.9924
2.238
33.6058
29.6651
21.0547
5.16511
7.71453
-87.7854
23.8238
35.8077
9.79477
42.7557
4.74459
35.9856
19.0153
13.5374
2.30026
8.97172
51.3842
-6.36725
35.9944
36.1652
38.7302
23.5951
35.6656
26.2564
2.87492
28.5402
-5.02959
-2.75315
36.2084
35.9729
8.15868
34.9674
39.3242
-15.1522
-47.6155
-14.8634
12.7368
38.1356
33.5589
38.9069
22.1259
25.521
12.0045
11.4218
14.3028
39.0261
49.444
4.77126
-4.33161
2.7182
23.9141
24.641
24.5288
2.42955
-95.3072
19.0002
-39.7067
-7.0305
54.9262
32.2922
-16.7252
-53.4213
5.71781
-5.37298
0.446256
-13.331
-17.2813
41.1559
33.4616
8.44662
50.1786
1.00789
-9.25877
-2.59514
-3.83529
28.7519
6.87012
31.2456
26.2291
6.69765
12.671
6.96074
-4.27215
-45.6235
39.2973
-50.5317
31.4118
-0.569634
36.2152
34.3374
10.3
36.8928
32.747
40.496
43.9824
28.9475
21.5438
52.784
-0.270776
23.9115
-10.0932
-70.6251
41.6039
-35.0588
46.071
33.2551
14.2813
6.25004
2.58514
38.3836
-52.8454
-18.9265
22.8876
29.5236
-26.5137
34.3813
28.9594
17.0406
46.1367
4.0199
-15.1744
42.0763
25.149
37.8067
-11.9719
55.3379
31.7664
3.78038
38.3793
18.3484
35.9961
27.5167
31.9948
29.0994
-15.7969
10.0486
28.0628
21.4035
-52.9231
24.9218
27.8334
34.7619
36.2602
-24.8301
24.7183
4.63185
34.0843
7.02721
-52.1782
36.7686
-51.0845
35.9648
37.0427
-0.632014
41.8073
-41.3547
51.1703
30.2391
-58.1141
6.50176
21.0319
40.682
38.3017
-62.2945
36.5215
37.5208
5.7184
12.3405
21.821
28.4099
5.31807
-0.45251
10.9264
-56.1577
36.1608
5.63637
-30.5563
15.3919
39.6443
37.4129
41.5308
7.82845
33.3723
28.6961
25.7908
33.7171
-45.5963
-27.4119
45.8194
24.2259
16.5585
4.45326
-4.5952
-7.16907
36.0111
-0.497007
19.9064
38.4714
14.2327
35.4662
-2.81142
16.8921
48.5158
12.0705
38.8891
7.98855
-40.0395
31.014
21.0899
42.1125
48.4656
31.2038
20.072
50.4057
35.448
40.6422
-0.378923
6.36985
11.0387
14.3001
-16.9765
-2.04707
16.66
-0.745583
20.734
19.0698
10.8315
14.6554
-34.2949
15.0715
40.1706
-8.50769
25.4673
34.468
35.8197
29.0206
35.7706
8.40435
0.337426
0.910535
17.3457
40.2612
-73.7219
40.5558
-10.1753
35.999
10.0867
22.1649
-10.4214
31.2555
34.5531
29.9722
24.03
35.1842
-57.7857
37.968
44.1061
-16.2315
-15.8072
-11.8989
37.0462
28.0349
1.72933
4.68593
26.4852
26.3696
4.15921
24.9363
18.0803
0.387817
34.5875
27.8196
32.0621
-81.4976
41.6184
7.98561
33.1267
-2.16947
36.1284
32.1912
34.0887
25.3423
-15.9215
-9.48641
23.589
6.04804
-33.3695
-38.4715
19.937
-40.0195
36.3854
25.8197
35.9545
-80.1981
-100.071
11.9728
31.444
32.137
-5.8862
28.6443
20.1769
-84.3646
-26.7412
4.82055
21.9124
36.2032
31.6479
20.8369
7.79422
29.4139
-67.1061
6.16045
-12.1721
36.8651
18.0805
32.2065
34.9033
27.9365
33.8828
46.9828
44.0385
11.7082
11.8376
-2.40482
22.4785
34.4272
20.0284
-18.2194
-38.8086
-33.6256
10.4854
24.3675
-50.0465
52.9748
12.4446
32.0392
20.5449
-19.0721
32.0285
17.3874
31.3897
28.4545
21.5669
37.0957
23.0725
35.857
11.2304
1.69186
-32.1379
-8.01973
-42.8245
31.7713
48.0084
35.7623
7.29623
-9.52451
38.0556
-4.37767
-102.944
12.3855
26.8632
-25.5495
-59.4035
-49.9226
8.95774
23.8616
23.6255
-1.61302
20.9692
37.5204
12.7636
8.83599
38.2074
31.1651
-18.0395
12.1293
22.9302
15.3925
50.957
7.99006
23.7763
17.1258
18.7284
12.7899
26.7795
-4.64835
19.8114
22.8548
9.00467
20.5958
-12.5609
39.0181
25.3464
29.6693
-28.1494
17.2088
48.5984
-22.4586
31.6647
31.8506
32.8817
30.1634
17.6473
3.43034
52.2236
36.818
35.7017
28.7326
-42.534
38.1084
28.6685
43.6258
-18.2331
37.239
38.6284
36.6849
16.5134
-8.76522
30.9871
-3.17642
18.4052
33.3847
33.9656
27.7565
40.374
21.1107
42.8421
22.471
32.7866
26.1516
21.1571
-11.6352
36.1086
14.1601
34.3161
51.0965
36.895
15.8505
11.4187
18.5842
35.9951
31.9625
0.48141
22.3012
17.0744
37.9033
11.0275
41.3609
30.2515
56.8686
45.3174
14.2674
11.2902
-13.8852
27.4296
45.5451
23.2326
25.8294
28.1711
54.8103
35.1955
22.9439
53.3552
17.5612
34.3314
20.4819
31.4661
-21.7214
28.464
30.973
36.2333
31.5716
0.562395
20.4548
5.16081
13.0197
-10.8018
-3.14667
45.5744
39.8316
20.1169
-2.92449
23.9825
33.7774
24.251
25.0825
34.2139
12.5855
7.38183
-12.8178
37.0106
12.1154
-131.776
43.4987
16.4982
17.8406
11.6244
49.0152
-43.4253
40.5842
-4.26892
51.9825
7.8308
-6.15224
21.4159
13.6381
25.4305
35.9291
18.1199
-116.394
23.0448
-130.309
37.9897
26.0286
26.4011
-49.1694
-66.5256
-2.77168
31.5803
5.52326
15.5749
4.34119
36.2095
49.6853
2.81219
20.6041
25.3703
-118.236
33.0147
27.1389
13.3601
-93.2938
8.13524
40.5275
-55.7065
34.5473
16.5828
-6.443
-52.2687
29.7101
35.7593
32.5597
35.9061
47.9534
-24.8695
53.5079
6.69726
50.4196
-68.6335
15.582
46.4087
32.896
-41.8063
23.2295
31.3481
27.1296
-49.5465
-0.721148
21.7658
9.27322
1.92166
-0.664743
28.9987
32.0979
31.7522
-88.6828
32.359
10.9051
6.38824
-51.4743
31.7559
-21.1758
-37.6313
13.3869
49.1022
32.4339
49.5149
18.3562
-5.36652
33.1814
21.0458
17.7846
35.916
35.7042
51.7321
35.8537
38.7245
5.29613
4.27658
50.8385
49.923
38.2343
20.1948
-32.693
-3.28529
25.5464
12.9142
7.69952
43.9517
-83.1107
32.4833
-10.0229
50.1391
1.68719
28.2749
-11.0763
23.5541
46.0025
54.4668
52.4892
27.0056
36.0731
-5.54174
9.22017
36.4432
53.0173
-58.6883
18.5894
16.0008
2.74831
19.3021
23.9039
20.7945
21.6071
15.051
19.4713
21.218
31.6349
38.2891
-3.40734
32.6724
-21.8579
19.9395
44.6787
-17.9129
-12.0704
-6.83449
33.2682
36.6657
10.1344
-9.98041
15.7692
8.87233
55.5415
2.02804
-2.10006
-41.3996
26.5271
-28.8787
-5.38391
13.1782
-2.38192
28.9294
4.01199
21.5822
1.49534
36.125
24.4688
27.7917
54.3097
29.3329
20.0637
36.39
29.1736
3.60685
16.6601
44.4806
34.0865
20.5397
-40.1806
30.9941
33.9852
-105.857
-52.815
13.7081
44.7091
11.3592
35.9949
26.9124
41.8561
20.4737
-31.1347
3.1577
36.1139
13.0353
36.8166
17.8603
51.1519
10.1313
22.6404
-10.3763
36.4689
3.46476
12.6551
7.17111
23.5006
2.5886
-54.8919
-33.2722
28.4722
9.04051
-17.378
21.1068
24.8051
-2.65794
23.1687
1.86891
35.9461
49.7261
22.6025
3.06121
25.4993
23.6401
-8.26731
26.1348
19.221
-2.29943
3.10442
9.15148
2.97898
27.6578
29.9569
-14.9494
-14.2995
19.5797
35.7661
34.1308
6.07311
23.873
27.0607
-44.2651
14.2372
15.444
2.08842
40.2474
-76.5668
7.98129
4.24535
-15.7906
-8.46476
-27.6077
57.4536
5.15442
7.10715
38.4867
49.9223
44.8121
-42.0423
20.0556
35.8268
31.6182
1.43161
49.7185
17.6651
19.4493
56.6535
26.7107
-4.04013
29.0637
43.5131
36.5343
25.7794
45.0855
35.2581
-28.5901
17.3788
33.024
19.0248
0.769363
47.6021
38.3386
26.6139
20.2401
-11.9624
11.6559
-17.347
18.058
15.1914
27.561
37.8467
29.0884
-4.07139
45.4923
46.4862
-5.93816
19.9995
35.5512
35.6059
-12.7954
34.7286
-48.122
12.6417
44.528
50.1408
-5.03831
30.9278
33.5029
34.3848
16.2264
23.1295
-72.0182
-13.568
8.22072
30.533
-4.70541
10.0692
24.3137
10.873
35.299
-55.4673
29.6349
31.0405
4.81882
-11.9615
-0.158867
27.567
20.5646
13.1417
32.3452
-49.333
8.91324
-1.69666
34.8101
35.1451
-7.52751
50.0637
26.7542
53.5231
12.1426
12.9488
22.6377
36.1509
22.5666
9.21569
27.9967
27.8025
23.7786
16.5935
57.636
34.3856
-0.326394
11.3887
10.0484
-27.9299
28.9995
-24.2845
34.89
-16.8824
-1.83662
0.710327
-1.33961
-28.9712
-1.36379
34.5792
19.8456
44.9331
51.0761
0.170153
-2.34601
16.96
18.1712
45.9786
-32.2818
28.2425
32.315
35.3434
-63.9982
-61.2778
20.2345
31.5455
21.2167
-78.4744
-5.38293
21.0928
18.5383
9.53627
25.8099
10.5204
10.0864
29.0109
-52.6221
-28.7109
18.3996
-59.014
51.1331
14.6802
36.1959
9.34733
12.9759
25.5249
4.52014
30.9486
11.6885
5.33665
45.713
34.8396
27.1299
2.68111
53.0807
-5.5141
5.484
-18.3711
7.56955
0.8576
-60.8685
42.9729
26.825
23.9779
32.1289
9.26704
-78.1882
-2.91202
19.3461
10.5025
27.2369
32.7032
28.5187
2.92879
3.15441
-31.1624
9.04754
17.7468
16.6283
51.8362
35.0517
-52.1008
6.04632
30.161
43.9582
11.4802
4.13208
10.134
39.8174
26.9354
7.70568
36.9215
-99.8775
45.3874
-27.9817
38.068
-9.93855
9.46623
23.683
-15.0591
9.63994
31.5656
2.86562
-2.88845
32.6716
-140.339
24.8867
40.2058
35.5541
39.5011
35.9942
8.69876
16.3143
27.3903
26.4641
-26.7198
32.7357
16.3468
45.7939
10.6707
38.8663
4.55613
49.5514
8.06736
19.0688
47.98
7.52065
15.2236
-5.23972
39.7836
47.8751
35.8653
16.5934
35.8564
35.717
-13.4511
34.951
-45.6718
37.5928
3.308
-37.9403
-2.09384
-1.74761
35.33
4.76058
-1.89538
14.633
47.2185
27.3697
28.1788
-1.35776
14.8571
18.2902
32.4345
36.1018
26.4742
-1.4373
52.4993
30.6883
44.4071
37.1753
21.6706
34.4779
22.2993
10.0524
26.4052
20.6724
17.7266
24.1482
26.2923
-4.58215
53.2254
38.6879
8.596
-18.7874
27.5709
-98.1804
36.4112
34.6276
21.4567
24.5499
34.4601
28.6379
13.267
4.26476
15.8733
29.8873
45.3812
3.2733
48.0166
55.0594
49.1659
-30.0076
35.004
-11.6014
35.6398
35.0056
40.1573
29.8323
39.0527
54.0218
36.946
3.50723
-15.3149
7.70002
54.1527
15.6855
-121.45
8.05254
39.8302
45.7941
30.893
6.55977
28.1311
42.9136
0.176784
27.6435
4.02178
32.5291
31.7409
-3.45031
18.8511
-10.0781
-13.0785
-26.0548
11.3382
26.2217
34.6079
27.0537
22.8599
26.6776
-10.7589
10.625
26.0524
-10.5988
-8.15804
3.1978
38.1399
43.4862
-2.00021
46.5584
38.2106
46.4861
18.089
-86.0127
29.7395
0.994201
40.0679
-11.3954
39.3763
36.4793
28.9693
39.4515
21.4047
36.1806
8.63481
33.0036
12.5584
3.95655
-10.9954
32.3967
35.807
-73.0936
-60.5975
-63.7367
48.7529
34.9598
34.0337
18.1312
42.1612
9.72807
26.548
27.9779
10.8192
26.7091
-34.6734
-4.66587
17.2341
0.287399
18.3478
-62.7689
29.9402
-3.38459
3.99333
21.9948
47.5201
50.8998
44.832
-87.2199
27.7798
-11.9761
26.8251
44.9455
30.1405
35.5137
-54.4148
10.1443
11.0026
25.8375
37.6716
25.5149
30.2177
-4.20385
24.9172
0.119616
36.4313
30.3089
35.767
-6.48205
26.918
-45.7505
-1.47157
-1.1105
6.75262
46.2802
8.94771
11.3881
-0.810926
32.2984
36.1578
30.4471
34.3172
-5.70755
42.7076
48.3804
-58.1751
25.1741
39.3721
-50.8762
-34.7777
26.9745
38.7428
40.5283
-8.52507
13.8204
29.1108
47.1996
-2.75965
-42.1722
25.3033
43.0373
26.5709
13.6341
-131.534
36.1142
35.5538
37.204
24.9651
9.35631
30.117
53.2283
3.79607
20.2411
26.3692
-0.830281
26.9173
11.9148
4.59039
12.9589
-0.810534
34.5826
-83.8071
-1.61594
35.0711
39.1056
27.0789
10.9587
-36.7647
29.1426
-4.71738
0.511766
11.9942
14.1897
-6.61358
40.566
29.7032
26.8654
26.8391
44.52
11.8662
17.6124
35.974
-0.692957
35.3379
21.0168
12.2531
-1.28365
36.1816
3.12792
10.3338
24.4705
20.8243
36.648
0.529449
-12.9988
-55.0408
28.3501
35.622
-6.02966
48.8791
-5.47674
0.637127
-31.0283
39.3563
29.9521
34.8553
5.83358
42.7204
-47.0542
16.4771
22.2057
-6.5817
36.8487
14.2879
22.361
15.8055
8.47382
35.7889
-0.285076
-46.0501
9.90008
-10.4994
-11.8851
21.2253
44.6808
-1.36978
-12.5661
34.6212
0.76319
40.1923
2.4052
27.0769
40.5032
36.8193
15.0909
-116.282
-19.8841
26.2424
31.8864
33.4069
-6.98321
-5.78026
5.28821
9.64833
34.7445
55.0741
27.9587
35.1799
40.0265
30.6406
37.4286
-41.8519
4.39343
-58.743
35.6389
53.7834
27.1998
18.892
37.1013
21.7501
22.9231
1.91755
27.1326
17.8626
48.8785
-25.807
0.245005
52.9536
37.5763
25.7297
29.4839
34.7186
22.0257
-26.1524
-65.9003
30.0528
3.36585
5.53069
33.9664
-66.6905
-18.1379
-2.30405
27.1005
27.9533
29.9965
29.2894
35.1167
35.6643
-8.15707
30.9146
27.8694
47.5397
40.2756
12.1762
13.7401
30.2124
38.0852
30.1886
-8.69495
21.7562
28.8421
25.0499
44.6062
32.1441
3.85984
-16.5537
6.46431
32.8532
14.888
36.3576
31.7432
23.9251
-42.1918
21.6129
-2.80298
23.731
14.2894
12.7545
-24.0491
-6.44169
40.9714
5.84617
9.34623
-15.3279
45.6919
-57.6343
7.07639
31.3858
-1.63758
40.2716
36.242
11.3946
38.3446
23.733
26.8663
5.39591
-18.0656
6.76467
40.9201
-18.5752
-9.17489
-2.40963
-8.13054
5.52721
-10.9183
0.840937
24.048
31.8401
35.9023
33.7093
7.46888
32.9549
38.8402
33.8797
-7.86649
31.8794
7.44665
13.4252
22.1605
18.3614
35.7847
-140.959
-52.6424
-45.5655
32.2612
-62.8607
3.77045
25.7916
-79.3128
0.608613
-2.09624
-20.9138
24.7543
8.59872
14.8797
-7.81766
36.7763
36.1731
-4.35584
39.8071
-60.3358
44.1227
1.88943
27.3598
18.5372
29.7847
19.3061
4.16348
6.82131
37.1438
40.8489
45.8639
-17.6309
0.797189
-71.8577
24.1506
8.3718
-5.32806
-1.09266
-3.06222
19.0262
-11.2142
15.5678
-21.8818
26.1125
42.7226
24.178
29.045
32.6739
12.7318
3.03795
44.817
50.4436
3.94154
31.2127
30.1752
-42.1555
-37.3828
39.1108
40.5668
0.760744
-55.7841
-60.5102
-71.0926
19.9725
-4.47164
23.0648
37.8677
26.3104
38.8241
-9.32623
-2.25585
36.836
21.5444
-1.77943
28.7158
39.7258
-1.25883
22.4535
-1.95136
-5.56125
-2.08776
46.4245
5.3774
25.2726
-15.2594
33.5464
-0.118015
-25.5179
0.278706
-26.5927
12.444
31.086
17.513
-4.57036
26.1197
10.7305
-30.197
-6.09289
-6.91995
14.9494
20.1632
35.4419
2.53375
39.4384
-21.0368
4.46426
21.3047
14.9053
-65.5569
-5.76005
-35.4401
8.13687
32.1022
15.895
26.5328
5.0932
24.376
-47.1224
36.1923
-18.6245
34.323
18.4124
-83.6001
-12.697
58.6377
-31.1177
-0.989096
3.83549
-0.185694
35.7354
18.8658
-3.65481
-56.9806
-2.06596
-16.4752
4.03505
-3.74323
26.9026
-6.5564
28.5431
-1.60869
25.5253
26.4744
20.8764
3.48536
18.796
34.1851
-0.0258843
-37.875
36.8408
8.46171
-0.136132
25.9841
-14.7132
4.66143
23.3371
34.9788
-42.1366
34.0751
0.797759
-15.7633
-13.0688
-8.7305
4.80586
9.13604
4.65211
34.7188
34.0656
-41.5274
55.4121
-68.3158
40.204
38.5825
-1.67628
32.0783
33.217
35.9854
16.6792
-40.1425
-18.5273
-13.83
35.535
30.9084
-3.13095
-9.16682
9.82658
40.7743
26.8731
-72.1297
28.5589
36.6782
15.4886
14.7316
28.9749
35.8745
34.5784
-20.4143
39.632
38.6758
26.5509
-69.5104
34.2091
34.025
27.5597
21.0078
4.8906
-28.0093
-14.3697
-56.5959
40.1928
26.4568
23.6927
11.5782
21.6166
-97.4826
28.7517
-79.4624
15.8008
34.6126
37.2118
-51.0301
33.5233
20.9585
27.3298
29.6772
27.9559
30.308
15.1925
36.7263
38.1161
35.631
-10.4391
37.6147
34.2803
35.9654
36.7413
-36.6051
15.9862
11.9435
6.39335
35.2508
47.7072
-84.6824
54.4091
-46.3389
3.11814
29.6804
33.5136
-0.71665
25.0705
0.583497
-82.7743
27.285
-17.7288
-4.09471
26.6861
25.3352
52.3775
32.4011
-10.746
-12.0856
27.5555
33.2347
-30.6891
-34.1263
-37.7674
16.2866
3.6873
4.50948
36.0655
25.6863
32.7049
-5.17644
1.38533
-23.8574
9.29798
9.93828
7.97932
41.9126
3.73387
5.79081
56.7534
-54.4286
19.9797
33.846
27.2894
-45.2868
37.4609
31.4011
34.0978
9.09184
34.751
24.559
42.5375
35.4627
-39.5356
25.5593
10.8808
-35.0791
31.3085
27.6833
35.2981
-82.2062
53.0771
25.3302
-135.791
39.1051
0.960809
24.7818
-34.9823
-12.8216
3.11303
-4.84194
16.1415
23.9412
24.8992
-40.9408
6.8843
-49.4895
11.9287
-78.3371
17.3003
36.232
9.447
-10.4654
15.386
13.3237
1.96701
34.697
40.0424
-35.8825
34.9732
12.177
35.2637
45.5144
-0.157515
35.1477
18.4635
32.3315
37.4616
30.2818
22.937
-99.2335
33.3002
40.1164
-55.8412
37.6339
-9.69562
0.835574
34.0433
-41.0895
5.52876
-43.4602
33.926
1.02521
21.2852
8.52741
36.6711
21.9419
3.79071
17.7398
30.0126
13.7243
42.9221
48.4489
35.2275
53.7722
38.8643
57.1436
28.1197
23.0562
42.671
-18.481
29.4511
24.7578
4.26311
41.0879
24.0324
6.03064
48.2416
27.9264
-49.3167
33.719
32.5602
38.6961
1.45827
36.9709
49.0813
1.99132
3.3111
9.70991
21.4178
-8.97381
33.5198
24.7703
39.7986
35.6913
-5.41084
32.982
15.2207
4.84708
3.93289
-67.3183
31.0168
-1.90209
35.9741
31.3752
-4.74176
23.8879
-25.4794
26.4786
-47.3362
2.10935
32.6226
29.7902
-1.47476
25.3097
37.4465
20.6027
-88.3051
34.7782
17.6181
33.3714
-0.713865
37.7383
31.1107
9.56452
26.8738
30.3421
19.7816
31.6493
0.247583
52.1116
12.9645
-1.4292
30.6566
24.8061
-3.3656
5.83061
-7.71263
11.7643
10.5285
2.14617
24.9479
22.8922
54.4191
25.0716
-5.89231
24.6661
12.0177
14.0793
20.5095
26.9613
37.8666
-7.48565
20.3947
0.773847
16.0747
19.0578
26.732
35.7002
11.4869
2.63805
8.84318
34.9037
-10.4239
26.1003
-0.485514
26.6585
17.9416
38.8911
-0.796823
11.987
1.35082
30.6878
-4.94299
24.8652
36.0826
33.6053
39.0272
-3.91727
9.18542
35.3077
-123.096
37.8517
33.67
7.97612
34.0992
8.08531
31.4078
17.0979
10.5105
-15.8056
37.1119
-88.5219
37.2866
19.9848
54.6695
26.0497
30.4962
34.8887
28.4456
20.1828
34.6451
19.982
18.1132
-5.18302
30.4272
28.1457
19.1706
0.219486
-82.7418
31.2575
-20.0592
-3.81315
6.77557
36.2111
17.9018
35.8029
29.1451
49.0601
47.0209
32.5232
20.6883
32.2878
0.150067
39.3816
22.1828
28.7011
13.7324
36.3559
30.6196
29.7456
-60.362
11.4943
23.1193
7.16793
7.99579
35.5725
-68.354
22.6598
6.0011
29.5364
33.1932
30.3903
32.7351
32.5174
26.73
27.5862
34.0171
21.4922
8.77117
37.7487
17.4206
42.0688
-7.95487
38.3318
31.2755
-5.97995
-35.8771
25.8186
10.1753
-13.5757
-53.5326
35.9914
41.0575
38.3668
39.3773
35.5324
37.2175
33.1277
24.2358
33.5691
22.9501
29.4834
25.7257
1.8848
45.3735
13.2832
-0.76571
36.0402
40.5351
44.5214
-38.0302
13.3501
-38.0211
4.18636
33.5069
-31.8199
-1.96739
37.9766
49.5502
1.52796
-10.5014
-16.5461
32.638
22.4813
29.3091
25.3072
25.2373
-38.7476
20.7527
27.1713
-6.9079
36.9275
35.9902
38.81
10.1534
-12.6164
13.0895
24.1387
-13.3692
5.37162
24.3266
17.05
15.1991
19.3505
18.7029
27.9304
30.557
-6.85253
20.3861
33.3385
19.1339
32.5104
-8.42782
-18.2325
-0.956207
36.793
21.7999
-105.409
35.4596
38.6319
31.334
11.3367
30.9141
3.81142
-75.8953
22.8794
16.1539
6.07765
33.2255
-37.8467
34.462
23.8238
11.9096
43.418
26.7248
31.6979
25.2285
34.4417
38.3411
37.3648
2.06249
15.9082
28.6649
6.2031
7.73074
-54.8917
-3.9554
28.0378
0.291427
0.911167
37.6376
18.3007
-15.4889
-21.5299
4.242
35.5527
21.2529
29.8805
24.1712
38.711
18.8157
1.79012
-19.1719
11.7727
37.0064
20.4091
37.3189
6.71944
15.9544
42.4222
37.1145
32.6939
35.3773
38.3477
43.2542
46.785
22.244
37.8082
22.7355
39.535
13.7887
-27.287
32.1184
26.8116
5.983
10.4364
25.0542
25.9036
-40.4226
35.292
-1.48383
33.9933
25.5766
28.7373
-139.313
33.8817
37.9377
20.8854
7.57143
35.4724
31.014
14.4727
23.3129
41.6951
7.4955
41.9337
35.7694
23.0956
25.1722
29.754
32.9163
3.84669
45.1045
23.7895
23.9326
-122.311
34.7943
-1.9637
-48.5344
32.516
38.8704
12.812
30.6244
-17.8121