/*--------------------------------*- C++ -*----------------------------------*\
| =========                 |                                                 |
| \\      /  F ield         | OpenFOAM: The Open Source CFD Toolbox           |
|  \\    /   O peration     | Version:  2306                                  |
|   \\  /    A nd           | Website:  www.openfoam.com                      |
|    \\/     M anipulation  |                                                 |
\*---------------------------------------------------------------------------*/
FoamFile
{
    version     2.0;
    format      ascii;
    arch        "LSB;label=32;scalar=64";
    class       volScalarField;
    location    "2.2";
    object      p;
}
// * * * * * * * * * * * * * * * * * * * * * * * * * * * * * * * * * * * * * //

dimensions      [0 2 -2 0 0 0 0];

internalField   nonuniform List<scalar> 
13486
(
2.24341
1.79718
0.196255
-0.45139
0.687906
-0.0734535
0.30393
1.22921
1.51508
0.778582
-0.950699
0.428247
2.36105
-0.268099
0.545501
0.86892
-4.49706
-0.947761
0.520439
2.02453
-0.383933
2.33265
1.76013
-0.581367
0.741452
-0.550997
-0.633899
-0.400502
0.021195
-0.304694
-0.298935
0.343229
-0.793809
-0.21924
1.23364
0.0067814
0.0647434
1.81874
0.0502747
1.52119
0.0438853
2.45014
0.0565525
0.744847
0.708004
0.410603
-7.78845
0.0281057
0.0701343
-0.478712
1.32237
0.0268265
0.295353
1.8515
-0.499068
0.751326
0.0915479
0.0387774
-0.77232
0.0933518
-0.84223
0.0782457
-2.30565
-0.366809
-0.335994
0.0800119
-0.479759
2.25102
1.50389
0.0556332
-0.480942
-0.610657
1.5379
-5.86686
0.0836098
0.100427
0.0828908
0.532389
-5.79494
0.0255518
0.00786372
1.81878
-2.46674
0.229089
2.25205
0.907532
0.157376
1.25835
1.48598
0.874121
0.139488
1.06214
2.14899
1.92554
1.56486
0.00153228
-0.599761
-0.488047
1.49927
-4.18087
0.0200496
-0.18326
-0.485739
0.0402239
1.12461
-4.3263
1.51656
0.0538031
-6.824
0.931185
1.43667
0.237012
1.85057
0.0785666
2.65572
1.50671
0.741451
-0.212681
1.55351
0.0566462
-1.2384
-0.81983
1.63939
0.0546129
1.43429
0.0337797
1.07254
0.419256
-0.171665
-0.279445
0.0379005
-7.64254
-5.80288
-5.99128
1.37512
1.19874
2.73959
0.975783
0.0569851
1.27636
-0.706677
0.276909
0.394751
0.0200789
0.080802
-1.43085
0.217955
1.82243
-0.52448
-0.00079819
0.883637
0.500752
0.00862867
1.85696
0.443369
0.191718
0.73565
0.0283727
1.64535
0.143182
-0.366536
1.64618
-0.232716
2.44335
0.0290193
-0.510076
-0.0327413
3.09714
0.217663
-6.05352
-6.33586
0.46056
1.05065
0.792379
0.0040156
-0.528754
-0.528557
-0.865822
1.51972
0.412356
1.42393
0.0799596
0.62613
-0.620992
0.250391
-0.404808
-0.00265281
-0.28995
0.124513
1.58905
0.065503
0.124004
0.0183061
1.97418
0.0124449
-0.938243
-0.295183
-0.402689
2.00977
-0.420916
-0.302839
0.396084
1.82239
0.483762
0.143118
0.00609954
-0.41622
1.65013
0.014971
0.246011
-0.339185
-0.39964
1.99802
1.51502
-0.0837854
-0.100139
-0.322678
0.896137
2.03465
-1.86772
-4.61196
-0.546947
1.31213
-0.401728
0.237212
2.18138
-0.353376
-0.377221
-0.0668224
0.149325
1.40771
-0.429185
-0.731849
2.50082
-0.435735
2.09524
-0.245591
0.125467
2.11743
0.668955
-0.757405
1.02993
0.0827882
1.99266
0.0778769
1.72051
0.699294
-0.425516
-6.632
0.843625
-0.565306
2.68872
1.45405
0.0499278
-0.020477
-0.569693
0.324021
-0.0943785
0.0988058
-0.704204
1.64499
0.0815576
0.532555
-0.564243
0.759244
-0.618844
-0.0725535
-0.327284
1.45672
-0.368453
1.52036
1.47693
-0.342011
0.34508
2.18514
-0.406057
-0.027668
-0.180907
0.0483179
0.224563
-0.162604
1.25235
1.53157
-0.8553
-0.754655
-1.60987
-0.747405
-0.18522
0.248412
1.47333
-0.433247
0.10027
1.56323
1.3917
-0.227074
-0.256152
-0.385502
0.347021
1.56336
0.20659
-0.374956
-0.460111
0.222946
0.383061
0.063612
0.511691
-0.477003
0.704218
0.141208
0.0693676
-5.30871
-0.444401
-0.258944
0.228664
-1.09295
1.2257
0.103287
1.48599
1.65665
-0.100565
0.0679961
0.0909548
1.5061
1.93911
2.69209
0.180753
0.940643
1.22578
0.289114
0.865639
1.25879
1.00966
0.0379489
2.07671
0.292851
1.4758
2.74348
0.53666
0.93488
0.0867453
-0.0873747
1.91883
0.830509
0.644105
-0.622207
0.00875639
1.00314
2.6431
-1.83324
0.103348
0.97335
0.313066
0.346076
-0.562997
1.54837
0.0207665
-5.45067
1.04906
0.137978
-0.390009
0.577598
0.138505
1.67657
1.48262
-0.31395
0.00453236
-0.251984
-8.34387
2.04205
1.06227
0.0771857
1.0244
0.241971
-0.586789
-0.0888496
1.34833
1.52494
0.0944388
-1.08338
-3.28801
1.44622
0.972595
2.37099
1.60595
-8.57567
-0.0394333
0.190807
0.908795
-8.24683
-0.26031
1.96443
-0.370588
0.662135
2.13594
2.21781
0.0593529
-0.465136
-0.583539
-7.87608
-0.75686
-8.32547
0.35674
1.35817
-0.528554
0.335422
0.192929
1.89787
-0.821317
1.07205
1.69429
0.902151
-1.19509
-0.429083
1.56558
1.52062
1.90734
-0.606958
0.782825
-7.49367
0.688892
1.52098
-0.075636
2.6538
0.974052
-0.371617
-0.269278
0.377309
1.52994
-0.673484
0.0634907
2.31344
1.35934
0.647577
0.254479
0.604391
-0.483922
2.35977
0.101527
0.835242
2.21432
-10.9317
-0.346207
-5.97435
-0.431106
0.160085
1.78241
1.79154
2.32796
-3.35051
0.0621789
-0.625222
0.95676
1.51739
-0.465153
-1.34233
1.50359
-0.570801
-0.521443
-0.841955
-1.36987
-0.135847
1.88642
0.000280025
0.0961009
-0.419397
1.43877
0.0157745
2.92248
2.17175
1.53508
1.1725
0.041148
0.00971787
2.72583
-0.0412972
0.0569441
-0.353127
1.48929
-1.89849
0.330304
1.07654
0.0468624
-0.623272
1.74073
-1.39869
-6.99223
1.00831
-0.270848
3.08572
1.02543
1.32542
1.64572
-0.547457
0.246428
2.47771
0.670508
1.94915
0.257286
0.481316
-0.336398
0.0255392
0.0380129
-3.88637
1.5515
1.47279
-0.563096
0.00168118
-0.111153
2.23825
1.78637
-0.041878
1.50243
1.10143
-0.611474
0.748788
1.34471
-6.97806
2.3318
0.0588679
0.0574419
2.43554
0.981072
-0.0102055
0.975679
-0.340212
-0.556331
0.616951
0.880783
1.66454
2.15398
-0.553959
0.601821
-0.566552
0.00715947
2.09022
0.493731
-0.616009
-0.490853
-0.118463
0.122751
1.19264
-0.328008
-1.26859
1.5068
2.05291
0.0569062
1.64107
-1.56108
-0.599424
-1.83191
0.653253
-0.629576
1.65858
0.249259
-0.8179
1.27135
1.76405
-0.67976
-0.589714
1.34151
2.09878
0.475523
2.26337
0.251131
1.02198
0.394752
1.67471
0.0703837
2.04122
-0.57935
0.331754
1.42886
-0.137639
-0.378661
1.5075
-11.3975
0.355622
1.74682
2.32615
-0.299752
0.176689
0.421954
0.219018
1.36075
1.05721
0.372856
-0.644944
0.14176
2.22462
0.309824
0.121865
-0.523459
2.34161
-0.155181
0.0807905
1.4693
1.15169
0.0238234
-0.268817
1.24881
0.289987
0.179791
0.622536
-1.38861
2.27158
1.47249
1.05105
1.10312
0.145739
-0.771993
2.56336
0.528542
2.56886
-0.372705
1.48058
0.0233094
-6.32019
0.838597
0.839139
2.69515
-0.420835
0.928899
0.903456
-1.94464
0.802909
-0.633192
-0.6611
1.469
-0.598245
-0.367658
-0.488109
-0.292416
-0.155454
1.6339
0.00803376
2.48289
1.50314
0.123991
-0.595689
-0.331136
0.53925
-0.76331
-0.388592
-3.75228
2.07874
0.00401132
0.0853455
-0.666513
2.37767
0.00349224
-0.450952
2.43043
1.34444
-0.619556
0.0598283
1.05121
0.211758
1.41616
0.0788336
-0.321578
0.621103
1.39212
0.499577
1.23011
2.46614
0.080534
-0.474412
1.51852
-0.0295134
-0.104051
1.00628
1.13175
0.665316
-0.619738
0.235243
0.0899901
0.306933
2.08712
0.503184
0.290611
0.235914
-0.0592175
-0.00932311
1.51231
0.128995
1.38347
1.42839
2.07924
-2.11182
-1.30142
2.54894
0.0381363
-0.567606
1.58507
-0.510954
1.69888
0.0673748
1.46639
-0.525451
-5.62816
-0.479573
-0.00288844
-6.02147
0.803816
2.62755
-0.13289
-1.21355
-0.409499
1.54844
-0.142898
0.689642
-0.703163
2.60505
-0.62664
0.763975
-0.50079
0.875151
1.50256
0.553744
-3.06473
-0.340008
2.40633
1.56001
0.569889
1.35638
-0.031491
1.16946
1.17341
0.896928
-5.45849
-0.0233723
1.88067
0.298171
0.0393746
1.21492
-0.553714
-0.120933
0.0484882
1.63326
1.59829
-0.443105
0.256407
-0.616587
-0.359216
0.288453
-0.137725
0.121627
1.45632
-0.0866063
-1.53928
1.74479
-0.236534
-0.243882
-0.0453316
-0.51522
-0.448817
-0.440528
0.0832701
-0.597581
1.40683
2.35798
0.0595409
-0.234816
2.43657
2.28444
-0.300574
-0.293093
1.53553
-10.2421
0.0886966
-0.134387
0.0907218
0.78871
-6.5525
0.729302
1.02646
-0.450622
-0.186764
-0.673569
-0.0784415
1.28303
0.644376
0.936107
-0.468513
1.28297
2.237
-2.15283
-0.587849
1.66977
0.409221
0.92173
0.0603789
-0.300015
-0.483292
-0.0431215
1.54873
2.57562
1.65367
0.130789
-0.0846092
1.51123
2.1781
-0.316275
1.59101
1.51516
2.28078
0.32788
0.0806124
0.293859
-0.08876
2.26951
0.265316
-0.0470574
1.02135
-0.0222421
0.427065
-0.0125061
-0.954634
1.43229
1.15185
1.05939
0.725214
-2.99548
-0.199963
-0.123734
0.797643
-1.46205
-0.835678
0.0750525
-0.614514
-0.827356
0.811295
-0.304296
-6.52776
-2.78923
-0.161073
1.06796
-0.956187
-0.505629
1.69189
-0.355171
2.3353
-0.36655
-6.59638
1.76309
2.10452
0.0832644
0.123951
0.216226
1.54717
0.7907
-1.74869
0.03212
0.0628013
-0.166673
1.47796
0.0713728
0.901735
0.0917206
1.49392
-0.71278
0.0739158
0.0391936
1.82174
-0.596777
-0.906863
-0.508889
2.31381
-0.324664
-0.468801
-1.15504
1.51886
-0.524465
0.095333
0.425507
0.681747
0.137473
1.00838
-0.323808
1.22444
1.4966
1.73063
0.705586
0.0619958
-0.15699
1.14543
-0.570764
1.79042
1.01239
0.0242508
0.0560411
-0.0452536
0.0223194
0.0640316
1.70577
0.636354
-0.0631041
1.50108
-0.754793
1.18817
2.66385
-0.0062297
-1.48771
1.04836
0.186628
0.0543249
-0.0546811
-0.410037
1.50756
0.0835365
0.0356388
0.0606893
-1.97794
1.91036
-0.615124
0.0124856
1.50686
0.193401
2.13688
1.72575
1.99808
0.432879
0.929214
0.439306
0.160693
1.08698
1.47521
-0.430429
-0.134
-3.11761
-0.249747
-0.654421
1.51151
-1.21454
-0.709581
-0.603684
-0.425286
0.0458013
1.51714
0.042735
0.0809776
-5.73784
1.52648
2.62
0.197328
-1.01886
0.846944
-0.243301
1.48999
0.127537
0.0782945
1.79929
0.0232457
2.47412
1.01305
1.5029
-0.290246
1.94613
0.092565
1.73585
0.0597622
-0.706231
-0.534428
-0.438416
0.993663
0.156494
-0.301127
2.3289
1.51355
1.62139
2.12015
1.65257
1.81802
-0.119871
1.55141
1.539
1.5579
-0.106369
-0.340255
-0.472445
-1.5145
0.304131
1.66858
-5.41548
2.36917
-1.52391
0.0810774
2.55595
2.14486
-0.138583
-0.443492
1.51407
0.780725
-0.0751436
1.39678
-5.59309
-0.49509
1.49818
2.07043
0.0726903
1.64086
1.92805
-0.000539928
-0.362359
1.93989
0.653064
0.0601064
-0.620139
0.22579
-0.903789
1.40582
1.09065
0.0843324
-0.266927
-0.332894
0.300109
0.0479406
0.423334
2.19508
0.0347451
2.858
1.5139
0.494087
1.69324
-0.620262
-4.85898
-0.519812
1.50584
0.0672961
-5.29199
-0.294552
0.76997
0.87595
0.0851056
1.01495
-8.52128
0.742208
-0.227845
0.0967835
1.2012
0.45485
1.9408
1.54114
1.57437
1.44507
-0.141156
-0.639561
-0.606903
0.224947
-0.316941
-0.182392
1.17488
-0.322719
0.0588659
0.0894129
-0.634214
-0.708224
1.06929
0.700865
0.169054
-0.348017
0.709574
-0.536433
-0.51354
0.315097
0.161887
1.63823
1.13609
1.9132
-5.95493
1.36358
0.0688299
2.09412
-0.228249
0.812621
-1.55013
-0.116597
2.43338
2.55157
1.2562
0.750147
1.03334
1.3601
2.46017
0.994353
-0.719646
-0.68262
0.374033
-1.53165
-3.3698
1.50931
1.47312
0.149004
0.280372
1.21791
1.37606
2.68649
-1.29124
1.19384
-8.28203
-0.104844
2.15237
-0.0442426
1.23333
-0.27308
0.623709
0.61431
2.81028
0.162817
-0.478471
0.786898
0.317574
-0.624309
-5.60952
-1.75302
1.66751
0.161191
0.764671
2.28283
2.10162
-0.0046063
-2.87043
0.149671
0.280678
1.7433
1.45207
2.07668
0.859601
-1.17118
2.1788
1.33763
-1.63334
1.1248
1.53945
1.87689
-0.99892
-0.40816
0.00191364
1.28316
2.39406
0.756011
-0.726072
-0.879757
2.70033
-1.69539
-0.716092
2.50066
1.31521
0.16121
1.18797
-0.466351
0.799335
-0.203697
-1.57478
0.0799735
-0.53733
0.161882
-0.148441
-10.8258
-5.56062
-2.55474
0.300417
-7.98573
-0.575538
1.33383
1.38974
0.704202
-8.97769
0.288318
0.247535
-0.154193
2.84343
0.954343
-0.532099
1.32431
-0.207188
-0.543554
1.19424
1.18062
1.47447
2.88502
0.00673155
-0.0408777
-0.577416
0.254041
0.990221
1.44176
-0.47032
2.2029
1.02711
1.59948
-0.33031
0.0339974
0.108682
1.53689
1.51455
1.58627
1.50503
2.63951
2.5696
-0.218228
1.32542
1.91032
-0.50964
2.06898
0.0496936
2.5389
2.04873
0.170383
1.7049
0.749013
1.11618
0.148376
1.52104
-0.638013
1.30431
0.508647
0.959159
-0.0570655
1.49049
0.0549393
0.301671
2.45006
2.44182
0.977164
-5.84451
0.42275
-0.0817328
-0.0426169
1.21218
2.18932
-5.88554
1.55736
1.42277
0.719878
1.52911
-0.618358
-0.266319
0.0901063
2.70125
0.385224
0.151907
1.72685
-0.0589961
0.106527
0.812504
0.370395
1.15523
0.494257
-0.2967
0.878036
1.1737
0.950114
1.08934
2.59926
2.1223
1.85142
1.97233
2.39417
0.688915
0.0412188
-0.442791
-1.80368
2.42372
-0.318099
1.49904
1.3333
-0.616181
0.753815
1.6616
-0.428921
0.735765
0.939613
2.92156
-0.556944
0.64467
0.176858
1.69591
0.190664
-0.425418
2.38108
2.02449
1.43793
1.50184
-0.235502
0.609689
-4.60755
2.56435
0.0592491
2.78925
-0.357213
-0.609875
-9.58619
0.720686
-5.28452
0.0504754
0.0379364
0.570231
0.161681
0.556421
-0.452342
0.00606662
-0.197727
-6.10349
-0.41269
-1.87958
0.17575
-0.00918514
-0.428805
-0.774753
1.51008
1.5412
1.92777
1.49989
0.579828
0.591118
3.11427
1.46293
-0.80959
0.0103969
-0.0696245
1.16218
1.31536
2.20735
-0.791509
-0.766527
1.17876
0.00329839
0.450147
1.87686
-5.84893
-0.621643
-6.08018
2.59443
-0.489865
1.04692
1.90835
-0.437709
1.16914
0.0415871
-0.610903
-0.557648
0.130776
1.01849
1.76962
1.87536
-1.69152
-5.92938
0.928764
-4.6381
-0.294063
-0.14891
0.154553
-0.190374
0.129716
-0.484698
-0.54993
-0.591122
2.29318
-0.392933
2.5163
-0.638427
-0.0448668
0.528932
-0.0672877
2.11547
1.4425
1.76474
0.189656
-0.203411
-0.679423
2.0338
-6.061
1.11655
0.0830759
1.81278
2.1139
0.0815341
1.50417
2.40925
1.63357
1.62027
-3.29327
-0.263016
0.599782
-0.486351
0.0513942
0.870117
1.01296
0.203319
-0.874627
0.416855
0.120012
1.27274
1.06519
-0.354709
2.53067
0.242766
0.00793269
0.316639
1.49152
-0.279939
0.016222
1.61848
-0.726288
0.176848
-0.173447
1.56106
1.48944
1.41274
0.123571
1.41485
1.72744
1.68103
-0.207351
0.0835391
0.360889
1.28577
-0.844827
-8.8512
-0.453112
-1.66716
-0.462363
0.0222419
0.0426479
0.0843489
-5.32623
-0.555963
-0.739789
0.124655
-0.210156
0.596305
-0.609075
1.60336
3.1209
0.522467
-0.186271
0.687277
0.210332
0.434834
0.0289644
-0.274317
-0.575178
0.247675
1.96715
0.00943278
2.36446
0.0243046
1.40727
1.20243
0.636278
-10.9564
0.790154
2.64514
-0.435805
1.50465
1.46364
2.19774
0.248481
2.01623
1.58615
-8.9811
1.69269
-0.572715
-2.09609
2.05974
1.31524
-1.76022
-0.0113851
1.93975
0.0096065
-0.393298
0.0758781
0.072944
1.15327
0.840168
1.50293
1.37636
1.29169
-3.16452
-0.414397
-0.188255
1.46719
2.7815
-0.309996
-2.06501
-10.5417
1.47342
0.235102
0.252732
0.573955
-0.441155
1.14399
-0.482883
0.214018
2.40161
0.712907
-1.14891
-0.31123
-0.533395
-0.464017
-7.96688
-0.594748
-0.624462
1.78012
0.840561
-0.441975
2.43547
0.0110968
-0.646167
-0.181736
-1.96938
1.60902
-5.40717
0.543829
1.48191
0.146149
-0.218018
-0.134913
-0.847129
-0.359621
1.6329
-0.736422
0.0532108
-5.23127
1.45946
1.61638
-0.496735
1.89364
1.74821
2.27235
2.3382
1.6529
0.338024
2.70913
-6.27036
1.43718
0.248121
-0.721443
1.81887
-0.450942
2.28803
0.73737
-1.28469
-8.07152
-7.3579
1.60961
-0.445276
-0.241637
0.22689
-1.3309
-0.997105
0.946833
0.352612
1.06768
2.59194
-5.96642
-0.552206
-0.757909
1.53287
1.1279
-0.386317
3.08163
0.0480187
0.113841
0.958605
-1.39873
1.44778
1.53013
1.71436
1.71867
-1.65729
0.780273
1.4324
0.399968
-0.528598
0.0243749
1.60368
1.68498
2.05414
-0.404287
0.199503
0.679872
0.933443
0.0940244
-0.682472
1.2473
-0.260784
1.31564
1.5516
-4.89892
2.35544
-0.402709
2.59577
1.69252
-0.690256
0.00337355
0.0724396
0.585263
1.58321
-0.630381
2.02464
1.4254
0.703463
0.0656117
0.399712
-0.346021
0.699444
-5.63677
0.881726
-0.343523
1.46649
-7.51164
0.063771
-0.17475
1.84957
2.1317
0.74477
-7.01904
0.762913
0.00342526
0.23238
0.873534
-0.427119
-0.355629
2.51516
-0.720189
-0.0757012
-0.601016
-1.5126
-0.116187
1.56894
-5.4643
-0.155161
1.5737
0.937949
1.6195
-0.581111
0.670087
2.55197
-3.02835
1.44592
0.405768
-0.405273
0.563183
0.401121
-0.956109
2.60484
1.70422
0.18398
2.5379
1.9388
1.83302
-5.21646
-8.4138
0.893925
-1.50025
-0.0801671
-1.49939
-1.40835
-1.47665
1.16957
0.613537
0.868395
0.977438
-0.446508
1.08336
1.47028
-1.45256
1.5421
0.959942
1.5054
0.00804006
0.0442277
-0.494456
-8.40238
-0.561374
-0.193417
1.45428
-0.740106
2.28194
-0.616234
1.4577
0.866729
0.0888549
0.228102
1.54269
0.694356
0.422005
1.33664
0.105576
-0.619264
2.15791
1.77338
-0.39826
-1.04839
0.104383
1.33264
0.0821143
0.572879
-1.57758
0.153192
-0.0246385
0.152843
1.30014
1.21798
-0.732469
0.683812
0.0363878
0.0502417
-0.656227
1.84993
-0.531793
1.49418
0.0183299
1.30349
1.59224
0.881892
1.38163
0.175967
-0.444238
0.104667
-5.74019
-0.463311
-0.391668
-0.0188899
-0.231555
1.20738
0.0430684
1.49156
-0.217898
-0.402997
-2.09432
0.0581276
1.56181
-0.551443
1.45573
0.443631
-0.562445
-0.314807
-0.52932
1.06371
1.59443
0.0584963
0.364376
-5.06792
1.73883
-0.0154976
0.388748
-0.622498
1.87577
0.731313
0.0392687
1.6023
1.54113
1.80868
0.356687
1.84439
-3.2327
0.122991
-0.148082
1.41839
0.983811
0.449906
0.070323
-0.665402
-0.626762
0.794206
0.173657
-0.62946
2.39962
-3.58443
1.77435
1.06304
-0.249825
0.0430097
0.161308
0.0400094
0.241511
0.324834
1.41091
0.0924053
1.50957
-2.15433
0.509537
-0.335272
0.265811
-0.683496
1.84795
2.5579
1.64036
0.776759
0.197903
0.977165
-0.70874
-0.166344
0.128743
-0.0292553
-0.420354
-0.714869
-0.663835
-0.424608
1.32007
1.44749
-1.92028
0.443736
1.69251
-0.458628
-1.51867
1.61391
0.0360676
-0.803987
0.06599
-0.139028
0.00799926
2.42387
0.12728
1.4174
-1.30477
-0.709713
-0.4467
1.45103
0.294458
1.21674
-1.22508
-0.570515
0.16721
0.259602
1.72859
1.31166
0.331475
-0.204613
-0.229749
2.66153
-0.385792
1.69126
1.84616
-0.120625
0.0285114
0.681853
-10.6041
-0.498302
1.31069
0.867331
1.44423
-0.491289
1.6356
0.249533
2.13425
0.253509
1.32942
1.88444
1.25174
0.316213
-0.623995
0.533916
-1.87997
1.25255
0.704771
1.80273
0.230357
2.26506
0.346294
2.41208
0.0614377
1.87138
-0.125191
1.11751
-1.29504
1.44362
0.706161
0.628816
2.28614
1.48753
0.379872
-0.421345
0.843705
1.42116
0.0507992
-7.40868
1.09759
0.157176
1.93851
-0.505746
2.30676
0.426967
3.15357
2.33286
1.05281
0.909893
-1.23817
0.182581
2.48409
0.226594
0.0491664
-0.00834533
2.53956
0.744298
1.27129
2.19344
-0.719404
1.62491
-0.153095
1.76847
0.0974547
1.66547
1.52544
2.05635
0.0439481
-5.17936
0.487692
-0.544187
0.676279
0.108208
0.154964
1.92003
2.1722
0.0393154
0.425622
-0.129556
1.93751
1.2308
1.36513
0.953716
-0.11599
-5.41183
-0.391647
1.54139
-2.20468
-0.280538
0.145982
1.03617
0.704378
-0.46713
2.63575
-0.267924
2.28208
0.345526
2.38402
-0.265336
0.193977
0.0928383
0.0837642
1.27699
1.47973
0.147548
-0.290982
0.0464417
-0.265338
2.15292
-0.424894
0.132983
-0.359314
-0.321365
0.397214
1.814
0.667398
0.12755
0.0683289
1.49762
2.79244
-0.54582
0.157807
1.44141
-0.200205
0.806524
0.0892167
1.01815
-0.308842
-7.22719
-0.372587
-0.269458
-0.0280974
0.20267
-1.29633
-0.406229
0.00713128
1.1819
1.60001
1.30743
2.70307
-0.899959
2.50971
-4.69502
2.33925
-0.628116
-0.766891
2.60797
0.64248
-0.30728
1.48977
0.0313009
1.61462
-0.573428
-5.03875
0.351205
-0.389918
-0.435009
0.00965388
-0.025454
0.634697
1.84221
-0.639635
0.705369
-2.05306
0.285132
-0.299719
0.0501673
-0.377631
-0.301079
-1.61473
1.99287
0.0538195
2.18044
0.588304
-0.550491
0.51665
-1.24189
0.0898258
1.30107
1.86558
2.73832
1.14874
1.26044
0.665822
-6.14051
2.63885
2.80716
1.63242
-0.73246
-0.501035
-1.84907
1.37815
0.950124
0.509568
1.23035
-0.302649
0.0590485
-1.42218
2.26976
-0.617744
0.260124
-0.430053
1.41954
0.399172
3.03637
2.83268
1.32711
0.101936
0.352529
-3.74732
0.58114
2.90925
0.111296
0.0952173
1.07408
0.0130904
0.364512
-0.0570804
-0.197619
0.381955
0.189565
0.692006
0.0543111
0.511897
2.08011
0.345028
1.58921
-0.428204
-0.258127
2.51731
-0.985437
0.0206226
0.297755
0.668588
0.224318
-0.519498
0.188625
0.139538
0.0998861
3.07504
-10.6249
-1.752
-0.494165
-1.03871
0.190537
0.288527
-0.487389
-1.36328
0.0444195
-2.37961
-1.13719
-0.489481
0.219303
0.183037
0.241119
2.9911
0.193663
0.472651
-0.0258761
0.383964
-6.08893
-0.196354
2.04905
1.51141
0.492029
-0.296493
1.4476
1.60004
-0.16823
-0.688705
0.121973
2.04009
-0.46534
1.41129
0.159826
2.28815
0.283236
-0.428792
-0.883685
1.63483
-0.347946
1.33774
-0.74745
2.86206
-0.479158
-0.18405
-0.990118
0.672474
-0.50232
-0.729943
-0.475256
0.299979
0.578532
-0.495469
-0.369594
0.000291764
0.185355
-0.366191
-1.14065
1.22078
-2.50219
1.28762
-0.472268
1.65248
2.61728
1.37819
-5.74855
1.49187
0.246674
0.0419747
-0.00312919
-0.311099
-2.21036
0.177815
-0.209429
0.562463
0.0685955
-1.13416
-0.21129
-1.24074
0.739189
1.51859
-1.66185
-0.520348
-0.406185
0.0552072
-0.278853
0.871622
-3.49713
-0.521651
1.51067
-0.235597
0.783315
-0.70387
-1.2941
-0.601577
-0.913417
3.04802
0.412659
-0.515426
0.413664
2.4691
2.52317
-0.428247
-0.15684
1.49148
0.0649878
0.176882
2.53481
0.825446
1.28552
3.08392
-0.40863
0.35284
0.28552
2.24009
1.56181
1.52721
1.87502
1.0815
0.0684696
0.111151
0.72854
0.408346
-8.92876
2.58203
-0.734844
-0.846236
0.0534586
-0.362053
0.719954
-0.421233
-0.173181
0.363057
1.5498
1.61818
1.69614
-0.776014
2.20613
2.50966
-1.63027
0.929029
0.0291727
0.084651
0.0522372
0.894319
-0.246972
-0.474945
-0.786121
2.79866
-0.596369
1.71801
1.51397
1.96493
1.09734
1.17634
-0.301269
0.0538068
0.811295
0.040723
-1.96258
-1.77362
0.175479
-0.46544
1.83698
-0.479323
0.0789437
0.342159
-5.98462
-0.449414
-6.50147
1.3455
-0.159452
0.144528
0.743159
-0.573957
0.495655
-1.95445
0.0314899
1.61713
-0.609041
2.58406
0.0502593
2.7762
0.0047014
0.132484
0.297394
1.31752
1.27012
-2.82639
-0.0200421
-0.27352
0.278206
1.03842
3.10594
1.97179
0.470486
-0.454861
0.771638
-0.676195
1.69762
-0.229607
0.898697
-0.38685
-0.448507
-5.54188
0.447451
0.0660518
-5.90153
1.01824
0.938392
2.47676
2.68495
-7.22187
-1.97401
0.112949
-1.23484
2.5827
0.276857
-0.63839
0.701238
1.10422
-0.325747
0.0256366
0.26895
0.039687
1.34276
-0.305146
0.3699
0.184563
-0.821487
-2.37737
-0.330904
-2.51237
-2.07437
1.64405
-0.427398
-0.420913
-0.152137
-0.767613
2.84456
1.06287
1.40984
-0.167534
0.751674
0.0620119
0.590507
0.504843
-0.486906
-8.72231
2.57328
1.5964
0.0625755
-7.50703
2.96041
-0.469719
-7.22325
-0.380344
0.731526
-0.505923
-0.335253
2.2282
-0.0223425
1.3686
0.643695
-0.450515
-0.200272
0.174629
0.713685
-2.79297
0.101624
0.486341
1.46841
-0.533931
-6.30897
0.195497
-0.250191
-1.47672
-1.25582
2.77748
1.00244
-0.646954
0.687712
0.453057
2.41414
0.829877
-10.1448
0.871755
1.89508
1.60822
-0.38966
1.33104
-0.296436
2.55086
0.0570171
1.53608
-0.613581
-0.371217
0.0632842
-0.408042
0.84297
0.562675
-11.1244
-0.521438
1.75907
-0.25703
0.0160208
2.08823
1.19252
2.03223
1.42045
-0.599301
0.0303085
0.138268
1.47315
0.014224
1.84594
1.12859
2.53476
-0.476533
1.97718
0.67515
2.57696
-0.446925
-0.738173
2.62883
-0.473656
1.09648
-0.673585
2.24484
2.53264
1.6276
-2.49653
1.49566
1.9287
-0.35295
0.655527
-0.394017
2.06101
-0.468535
-0.304773
-2.68576
-3.36245
1.89481
0.674929
-3.32671
0.769429
2.52803
-0.791276
-0.198896
-4.12705
-0.824516
1.22456
-0.0415111
1.4403
1.39968
-3.59802
2.85949
0.0320939
2.13935
2.11001
0.163189
0.0208202
1.31184
-1.63374
-0.0895688
1.29336
1.11125
-0.438143
1.40438
-0.408741
2.29474
1.62526
0.559498
-0.137633
1.64471
-0.284506
0.918535
1.97189
0.378224
0.0495488
1.9128
1.59204
-0.520534
-5.99315
1.1079
1.66568
2.54953
-7.96611
2.69864
2.72335
2.75002
-0.201015
1.85948
-0.626212
1.5091
1.99894
1.95601
1.65037
2.19043
3.02935
1.31215
-9.11957
0.0289914
-7.21797
3.00012
0.799941
-0.281588
-0.517157
1.40601
2.22154
1.44465
0.477487
-0.00978508
2.20273
-1.67976
1.58674
-0.516816
0.728812
0.0504565
0.368751
0.970929
-0.622657
-0.618232
-0.185098
-0.239399
-0.0250663
1.8236
-0.2613
0.299326
1.39434
-1.28086
0.874207
0.0575982
-1.25119
-0.591254
-9.91111
2.09577
2.26305
-0.465086
0.67473
1.92722
1.76942
0.0411473
-0.529674
1.63013
-9.42503
2.06423
-1.20124
2.01004
0.948397
0.281065
1.87348
0.98781
1.95836
0.518766
0.736607
-0.347361
-5.70938
-1.43476
0.069577
1.92189
-0.622535
-0.348312
-0.62652
2.16798
1.93697
0.552943
1.09839
2.16672
-1.92085
1.42023
0.139515
-0.428754
1.417
-0.420728
-0.665156
-1.14893
-7.93812
-0.181218
-0.668908
0.134993
-2.02475
-6.42675
1.22116
2.58873
2.83848
2.44994
-0.617803
1.60407
-0.641807
1.38667
2.16284
0.266619
1.88824
-0.628791
0.507254
-0.388108
0.00336256
2.05419
-1.10318
1.68602
-1.04589
-0.290392
-7.66418
1.72945
1.6739
1.50779
-0.648857
1.41097
-0.390303
-4.08757
-4.88932
0.453031
2.59324
-2.58744
-0.160355
-0.517167
1.47571
1.43814
0.0319529
0.963046
-0.796316
2.19863
2.01899
-0.338621
-0.21627
2.13916
-0.401354
-0.873421
0.100774
1.95668
2.20114
-0.612431
1.02769
-0.176748
2.54238
-2.54086
-0.367064
0.00740313
2.37466
0.0908998
-0.325638
-0.272464
2.0368
1.19034
2.0225
-0.0361172
-2.22589
1.65511
2.96143
-5.36719
1.31813
0.0626089
-3.59924
0.0639576
0.532805
-0.542727
0.998462
-0.42934
1.01068
-0.296738
-0.449356
1.85214
2.21658
1.40305
-1.51387
-0.366272
1.71782
-0.789339
0.527289
-0.457595
0.730457
-1.79267
1.6161
1.7236
0.0213251
1.61343
2.49945
-0.159798
1.18864
1.7039
-5.54559
0.935346
-0.396746
0.725297
0.487436
1.19849
0.00977107
0.486875
-0.114507
-3.51642
2.082
0.546744
-0.182744
-0.401047
-0.0792304
1.56346
-1.17076
2.73666
-0.568055
-9.65652
-0.293754
1.90724
1.68002
1.98882
-8.75553
2.40213
-0.817614
1.14395
0.266395
-1.52014
1.39413
0.669585
-0.155709
1.00883
-6.29237
1.26085
-6.11038
-0.419018
0.019514
-1.13509
-1.29033
1.31635
2.47014
0.174965
-0.633659
1.91331
-1.51457
2.23884
0.605437
0.131544
0.846475
1.51386
0.774013
-0.273605
0.257753
0.0850306
0.407136
0.572596
-1.46385
-0.505822
0.111489
0.824046
-0.214145
3.02721
1.59991
1.48849
2.25977
0.288457
1.6766
-0.626002
-7.00228
-0.454463
1.5075
2.94125
1.39607
-0.856514
2.08608
1.3836
1.40812
0.140966
0.020079
0.780099
2.74822
0.217781
-0.456327
2.10503
2.12842
1.55904
1.4813
1.81519
1.05128
-0.416724
-0.535806
1.63409
-5.01548
-5.93407
1.4936
-0.482537
-0.171103
0.423169
1.60591
1.66637
1.6958
-0.108003
1.98617
2.03283
0.137708
1.7814
1.55778
1.31973
1.13925
0.96432
0.753659
0.0279192
1.90525
1.76639
-1.64466
1.34237
-0.122383
0.0827038
2.449
1.83893
0.0152313
-0.629837
-0.335707
1.89287
1.04399
0.317883
0.0546066
0.306978
-0.288987
0.366211
-0.573304
-0.0983679
1.05656
-0.135449
-0.914356
-0.699697
2.3053
-0.529579
-4.87743
-0.570033
2.48268
-0.251873
0.27641
0.337888
-3.02878
1.18118
1.41212
0.912959
2.17294
1.19544
0.114666
-9.5732
-0.621077
0.0461409
1.73849
-2.57569
-0.610425
-2.80029
-0.219646
-5.53289
-0.55339
-1.92993
-0.089187
0.601167
1.47939
1.93238
-0.189533
0.104099
2.18252
1.66505
-0.616803
-0.224218
-8.03644
0.901632
0.265245
0.819839
1.27161
-0.267943
-0.249788
-0.265118
0.430971
-0.733484
-10.8653
0.241661
-0.531866
-9.21938
-2.94738
-0.602451
0.219672
-6.54355
0.752145
-0.592103
1.48353
1.3319
0.33068
1.92994
-0.648721
2.47994
-0.37529
0.169861
-1.12882
1.48736
0.899546
-5.91693
-6.9706
1.53094
1.81035
2.57584
-0.638999
-10.1105
-0.607265
-0.0452917
0.0109261
-0.620429
0.488403
-1.52609
0.865432
-0.628303
1.10187
0.164284
0.00185743
2.25083
1.31693
-1.15752
0.0647747
-1.40785
-9.78991
1.9451
2.83768
-5.31682
1.81645
1.4298
0.00559425
-0.481389
1.88007
1.80462
-2.0334
-0.245149
-0.472198
-0.646136
-1.08764
-0.997363
-1.04062
0.990795
-0.00876864
1.6508
-0.679226
-2.87523
1.40775
-1.01976
-2.81396
0.141882
1.1441
-3.47531
-0.523505
-3.19294
-0.557373
-2.26075
2.61453
-7.52591
-0.154175
-0.662325
1.63099
-7.16613
-0.222288
-1.56031
-0.974828
-0.3751
1.68493
0.0222052
-0.611243
1.30436
0.0243926
-0.32418
-1.42412
-0.815493
1.0378
1.21418
1.51626
-6.44727
2.2266
-0.253322
0.00727541
0.166157
-2.4723
-0.558683
-0.715379
-0.676908
0.260398
0.680636
0.140063
-0.259159
-0.731871
1.38808
-0.841658
1.5847
-1.14276
0.973472
-0.169548
-0.248727
-0.800049
3.03657
-0.497595
-4.20274
-3.81312
-0.590989
1.50989
0.12058
-1.08946
0.0831204
-2.81384
-0.632035
-6.15689
-0.893086
1.61374
-1.6504
0.311559
-3.33295
0.0608436
1.29315
0.153314
0.633712
-0.339646
1.95111
-7.08048
-0.450115
2.09163
0.577268
-6.75402
-0.252078
-1.21923
-0.66505
-0.280644
1.90932
-0.444783
0.656939
-8.94707
-1.18491
-1.28213
-1.55399
-6.1401
0.833879
-0.154661
1.49543
0.58386
-0.92287
-0.0283027
-0.593209
1.84576
2.20778
-3.57778
0.103399
1.59804
1.49343
1.14126
-0.561634
-0.920999
-0.995471
1.50603
0.487609
-0.627505
-1.40705
0.825774
1.77933
-0.195747
-0.541488
0.133276
2.06724
-1.42609
-1.59911
0.0776525
1.30131
0.105473
-0.512994
2.24098
1.85851
0.125238
-0.607484
1.88476
0.770395
-0.0374529
1.35227
-0.245304
-0.736275
-1.12888
-0.611467
1.82252
1.57689
-0.0187999
-0.465963
-0.0779104
-0.196943
1.62191
-0.60496
1.08525
1.96597
2.10682
-0.282061
1.5139
1.29811
1.64049
1.74241
-0.125673
1.75485
0.0132167
1.50579
0.830846
1.62565
-0.621361
1.87597
1.7877
1.35115
0.991292
-0.406428
1.03796
0.125158
-0.516742
2.01226
2.02181
-0.515239
1.83792
-0.610972
-5.09068
1.61101
1.62216
-1.33371
0.0108521
-9.4608
-0.576285
-1.35956
-0.441944
-1.28292
-0.345616
1.35868
2.7525
1.87029
-0.209072
-0.400686
1.57684
0.831948
-0.329813
-0.716312
-0.354966
-1.64101
-5.60968
-5.60027
1.43405
0.104645
0.807899
0.0544119
0.0491475
-0.346776
0.0403601
0.292683
0.740547
1.02816
-0.361343
0.628678
-1.82793
-0.771623
1.03157
0.852322
0.00459215
0.191747
0.99968
0.0450988
0.602128
-0.406987
1.48945
1.23921
2.37461
1.50973
-0.547152
-0.316578
-0.448343
-0.329605
0.0622189
0.0838492
-0.0520338
-0.51736
2.81197
0.194404
-0.252382
2.20318
-0.531254
-0.921964
-0.391299
-0.621814
-9.98715
0.380404
-1.14302
1.43802
-0.101011
-0.507949
-1.02476
-0.317825
-0.694975
-0.283328
0.203293
1.18315
-0.486603
-0.462085
-1.24587
0.578445
-0.667359
1.62035
2.26057
-0.320014
1.64634
0.834992
1.11518
2.50933
-0.557272
0.929996
0.767041
0.733535
2.13329
-0.433531
-0.048384
-0.277294
1.59205
2.25713
-0.418563
0.0944327
-0.637568
-0.56454
0.799788
-0.435988
-1.52105
-0.356618
0.614256
-9.22292
0.403063
0.440806
1.32186
0.360192
-8.35096
0.18568
0.0718028
-0.114042
2.41315
2.72206
2.00143
2.91406
1.3308
1.09957
1.66957
1.43853
1.37168
-0.511704
1.53186
-0.276096
-5.93653
2.21258
-0.11289
-0.713087
2.61185
0.110569
-0.666606
0.833904
0.734114
1.82624
-3.29729
1.39584
2.41742
-0.544013
-5.09789
-1.42103
1.04623
-0.605548
1.91283
-0.026715
1.83195
1.50784
-0.482394
1.74658
-0.451673
-9.72188
-9.19327
-0.499553