/*--------------------------------*- C++ -*----------------------------------*\
| =========                 |                                                 |
| \\      /  F ield         | OpenFOAM: The Open Source CFD Toolbox           |
|  \\    /   O peration     | Version:  2306                                  |
|   \\  /    A nd           | Website:  www.openfoam.com                      |
|    \\/     M anipulation  |                                                 |
\*---------------------------------------------------------------------------*/
FoamFile
{
    version     2.0;
    format      ascii;
    arch        "LSB;label=32;scalar=64";
    class       volVectorField;
    location    "2.2";
    object      U;
}
// * * * * * * * * * * * * * * * * * * * * * * * * * * * * * * * * * * * * * //

dimensions      [0 1 -1 0 0 0 0];

internalField   nonuniform List<vector> 
13486
(
(1.49805 -0.282529 5.45741e-19)
(1.69734 0.231098 2.5558e-19)
(2.13567 -0.00439258 0)
(0.869724 -0.459577 -1.50391e-19)
(2.39231 -0.548439 1.67091e-19)
(2.33909 0.0676586 7.73233e-21)
(2.62048 -0.45668 2.0665e-21)
(2.04715 -0.754675 -2.80687e-19)
(1.9697 -0.421403 0)
(2.05464 0.611868 0)
(1.41419 -1.16392 -1.68528e-19)
(2.35603 0.0758878 0)
(1.37439 -0.480719 -5.39668e-19)
(2.47518 0.506751 3.86244e-20)
(2.52383 -0.358442 8.8976e-20)
(2.01467 0.610954 -1.47077e-19)
(-1.67601 0.486111 6.9698e-19)
(0.752153 -0.855245 -4.42241e-19)
(2.28401 0.02919 2.599e-21)
(1.655 -0.104745 -5.53126e-19)
(1.44987 -0.799925 -5.6112e-20)
(1.3919 -0.493119 6.96774e-19)
(1.72175 0.224702 -2.04247e-19)
(2.03697 -0.49688 0)
(2.08535 0.48814 4.79162e-20)
(2.03452 -0.460649 -4.91435e-20)
(0.49411 -0.373044 1.19231e-19)
(2.15197 -0.0446774 1.78593e-19)
(2.00722 0.0135606 0)
(2.00314 -0.167377 -9.27332e-20)
(1.42561 -0.740881 -3.85737e-20)
(2.65386 -0.13334 -9.8341e-20)
(2.32379 -0.341213 1.69831e-19)
(1.9666 -0.0393881 0)
(2.0558 -0.728911 0)
(1.93542 -0.0104201 6.65029e-22)
(2.00228 0.0288253 2.91898e-20)
(1.55482 -0.733055 2.74478e-19)
(1.9472 0.0561358 4.00602e-21)
(1.9795 -0.265695 2.78035e-19)
(2.49366 -0.843892 0)
(0.922456 -0.462134 -6.25648e-19)
(2.04923 0.0358019 0)
(2.09099 0.412092 -2.32309e-19)
(2.1158 0.399249 9.55862e-20)
(2.35284 0.0676813 9.25727e-20)
(2.58199 -2.27391 2.58217e-18)
(2.01988 0.00136864 -2.82965e-21)
(2.0001 0.0277697 -2.23611e-20)
(2.35447 -0.0558833 1.02261e-19)
(1.9922 0.00675525 3.15919e-19)
(1.94728 0.0317544 0)
(2.43988 0.209001 -1.12677e-19)
(1.70185 -0.647216 -4.01731e-19)
(0.991863 -0.554278 0)
(2.36497 -0.554906 -1.13848e-19)
(2.0353 0.0347501 -1.82492e-20)
(1.94081 0.0339802 1.16333e-20)
(2.33598 -0.333356 1.97691e-19)
(2.00044 0.0390257 0)
(1.50324 -1.0162 -1.64341e-19)
(2.01721 0.0410038 0)
(2.97755 -0.705238 -3.53043e-19)
(1.45131 -0.803038 -6.73926e-22)
(1.66197 -0.51977 0)
(1.99686 0.0230677 1.55714e-20)
(0.915203 -0.474166 -1.48011e-19)
(1.47704 -0.0107715 1.84519e-19)
(1.97308 -0.444713 -1.59072e-19)
(1.95712 -0.00203787 -8.41843e-21)
(0.711868 -0.35668 1.69734e-19)
(0.808754 -0.579128 -1.68662e-20)
(1.98035 -0.141992 2.06858e-19)
(-0.097768 1.42245 -7.89147e-19)
(2.00688 0.0628017 3.4825e-21)
(2.02332 0.0374332 4.09846e-21)
(2.0122 0.0440858 -1.20287e-20)
(2.529 -0.383886 -3.6551e-20)
(1.97705 -2.47933 -9.08642e-19)
(1.76275 0.0410695 0)
(1.98359 -0.00697568 2.08431e-21)
(1.66098 0.320005 -1.62338e-20)
(2.94456 -0.923555 -4.07293e-20)
(2.12321 0.0272509 -1.74489e-20)
(1.48951 -0.294767 -1.06875e-18)
(1.4696 1.50093 0)
(1.9242 0.235951 3.44182e-20)
(1.98362 0.0499753 -4.73959e-19)
(1.89456 0.19947 -2.06829e-19)
(1.94104 0.852024 -1.55763e-19)
(2.73489 0.0626565 -3.42961e-20)
(2.16972 -0.651148 -1.46478e-19)
(1.55868 -0.372608 1.40766e-19)
(1.69143 0.036826 1.43494e-20)
(1.89848 -0.614074 6.42798e-20)
(2.00988 0.0105272 3.32927e-22)
(0.656679 -0.464239 0)
(1.39233 -0.719992 7.4871e-20)
(1.99726 -0.263816 -5.30976e-19)
(-1.37969 -0.147104 7.68058e-20)
(2.06366 0.0255195 0)
(2.43649 0.510132 1.0786e-20)
(1.46272 -0.747859 3.02407e-22)
(1.93451 0.0336542 -1.39369e-20)
(1.42692 1.43975 0)
(-1.34163 -0.240698 7.05818e-20)
(1.96996 0.0788207 1.06482e-21)
(1.93154 0.0677853 9.64209e-21)
(2.29974 -2.44533 1.48007e-18)
(1.8606 -0.846137 0)
(1.32524 -0.636104 0)
(2.74729 -0.304846 -7.44904e-20)
(1.70793 -0.629028 2.95693e-21)
(2.04246 0.0319977 1.33194e-21)
(1.16146 -0.123803 0)
(1.2657 -0.626293 -2.39526e-19)
(2.08141 0.498554 0)
(2.02499 -0.0293862 0)
(1.96817 -0.147036 0)
(1.9975 0.0219501 1.38537e-20)
(0.623246 -0.803965 2.53498e-19)
(1.45689 -1.01297 0)
(1.86785 -0.559106 0)
(1.92572 0.0516269 -1.25165e-20)
(1.94669 -0.705402 0)
(1.93764 0.0187228 0)
(2.21993 -0.273578 6.04979e-21)
(2.15982 0.0746218 9.4658e-20)
(1.94412 -0.0129327 -1.34404e-20)
(1.6557 -0.457005 -3.06188e-20)
(1.94683 0.0201233 1.42189e-21)
(2.68758 -2.27554 -6.33856e-19)
(2.45557 0.510979 1.33531e-18)
(-0.0945566 -0.292344 1.20711e-18)
(2.01873 0.0103407 -5.13542e-20)
(1.93488 0.363033 -2.27673e-19)
(0.766643 0.622467 -1.57226e-19)
(1.88296 -0.842316 0)
(1.99848 0.0210917 -4.20816e-21)
(2.06464 -0.613614 -1.01265e-19)
(2.37858 -0.203572 -1.95875e-19)
(2.47871 0.214498 9.39434e-20)
(2.54537 0.0100492 0)
(1.7785 0.0395312 0)
(2.04229 0.0125405 5.97968e-21)
(2.42619 -0.886987 -3.72327e-19)
(2.1195 0.211634 -2.75866e-20)
(0.393777 1.47038 0)
(2.36842 -0.089405 0)
(2.03502 -0.00503942 0)
(2.02001 0.0267013 4.68356e-21)
(2.51757 -0.463 0)
(2.04642 -0.0045526 -2.18795e-21)
(1.64523 0.315212 -1.37957e-19)
(2.19439 0.252404 0)
(2.13665 0.0261125 0)
(1.66435 -0.76199 0)
(0.748181 -0.529805 -1.35224e-20)
(1.80412 -0.736381 5.71341e-19)
(2.02682 0.084149 4.55497e-20)
(2.34174 -0.0375331 6.28025e-20)
(1.81086 -0.716591 -8.67918e-19)
(3.0407 -0.014762 -5.31139e-20)
(0.819052 -0.394309 2.7493e-19)
(1.929 0.0257935 0)
(2.57338 0.453817 -8.40214e-20)
(2.38889 0.473892 -1.92289e-20)
(0.560461 -0.202008 -6.74456e-19)
(2.12043 0.209819 7.11658e-20)
(-0.0357002 -0.251173 3.33231e-19)
(2.79067 0.270628 1.22354e-19)
(2.18683 0.234373 7.48633e-20)
(1.99759 0.0590336 -3.78115e-19)
(2.37336 -0.185096 9.004e-21)
(2.02864 0.00837918 -3.93033e-22)
(1.60411 -0.751607 0)
(2.53063 0.800078 1.25911e-19)
(2.46341 -0.289389 2.83597e-19)
(1.98761 0.0593008 -5.19363e-19)
(2.5269 0.0379894 0)
(2.02884 -0.317986 5.60465e-19)
(2.0433 0.0227584 2.69273e-21)
(2.44863 -0.118249 -4.21181e-21)
(0.702786 -0.33655 0)
(2.16791 0.0927648 4.3816e-20)
(2.15364 -0.0461582 -8.18655e-20)
(2.02515 0.00786013 1.63681e-22)
(2.03902 -0.0973362 -2.97954e-20)
(2.52039 -0.82237 0)
(1.13286 -0.547587 -3.08023e-19)
(2.00044 0.0234029 0)
(2.08495 0.016338 0)
(1.91557 0.0356023 0)
(1.38727 0.722601 -2.89855e-19)
(1.90358 0.0337721 0)
(1.34239 -1.1634 -4.01207e-20)
(1.65255 -0.48234 6.95353e-20)
(2.32316 -0.0209274 3.63356e-20)
(1.14425 -0.566441 -1.19293e-19)
(2.54091 0.430148 -3.93986e-20)
(1.43899 -0.728698 4.10407e-20)
(2.16496 0.0800441 -2.81117e-21)
(1.42778 -0.690987 -3.17309e-19)
(1.75589 -0.76558 4.03493e-20)
(2.02888 0.0908529 -5.49382e-20)
(1.91565 0.0259277 1.25803e-21)
(1.25371 -0.74842 -9.12331e-20)
(1.90711 -0.0742627 4.21408e-19)
(1.92376 0.0414291 0)
(2.16484 0.0798246 0)
(2.10015 -0.0562706 1.12472e-19)
(1.90406 -0.434922 7.14605e-20)
(1.67163 -0.0894377 5.06238e-19)
(1.94193 0.0685659 1.35432e-21)
(2.35316 0.0968594 -8.91042e-21)
(1.79033 -0.113687 5.93962e-21)
(2.0341 -0.162883 0)
(1.93953 0.844792 4.09668e-19)
(1.6385 -0.393715 0)
(3.04562 0.0865441 0)
(-1.63089 0.226342 -1.37478e-18)
(2.39533 -0.0823651 0)
(2.04711 -0.607892 2.35149e-19)
(2.38382 -0.0273893 0)
(2.39008 0.302744 -1.92737e-20)
(1.33809 -0.634953 1.93945e-19)
(2.45905 0.138493 -4.24686e-21)
(1.52025 -0.706422 2.32182e-20)
(1.83524 -0.0483514 1.81537e-21)
(1.92707 0.21861 -1.60622e-21)
(2.03988 -0.309512 -1.8005e-19)
(1.3753 -0.212592 1.14801e-19)
(2.36496 -0.245198 2.46993e-19)
(0.955337 -0.469216 2.14232e-19)
(1.52655 -0.785112 0)
(1.11426 -0.544002 2.29542e-20)
(2.00843 -0.0405859 4.88013e-20)
(2.09738 0.0159604 -9.2885e-21)
(0.971006 -0.471343 6.20412e-19)
(2.39985 -0.0677449 0)
(2.29271 -0.370843 0)
(2.01281 0.0767599 5.78377e-19)
(2.04259 0.0163817 0)
(0.975191 -0.4863 2.07218e-19)
(1.9378 0.0831227 1.32787e-20)
(1.81427 0.0432693 0)
(2.30317 -0.0213435 -3.9032e-20)
(2.02032 -0.32798 1.66801e-19)
(-0.103778 0.384105 2.19116e-18)
(2.04623 0.401994 0)
(1.55383 -0.766794 -3.56551e-20)
(1.12793 -0.0952515 7.91509e-20)
(1.06487 -0.522251 3.02825e-19)
(1.92778 0.0581022 0)
(1.81851 -0.0102258 1.57077e-21)
(1.61471 -0.765547 1.9586e-20)
(2.66043 -0.113682 7.20833e-20)
(1.76498 -0.119381 -7.50842e-21)
(0.680596 -0.478598 1.42418e-20)
(2.25608 -0.363257 1.1786e-19)
(1.80456 0.201573 0)
(1.94336 0.074066 -5.07019e-22)
(2.52959 -0.364379 -2.09634e-19)
(1.61594 -0.759944 -2.4443e-20)
(2.28895 -0.761768 -1.70945e-19)
(0.860202 -0.40114 0)
(1.8473 -0.0491207 -1.37476e-20)
(1.45306 -0.754004 -5.75242e-20)
(2.03632 -0.030045 -2.43772e-19)
(1.35783 1.01457 0)
(1.62139 0.790833 2.00476e-19)
(1.99248 0.0746947 -1.40202e-19)
(2.05311 -0.170277 0)
(2.36386 0.143148 7.45699e-20)
(1.2573 -0.608696 2.57104e-19)
(2.0262 -0.30577 -9.30973e-20)
(1.8402 -0.00164855 0)
(1.36913 -0.363947 0)
(1.91651 0.0683522 9.05126e-21)
(2.13565 0.240206 5.3205e-20)
(1.38873 -0.36145 3.72363e-20)
(2.13413 -0.209188 -2.04055e-19)
(1.92574 0.0882877 3.06354e-19)
(2.10714 -0.695377 -1.11359e-19)
(1.42216 -0.943088 1.7807e-19)
(-0.346119 -0.588997 5.37893e-19)
(2.42907 -0.210884 2.36592e-19)
(1.91713 -0.0110224 1.76283e-20)
(2.36171 0.289968 3.18212e-20)
(2.02321 -0.0164087 0)
(1.51389 -0.787361 0)
(1.97711 0.0714451 -1.84478e-20)
(1.30173 -0.628294 2.35324e-19)
(2.0055 0.0279784 -5.05686e-20)
(1.98783 -0.0579396 4.42378e-20)
(2.02252 -0.0963474 0)
(2.11423 -0.0118345 -8.29865e-20)
(2.32362 0.123347 -6.34509e-20)
(1.93816 0.0658156 -2.81174e-19)
(2.60982 -0.573008 4.86005e-20)
(3.00071 -0.100122 5.51687e-20)
(1.16127 -0.761658 -1.24682e-20)
(2.13565 0.222203 -4.5765e-20)
(2.63074 -0.146269 9.26267e-20)
(1.99139 0.0228676 -5.0154e-21)
(1.43975 -0.661219 0)
(0.465938 -0.0705789 0)
(2.32894 -0.0439539 7.67093e-20)
(1.90134 0.213594 -2.72978e-20)
(1.99213 0.0244973 0)
(2.58316 1.55916 -2.01964e-18)
(0.732985 -0.385989 0)
(2.42777 0.807092 -2.74689e-20)
(2.73561 -0.285136 -6.93664e-20)
(1.913 -1.06368 0)
(1.92085 0.351913 -1.39386e-19)
(1.99501 0.074747 2.74414e-20)
(1.89663 0.178526 -1.76786e-20)
(1.89826 -0.0753115 -4.63307e-19)
(1.85985 -0.0610102 0)
(1.99664 0.0265285 -2.78896e-20)
(1.97906 0.0761221 6.00281e-22)
(2.00576 0.0624801 6.55481e-20)
(1.67246 0.0840866 -2.68146e-19)
(0.859304 0.591401 2.89757e-19)
(2.72265 0.01628 5.62466e-20)
(2.29484 -0.388774 -5.59261e-19)
(2.15132 -0.210289 0)
(2.23713 0.139488 8.86954e-22)
(2.33098 -0.395544 -1.0037e-19)
(2.00345 0.0409781 6.86097e-19)
(2.19736 -0.654568 0)
(2.81051 0.0967812 3.04282e-22)
(1.51948 0.300228 0)
(2.63625 -0.480403 -1.54046e-19)
(1.96019 -0.574666 -1.75277e-19)
(0.767793 -0.368072 2.56135e-19)
(2.49322 -0.478731 -1.43042e-19)
(2.00172 0.163422 0)
(1.94461 0.0792672 2.36546e-20)
(1.85664 -0.0686831 1.68002e-20)
(1.68286 0.0914468 2.53211e-19)
(2.34979 -0.400938 3.95033e-19)
(2.44623 -0.123996 1.8047e-19)
(1.53448 -0.726124 -1.12975e-19)
(2.03519 0.00756283 9.66612e-22)
(2.25917 -0.186049 0)
(1.12611 -0.430807 6.18474e-19)
(3.03362 0.0573494 0)
(1.98273 0.0715166 -6.62832e-22)
(2.25108 -0.0943724 3.32638e-19)
(2.27914 0.158614 -6.93742e-20)
(2.35041 0.136794 6.09146e-20)
(0.759125 -0.448202 -1.18468e-19)
(1.94648 0.0643846 3.51905e-19)
(2.05265 0.0179197 0)
(-0.0877109 1.237 -6.41993e-19)
(2.23385 -0.278437 -1.1903e-19)
(1.90121 0.196343 1.4444e-20)
(1.90271 -0.406626 6.70131e-20)
(2.34198 0.0101749 0)
(2.71201 0.14423 3.3298e-20)
(1.81141 0.130762 5.38527e-19)
(1.96462 0.0860174 4.2543e-19)
(2.01651 -0.182827 0)
(2.03699 0.000221312 -2.47051e-22)
(2.00419 -0.0658152 -4.58349e-20)
(3.09046 -1.85618 4.83053e-19)
(1.63657 -0.101929 7.02521e-20)
(2.23458 -0.230577 1.13146e-19)
(1.99258 -0.00522452 -4.75903e-21)
(2.26043 -0.181505 0)
(2.34314 0.29678 -7.57684e-20)
(1.56565 -0.761654 3.5334e-20)
(2.37852 0.23002 2.25955e-20)
(1.98992 0.0217567 2.64549e-19)
(1.37305 0.0332645 0)
(1.96879 0.0795416 3.22572e-20)
(1.95639 -1.0235 0)
(3.53907 0.462735 -3.39395e-19)
(2.01702 -0.0198476 0)
(2.19026 -0.742427 -5.76764e-21)
(1.40407 -0.187519 -1.50581e-19)
(1.60651 0.725109 4.82973e-19)
(3.03511 -1.92803 -1.60687e-18)
(1.84913 -0.0135802 0)
(2.25937 0.0743659 -5.4295e-20)
(2.01231 0.188572 -1.47049e-19)
(-2.25082 1.37126 -9.15985e-19)
(1.3925 -0.785493 6.39602e-21)
(1.69546 -0.104003 -7.63901e-19)
(2.07773 -0.165642 4.9824e-20)
(2.08438 0.178469 1.00781e-19)
(1.53832 -0.508624 0)
(1.44508 0.227265 2.89266e-19)
(1.99721 0.031675 1.36466e-20)
(0.817963 -0.427556 8.70825e-20)
(1.55262 -0.758117 -1.22487e-19)
(-2.5136 1.24799 -1.56405e-18)
(2.43166 -0.217972 0)
(-2.60099 1.46769 0)
(2.12437 0.983676 0)
(2.07047 -0.0897375 0)
(0.709604 -0.210716 -6.45911e-20)
(2.63081 -0.450841 0)
(2.01295 0.363084 0)
(1.70671 0.0551511 1.04393e-19)
(2.44131 -0.285662 -2.93073e-19)
(2.24886 -0.182586 -2.72801e-19)
(1.73804 0.26994 8.65116e-19)
(1.99605 0.0234279 -7.70318e-20)
(2.53643 1.49117 0)
(2.14454 -0.167265 0)
(1.92638 0.0636515 3.01036e-19)
(2.04334 0.0574071 5.27962e-20)
(1.40337 0.76642 0)
(0.662146 -0.330169 1.17592e-19)
(2.27089 -0.776284 1.92442e-19)
(2.66286 0.388966 0)
(2.39816 -0.0700048 1.8057e-19)
(1.99552 0.0736226 -3.48087e-19)
(1.3583 -0.542535 2.03694e-20)
(1.11949 -0.415073 0)
(2.02144 0.209508 2.77013e-19)
(2.4351 0.0407145 0)
(2.01432 -0.0984149 0)
(2.19522 0.148126 -1.25345e-20)
(1.92814 0.0914745 1.60296e-19)
(0.485972 -0.4286 -1.54821e-19)
(2.34547 0.476501 8.69611e-21)
(1.42816 -0.407182 -2.67285e-19)
(2.09872 -0.0570222 3.57734e-20)
(2.10384 0.177575 7.81172e-20)
(2.31579 0.296512 2.04906e-19)
(2.36491 -0.756279 0)
(2.07761 -0.325233 9.29404e-20)
(1.41101 -0.12475 0)
(1.9772 0.0787069 -1.77459e-20)
(2.35173 -0.189767 0)
(1.49992 0.00766485 3.90205e-19)
(0.671365 -1.0985 -2.86077e-18)
(2.06137 -0.155961 0)
(-0.478018 -0.178202 5.48723e-20)
(2.13344 -0.177751 -1.19638e-19)
(1.97583 0.166266 4.5006e-20)
(1.81549 -0.304531 7.29838e-19)
(1.50385 0.701836 -3.09701e-19)
(1.41748 -0.395489 -7.59892e-19)
(3.5124 0.390077 0)
(1.9991 0.0277713 -1.36379e-20)
(1.55184 -0.740144 -2.68263e-19)
(1.98968 0.205515 0)
(1.87676 0.200455 1.92467e-20)
(2.3498 -0.0680384 -2.14456e-20)
(2.8362 0.734135 0)
(2.00703 0.021756 0)
(0.626522 -0.314736 0)
(1.60786 -0.746489 8.32807e-20)
(2.061 -0.715267 1.33366e-19)
(2.41699 -0.811693 9.94146e-21)
(2.385 0.772616 0)
(1.75264 -0.213662 4.95769e-19)
(2.02909 0.00480455 -5.82352e-22)
(2.33294 0.428829 -1.11719e-20)
(1.33311 -0.733921 1.24145e-19)
(1.89782 0.180262 0)
(2.02172 0.0129038 0)
(0.862574 -0.188544 -4.23023e-19)
(1.51409 -0.501024 -1.86722e-19)
(1.97566 -0.207497 0)
(1.36784 -0.663864 -2.24103e-19)
(2.07229 0.0166687 4.7601e-21)
(2.01792 0.00238513 -9.76621e-22)
(0.86434 -0.413622 0)
(1.91157 0.00423277 6.82815e-21)
(1.99658 0.0169589 -1.20323e-20)
(2.42742 0.0301071 7.46102e-20)
(1.94965 -0.594976 0)
(-0.421645 -0.767307 -8.41477e-19)
(2.30407 0.150675 6.92216e-20)
(2.00895 0.0748668 5.99503e-20)
(1.98554 0.00591081 -7.81482e-21)
(2.60902 0.407393 0)
(1.70635 0.266701 -2.30426e-19)
(2.81863 -0.0984723 -1.85393e-19)
(-2.30432 0.973828 2.41639e-19)
(1.9821 0.0658776 0)
(1.40321 -0.782461 -6.50245e-21)
(0.611506 -0.172838 0)
(2.00637 0.0460101 -2.31298e-19)
(2.00401 0.0689162 1.04031e-19)
(1.88583 0.0299893 -5.86979e-20)
(1.60959 -0.757367 0)
(2.15387 0.0401889 -2.90793e-20)
(1.1949 0.360618 7.98502e-19)
(2.33683 -0.751362 0)
(1.67609 0.0378389 3.26304e-19)
(2.58648 -0.585767 -5.52799e-20)
(2.12808 -0.0190878 0)
(1.46584 -0.749407 2.71151e-20)
(1.78418 0.0529172 5.98157e-21)
(2.05734 0.0343797 0)
(-0.909149 -0.791557 1.13116e-18)
(1.86605 0.18997 0)
(1.78272 -0.816077 2.31598e-19)
(1.57116 -0.771601 6.91062e-20)
(2.02411 0.00825528 -6.16636e-23)
(2.34533 0.0904857 -2.87734e-20)
(1.43523 0.208574 1.5348e-19)
(1.81387 -0.33464 -2.69328e-19)
(1.86295 -0.00857733 -4.79387e-21)
(1.82244 -0.823691 2.4871e-21)
(2.21079 -0.237224 1.10157e-19)
(2.60393 0.41117 1.73196e-19)
(1.93053 -0.860962 0)
(2.00349 0.0461079 -2.34553e-19)
(2.44063 0.642871 -7.33061e-19)
(1.43271 -0.136243 0)
(2.00872 0.0363853 4.42287e-21)
(1.95412 0.0220606 0)
(1.32503 -0.427831 6.56154e-19)
(2.1595 -0.806614 0)
(2.04546 0.000623164 -1.56262e-21)
(2.28974 -0.0951659 -1.88925e-19)
(1.47425 -0.72555 4.79274e-20)
(0.728421 -0.366745 1.20686e-19)
(2.32521 0.019488 -1.64874e-21)
(1.39853 -0.664313 1.95502e-19)
(1.85375 -0.553812 2.5781e-19)
(1.55339 -0.380648 0)
(0.719998 -0.350546 -6.85482e-20)
(2.38887 -0.695546 -4.01626e-20)
(0.7959 -0.368107 -8.08039e-20)
(2.02076 0.00115065 1.44792e-21)
(1.54045 -0.621486 0)
(2.10506 -0.00211288 -1.19102e-21)
(0.766078 -0.355147 0)
(1.50303 -0.767551 -1.35301e-22)
(1.34801 -0.580367 -2.16148e-20)
(0.432557 -0.319325 0)
(2.1198 -0.56881 7.49956e-20)
(1.64877 -0.51267 0)
(2.83059 0.65949 0)
(1.55366 -0.735073 -3.05468e-19)
(1.54391 0.270565 2.33098e-19)
(1.65299 0.0996687 0)
(1.82481 0.150301 -1.4689e-19)
(2.48287 -0.894194 4.37839e-19)
(1.58758 -0.766594 1.60455e-19)
(2.9367 1.05462 0)
(2.12675 -0.0353976 0)
(1.53244 -0.753481 -1.16512e-19)
(1.9053 -0.142641 0)
(2.15439 0.0278885 0)
(1.52224 -0.985693 -4.54225e-21)
(2.11213 -0.420476 -3.62219e-19)
(1.80936 -0.463477 2.23161e-19)
(2.22208 -0.390305 1.65211e-20)
(0.655695 -0.307071 1.51101e-19)
(1.98222 0.042824 1.20053e-19)
(1.59327 -0.409085 0)
(2.17764 0.379737 -3.441e-20)
(1.48348 -0.264506 0)
(2.1247 -0.00401665 0)
(1.99442 0.126022 0)
(2.20044 0.144463 -1.03174e-20)
(1.90102 -0.0799616 2.1517e-19)
(2.03852 0.0127202 -7.77754e-21)
(1.63422 -0.414461 0)
(0.605258 -0.378489 -9.92109e-20)
(2.14822 0.93001 3.31746e-20)
(1.94535 -0.719018 2.43401e-20)
(1.96277 0.01059 -2.46574e-20)
(2.00637 -0.291538 1.47819e-19)
(2.01593 0.0411638 -2.00369e-19)
(0.479858 -0.614449 0)
(2.34375 0.133601 0)
(1.52465 0.729944 0)
(1.31091 -0.603006 -4.70978e-19)
(1.48914 -0.599386 -4.78835e-20)
(0.440291 -0.186635 0)
(2.19391 0.380837 0)
(2.45368 0.311142 5.86916e-20)
(2.05502 -0.0186179 -5.664e-20)
(1.95969 0.523439 2.2341e-19)
(1.74841 -0.755198 0)
(1.1117 -0.860097 -4.38094e-20)
(2.2775 0.0537429 1.91578e-20)
(1.48414 -0.467301 -4.46802e-19)
(2.21637 0.0541042 -5.71122e-20)
(2.32581 0.430679 4.50205e-20)
(1.85848 -0.579996 5.91365e-20)
(1.31038 -0.607331 8.22364e-19)
(1.69588 -0.24743 3.53931e-20)
(2.0517 0.0255544 2.96443e-21)
(2.00477 0.00633401 -6.02357e-20)
(1.24121 -0.582972 -7.06946e-20)
(1.8006 0.055027 -3.30148e-21)
(1.76111 1.91381 2.03445e-20)
(1.38593 -0.663233 1.15594e-19)
(2.19049 0.130846 0)
(1.9734 0.258761 -9.67591e-21)
(2.15735 -0.0541551 -1.98786e-19)
(2.87716 0.281096 1.22586e-19)
(1.45584 -0.435394 -4.07469e-19)
(1.92924 -0.692139 -2.65175e-19)
(2.07398 0.0194943 5.443e-19)
(2.35783 -0.0371662 -3.10629e-19)
(2.1392 0.536155 -3.57215e-20)
(2.46171 -0.218409 -1.20092e-19)
(1.24285 -0.227921 -8.92417e-19)
(2.09164 -0.00443342 -1.56987e-19)
(1.23111 -0.296566 0)
(1.51101 -0.708795 -9.97254e-20)
(1.97821 0.0172204 5.09623e-19)
(1.8611 -0.00871414 -2.2912e-21)
(-0.181727 1.80501 0)
(1.63363 -0.751258 0)
(2.04561 0.371591 1.94457e-19)
(1.11884 -0.223628 5.55511e-19)
(1.68464 -0.614832 -8.02764e-20)
(2.21269 -0.73715 -1.26456e-19)
(2.31117 -0.402904 3.04846e-19)
(3.05877 0.00438726 0)
(2.06103 0.403318 1.0278e-19)
(1.05631 -0.87042 8.65113e-21)
(2.58329 0.779665 1.40372e-19)
(2.00272 -0.288207 -3.19856e-19)
(0.807532 -0.377922 -2.46694e-19)
(2.00652 -0.272781 -1.44955e-19)
(2.0617 -0.332668 4.90129e-20)
(2.37814 0.996662 0)
(1.8981 -0.0850363 -1.69414e-20)
(1.88217 0.0302566 5.40497e-20)
(2.01769 0.00183824 1.86143e-21)
(0.856408 -0.418687 7.54344e-19)
(1.98425 -0.286261 4.78864e-19)
(2.02516 0.0816987 -2.13327e-20)
(1.56341 -0.757411 -9.59547e-20)
(2.02648 -0.0705722 -5.62093e-20)
(2.15046 0.0128671 1.40497e-19)
(1.39417 -0.967735 -2.28332e-20)
(2.48658 0.762513 -1.42185e-19)
(-0.995391 -0.642844 -1.2279e-18)
(1.00602 -0.492976 -2.49455e-19)
(2.01738 0.00153854 0)
(2.03602 0.0407027 -1.30505e-20)
(1.56603 -0.825872 -5.85016e-20)
(1.39516 -0.213674 8.10736e-19)
(2.04379 -0.0037105 0)
(3.08169 0.152569 -1.04588e-19)
(1.28009 -0.553293 1.86543e-19)
(1.99547 0.0334058 -5.13745e-19)
(1.14531 -0.553575 -1.14198e-19)
(1.66396 0.105918 4.29353e-21)
(2.23778 -0.191675 1.85301e-19)
(2.24329 0.0439842 7.92015e-20)
(1.80324 -0.825544 -3.20385e-19)
(2.05031 0.0192668 1.10299e-20)
(1.52586 -0.604044 -1.12463e-19)
(2.12262 -0.0303901 1.86481e-19)
(2.05733 -0.0560142 -1.55623e-19)
(2.16411 0.0822227 -4.90774e-21)
(2.17127 -0.0236181 -3.36213e-19)
(1.21735 -0.558241 -3.60291e-19)
(2.04338 0.0128078 0)
(1.57449 -0.745436 6.5695e-20)
(2.02371 0.0575753 3.89223e-20)
(1.30298 -0.421156 1.07451e-20)
(2.29201 -0.0125064 -1.32469e-20)
(2.25383 -0.425106 -1.88064e-19)
(2.00269 0.018135 -3.94437e-19)
(2.11547 0.276644 5.76501e-20)
(0.591476 -0.289044 -1.20797e-19)
(2.18146 0.0287701 0)
(1.9648 0.0796708 -1.6121e-20)
(2.26525 0.171982 7.1014e-20)
(1.54692 -0.606588 0)
(2.17523 0.0553148 1.08559e-19)
(2.21009 0.138623 8.72459e-20)
(2.14978 0.0363894 8.15654e-24)
(2.53252 -0.838449 1.1647e-20)
(1.9126 0.0198224 0)
(1.81205 0.310335 4.1383e-19)
(2.03172 0.0608302 2.4464e-20)
(1.35702 -0.655201 2.56601e-19)
(2.03967 -0.205346 0)
(1.53336 0.231292 -6.7438e-19)
(0.761105 -0.281932 4.17133e-19)
(2.68989 1.2382 -3.60215e-19)
(1.25362 -0.251975 8.66683e-19)
(2.06041 -0.0163732 1.27892e-20)
(0.768959 -0.388716 9.64623e-20)
(1.93925 -0.1233 -3.36111e-19)
(2.10966 -0.313786 -1.3885e-19)
(1.80218 0.124249 -3.10801e-19)
(2.04065 0.00966493 0)
(1.99744 0.0296058 -2.28469e-19)
(0.10979 -0.15016 3.01983e-19)
(-0.55341 0.428081 0)
(1.96014 -0.459105 0)
(2.03025 0.0010953 0)
(-2.07459 0.694445 0)
(2.08655 0.291157 0)
(1.18571 -0.220742 0)
(1.80568 -0.138779 -1.85108e-21)
(2.34952 -0.749617 -1.85117e-19)
(2.47075 0.136707 0)
(1.79729 0.305497 6.24714e-19)
(1.23472 0.680749 -8.15129e-20)
(2.07379 0.175002 5.79233e-21)
(1.54978 -0.863903 -3.21087e-20)
(1.19431 0.0118719 -2.23642e-21)
(0.744839 -0.361677 1.03624e-19)
(2.04251 0.00957479 -1.19835e-19)
(2.3378 -0.0719891 1.40712e-20)
(2.06607 0.287143 -1.37435e-19)
(1.89272 0.180452 -4.14074e-19)
(2.07662 0.865721 -1.27167e-19)
(3.40695 0.445027 0)
(1.42725 -0.811762 2.11867e-20)
(1.34453 -0.440358 -7.19236e-19)
(2.00161 0.03482 -7.0906e-19)
(2.40052 -0.703538 -2.18761e-19)
(2.07615 -0.040631 5.34919e-20)
(2.72847 -0.656139 -1.14498e-20)
(2.17859 -0.327153 -4.12381e-20)
(2.13443 -0.555813 -2.59809e-19)
(2.00704 0.161198 1.53096e-19)
(3.0264 1.49828 0)
(1.86082 0.00779487 -3.05599e-21)
(1.71995 0.0346419 -9.59198e-20)
(2.67145 -0.431428 0)
(1.9152 0.0540188 0)
(1.86144 -0.851792 -3.43178e-21)
(1.00818 -0.508801 1.01353e-19)
(1.79065 -0.135602 -3.4775e-20)
(1.95239 0.02964 0)
(1.9084 -0.0775788 -4.41311e-19)
(1.83592 0.198335 -8.0328e-20)
(1.55341 -0.746317 3.97762e-20)
(2.19336 0.0823838 4.4229e-20)
(0.729634 -0.354758 0)
(1.42454 -0.809218 2.51575e-20)
(2.22707 0.124522 0)
(1.87863 -0.0805868 1.59142e-20)
(2.729 0.137911 -3.28387e-20)
(2.00827 0.0214453 -4.01918e-22)
(2.40582 0.484211 3.56875e-20)
(2.87148 0.921971 -3.98316e-20)
(1.80835 -0.534364 5.35688e-19)
(1.37286 -0.714102 0)
(1.60694 -0.44818 -6.44656e-20)
(1.30652 -0.00310329 0)
(2.50105 0.0981115 -4.1118e-20)
(1.55165 -0.755126 8.34997e-20)
(1.94909 -0.445008 8.98151e-20)
(1.95419 0.0736035 1.50023e-20)
(1.61617 -0.780116 -1.27159e-19)
(1.16512 -0.572102 -2.96377e-19)
(1.38559 -0.444439 -4.16283e-19)
(2.00459 0.0268805 -4.75077e-21)
(1.60751 -0.429043 5.29754e-20)
(1.26085 -0.573803 2.96401e-19)
(1.44026 -0.465356 4.573e-19)
(1.47979 -0.602695 6.32301e-20)
(1.68666 -0.447633 -3.35084e-20)
(1.91555 -0.615128 2.65028e-19)
(2.51757 -1.46528 2.11791e-18)
(2.04837 0.00393265 6.77278e-21)
(1.16068 0.546301 5.71622e-20)
(2.3279 0.287648 -2.06449e-20)
(2.33747 -0.579641 0)
(-2.24347 0.870717 -2.50803e-18)
(2.10964 -0.0774894 -2.42329e-19)
(2.01435 0.121853 0)
(2.48555 0.103923 0)
(1.44078 -0.402329 -4.60683e-20)
(2.16865 -0.449805 -1.46424e-19)
(2.34734 0.115637 2.84666e-20)
(2.10636 -0.409719 4.74718e-19)
(2.05053 0.828044 1.20644e-19)
(1.653 0.00969508 3.39349e-19)
(1.56435 -0.755145 -3.75664e-22)
(1.84321 0.550737 0)
(1.46991 -0.493728 4.37955e-19)
(1.59754 -1.95619 1.10737e-19)
(1.617 -0.772273 9.63723e-20)
(1.80125 -0.701491 8.81432e-20)
(1.54265 -0.696794 -4.73395e-20)
(2.01473 0.0426975 1.67416e-19)
(1.9435 0.0622225 -5.6109e-21)
(2.00804 -0.15203 9.97353e-20)
(1.57226 -0.75877 -5.71383e-20)
(2.3398 0.119344 -1.88836e-20)
(1.93382 0.0660025 1.75729e-19)
(1.22539 -0.284327 -3.56235e-19)
(1.91219 -0.118037 2.74378e-19)
(2.09621 0.580573 0)
(2.38065 0.219325 -2.77488e-20)
(1.99683 0.0633549 3.91844e-20)
(1.53924 -0.351071 -1.40377e-19)
(2.01335 1.68814 7.15856e-20)
(1.88516 -0.602575 1.97663e-19)
(2.00559 -0.00614749 7.62661e-20)
(1.44053 0.0740782 -5.27831e-19)
(2.62824 -0.42011 0)
(1.95733 0.0656073 2.60105e-20)
(2.20967 0.0587031 7.76454e-20)
(1.91106 -0.0144177 0)
(1.46271 -0.020065 3.01852e-19)
(2.1889 0.0919054 0)
(1.89232 1.70981 1.64166e-20)
(2.35505 0.00519001 0)
(1.85625 -0.00412501 0)
(2.3464 0.0546076 4.81939e-20)
(2.31725 0.0933248 2.70506e-21)
(2.58353 -0.136206 -2.47407e-19)
(1.89995 0.176344 -1.88417e-19)
(1.68623 1.0656 -1.20494e-19)
(1.99677 0.0923771 -7.2229e-20)
(2.09204 0.298417 0)
(2.69035 -1.66932 -1.07859e-19)
(2.36464 0.0483707 4.39257e-20)
(1.87767 -0.0637903 -3.22133e-20)
(2.33575 -0.572759 0)
(2.90102 0.268243 1.85368e-19)
(2.36095 1.52015 2.16653e-20)
(2.03002 0.0095588 2.84097e-20)
(1.73426 -0.762195 0)
(1.565 -0.982885 1.25627e-19)
(2.06197 0.130493 0)
(2.02839 -0.125413 -5.06205e-20)
(0.0936561 0.124744 0)
(2.89697 -1.20655 0)
(1.68997 -0.269974 0)
(2.11643 -0.800971 0)
(1.20428 -1.23345 -2.95974e-20)
(1.60419 -0.737976 -1.82804e-20)
(1.89017 -0.0664929 -3.22868e-19)
(1.48722 -0.732789 -5.8302e-20)
(1.34183 -0.597551 0)
(1.52009 -0.693073 -3.92858e-20)
(-0.474304 1.02774 -2.16789e-18)
(1.57364 -0.74126 0)
(1.54501 -0.569397 -4.67153e-19)
(1.98244 0.0411114 4.42091e-21)
(2.31911 0.285769 4.39609e-20)
(2.50546 -0.843646 3.88228e-20)
(1.86044 0.165691 0)
(2.2846 -0.734115 0)
(2.84441 -0.429593 1.37265e-19)
(1.82034 0.0574609 -1.05645e-21)
(1.99163 0.0254751 1.0387e-20)
(1.42235 -0.383493 3.16655e-21)
(1.9955 0.0186126 1.69392e-20)
(2.06567 0.00666968 -7.07269e-22)
(2.00094 0.150909 2.21563e-19)
(1.96967 0.0686825 -1.51883e-20)
(1.95388 -0.552672 0)
(0.529892 -0.647931 0)
(2.0515 0.0203318 0)
(1.99375 0.0248973 0)
(1.78873 -0.357357 1.97889e-19)
(2.35201 -0.150051 0)
(1.42561 -1.11456 3.01236e-19)
(1.81292 -0.594105 -4.33241e-21)
(1.41115 -0.482329 -6.8703e-19)
(1.15294 0.820393 6.09381e-20)
(1.58227 -0.733361 -3.67313e-20)
(1.52783 -1.29899 -1.86181e-19)
(1.96202 0.010785 6.05899e-20)
(1.59175 -0.765932 -5.60667e-20)
(1.97502 0.065929 -2.47622e-20)
(2.30349 0.048006 0)
(2.44316 -0.368199 0)
(1.76925 0.446259 0)
(2.24608 -0.441019 9.92721e-20)
(1.67855 -0.492212 0)
(1.8788 0.551508 0)
(1.998 0.0167867 0)
(1.82825 -0.466464 2.08146e-19)
(2.07597 0.180998 -2.02283e-19)
(1.96146 0.0169959 0)
(1.83122 -0.159099 -3.74822e-20)
(1.983 0.163113 -2.18263e-19)
(2.56744 0.685637 -2.91914e-19)
(1.6152 -0.756002 2.77269e-19)
(1.96164 0.585247 1.65886e-23)
(1.74526 0.0324726 5.41608e-22)
(1.90862 0.0635418 -8.93466e-21)
(1.84056 -0.0261326 -6.5408e-21)
(2.30457 0.109844 -4.16836e-22)
(1.99593 0.0259053 2.29791e-20)
(1.82724 0.046107 -3.0447e-19)
(2.14528 -0.0447705 0)
(1.3797 -0.497094 -7.47099e-21)
(1.96164 0.0776082 3.14999e-19)
(0.92035 -0.813984 2.05153e-19)
(2.16484 -0.307674 -1.20516e-19)
(1.14737 -0.244544 -6.06004e-19)
(2.31752 0.073635 -5.40512e-22)
(2.85258 -0.0867494 2.6683e-19)
(1.99296 0.0304754 0)
(2.02147 0.303083 -2.4502e-20)
(1.95584 0.0277369 4.43699e-21)
(1.83418 -0.0380985 1.9452e-20)
(1.39617 -0.769786 -1.42372e-19)
(2.01105 0.0093162 1.65699e-19)
(2.04707 0.0261257 -3.37394e-21)
(2.05553 -0.00130672 -8.86407e-21)
(2.05209 0.0184551 0)
(2.11739 1.09163 0)
(1.42779 -0.686642 3.39354e-19)
(1.01086 -0.491891 1.22458e-19)
(2.00907 -0.00770927 1.27939e-21)
(1.96076 0.0778032 6.30068e-19)
(2.00338 0.313444 7.4873e-20)
(1.50341 0.212208 0)
(1.81348 0.0775678 0)
(1.65997 -0.397245 -2.98806e-21)
(2.28326 0.0535151 7.47852e-20)
(2.00741 0.555067 2.92201e-19)
(2.51143 0.0158863 0)
(2.04933 0.0112834 0)
(2.16476 -0.629122 3.53806e-19)
(2.00908 -0.18938 2.5829e-19)
(0.215734 -0.0782849 -2.92605e-20)
(1.89435 0.0139029 0)
(3.0286 -1.2609 1.92367e-19)
(1.87385 -0.249921 -1.7591e-20)
(1.57282 -0.809675 -7.79955e-20)
(1.98988 -0.0422475 -3.53062e-19)
(2.39064 -0.704026 0)
(2.18699 -0.472173 1.15826e-19)
(1.75445 -0.738001 -1.07933e-19)
(0.0738711 0.0188105 0)
(2.00957 0.0115406 2.08729e-20)
(1.91787 0.120766 -2.0457e-19)
(1.97338 -0.00148315 2.17081e-23)
(2.79099 0.037098 1.01158e-20)
(2.16609 1.69613 6.45109e-19)
(1.90177 0.0161554 0)
(1.14071 -0.451706 -4.22531e-21)
(2.01925 0.344408 -6.86127e-20)
(1.94043 -0.979951 -2.42418e-19)
(2.0835 0.281145 1.63117e-19)
(1.30935 -0.71046 5.63121e-20)
(1.94664 0.012088 -7.77627e-19)
(2.0285 0.0896107 1.20109e-20)
(1.9263 0.0796065 -1.4605e-20)
(1.79235 -0.42737 0)
(1.93092 -0.0020313 8.06256e-21)
(1.18344 -0.558365 2.36658e-19)
(2.24838 -0.0900292 -3.67233e-19)
(2.01238 0.0654597 -2.85349e-19)
(2.0096 -0.131875 4.6138e-20)
(1.71137 -0.199653 7.26503e-19)
(2.05411 -0.0133505 -8.37423e-21)
(1.80266 0.0748995 1.77078e-19)
(2.00464 0.0308496 1.52724e-20)
(2.24113 -0.39508 -1.91784e-19)
(2.53613 0.809608 -2.16949e-19)
(1.70063 -0.622722 6.28402e-20)
(2.02953 0.00204355 0)
(1.84706 0.322118 0)
(1.14356 -0.179583 0)
(1.40785 -0.449812 5.31817e-19)
(2.14276 0.0628722 -4.59435e-19)
(1.81362 0.217329 0)
(1.5834 -0.36331 -4.16785e-19)
(1.80708 0.186742 0)
(1.7903 -0.331515 -3.25243e-19)
(1.8653 -0.0803158 -3.35527e-20)
(1.92699 -0.522976 -2.91817e-19)
(1.96132 0.0441554 0)
(1.93789 0.0566076 0)
(1.92405 -0.0220596 1.95829e-20)
(2.45736 0.120399 4.23603e-21)
(2.27003 -0.0702724 9.45008e-20)
(2.57847 1.61175 -1.15021e-20)
(2.63255 0.00128837 0)