/*--------------------------------*- C++ -*----------------------------------*\
| =========                 |                                                 |
| \\      /  F ield         | OpenFOAM: The Open Source CFD Toolbox           |
|  \\    /   O peration     | Version:  2306                                  |
|   \\  /    A nd           | Website:  www.openfoam.com                      |
|    \\/     M anipulation  |                                                 |
\*---------------------------------------------------------------------------*/
FoamFile
{
    version     2.0;
    format      ascii;
    arch        "LSB;label=32;scalar=64";
    class       surfaceScalarField;
    location    "5.9";
    object      phi;
}
// * * * * * * * * * * * * * * * * * * * * * * * * * * * * * * * * * * * * * //

dimensions      [0 3 -1 0 0 0 0];

oriented        oriented;

internalField   nonuniform List<scalar> 
20045
(
0.245264
-0.26359
0.0183259
-0.531039
0.186494
0.344544
0.191843
0.961207
-1.15305
0.00352273
0.0135923
-0.017115
-0.421459
0.409733
0.0117256
-0.300033
1.12466
-0.824629
-0.508726
0.220735
0.287991
0.0336128
0.215635
-0.249248
0.238717
0.205641
-0.444357
-0.420438
-0.0486474
0.469086
-0.092058
-0.210022
0.30208
1.13611
-0.544143
-0.59197
0.175308
-0.177658
0.00234995
-0.644203
0.552459
0.0917439
-0.16372
0.531971
-0.368251
-0.546228
0.12579
-0.00841704
-0.0331769
0.0415939
0.373158
-0.294856
-0.0783021
-0.843105
1.23764
-0.394531
-0.37505
0.0286016
0.346449
0.0268836
-0.0551736
0.02829
0.0586421
0.116666
-0.0624649
-0.468574
0.352587
0.561924
-0.91451
0.412681
0.108476
-0.521157
-0.584365
0.936952
-0.121912
0.141363
-0.0194508
-0.645588
1.22549
-0.579905
0.870611
0.127908
-0.998519
-1.19702
0.656586
0.540434
-0.148817
-0.0164079
0.165225
0.71822
-0.506841
-0.211379
-0.397779
0.827589
-0.42981
1.17852
-0.687559
-0.490961
-0.277873
0.311486
1.05997
-0.517965
-0.542008
0.725478
0.0702208
-0.795698
-0.0297654
0.183862
-0.154097
-0.945829
0.410251
0.535579
0.293568
0.261508
-0.555076
0.0249057
0.197776
-0.222682
0.0634594
-0.091226
0.0277666
1.07154
-1.07247
0.000927956
0.74756
-0.279137
-0.468423
0.348579
0.398981
0.51504
0.621073
-0.145588
0.224697
-0.0791088
0.638206
0.274767
-0.912973
0.882156
-0.156678
0.0725301
0.969397
-1.04193
0.650015
-1.09999
0.449976
0.879327
-0.640208
-0.239118
-0.601032
-0.424379
1.02541
-0.0456758
-0.149839
0.195515
0.386943
-0.119023
-0.26792
-0.347172
-0.0742869
-0.042177
0.809468
-0.767291
0.772738
0.0632057
-0.835944
0.525221
-0.923
1.01502
-0.630351
-0.38467
-0.0391493
-0.174786
0.213935
0.463702
0.551319
0.257868
-0.880291
0.622423
0.0724867
-0.0456031
0.57099
-0.0852647
-0.485725
0.826648
0.063239
-0.889887
0.0271137
-0.0273614
0.000247705
-0.333445
0.0799567
0.253488
0.423178
-0.184462
0.857063
-0.871623
0.0145605
0.036698
-0.00958439
-0.0279254
0.414869
-0.125718
-0.522916
0.648634
0.0457634
-0.134316
0.0885522
0.916853
-0.210658
-0.706195
0.683061
-0.725238
0.0270725
0.88978
0.217199
-0.380918
-0.0555221
-0.247761
0.303283
0.187796
-0.605548
0.417752
0.52208
0.601052
-1.12313
0.450789
-0.347048
-0.103741
0.727214
-0.469347
-1.3021
0.242385
1.05972
0.013221
0.232043
-0.276206
0.311182
-0.0349762
0.253345
-0.648484
0.395138
-0.803857
0.0359623
0.767895
0.519121
0.0740081
-0.593129
-0.425944
0.393739
0.0322045
-0.721935
-0.103122
0.825057
0.362712
-0.0640503
-0.298662
0.199417
-0.281576
0.0821582
-0.0788411
-0.406779
0.48562
0.29266
-0.312141
0.0194808
0.754857
0.19017
-0.945027
-0.166039
0.0441268
-0.0752197
0.0852358
-0.0100161
0.606049
-0.312481
0.000334648
-0.0464647
0.0461301
0.716023
0.34395
-0.232872
-0.411331
-0.00365803
-0.0715617
-0.154418
0.927157
-0.00301064
-0.273195
0.0443735
-0.0440389
0.230311
0.602054
-0.832364
0.532999
-0.867349
0.334349
-0.20111
-0.207184
0.18072
0.0264634
-0.0982484
0.125371
-0.0271222
0.622481
-0.455166
-0.167315
-0.245715
0.200039
0.649654
-1.11387
0.464216
-0.0809196
0.155075
-0.074155
0.0226619
-0.121874
0.0992118
0.582888
-0.170206
0.852934
0.325586
-0.585156
0.459438
0.691032
-0.96389
0.272858
0.257948
0.115209
-0.249858
0.210709
-0.385905
0.312385
0.0735197
-0.41283
0.0486259
-0.291609
0.242983
0.622997
0.25633
0.556097
-0.713983
0.157886
0.814881
0.0917784
-0.90666
-0.98826
0.745226
0.243033
-0.0493378
-0.504843
0.554181
0.927719
-0.304722
0.11238
0.112317
0.123763
-0.0785313
-0.0452314
-0.0622218
0.0455013
0.0167205
0.569192
0.402598
-0.97179
0.59841
-0.580084
-0.0183266
-0.175088
0.107892
0.0671953
-0.148617
-0.0585672
1.08646
-0.395433
-0.323991
0.345107
-0.0211155
0.643636
-1.12936
0.485729
0.172387
-0.773419
0.566801
0.226519
-0.79332
0.674154
-0.486358
0.967783
-0.132446
-0.835337
0.526225
-0.993118
0.466893
1.09179
-0.684912
-0.406879
-0.126854
0.236149
-0.109294
-0.00582292
1.06526
-1.05944
1.07721
-0.206603
-0.826336
0.0272684
0.799068
-0.475897
0.415606
0.0602914
1.01034
-0.488261
0.171951
0.278838
-0.635475
0.781166
-0.14569
-0.813047
1.00489
0.010575
-0.151717
0.141142
0.0210718
-0.0281522
0.00708037
-0.0169465
-0.185482
0.202429
1.12592
-0.396167
-0.729754
1.35452
-0.672436
-0.682081
-0.220181
0.203235
0.360542
-0.673494
0.312952
0.0746712
-0.0112118
-0.794627
-0.476975
0.691146
-0.21417
-0.676361
0.493923
0.182438
-0.0129388
-0.0203482
0.033287
0.515264
0.576527
-0.0342224
-0.0279994
0.0210928
0.10267
-0.71156
0.0760843
-0.732185
0.932355
-0.20017
-0.657442
0.756805
-0.0993635
-0.595399
-0.429444
1.02484
-0.379688
0.22734
0.152348
0.457097
-0.476589
0.0194921
0.926949
0.0721133
-0.999062
0.0160285
-0.758954
0.742926
-0.362449
0.92925
0.191
-0.541427
0.350427
-0.450573
1.10023
-0.831107
0.542908
0.288199
0.235911
-0.26983
0.0339187
0.480136
-1.26274
0.782602
-0.971127
0.325539
-0.613744
-0.419397
1.12315
-0.678676
-0.444471
-0.266137
0.291042
0.122699
-0.129675
0.00697632
-0.770456
-0.147695
0.918151
-0.858968
1.20438
-0.345411
0.904578
-0.660476
-0.244103
0.0873438
-0.252761
0.165417
-0.270224
-0.462918
0.733142
0.229118
-0.321176
-0.492502
0.443164
-0.685249
-0.226852
0.912101
0.0883423
0.0243528
-0.112695
0.135126
-0.612101
0.0180509
-0.166868
0.873196
-0.0583142
-0.138282
0.108516
-0.128871
0.157131
-0.0282594
0.179901
0.946021
-0.784159
0.513934
0.230677
0.00935423
-0.240031
-0.700183
0.132395
0.567787
0.290517
0.614061
1.32047
-0.840329
0.749281
-1.27763
0.528353
0.217302
-0.873609
0.656307
0.0281025
-0.403153
-0.485334
0.715645
0.661798
-0.961831
0.356861
-0.762631
0.405771
-1.30223
0.741647
0.560586
-0.0151997
-0.410744
0.179037
0.134229
-0.313266
0.723677
-0.225808
-0.497869
-0.0548818
-0.736846
0.731023
-0.251924
-0.0720674
0.669268
1.08493
-0.871033
-0.213901
-0.0103494
-0.125146
0.135495
0.678644
0.115234
-0.793878
0.260782
-0.165676
-0.095106
-0.178664
0.697582
-0.518919
-0.459861
0.713207
0.564098
-0.373098
-0.0541916
0.153119
-0.0989271
0.951066
-0.30743
0.0877816
-0.00806427
-0.0797174
0.100082
-0.120205
0.0201222
-0.10232
0.106191
-0.00387036
1.10522
-0.701725
-0.403499
0.240561
-1.09953
-0.111768
0.00944765
-0.875092
0.285867
0.589225
1.22814
-0.400548
0.249233
-0.981418
1.30408
-0.584439
-0.719641
-0.0116081
0.0999503
0.794566
-0.39472
-0.399845
-0.612203
0.142291
0.469912
-0.945511
0.948678
-0.00316682
0.31479
-0.91823
0.60344
0.0302271
-0.0542221
0.023995
-0.467518
0.632952
-0.165434
-0.156696
0.26127
-0.104573
-0.14059
0.0596708
-0.114033
0.0157845
-0.551529
-0.315819
0.416542
-0.79926
0.382718
0.312485
0.0429345
-0.35542
0.40874
0.30948
0.688794
-0.331934
0.00487559
0.0161962
0.702453
0.525684
-0.489621
0.0105083
0.479113
0.298607
0.495958
0.38089
0.15108
0.0356563
0.276829
-0.283396
-0.0204968
0.303893
-0.0374913
0.273403
-0.738531
0.559868
-0.16325
0.122745
0.0405052
-0.926738
0.889077
0.0376612
-0.343537
0.557139
-0.213602
-0.221535
-0.104903
0.326438
0.765111
-0.828541
0.0634299
-0.79228
-0.509953
1.29639
-0.824864
-0.471529
-0.0917067
0.0813573
1.01194
-0.697152
-0.406473
0.823015
-0.184437
-0.169976
0.354413
0.820302
-0.181327
-0.638975
1.16864
-0.32752
-0.841117
-0.394633
0.210196
0.829141
-0.490201
-0.338941
-0.158108
0.781748
-0.623641
0.673467
-1.05767
0.384207
0.290746
-0.011252
-0.279494
0.1157
-0.0512906
-0.0644096
1.2612
-1.02528
-0.235914
-0.521146
-0.467114
0.722721
0.362213
-0.844407
-0.0823311
0.0730705
0.0270119
0.0755434
-0.639469
0.563926
0.00398762
0.118711
-0.540261
1.10945
0.42687
0.678355
1.22013
-0.743
-0.47713
-0.768443
0.541591
0.727911
-1.21379
0.48588
-0.627453
-0.0371762
0.664629
-0.231726
-0.174554
0.40628
0.559863
-0.199321
0.0145319
0.216145
0.483725
-0.0280928
-0.478748
-0.697161
0.941751
-0.24459
-0.147921
0.0190501
-0.060746
0.00655438
0.116496
-1.06201
0.323705
-0.783567
0.1117
-0.199825
0.276809
-0.0769844
0.00636857
-0.00284584
-0.509531
0.378843
0.130688
0.35075
0.271731
0.182413
0.335496
-0.517909
0.493758
0.104652
-0.581373
0.656916
0.571696
-0.0525747
-0.20258
-0.497603
1.02235
-0.787719
-0.234631
0.896869
-0.771631
0.223753
0.547878
0.798963
-0.863662
0.064699
-0.432858
0.354017
-0.109946
-0.0651415
-0.120249
-0.601685
0.283188
-0.540435
0.257247
0.417282
0.41186
0.712541
-1.14473
0.432188
0.224489
-0.534097
0.309608
-0.972101
0.168244
0.0102942
0.352418
-0.575833
0.86894
-0.293107
-0.255699
0.303015
-0.0473161
-0.403432
-0.105294
-0.125489
-0.223255
0.348744
0.0790121
0.000936619
-0.0799487
-0.328737
-0.14716
0.377657
0.445129
-0.822786
0.733527
-0.43492
0.283819
-0.450032
0.0171738
0.460937
-0.236448
-0.664867
-0.16624
0.209122
-0.319
0.109878
0.977879
-0.339672
-0.455833
0.747838
-0.292005
-0.112253
0.129613
-0.0173605
0.742884
-0.0192072
-0.148295
-0.491174
-0.502175
0.924076
-0.421901
0.638176
-1.14202
0.503846
0.592605
0.703788
0.148838
-0.186701
0.0378621
0.0868508
-0.714304
0.673741
-1.01853
0.344785
0.0935129
-0.0477495
-0.0752133
0.631311
-0.354701
0.678406
-0.635527
0.85283
0.190132
-1.03324
-0.882392
0.483518
0.398874
0.63507
-0.0976712
-0.537399
0.934277
-0.169165
-0.455374
-0.533261
-0.474995
0.518406
-0.10292
0.13693
-0.0340093
0.315755
-0.287153
-0.714133
0.63892
0.847721
0.22382
-0.784888
0.329055
1.07369
-0.350967
-0.0558815
0.242282
-0.1864
0.0146362
-0.626321
0.611685
-0.902614
0.170338
0.732276
0.725927
-0.725927
-0.233744
0.708423
-0.47468
0.573047
-0.390635
0.683658
-0.391068
-0.29259
-0.952192
0.98834
-0.0361478
0.335656
-0.0454539
-0.290202
0.255178
-0.108332
-0.146846
0.105456
-0.326991
0.00945984
0.455063
-0.861536
-0.857678
1.01339
-0.155709
-0.282934
0.660591
0.113478
-0.00467911
-0.108799
-0.104194
0.112448
-0.00825384
-0.375953
0.404055
1.16172
-0.943352
-0.218368
-0.0835498
-0.527683
0.611233
-0.225219
0.245735
-0.020516
0.117431
-0.272846
0.155415
-1.01416
0.393627
0.620532
-0.000727355
0.0143196
-0.194319
0.138437
0.0317509
-0.0982191
0.0664682
0.569536
0.691659
0.0846299
0.0288485
-0.0473964
-0.292601
0.339997
-0.507283
0.802191
-0.294908
-0.00502493
0.0756788
-0.0706539
0.430513
-0.209778
0.741318
-0.242749
-0.498569
0.00722948
-0.414008
0.100112
0.826837
0.426061
0.299699
-0.72576
0.459381
-0.410435
-0.0489464
-1.01266
0.186326
-0.428945
0.179434
0.249511
0.462525
0.599124
-1.06165
-0.62547
0.588294
0.0448382
-0.913439
0.8686
-0.121932
0.209276
0.233728
-0.275714
0.0419857
0.0210604
-0.304456
0.0133163
-0.000240745
-0.0130756
-0.6722
-0.202892
0.618082
0.0796869
0.0212589
-0.100946
-0.116142
0.00388908
0.171219
-0.710327
0.539107
0.229124
0.545523
-0.774648
0.380146
-0.715088
0.870916
-0.155828
-0.716055
0.557947
0.103116
0.0382472
-0.395974
-0.280387
-0.249248
0.0660726
0.183175
-0.871846
0.364563
0.669489
-0.753039
0.432989
0.640699
-0.296786
0.300838
-0.00405239
0.393448
-0.993212
0.599764
0.143535
-0.260233
0.116698
0.485652
-0.633947
-0.637496
-0.0199451
-0.305553
-0.0278913
0.027985
0.00403067
-0.0320156
0.36944
-0.0110166
-0.0252198
0.0362364
0.997596
-0.535071
-0.306568
0.709193
-0.402625
0.262403
0.173948
-0.436351
-0.365086
0.243154
-0.206229
-0.043019
0.415401
0.268257
-0.216966
-0.746924
0.347636
-0.138514
0.616349
0.403557
0.168139
-0.921932
0.994462
0.111415
-0.46799
0.356575
-0.0855502
-0.828199
0.91375
-0.173654
0.170574
0.00308058
-0.0913838
-0.288304
-0.417898
1.09137
1.03118
-0.504956
-0.433296
-0.0762353
0.0121543
-0.40925
0.397095
0.40832
-1.00372
-0.12358
-0.473556
0.597136
-0.0279752
-0.011473
0.0394483
-0.652412
0.0551687
0.597244
0.958565
-0.683799
-0.0193394
0.0785526
-0.0592132
-0.208625
-0.0165942
0.174364
0.358263
-0.532627
0.0950554
-0.120487
0.025432
0.620308
0.359214
-0.979522
-0.389114
1.14397
0.0770368
0.00197528
-0.26192
-0.574284
0.836204
0.361149
0.725316
0.934938
-0.705814
-0.345065
0.219576
0.0157029
0.0999972
-0.44692
1.17483
0.136778
-0.767265
0.630487
0.91753
-0.144073
-0.773458
-0.476019
0.71406
-0.238041
0.396916
-0.409492
-0.456042
0.865534
0.0524961
-0.0776125
0.0251164
-0.284939
-0.485295
0.770235
-0.00406139
-0.100133
0.0262128
-0.0391516
0.505699
-0.790638
-0.708073
-0.205831
0.913904
-0.0649131
-0.477058
0.541971
0.262996
1.19698
-1.21691
0.0199322
0.204575
-0.148033
-0.0565424
0.00746578
-0.304252
0.257921
0.227699
-0.312787
0.0810603
-0.816077
1.02414
-0.208064
-0.102409
-0.0608417
0.308162
0.365992
-0.823235
-0.249233
-0.0319096
0.0390202
-0.00711065
0.534295
-0.130738
-0.193482
0.213636
-0.0201541
0.0738002
-0.230497
-1.17353
0.559781
0.937951
0.18671
-0.128627
0.246058
-0.194764
0.457167
0.844976
-0.389913
-0.201178
0.00769613
-0.100114
-0.614019
0.215127
0.204244
-0.193669
-0.918156
0.0155424
0.0344091
0.204204
-0.0606693
-0.969677
0.648064
0.321612
0.723161
0.133902
0.179928
-0.0573433
-0.122585
0.273735
-0.257003
-0.0167316
-0.802412
0.284447
-1.02639
0.524217
-0.0664085
0.179111
-0.112702
-0.0468657
0.146259
-0.0993934
1.02894
-0.00205121
-1.02689
0.13955
0.00778011
-0.14733
-0.133984
-0.251921
0.216512
-0.0170944
0.227356
-0.221612
-0.00574422
0.383058
-0.0589281
-0.32413
0.0091114
0.218244
0.841755
-0.651586
-0.0282912
-0.138001
0.166292
-1.01971
0.203636
-0.0361017
-0.112542
0.108884
-0.0718068
0.151494
0.00705585
-0.00218026
0.241462
0.154097
-0.395559
0.460863
0.110128
0.440557
-0.329141
0.188229
-0.165567
0.0614693
-0.317168
0.629167
-0.0204418
-0.608725
0.531516
-0.0313631
-0.500153
-0.622079
-0.371038
-0.122369
-0.157012
0.279381
0.402129
-0.441028
0.0388992
1.11254
-0.0411064
-1.07144
-0.274583
-0.0887435
0.363327
-0.493011
0.655558
-0.162546
0.555316
0.663023
-1.21834
0.00210678
-0.176893
-0.26335
0.425217
-0.161867
0.206901
0.095646
-0.302547
-1.07969
0.574184
0.505506
-0.194476
-0.0271353
-0.844007
0.135934
0.290033
-0.181451
-0.108582
0.485938
-0.616005
0.130068
-0.0768141
-0.186776
0.187737
1.00924
0.81952
-0.133712
-0.685809
-0.846759
0.131671
0.337891
-0.540471
0.716776
-1.1311
0.414321
-0.0931375
0.272174
-0.0172008
-0.39024
0.342843
-0.157528
0.206154
-0.123829
-0.779028
0.902857
0.425854
0.586089
-0.74489
0.773695
-0.028805
0.00836423
0.0196207
-0.621186
-0.25963
-0.108999
0.12169
-0.0126906
0.323677
-0.291614
-0.0320628
0.0283312
0.0135186
-0.0418497
-0.0708362
0.556774
-0.791007
-0.0970654
0.888072
-0.720164
-0.247025
0.967189
0.475792
-0.348943
-0.126849
-0.163854
0.0187034
0.14515
-0.325634
0.00499338
0.320641
-1.01255
0.0442846
0.968266
0.0264213
0.178374
-0.204796
0.808127
-0.907308
0.0991804
-0.519553
0.872675
0.0382142
-0.910889
0.0105992
-0.119598
-0.153524
-0.508571
0.662095
0.613381
-1.06395
-0.948333
0.823083
0.125249
0.110369
-0.0153138
0.689916
-0.381754
-0.0481287
-0.250085
0.298214
-0.00801502
0.120855
-0.11284
-0.220697
0.929853
-0.709157
0.789933
-0.392332
-0.397601
1.03577
-0.979823
-0.0559484
0.795324
-0.310048
-0.485276
0.0437712
-0.215541
0.171769
-0.281953
-0.00965651
-0.92512
0.813897
0.111223
0.0530581
-0.978178
-0.310573
0.524115
-0.213543
-0.59575
-0.429532
0.176149
-0.156058
-0.0200909
-0.798281
-0.221432
-0.168456
0.109925
0.0585307
0.166115
0.0946673
-0.887846
0.853432
0.0344136
-0.182103
-0.137372
0.00305676
0.150641
-0.0110916
-0.603445
0.135927
0.119689
-0.148354
0.028665
-0.742086
0.369207
0.372879
0.351881
-0.0162247
-0.25091
0.66294
0.0799438
0.353815
0.0438544
0.233552
-0.277406
-0.0954801
0.552577
-0.600021
0.388571
0.21145
-0.224529
0.0300526
0.991859
-0.566005
0.847211
-0.453763
-0.241723
-0.161012
0.402735
0.40797
-0.851824
0.443854
0.545691
-0.610604
0.982872
-0.433433
-0.549439
-0.00344432
-0.507343
-0.0926786
-0.925873
0.904533
0.0213398
0.119913
-0.305691
1.05497
-1.06727
0.268993
0.31419
-0.0234443
-0.0977462
0.012464
0.109088
-0.00289696
-0.494306
-0.513237
1.22057
-0.537514
-0.00456183
0.235683
-0.231121
0.0645257
0.190652
-0.665263
-0.379718
1.04498
0.238919
0.320944
-0.00324897
-0.131463
0.134712
0.820353
-0.219406
-0.0461502
0.265556
0.623819
0.00534752
-0.358827
-1.03077
0.173091
-0.201183
0.00879312
0.19239
0.570239
0.733841
0.397901
-0.154435
-0.243466
0.981627
0.054145
0.605705
-0.85211
0.246404
-0.830695
-0.0110461
0.841741
-0.750737
0.975426
-0.22469
0.126001
-0.00462207
-0.121379
-0.433689
1.04707
-0.291403
0.173288
0.118116
0.0206021
-0.765492
0.128772
-0.0291282
-0.0996443
-0.954762
1.2389
-0.284137
-0.238278
0.531165
-0.292888
1.16168
-0.510905
-0.650779
-0.00734327
-0.594992
0.602336
-0.248778
-0.0269358
-0.523342
1.07866
0.462438
-0.696182
1.118
-0.479825
-0.173205
0.144914
-0.867934
0.0372392
1.21107
-0.498532
-0.0279149
-1.27419
0.219134
-0.0213581
0.307987
0.516588
-0.824576
0.546496
-0.11956
-0.426936
0.816465
-0.970954
0.154489
-0.122162
0.00931081
0.112851
-0.192571
-0.475849
0.66842
0.340307
-0.278838
-0.392557
0.146911
0.245646
0.127042
0.289036
-0.416078
0.0756954
0.100453
-0.869546
1.02036
-0.150816
-0.128985
-0.044669
0.445051
0.196673
-0.641725
0.559679
0.469405
-1.02908
0.148301
0.486769
-0.0167811
0.984564
0.00320777
0.783047
-0.786255
0.00186334
-0.00688827
0.0752939
0.0100051
-0.085299
0.887748
-0.840172
-0.0475753
0.448093
0.534779
-0.0577031
0.033833
0.0238701
-0.287618
0.805604
-0.517986
0.015339
0.139986
-0.155325
0.466314
-0.806116
0.339802
-0.504394
-0.535742
1.04014
0.835446
-0.156802
0.300724
0.245771
-0.428121
-0.108485
0.536606
0.281136
-0.808819
-0.169419
-0.0760328
0.245452
0.175278
-0.0755827
-0.0996949
-0.0194649
-0.229313
-0.0705387
0.626031
-0.555493
-0.133622
1.10302
0.770895
-0.618152
-0.152743
0.617653
-0.543645
-0.522227
0.15553
0.366697
0.0875185
-0.478586
-0.0483302
0.0737066
-0.0253763
0.0534117
0.126516
0.137275
0.735131
-0.872407
0.203074
0.179984
0.121472
-0.841635
-0.415986
0.169029
0.246957
-0.313943
-0.233934
0.547877
0.464539
-0.223077
-0.840327
0.557393
0.274407
-0.222815
-0.0515923
-0.463131
0.816245
-0.353115
-0.427617
0.434847
-0.422548
0.547461
-0.124913
-0.56626
0.871468
-0.305209
-0.0203817
0.191358
-0.170977
-0.147064
0.100198
-0.296318
-0.588675
0.894693
-0.306019
-0.540457
0.672852
0.499689
-0.501829
0.0021395
0.209749
-0.178145
-0.0316035
-1.24771
0.854493
0.393214
-0.0244019
0.225154
-0.200752
0.0241564
0.683364
-0.904061
0.797338
-0.389368
-0.356593
-0.525799
-0.696686
0.699894
0.500546
-0.00662293
0.386713
0.131949
-0.518662
-0.313604
0.288904
0.0247002
0.183985
-0.194202
0.0102171
-0.0453177
-0.368977
0.414295
-0.179769
0.500273
-0.320504
-0.757346
-0.244365
1.00171
0.126649
0.0830997
0.748133
0.139614
-0.786623
0.575907
0.210717
0.242541
-0.339275
0.0967335
0.00320834
0.161902
-0.212031
0.0501293
-0.65301
-0.495764
0.450446
0.122752
0.185748
-0.141977
0.293337
0.0303397
0.0499979
-0.554841
0.0284834
0.264177
0.0579639
0.0535057
-0.11147
-0.599094
-0.464723
1.06382
-0.0665904
-0.361531
-0.508324
-0.0953804
0.603704
0.12773
0.172428
-0.300158
-0.00520699
1.13106
-0.738755
-0.392305
0.166987
0.652533
0.0781001
0.345294
-0.415245
0.0699517
-0.418353
0.9415
-0.523147
-0.569351
-0.246711
0.816061
-0.437394
0.174044
-0.413152
-0.109074
0.890091
-0.427632
-0.462458
0.17123
-0.262267
0.0910362
0.387113
0.0455014
-0.432614
-0.153085
0.179506
0.334778
-0.388186
0.0534082
0.285476
-0.0230253
-0.197156
-0.00672315
0.478354
0.411737
-0.391714
0.801965
-0.385342
1.04193
0.00478298
0.166447
-0.855605
0.286254
0.712072
-0.625221
-0.0927606
-0.615735
0.122724
0.198575
-0.509148
0.718304
-0.703668
0.815568
-0.0166048
-0.184483
-0.0970922
-0.284536
-0.0695186
0.354054
-0.280317
-0.031824
0.708673
0.147355
-0.856028
0.0295074
-0.243794
0.214287
0.00796527
0.290916
-0.80655
0.515634
0.872722
-0.0645948
-0.937607
0.990148
-0.0525417
0.204505
-0.124548
-1.08595
-0.16176
-0.332664
0.842737
-0.02884
0.381846
1.12585
-0.415312
-0.710538
-0.630168
-0.0454083
0.675577
0.179838
0.514683
-0.694521
-0.68145
0.0290377
-0.161445
-0.148298
0.309744
-0.463486
0.600264
0.12887
0.514279
-0.643148
-0.277243
0.305142
-0.027899
-0.952533
0.104593
0.84794
0.297667
0.499672
-0.219442
0.553452
0.241872
-0.301223
-0.127722
0.760936
-0.893382
-0.209164
-0.377217
0.586381
0.126176
-0.124069
0.666192
0.0465232
-0.712715
0.675378
-1.06072
0.01524
0.014987
-0.500382
0.633825
-0.133443
-0.645213
0.491689
-0.013815
0.261017
-0.247202
-0.35412
0.122828
0.231292
0.257172
-0.348556
-0.241208
0.579099
0.10528
-0.171689
-0.13798
0.148579
0.141672
-0.307349
-0.00317363
-0.0510485
-0.171171
0.165062
0.00610892
0.185838
-0.210067
0.0242292
-0.686842
0.476184
0.128922
-0.637246
-0.0117243
-0.254412
0.0268576
0.535613
-0.562471
0.304681
-0.325177
0.192197
-0.796353
0.604157
-0.289241
0.698271
-0.40903
0.199216
-0.896378
-0.0493396
-0.0256226
-0.92271
0.524369
0.696205
-0.739516
-0.100812
-0.554887
-0.216744
-0.388256
0.165001
0.223026
-0.0179638
-0.205062
1.17316
-0.602918
0.882856
-0.209116
-0.224433
-0.13879
0.363223
-1.12379
0.466561
0.657229
-0.326007
0.115984
-0.00647572
0.87915
0.14464
-0.0859976
-0.452022
-0.0406135
-0.25079
0.288287
-0.250577
-0.0377096
-0.113505
0.822178
0.118496
0.141845
-0.260341
0.709406
-1.2916
0.586237
0.705367
0.225277
0.188997
-0.414274
0.601861
-0.27745
-0.324411
-0.49767
0.259393
-0.577767
0.0158005
0.371312
0.886084
-0.971634
0.378397
-0.171496
-0.393789
0.674925
-0.909993
0.647555
0.262438
0.508324
-0.846158
0.337834
-0.688028
0.721102
-0.033074
0.419213
-0.514693
0.0126912
0.235491
0.240302
0.0978181
-0.703366
0.268773
-0.943948
0.485128
0.45882
0.23534
-0.865508
0.724785
-0.0469704
-0.565232
0.132719
0.150031
1.01348
-0.333878
-0.679605
-0.322781
0.250083
-0.564026
0.135028
-0.958982
0.913573
-0.763564
0.354072
0.468869
-0.743155
0.376709
0.366447
-0.832218
0.551824
0.280394
-0.246366
-0.0509613
0.0229861
-0.992555
0.693537
0.299018
0.602343
-1.03603
-0.855777
-0.0137693
1.11782
-0.401049
0.298895
0.0847548
-0.38365
-0.0196036
-0.122009
0.141613
-0.243808
0.47708
0.528148
-0.442787
-0.300368
0.168557
0.17175
0.223832
0.331465
-0.555297
0.344599
-0.210369
-0.0424644
-1.0678
1.11026
-0.310737
0.410742
-0.773191
-0.563055
-0.408169
0.971224
0.233146
-0.297197
-0.647783
0.197683
0.4501
-0.000735432
0.00266242
-0.00192699
0.743701
-0.86753
0.023598
-0.52398
0.457946
0.394224
-0.85217
-0.180471
0.175909
-0.789047
0.220913
0.568134
-1.00367
0.499274
0.529245
-0.947598
0.497393
-0.706557
-0.00201683
0.00128139
-0.0348077
0.952338
-0.587559
0.724547
-0.136989
0.894244
0.000782889
-0.895027
-0.678955
-0.0109921
-0.188833
0.0637369
0.662191
0.102274
0.0273396
0.298531
0.1672
0.405847
0.483277
0.0141125
0.169873
-0.832015
-0.0558307
-0.745973
0.311067
-0.705787
0.153453
0.178517
-0.33197
0.796985
0.0493118
-0.846297
-0.0898593
0.0852372
-0.322384
-0.704009
-0.75704
-0.106623
-0.406643
1.08202
-0.317187
0.427121
-0.109934
-0.868243
0.26915
-0.257047
0.480879
-0.341837
-0.627839
-0.377236
-0.306458
0.32595
-0.509387
-0.232699
0.965905
-0.123168
0.605941
-0.287079
-0.318862
0.0801239
0.0729948
0.227974
0.98555
-0.940711
0.0100685
-0.204718
0.286877
-0.472197
0.482705
-0.419197
-0.490052
0.197885
0.158275
-0.35616
-0.76364
0.0377123
-0.108557
0.729678
-0.621121
-0.0749041
-0.862702
-0.68064
0.795874
1.32781
-0.573458
-0.754357
-0.134142
0.313577
0.786261
-0.422518
-0.363743
0.237744
-0.26077
0.0432443
0.0320496
-0.197296
0.0527198
0.144576
-0.120714
0.507427
-0.449315
1.05166
-0.0329018
-0.123156
-0.253809
-0.0687614
0.322571
-0.0146095
0.75831
0.0431761
0.399405
-0.442581
-0.358689
0.533053
0.410056
0.395548
-0.319776
-0.0962099
0.479205
-0.174746
-0.30446
-0.0676793
0.0608335
0.00684586
0.127845
-0.773642
0.645797
-0.879206
0.122167
0.196895
-0.401989
0.713056
-0.00626874
0.244013
0.106125
-0.423312
-0.955181
0.480186
-1.00287
0.330436
-0.413348
0.0373951
-0.398634
-0.546368
0.945002
-0.894619
0.0882607
0.250823
-0.339083
0.967594
-0.725209
0.751844
-0.572005
0.151718
0.494527
-0.646244
0.205626
-0.367071
-0.67238
-0.155012
0.827392
-0.0138808
0.177759
-0.163878
-0.437587
0.971635
-0.534049
0.772968
-0.489096
-0.283872
0.719888
0.0214208
-0.741309
-0.530925
-0.760678
-0.298614
-0.00693945
0.340249
0.58747
-0.0137694
0.0742298
-0.0604604
-0.637774
-0.151272
0.66294
0.574695
-0.500898
0.59659
-0.0956912
-0.281345
0.235195
0.0107073
0.349349
-0.360057
0.228971
-0.110475
-0.112666
-0.879889
-0.793703
0.267682
0.00672554
-0.162844
0.180895
0.0669948
0.697266
-0.764261
-0.476182
-0.127263
0.480773
0.252754
0.0624835
-0.2111
-0.00786909
0.155314
-0.147445
0.0910201
-0.338375
0.247355
0.291324
0.265816
0.153536
0.775951
-0.35867
0.847976
-0.437234
-0.0932275
-0.229951
0.323179
0.710467
0.0712811
0.0324664
-0.625034
0.432463
0.371047
-0.385656
-0.503427
-0.530999
1.03443
-0.617491
-0.506299
-1.04312
1.08833
-0.0452093
0.106287
-0.357588
0.288069
0.522246
0.253705
-0.0965379
-0.100308
0.196846
-0.29192
-0.579703
-0.0682839
-0.704565
0.772849
0.441784
-0.202865
0.03067
-0.200089
0.54832
-0.870704
0.445497
-0.337021
-0.229605
1.14943
-0.919822
0.554272
0.476168
0.273248
-0.749416
1.06095
-0.629909
-0.431042
-0.433533
-0.663523
1.1019
-0.438376
0.302229
0.303712
-0.255131
0.248862
0.398942
0.762742
-0.182974
0.16337
0.0240726
-0.0350892
0.902377
-0.499779
0.433094
0.740063
-0.366458
0.18812
0.178338
0.209275
-0.450997
0.71338
-0.0471884
0.485591
-0.186696
-0.650515
-0.108945
0.75946
0.162525
-0.0330993
-0.129426
0.114731
0.0898435
0.128631
-0.879367
-0.252791
0.273852
0.6561
-0.571496
-0.0846046
0.14411
0.335095
-0.125109
0.0677661
0.218534
0.217175
-0.435709
-0.470598
0.995819
0.15965
-0.540631
1.11558
-0.574945
-0.27534
0.402382
-0.270718
-0.00652428
1.04929
-0.514369
-0.330038
0.306603
0.295257
0.266584
-0.278308
-0.13729
0.116908
-0.26614
-0.115024
-0.00111792
0.495439
-0.131889
0.760301
-0.628412
0.109075
-0.0773244
-0.326857
0.0767714
-0.285187
-0.0134266
-0.845915
0.583995
0.210852
0.214365
-0.0787274
-0.185114
0.263841
0.272939
0.0382432
0.787799
0.42282
-1.21062
-0.0754495
-0.0198097
0.0952592
0.377931
-0.684499
0.867546
0.460269
0.733779
-0.666785
-1.11044
0.073053
-0.024435
-0.134609
0.433845
0.837755
0.0790278
-0.916783
0.331534
-0.0268534
-0.0323657
-0.291136
-0.0753217
-0.476171
-0.434257
0.521775
0.559208
0.149985
0.533932
-0.546575
0.0126431
0.157904
0.00715836
-0.0631149
0.217532
-0.031694
0.6771
0.17231
-0.84941
0.235498
0.0527885
-0.195078
0.118173
0.0769052
-0.304192
0.00158231
0.30261
0.31861
0.521481
-0.840091
0.206971
0.257568
0.644511
-0.0163189
-0.229396
0.640091
-0.472891
-0.0261705
0.0307902
-0.00461971
-0.931854
0.512457
0.777956
-0.623962
-0.153994
0.0113076
-0.111519
0.100212
0.76923
-0.839769
0.501592
-0.0598086
0.31175
0.440094
-0.100937
-0.014087
-0.398597
0.111248
0.287349
-0.559828
-0.0979236
0.998604
-0.510231
-0.488374
0.53856
-0.0783425
-0.460218
0.369327
-0.636183
0.266855
-0.0280887
0.468354
-0.00741649
-0.276061
0.668729
-0.392668
-0.273767
-0.12483
-0.30585
-0.0749264
0.216771
0.676378
0.00572138
-0.6821
-0.297792
-0.0578691
0.115833
0.0386873
-0.00485431
0.456507
0.177318
-0.125797
0.154128
-0.0135892
0.0669507
-0.133252
0.130241
-0.349937
0.501655
0.0126051
0.191639
0.129061
-0.288144
0.696884
-0.0447193
0.578651
-0.122303
-0.0892189
-0.215129
0.433663
-0.195171
0.842415
-0.647244
-0.744779
-0.0992275
-0.532713
0.857244
-0.324532
-0.251084
0.176158
0.272491
-0.0568556
-0.0190718
-0.204001
0.223073
-0.7645
0.250131
0.081625
-0.100964
0.458519
-1.12378
0.324819
-0.899103
-0.298622
0.860545
-0.408244
0.447347
-0.230172
0.0124524
-0.590885
0.71873
0.000573262
-0.125719
0.139926
-0.488869
-0.0816358
-0.550931
0.632566
0.0767023
0.400675
1.18983
-0.77859
-0.411238
-0.190371
0.056614
0.17739
0.0192249
-0.196615
-0.719056
0.131497
0.14809
0.0271872
-0.00608894
-0.0980415
0.10413
0.381214
-0.913927
0.0755737
0.398735
0.0239733
-0.422708
-0.931637
0.736466
0.116027
0.031686
-0.147713
0.293908
-0.882583
-0.112506
-0.00291172
0.115417
0.148557
-0.0325298
0.00083756
0.640666
-0.492364
0.538926
0.434483
-0.227511
-0.798075
0.23502
-0.606318
0.480244
0.126074
0.50727
-1.0107
-0.442038
-0.265081
0.707119
0.0740976
0.341508
-0.258528
0.213075
1.04399
-0.146021
-0.897969
-0.00753571
-0.824479
0.657425
0.0624631
0.374104
0.412157
-0.127138
-0.00432529
0.113004
-0.250797
-0.289638
0.062614
-0.0519988
-0.0106152
0.0214417
-0.671061
0.649619
-0.0410786
0.236871
-0.195792
0.33407
-0.852844
0.518774
-0.103164
-0.47692
-0.030251
0.0373942
0.603515
-0.294022
-0.166689
0.460712
-0.308929
-0.36327
0.380749
-0.222473
0.283497
-0.194102
-0.0893949
-0.326051
0.247324
-0.740664
-0.117557
-0.0161616
0.133719
0.10136
0.271903
-0.373263
0.129155
-0.556436
0.427282
0.0108593
-0.479433
0.14459
-1.09935
-0.403217
-0.652763
1.05598
-0.847405
0.0374539
0.809951
-1.16182
-0.701867
0.0138399
-0.22764
0.235105
-0.00746447
-1.08532
-0.311163
0.988263
0.322161
-0.168064
0.0698275
-0.284957
-0.14671
0.404278
0.119895
0.0700246
-0.323834
0.012503
-0.097293
0.08479
-0.20492
0.078066
-0.064637
0.0759446
-0.225745
0.451022
-0.881176
0.55761
0.323566
-0.275195
0.289727
0.534077
0.160924
0.00160092
-0.233972
0.137435
-0.424846
-0.222937
-0.466566
0.166168
0.300397
0.0883937
0.203533
-0.291927
-0.342236
0.433256
-0.0635575
0.631345
0.739095
-0.695919
0.489567
-0.798497
0.378368
-0.518048
0.13968
0.0767464
0.00180616
-0.172784
-0.0139161
-0.937043
0.538408
0.106402
0.432158
0.0130782
-0.159812
0.146734
-1.38414
0.57109
-0.101734
-0.0184705
-0.158619
-0.0170199
-0.180757
0.197777
-0.478401
0.184379
-0.96136
0.848694
0.932877
-0.474931
-0.146443
0.131087
0.0153556
-0.030658
0.0696782
-0.118595
-0.955639
0.330258
0.62538
-0.109199
0.0893893
-0.0553183
0.231093
-0.175774
0.331408
0.170184
0.14896
-0.152548
0.0035876
-0.215625
0.22823
0.0680377
0.0254752
0.512348
-0.747587