/*--------------------------------*- C++ -*----------------------------------*\
| =========                 |                                                 |
| \\      /  F ield         | OpenFOAM: The Open Source CFD Toolbox           |
|  \\    /   O peration     | Version:  2306                                  |
|   \\  /    A nd           | Website:  www.openfoam.com                      |
|    \\/     M anipulation  |                                                 |
\*---------------------------------------------------------------------------*/
FoamFile
{
    version     2.0;
    format      ascii;
    arch        "LSB;label=32;scalar=64";
    class       volVectorField;
    location    "5.9";
    object      U;
}
// * * * * * * * * * * * * * * * * * * * * * * * * * * * * * * * * * * * * * //

dimensions      [0 1 -1 0 0 0 0];

internalField   nonuniform List<vector> 
13486
(
(1.37845 -0.177079 6.13167e-19)
(1.64926 0.31202 2.90266e-19)
(2.53779 0.0361078 0)
(-0.0959818 -0.0851482 -1.8903e-19)
(2.27722 -0.531801 2.03712e-19)
(2.4746 0.147897 2.07125e-20)
(2.48797 -0.449979 3.89635e-21)
(1.9302 -0.711254 -3.26501e-19)
(1.88644 -0.369105 0)
(2.0141 0.794235 0)
(-1.06929 1.69326 -1.88567e-18)
(2.54382 -0.0726855 0)
(1.2332 -0.390168 -6.06792e-19)
(2.49565 0.752073 3.3203e-20)
(2.39006 -0.380932 1.08315e-19)
(1.96893 0.787127 -1.75802e-19)
(0.40266 -0.247612 8.08702e-19)
(1.18466 -0.433511 5.69928e-20)
(2.2523 -0.00601389 2.99872e-21)
(1.5793 -0.0258267 -6.22161e-19)
(0.145434 -0.470848 -5.81884e-20)
(1.2533 -0.405247 7.82594e-19)
(1.67289 0.308385 -2.32037e-19)
(3.08574 -0.976739 0)
(2.06362 0.626048 5.82042e-20)
(3.00849 -0.920176 -2.10928e-19)
(-0.842363 0.817094 1.06763e-18)
(2.67181 -0.152435 4.89803e-19)
(2.04325 0.0458261 0)
(2.45498 -0.398159 -2.97526e-19)
(0.448685 -0.743318 -2.92724e-20)
(2.48586 -0.272891 -1.36718e-19)
(3.10739 -0.249155 4.4529e-19)
(2.10697 -0.0841318 0)
(1.93964 -0.685692 0)
(1.80241 0.00467853 -1.22701e-21)
(1.86928 0.161207 -1.46248e-21)
(1.42576 -0.672225 3.12496e-19)
(1.69495 -0.0487665 -1.10096e-20)
(1.9196 -0.214688 3.12622e-19)
(2.30108 -0.786261 0)
(0.825237 -0.40872 -7.03616e-19)
(1.99967 -0.00539855 0)
(2.07627 0.521249 -2.79485e-19)
(2.09868 0.516885 1.15065e-19)
(2.5447 -0.0710379 9.13309e-20)
(-0.323746 1.12743 1.3021e-18)
(2.03373 0.0436845 -6.38998e-22)
(1.87628 0.152754 1.23002e-21)
(2.73316 -0.0410435 2.15361e-19)
(1.99928 0.0332134 3.56447e-19)
(1.77956 -0.00293517 0)
(2.5849 -0.167938 -1.26739e-19)
(1.58499 -0.583071 -4.56288e-19)
(1.20933 -0.522844 0)
(2.24765 -0.537906 -1.36354e-19)
(2.13621 0.231176 -8.90654e-21)
(1.76836 -0.0186287 -4.67275e-20)
(3.0863 -0.236057 5.1727e-19)
(1.85999 0.269858 0)
(-1.09402 0.981348 -2.35252e-18)
(1.86653 0.263436 0)
(3.57503 0.362825 -4.54243e-19)
(0.198309 -0.50167 -5.82895e-22)
(1.69516 -1.6825 0)
(1.87251 0.181425 -1.08671e-22)
(-0.267673 -0.0466303 -2.39284e-19)
(1.39237 0.0686231 2.07122e-19)
(1.88588 -0.393443 -1.80491e-19)
(1.76376 0.00973231 6.61145e-21)
(-0.285829 0.011234 2.74611e-19)
(1.21471 -0.495377 2.01083e-21)
(1.95267 -0.103945 2.31063e-19)
(-1.10836 -0.135953 -6.73913e-19)
(1.90346 0.211929 2.16115e-22)
(2.14451 0.226006 2.12487e-21)
(1.91189 0.202273 -1.562e-21)
(2.39178 -0.400716 -4.42302e-20)
(-0.308802 1.98658 -7.31545e-19)
(1.74827 -0.410811 0)
(2.01537 0.0105008 1.47456e-21)
(1.59628 0.417375 -1.84259e-20)
(3.728 0.372393 3.01117e-20)
(2.64939 0.0690931 -6.21952e-21)
(1.36786 -0.189067 -1.20022e-18)
(1.33525 1.75387 0)
(1.57595 -0.412632 -3.57755e-20)
(2.00231 0.0491936 -5.35562e-19)
(1.86328 0.234832 -2.35787e-19)
(1.86566 1.06266 -1.87457e-19)
(2.54374 -0.239515 -7.48895e-20)
(2.06094 -0.614915 -1.71159e-19)
(1.42957 -0.279764 1.58453e-19)
(1.63175 0.106333 1.61926e-20)
(1.78844 -0.557701 7.33415e-20)
(2.02183 0.0369989 2.05897e-22)
(-1.14472 1.09037 0)
(-0.632951 -0.22346 1.99911e-19)
(1.93712 -0.212796 -5.96659e-19)
(0.440052 -0.280956 -3.28746e-21)
(1.97554 0.015459 0)
(2.46223 0.749535 8.7423e-21)
(-0.657122 -0.288006 2.12972e-20)
(1.76476 -0.0121362 5.45541e-20)
(1.3099 1.7048 0)
(0.438266 -0.220541 -2.86791e-21)
(1.96655 0.0707848 8.09212e-22)
(1.68855 -0.0820807 -2.56993e-20)
(-0.337573 1.78659 9.29781e-19)
(1.6974 -0.774549 0)
(1.20203 -0.580291 0)
(2.51151 -0.350329 -1.223e-19)
(1.59349 -0.563549 3.33433e-21)
(2.15304 0.136604 8.51237e-22)
(1.0139 -0.00898728 0)
(1.15226 -0.572577 -2.75554e-19)
(2.06109 0.646909 0)
(2.20318 -0.0687656 0)
(1.94627 -0.107404 0)
(1.89328 0.120545 2.23971e-22)
(1.21505 -0.417578 -2.41286e-20)
(-1.35198 1.18972 0)
(1.75873 -0.495573 0)
(1.69172 -0.0628176 3.55966e-20)
(1.83436 -0.65542 0)
(1.77474 0.000419059 0)
(2.16751 -0.26725 6.86889e-21)
(2.20971 0.072334 9.94862e-20)
(1.90722 -0.0381811 -4.29473e-20)
(1.7614 -1.34942 -1.15497e-19)
(1.77807 0.00486513 -5.34538e-21)
(-0.443472 1.0251 -3.14335e-19)
(0.789888 0.3176 1.24132e-18)
(-0.433392 0.271274 8.43322e-19)
(1.99959 0.01778 -5.84301e-20)
(1.90354 0.443954 -2.64581e-19)
(0.585029 0.791494 -1.67434e-19)
(1.72399 -0.773382 0)
(1.90176 0.109337 -8.32675e-23)
(1.95809 -0.571451 -1.16516e-19)
(2.95596 -0.0784597 -4.59579e-19)
(2.57643 -0.181345 1.06393e-19)
(2.4959 -0.200968 0)
(1.76231 -0.396723 0)
(2.10008 0.00295871 3.41808e-21)
(4.3791 0.0637357 -1.1553e-18)
(2.36825 -0.175926 9.71132e-21)
(0.221632 1.80367 0)
(2.74634 -0.0375532 0)
(2.04529 0.0428065 0)
(2.0121 0.0236694 5.31073e-21)
(2.38695 -0.460743 0)
(2.0162 0.00527654 -1.54791e-21)
(1.57164 0.417287 -1.56488e-19)
(2.20938 0.322344 0)
(2.62723 0.0687213 0)
(1.50277 -0.688632 0)
(0.125239 -0.114375 -1.42475e-20)
(1.68758 -0.679374 6.52438e-19)
(2.03846 0.839574 -6.0654e-20)
(2.61979 -0.00313544 1.25574e-19)
(1.6958 -0.659208 -9.90764e-19)
(2.40961 -0.238518 3.52594e-20)
(0.732134 -0.348614 3.09146e-19)
(1.77769 -0.00884452 0)
(2.60311 0.728014 -8.60518e-20)
(2.40812 0.693445 -3.70163e-21)
(0.361829 -0.078851 -7.33423e-19)
(2.36148 -0.152594 -2.98056e-20)
(-0.437794 0.267943 2.26894e-19)
(0.431756 0.208859 7.32635e-21)
(2.20349 0.297743 8.60041e-20)
(1.99862 0.0965927 -4.31307e-19)
(2.31098 -0.223061 1.03963e-20)
(2.00707 0.0235211 5.23499e-22)
(-0.896045 -1.69092 0)
(2.50316 1.08642 1.01692e-19)
(3.09235 -0.0636022 6.31085e-19)
(1.97544 0.0646168 -5.84244e-19)
(2.49342 -0.186363 0)
(1.96854 -0.270562 6.33011e-19)
(2.15195 0.125539 1.75303e-21)
(2.39291 -0.211402 -4.72778e-21)
(-2.45048 1.25518 0)
(2.6806 0.049818 1.18276e-20)
(2.52869 -0.144646 -2.2264e-19)
(2.06659 0.0401067 -3.71395e-22)
(2.44769 -0.248549 -9.18788e-20)
(2.34988 -0.7759 0)
(1.03205 -0.499745 -3.53393e-19)
(1.89325 0.140446 0)
(2.31075 0.036667 0)
(1.7756 -0.0641715 0)
(1.27634 0.900264 -3.20859e-19)
(1.80333 -0.0969002 0)
(-1.44484 1.91231 -5.12131e-19)
(1.68774 -1.46464 2.69004e-19)
(2.50725 -0.0193442 7.05566e-20)
(1.04556 -0.517298 -1.35212e-19)
(2.58016 0.689264 -3.8094e-20)
(0.435666 -0.795754 3.02106e-20)
(2.2217 0.090153 -2.93611e-21)
(1.30542 -0.632765 -3.61103e-19)
(1.5771 -0.692143 5.96913e-20)
(2.02902 0.767417 7.33983e-20)
(1.81631 -0.0920412 -4.43931e-20)
(1.0388 -0.505546 1.797e-20)
(1.88071 -0.0319376 4.72175e-19)
(1.76969 -0.0657841 0)
(2.67229 0.0677898 0)
(2.6395 -0.159413 3.32022e-19)
(2.58591 -1.17317 3.2102e-19)
(1.59889 -0.0120757 5.69449e-19)
(1.96003 0.0718914 8.61735e-22)
(2.47013 0.186657 -2.38608e-20)
(1.96461 -0.558359 2.86996e-20)
(2.50789 -0.353442 0)
(1.86065 1.04841 4.85456e-19)
(1.51809 -0.306247 0)
(3.21201 0.651035 0)
(0.505408 -0.272893 -1.55349e-18)
(2.77288 -0.0125283 0)
(1.94079 -0.56473 2.7116e-19)
(2.62026 0.0130796 0)
(2.65124 -0.191891 -1.89384e-20)
(1.209 -0.569338 2.19054e-19)
(2.60697 0.318501 -6.29819e-21)
(0.152257 -1.35697 5.20164e-20)
(1.94295 -0.371191 3.9167e-21)
(1.62642 -0.414498 -1.20654e-21)
(1.98101 -0.261521 -2.03231e-19)
(1.1581 -0.219719 3.48822e-20)
(2.98812 -0.119842 5.76425e-19)
(0.846579 -0.408737 2.40612e-19)
(-0.29021 -0.635823 0)
(1.01792 -0.496347 2.59391e-20)
(2.33642 -0.186662 1.52034e-19)
(2.31815 0.0267283 -4.97816e-21)
(0.886157 -0.429216 7.01591e-19)
(2.37927 -0.133593 0)
(3.12993 -0.298723 0)
(2.00564 0.0704451 6.58209e-19)
(2.18781 0.093501 0)
(0.893524 -0.44453 2.34602e-19)
(1.59411 -0.0686346 -2.38774e-20)
(1.79756 0.0956965 0)
(2.28658 -0.0168038 -4.42773e-20)
(2.70422 -0.681667 5.96983e-19)
(-0.224904 -0.260851 1.38563e-18)
(2.03749 0.501723 0)
(-1.75803 0.00862869 -1.95723e-19)
(0.976815 0.0203898 8.78569e-20)
(0.965762 -0.475432 3.49011e-19)
(1.68929 -0.0947173 0)
(1.85645 -0.34621 3.14493e-20)
(-0.97668 -1.67851 2.05102e-19)
(2.48863 -0.269741 1.09687e-19)
(1.93387 -0.568421 -3.63122e-20)
(0.0786833 -0.083223 1.49252e-20)
(3.09401 -0.290628 3.55758e-19)
(1.76959 0.25257 0)
(1.59608 -0.0454195 6.85062e-22)
(2.39436 -0.389964 -2.54295e-19)
(-0.954983 -1.42056 -2.57038e-19)
(2.16691 -0.726541 -2.11711e-19)
(-2.37486 1.25455 0)
(1.96092 -0.360839 -7.56538e-20)
(0.290317 -0.758149 -5.30082e-20)
(2.10028 -0.0137676 -2.66413e-19)
(1.43358 -0.354902 0)
(1.53635 0.977054 2.25176e-19)
(1.97157 0.0747134 -1.58211e-19)
(2.53015 -0.368976 0)
(2.58645 -0.108197 7.12991e-20)
(1.13686 -0.547752 2.90322e-19)
(2.64621 -0.653387 -3.32626e-19)
(1.85992 -0.31973 0)
(1.35001 -0.796246 0)
(1.69738 -0.130329 -2.85954e-20)
(2.41965 -0.138805 -9.24306e-21)
(1.36577 -0.839949 5.57492e-20)
(2.09714 -0.184243 -2.29589e-19)
(1.93561 0.0956847 3.44831e-19)
(4.07668 -1.01418 -6.91092e-19)
(-1.89637 1.26761 2.59253e-18)
(-0.367079 0.83826 1.58198e-18)
(2.9607 -0.0251702 4.85565e-19)
(1.84857 -0.0544518 5.63234e-20)
(2.72121 -0.1919 2.51632e-20)
(2.08709 -0.0112031 0)
(-0.227862 -0.571719 0)
(1.59381 0.270166 1.54012e-20)
(1.18709 -0.575015 2.69621e-19)
(1.99739 0.0259148 -5.75462e-20)
(2.33959 -0.179926 1.40572e-19)
(2.39274 -0.220011 0)
(2.02791 -0.0405557 -1.62088e-19)
(2.60545 -0.0821526 -5.25913e-20)
(1.9246 0.0801978 -3.16723e-19)
(2.47188 -0.562554 7.74852e-20)
(2.00151 -0.198568 -4.33431e-20)
(1.07052 -0.502451 2.6045e-21)
(2.44674 -0.116919 7.95445e-21)
(2.47056 -0.277962 1.29706e-19)
(1.87225 0.115379 9.00524e-22)
(1.28899 -0.592692 0)
(0.411128 -0.0867767 0)
(2.25509 -0.0358226 9.07129e-20)
(1.58605 -0.387738 3.11174e-20)
(1.88721 0.149579 0)
(2.03782 1.36245 -1.53114e-18)
(-0.070815 -0.041006 0)
(2.39871 1.06854 -1.30635e-20)
(2.51673 -0.34558 -1.22713e-19)
(3.01311 -0.0571562 0)
(1.89249 0.43493 -1.62327e-19)
(1.58737 0.320249 -2.21384e-20)
(1.86235 0.222205 -2.01885e-20)
(1.87392 -0.0246005 -5.194e-19)
(2.01378 -0.368414 0)
(1.88075 0.174392 1.27226e-22)
(1.61688 0.168333 -7.74083e-22)
(1.98439 0.0639287 7.36802e-20)
(1.61248 0.156704 -3.02775e-19)
(0.693962 0.764547 3.1248e-19)
(2.53448 -0.245851 1.41621e-19)
(2.2056 -0.382842 -6.45238e-19)
(2.11172 -0.182953 0)
(2.66106 -0.0454559 2.29907e-21)
(2.2382 -0.392633 -1.17898e-19)
(2.00035 0.0343994 7.76681e-19)
(2.08679 -0.618992 0)
(2.53453 -0.240915 -3.13392e-20)
(1.42201 0.418754 0)
(2.48765 -0.459621 -1.9605e-19)
(1.85606 -0.523011 -2.00339e-19)
(0.639214 -0.296196 2.85788e-19)
(2.367 -0.475092 -1.74352e-19)
(2.02508 0.202931 0)
(1.5606 -0.0365315 -3.69013e-20)
(1.98944 -0.371455 8.22059e-20)
(1.62828 0.162047 2.85899e-19)
(2.25127 -0.399335 4.59865e-19)
(2.38362 -0.214942 2.11958e-19)
(-2.66784 1.04443 -1.25757e-18)
(2.03137 0.0415353 9.02826e-23)
(2.21914 -0.204824 0)
(0.963732 -0.320064 6.90714e-19)
(3.21769 0.614954 0)
(1.55014 0.244916 2.09249e-21)
(2.25032 -0.114035 3.77924e-19)
(2.63609 -0.0732918 -4.50082e-20)
(2.59714 -0.104846 5.20845e-20)
(-1.42799 1.21745 -1.31867e-18)
(1.9341 0.0777381 3.95572e-19)
(1.98936 0.0191489 0)
(-0.746994 0.12875 -6.40215e-19)
(2.18111 -0.272317 -1.34927e-19)
(1.56455 -0.375101 -1.86171e-20)
(2.54417 -1.07953 2.8442e-19)
(2.48837 -0.0111657 0)
(2.58709 -0.236182 9.31227e-20)
(1.78324 0.181773 6.10053e-19)
(1.966 0.0822072 4.80856e-19)
(2.48043 -0.40938 0)
(2.01565 -0.00158059 -5.79757e-22)
(2.38987 -0.212374 -1.42797e-19)
(-0.677752 0.182625 2.2749e-19)
(1.55623 -0.0258555 7.91149e-20)
(2.18679 -0.236911 1.28268e-19)
(2.04676 0.00399565 -1.82077e-21)
(2.21275 -0.194872 0)
(2.66072 -0.187378 -5.6929e-20)
(-1.99285 0.0609493 2.62069e-19)
(2.46276 0.395102 3.24237e-20)
(1.99777 0.0320421 3.01138e-19)
(1.37599 0.0289887 0)
(1.53962 0.11275 -3.77641e-20)
(3.24736 -0.32887 0)
(3.50773 1.12617 -3.40597e-19)
(2.10746 -0.0235812 0)
(2.07255 -0.704228 -6.19813e-21)
(1.28562 -0.0777897 -1.68641e-19)
(1.52425 0.903573 5.45362e-19)
(-0.649608 0.392806 -6.91758e-19)
(1.88682 -0.316822 0)
(2.38979 0.0564544 -4.53301e-20)
(2.0325 0.211223 -1.69127e-19)
(0.954379 -0.332748 -5.14113e-19)
(0.497801 -0.53038 2.59171e-21)
(1.63361 -0.0291557 -8.59524e-19)
(2.59515 -0.331297 1.54889e-19)
(2.10185 0.201554 1.15231e-19)
(1.41825 -0.428267 0)
(1.34501 0.350577 3.24016e-19)
(1.92168 0.113166 1.53259e-21)
(-0.163991 -0.0508905 1.13189e-19)
(-1.97371 0.191029 -8.4039e-19)
(0.90325 -0.205022 -1.0003e-18)
(2.98185 -0.035564 0)
(1.06265 -0.282671 0)
(2.06023 1.21802 0)
(2.09008 -0.0687258 0)
(0.656347 -0.159395 -2.80399e-20)
(2.47625 -0.434378 0)
(1.61217 -0.28887 0)
(1.65455 0.120532 1.17812e-19)
(3.0715 -0.0481573 -6.53938e-19)
(2.18668 -0.183044 -3.09281e-19)
(1.69285 0.355282 9.85697e-19)
(2.00626 0.0242531 -8.71382e-20)
(2.4355 1.76671 0)
(2.67687 -0.284685 0)
(1.91527 0.0871288 3.38101e-19)
(2.02064 0.0519642 5.99079e-20)
(1.29031 0.95748 0)
(-2.34964 1.12817 1.15284e-18)
(2.14963 -0.739957 2.38259e-19)
(-0.266792 -0.222085 0)
(2.37381 -0.135523 2.08429e-19)
(1.97053 0.0669261 -3.91154e-19)
(0.590852 -0.178116 -3.83083e-20)
(0.958041 -0.303029 0)
(2.01514 0.216168 3.1914e-19)
(2.62604 0.166048 0)
(2.42727 -0.245009 0)
(2.23252 0.198265 -1.34455e-20)
(1.92752 0.0999581 1.80726e-19)
(-0.802291 0.757598 -1.38676e-18)
(2.36285 0.688566 1.52416e-20)
(1.29757 -0.307697 -3.00574e-19)
(2.09429 -0.0576452 3.96482e-20)
(2.10604 0.196813 8.92023e-20)
(2.75582 -0.185089 1.31513e-19)
(2.23966 -0.723071 0)
(2.80377 -0.585469 3.16624e-19)
(1.30005 -0.025905 0)
(1.56861 0.20852 1.61765e-20)
(2.29089 -0.226876 0)
(1.4159 0.0849936 4.3821e-19)
(-0.227633 0.117201 -1.40475e-18)
(2.55814 -0.317691 0)
(-0.185354 0.297259 3.84066e-20)
(2.67671 -0.312958 -3.54419e-19)
(1.31528 -0.634615 -1.21583e-19)
(1.74727 -0.235502 8.21878e-19)
(1.41438 0.891564 -3.43762e-19)
(1.28803 -0.293874 -8.53855e-19)
(3.62149 1.08319 0)
(1.88906 0.124035 7.05291e-22)
(-2.60678 1.01991 -3.2123e-18)
(2.01997 0.224655 0)
(1.84168 0.249168 2.19814e-20)
(2.8028 -0.0572627 -4.52851e-20)
(2.81754 1.12907 0)
(2.00404 0.0203235 0)
(-1.52774 0.550387 0)
(-0.75862 -1.76818 7.78933e-19)
(4.10496 -1.24708 8.37351e-19)
(3.97026 0.025594 7.13511e-20)
(2.35886 1.02421 0)
(1.69101 -0.145156 5.57683e-19)
(2.00372 0.023222 -1.04245e-21)
(2.35561 0.630135 -2.281e-20)
(0.110196 -0.331848 1.14154e-19)
(1.90825 0.178955 0)
(2.03839 0.0446725 0)
(0.680671 -0.0642547 -4.65612e-19)
(1.39172 -0.419744 -2.10625e-19)
(1.92905 -0.160772 0)
(1.23554 -0.601853 -2.63654e-19)
(2.01708 0.0160803 1.81198e-21)
(2.024 0.033926 -3.19285e-22)
(0.722665 -0.33103 0)
(1.89201 -0.0227412 5.48833e-20)
(1.90633 0.105352 -5.27002e-22)
(2.62701 0.146191 1.34225e-19)
(1.8417 -0.541859 0)
(-0.24415 0.729048 -2.40825e-18)
(2.60929 -0.0862588 5.73529e-20)
(2.00207 0.0982115 6.84085e-20)
(1.94674 0.0251462 3.15491e-22)
(2.66864 0.707401 0)
(1.66632 0.350271 -2.62566e-19)
(3.16169 0.398661 -2.51364e-19)
(0.687671 -0.174457 2.11908e-19)
(2.00948 0.0565033 0)
(0.466317 -0.553455 -2.64273e-21)
(0.407549 -0.0439881 0)
(2.00498 0.0522019 -2.63299e-19)
(1.9923 0.0777201 1.18375e-19)
(1.87164 0.0600536 -6.60875e-20)
(-1.0899 -1.59624 0)
(2.30484 0.0363856 -1.68734e-20)
(1.06327 0.504993 8.81887e-19)
(2.21236 -0.718527 0)
(1.61601 0.108811 3.68e-19)
(2.4487 -0.571174 -8.82303e-20)
(2.20313 -0.0182016 0)
(0.25463 -0.816723 3.11859e-20)
(1.75356 -0.37754 -5.71599e-20)
(2.05228 -0.00179391 0)
(0.0540008 0.442368 1.49338e-18)
(1.82897 0.236137 0)
(1.64909 -0.757607 2.66572e-19)
(-1.77248 -0.178801 4.75295e-19)
(2.06405 0.0415029 4.04575e-22)
(2.49119 0.15422 -6.22971e-20)
(1.33756 0.330873 1.71979e-19)
(1.74091 -0.26361 -3.0313e-19)
(1.88954 -0.289229 -3.39519e-20)
(1.69281 -0.767636 2.70862e-21)
(2.16796 -0.239916 1.2435e-19)
(2.66142 0.712916 1.79168e-19)
(1.75943 -0.787351 0)
(1.99606 0.0283955 -2.67023e-19)
(0.106118 -0.0736145 -6.43053e-19)
(1.32581 -0.0361816 0)
(1.94838 0.143601 1.26955e-21)
(1.72029 0.0091839 0)
(1.18245 -0.323115 7.37014e-19)
(2.04085 -0.76636 0)
(1.87226 0.00195991 -2.73787e-22)
(2.2571 -0.106698 -2.15205e-19)
(0.271527 -0.978654 5.87948e-20)
(-1.30382 0.412832 5.41353e-19)
(2.3738 -0.0263337 -1.82833e-21)
(1.25924 -0.597869 2.40608e-19)
(1.74462 -0.488815 2.93299e-19)
(1.42455 -0.28755 0)
(-2.00892 1.16026 -8.16098e-19)
(2.26345 -0.667884 -4.94772e-20)
(-2.25221 1.42938 -1.00001e-18)
(2.02403 0.0393111 1.07838e-22)
(1.41109 -0.546617 0)
(2.23788 -0.0214565 -1.22557e-21)
(-2.35309 1.16039 0)
(-0.756792 -0.37511 2.01462e-20)
(0.732659 -0.235584 4.97458e-20)
(0.0336018 -0.0560918 0)
(2.02187 -0.532797 8.65444e-20)
(1.63959 -1.60154 0)
(2.82441 1.03417 0)
(1.41933 -0.67434 -3.51527e-19)
(1.4515 0.386628 2.62689e-19)
(1.65511 -0.465073 0)
(1.79571 0.207207 -1.66799e-19)
(4.00642 0.195862 1.25655e-18)
(-2.1623 0.197936 1.41181e-18)
(2.84347 1.42613 0)
(2.1816 -0.0454392 0)
(-2.58342 1.18101 -1.48817e-18)
(1.86605 -0.0978129 0)
(2.67417 0.059136 0)
(-1.05173 0.736746 -7.85517e-20)
(2.02456 -0.382605 -4.12351e-19)
(1.71188 -0.390841 2.5275e-19)
(3.10688 -0.374265 5.11108e-20)
(-2.23147 1.32521 1.76812e-18)
(1.99161 0.0656102 1.3552e-19)
(1.46301 -0.319501 0)
(2.19848 0.489964 -4.18108e-20)
(1.36744 -0.160134 0)
(2.36541 0.0430809 0)
(2.00143 0.123604 0)
(2.22274 0.179727 -1.10586e-20)
(1.85408 -0.0241172 2.41534e-19)
(2.17511 0.0663126 -5.19279e-21)
(1.50824 -0.324291 0)
(-1.09748 0.896551 -1.04228e-18)
(2.09121 1.15848 5.17631e-20)
(1.83114 -0.669092 2.80208e-20)
(1.9774 -0.0723742 -9.05435e-20)
(2.60725 -0.644187 5.24982e-19)
(2.03963 0.0679016 -2.25624e-19)
(-0.214154 0.0106385 0)
(2.59335 -0.0905199 0)
(1.43181 0.908451 0)
(1.16958 -0.527541 -5.29774e-19)
(0.884499 -1.25302 -7.77066e-20)
(0.258466 -0.031865 0)
(2.2228 0.500888 0)
(2.62721 -0.208652 7.85519e-20)
(1.94588 -0.0321244 -6.24479e-20)
(1.91526 0.665156 2.64378e-19)
(1.56912 -0.681474 0)
(-2.26282 2.03839 -5.08995e-19)
(2.42441 0.0664606 4.37023e-21)
(1.35871 -0.381763 -5.0322e-19)
(2.26366 0.0651622 -5.60257e-20)
(2.34851 0.637082 6.51787e-20)
(2.97236 -1.93145 3.99711e-19)
(1.1678 -0.530605 9.25586e-19)
(1.90377 -0.834948 1.3981e-19)
(2.164 0.125324 1.91384e-21)
(1.99951 0.0156815 -6.78972e-20)
(1.11741 -0.524509 -8.3648e-20)
(1.76068 -0.360438 2.49311e-20)
(1.66239 2.20644 3.13039e-20)
(1.25518 -0.602232 1.35162e-19)
(2.67539 -0.0191972 0)
(1.84249 -0.455657 8.06696e-21)
(2.21436 -0.0441968 -2.2007e-19)
(2.99992 0.724636 1.37746e-19)
(1.3273 -0.343922 -4.58612e-19)
(1.81754 -0.64179 -3.03952e-19)
(1.95386 -0.0108434 6.04911e-19)
(2.38031 -0.0549707 -3.4534e-19)
(1.52743 -0.249503 -2.24259e-20)
(2.96179 -0.00698002 -2.52389e-19)
(1.10067 -0.112532 -9.96321e-19)
(2.13427 -0.0266947 -1.66754e-19)
(1.08354 -0.178596 0)
(0.187075 -1.25268 -2.16984e-19)
(1.91829 0.0234577 5.53933e-19)
(1.65614 -0.00951594 -1.44417e-21)
(-1.13151 -0.246706 0)
(1.47616 -0.679942 0)
(2.04688 0.465498 2.30508e-19)
(0.960904 -0.104453 6.17969e-19)
(1.68847 -2.36404 -5.26656e-19)
(2.0961 -0.70053 -1.50851e-19)
(2.21936 -0.397134 3.5207e-19)
(3.272 0.584358 0)
(2.05936 0.502023 1.2307e-19)
(1.10642 -0.451196 -2.21414e-21)
(2.5589 1.08528 1.24624e-19)
(1.94929 -0.243191 -3.59878e-19)
(-2.2703 1.31946 -2.84775e-18)
(2.56497 -0.615261 -5.06451e-19)
(2.82649 -0.631482 1.76017e-19)
(2.32849 1.25597 0)
(2.1269 -0.35565 -6.11291e-20)
(1.88027 0.0543367 6.07193e-20)
(2.00859 0.0165754 9.2185e-22)
(0.76143 -0.36745 8.48095e-19)
(1.92741 -0.239571 5.38903e-19)
(1.88152 0.708001 2.52072e-20)
(-2.15201 0.286662 -7.91222e-19)
(2.31223 -0.150576 -1.64809e-19)
(2.27744 -0.0240886 1.48346e-19)
(-1.83848 1.29008 -3.22257e-19)
(2.46302 1.03678 -1.0551e-19)
(0.297014 -0.0399153 -1.61857e-18)
(0.917329 -0.448838 -2.81525e-19)
(2.01526 0.011682 0)
(2.15108 0.210386 -8.82258e-21)
(-1.55682 -0.39709 -8.93981e-19)
(1.27643 -0.103717 9.0781e-19)
(2.09192 0.0368994 0)
(2.08856 -0.18647 4.00012e-20)
(1.13141 -0.465806 2.09699e-19)
(1.9927 0.0480865 -5.80013e-19)
(-2.35867 0.931235 -1.00119e-18)
(1.66074 -0.457544 -1.32593e-20)
(2.19757 -0.196703 2.10451e-19)
(2.35241 0.0559938 6.20508e-20)
(1.66724 -0.766495 -3.69869e-19)
(2.17874 0.0906265 7.29789e-21)
(0.885461 -1.46087 -2.92492e-19)
(2.1219 -0.0422694 2.06426e-19)
(2.08928 -0.0443679 -1.71222e-19)
(2.16573 0.0995049 -6.79644e-21)
(2.11421 -0.0326903 -3.75103e-19)
(1.0697 -0.473564 -4.05055e-19)
(2.16357 0.116071 0)
(-0.697509 -1.54162 3.61388e-19)
(2.11163 0.073242 4.35126e-20)
(0.635893 -0.123813 -5.8191e-20)
(2.44042 0.0227042 -4.29323e-20)
(2.16282 -0.410909 -2.16578e-19)
(2.00061 0.0196404 -4.48915e-19)
(2.11557 0.335548 6.76932e-20)
(-2.21853 1.01806 -1.19089e-18)
(2.66271 0.0588732 0)
(1.56977 0.0848856 1.8741e-20)
(2.65097 -0.0735332 4.60652e-20)
(1.42027 -0.531459 0)
(2.15437 0.0781506 1.18625e-19)
(2.66845 -0.0420695 4.50648e-20)
(2.6281 0.0625554 3.43034e-24)
(2.33189 -0.776622 -1.81361e-20)
(1.84059 -0.0904593 0)
(1.78191 0.388219 4.74849e-19)
(2.06287 0.533602 -3.84229e-21)
(1.22973 -0.596382 2.96213e-19)
(2.01056 -0.157748 0)
(1.44869 0.342817 -7.6065e-19)
(1.25458 -0.366815 -2.83196e-20)
(2.59445 1.54898 -3.22235e-19)
(1.11127 -0.137299 9.68814e-19)
(2.09645 0.000684073 7.69687e-21)
(-1.51881 0.516511 4.9337e-19)
(1.92255 -0.0865191 -3.75441e-19)
(2.84281 -0.487445 -4.54011e-19)
(1.76818 0.176514 -3.52337e-19)
(1.97541 0.00708841 0)
(1.99835 0.0356492 -2.56771e-19)
(0.123132 -0.104756 1.32978e-19)
(-0.611551 0.309066 0)
(2.80047 -1.11142 0)
(2.00609 0.0140437 0)
(0.497557 -0.182543 0)
(2.06469 0.336884 0)
(1.03759 -0.104362 0)
(2.02956 -0.564408 -4.81332e-21)
(3.96974 -0.213395 -6.47433e-19)
(2.63845 0.343566 0)
(1.75958 0.388967 7.16396e-19)
(1.45607 -0.391604 2.2472e-20)
(2.09327 0.210434 6.71179e-21)
(-1.4489 -0.0598188 -5.08741e-19)
(1.05755 0.124212 -2.5673e-21)
(-2.34767 1.10715 9.21901e-19)
(1.84957 0.00051111 -1.4107e-19)
(2.74023 -0.06348 3.04543e-20)
(2.03904 0.321341 -1.60564e-19)
(1.8656 0.21271 -4.71153e-19)
(2.01603 1.08431 -1.58949e-19)
(3.47004 1.09006 0)
(0.308678 -0.477572 1.11737e-20)
(1.20344 -0.338747 -8.07556e-19)
(2.01047 0.0278947 -7.93925e-19)
(2.27598 -0.675796 -2.82488e-19)
(1.99086 -0.0311846 5.8775e-20)
(2.54787 -0.632422 2.68558e-20)
(2.10434 -0.308283 -4.68489e-20)
(2.03702 -0.522313 -2.99487e-19)
(2.03259 0.188398 1.76081e-19)
(2.00948 1.25282 0)
(1.87453 -0.250951 -3.12127e-20)
(1.67284 0.100575 -1.08342e-19)
(2.49742 -0.412476 0)
(1.72178 -0.104936 0)
(1.7152 -0.789198 -3.59457e-21)
(-1.33683 0.329314 4.83075e-19)
(1.99708 -0.578998 -1.49562e-19)
(1.77407 0.0331912 0)
(1.8931 -0.0358556 -4.93415e-19)
(1.79631 0.24639 -9.1451e-20)
(-0.450883 -1.27851 1.70323e-19)
(2.67259 0.0318883 1.72247e-20)
(-2.23464 1.00059 0)
(0.253297 -0.462405 1.72363e-20)
(2.67983 -0.00632784 0)
(2.10219 -0.372918 6.4095e-20)
(2.54867 -0.232792 -7.36438e-20)
(2.00005 0.0326908 -3.02915e-22)
(2.42633 0.705526 7.31468e-21)
(2.81425 1.29717 -3.71321e-20)
(1.69625 -0.462551 6.08559e-19)
(0.715731 -0.589487 0)
(1.54358 -1.27579 -2.10582e-19)
(1.48977 -0.571041 0)
(2.69942 0.329205 -6.0612e-20)
(-0.515235 -1.17139 2.64964e-19)
(2.72724 -1.10043 3.86716e-19)
(1.59043 0.0343972 -1.94713e-20)
(-0.816044 -1.60493 -1.61233e-18)
(1.05598 -0.521357 -3.42043e-19)
(1.24782 -0.348088 -4.68829e-19)
(1.91665 0.116216 -5.43441e-22)
(1.62463 -1.21778 1.72926e-19)
(1.11164 -0.488355 3.33017e-19)
(1.30801 -0.376489 5.14563e-19)
(0.89096 -1.18661 9.39904e-20)
(1.85166 -1.37875 -1.31754e-19)
(1.80636 -0.561093 3.02781e-19)
(-0.862975 -0.0299651 9.42406e-19)
(2.20322 0.0169174 4.0511e-21)
(1.45213 -0.410977 -1.66884e-20)
(2.37417 0.431613 -2.41244e-20)
(2.22152 -0.55835 0)
(0.52328 -0.163133 -1.95244e-18)
(2.10755 -0.0391376 -2.73127e-19)
(1.99822 0.132893 0)
(2.66494 0.306617 0)
(1.36951 -0.932681 -7.9897e-20)
(3.14858 -0.60029 -5.1765e-19)
(2.46681 0.211622 7.06304e-20)
(2.02104 -0.371061 5.40624e-19)
(1.99205 1.04188 1.50221e-19)
(1.43666 -0.015016 3.8765e-19)
(-0.742077 -1.23397 -3.72619e-20)
(1.79748 0.686464 0)
(1.34111 -0.410602 4.92833e-19)
(-0.089106 2.3812 3.3104e-19)
(-1.01188 -1.30802 1.19735e-18)
(1.68665 -0.643342 1.00672e-19)
(1.38272 -0.626868 -7.00283e-20)
(1.74086 -0.00447269 2.01471e-19)
(1.67183 -0.0414227 1.15891e-20)
(2.42967 -0.384694 3.15034e-19)
(-0.875244 -1.21662 -2.61151e-19)
(2.44526 0.206575 -4.98678e-20)
(1.93965 0.0728483 1.97239e-19)
(1.07858 -0.166359 -3.97885e-19)
(1.87596 -0.0752101 3.07586e-19)
(1.50147 -0.25345 0)
(2.46456 0.390865 -4.58652e-20)
(1.98005 0.0665237 4.40733e-20)
(1.41432 -0.255937 -1.57909e-19)
(1.91169 1.97277 8.05174e-20)
(1.77571 -0.544909 2.25288e-19)
(2.06602 0.0244791 8.41432e-20)
(1.34681 0.177092 -5.92214e-19)
(2.47878 -0.417245 0)
(1.61934 0.0712949 -3.08308e-20)
(2.27574 0.0832145 7.61653e-20)
(2.04655 -0.0846052 0)
(1.37326 0.0589405 3.3891e-19)
(2.67907 0.0350121 0)
(1.80669 1.97597 -8.90905e-21)
(2.33201 -0.0335621 0)
(1.87323 -0.276404 0)
(2.56203 -0.0336063 4.67985e-20)
(2.43444 0.162011 -1.90641e-20)
(2.99834 0.154287 -4.1099e-19)
(1.91386 0.168208 -2.14483e-19)
(1.58947 1.29166 -1.3274e-19)
(2.00237 0.104726 -8.27158e-20)
(2.09602 0.341922 0)
(1.60359 1.14791 -8.89205e-20)
(2.5338 0.137724 8.69007e-20)
(2.06768 -0.357929 -1.31491e-19)
(2.22077 -0.553635 0)
(3.03277 0.70992 2.07871e-19)
(2.27848 1.76944 2.03181e-20)
(2.19393 0.0085879 1.62915e-20)
(1.73062 -2.54754 0)
(-0.772376 0.471574 1.94256e-18)
(2.05423 0.181808 0)
(2.4569 -0.332248 -1.58195e-19)
(-0.174689 -0.164317 0)
(2.93225 0.584401 0)
(1.87004 -0.896082 0)
(1.99853 -0.760053 0)
(-1.55401 2.18346 -2.79256e-19)
(-0.527681 -1.9846 -1.56167e-19)
(1.84518 -0.0208441 -3.62343e-19)
(0.163859 -1.00221 -8.4471e-20)
(1.19651 -0.518291 0)
(0.308681 -1.43444 -8.8485e-20)
(-0.386422 -0.274161 -1.3649e-18)
(1.44453 -0.680901 0)
(1.42196 -0.492772 -5.2772e-19)
(1.91177 0.223089 5.41616e-22)
(2.36139 0.417372 5.14697e-20)
(2.35191 -0.798641 6.98146e-20)
(1.85073 0.199318 0)
(2.1644 -0.699539 0)
(3.39336 0.273185 1.97013e-19)
(1.75384 -0.322102 6.55936e-21)
(1.86669 0.121876 -1.5595e-21)
(1.37272 -0.913196 4.80779e-22)
(1.99812 0.00980142 1.90843e-20)
(2.14827 0.206418 2.69675e-22)
(2.03116 0.190423 2.53463e-19)
(1.59229 0.150033 1.48421e-20)
(1.85329 -0.499678 0)
(-1.43542 1.5169 0)
(2.18595 0.0761024 0)
(1.88486 0.0119409 0)
(1.71129 -0.279536 2.23184e-19)
(2.8281 -0.0743152 0)
(-1.22396 1.5944 3.9315e-18)
(2.64513 -2.10509 -4.88109e-20)
(1.27415 -0.394089 -7.72802e-19)
(1.42465 -0.375389 -1.41476e-20)
(-0.514137 -1.67917 -2.11605e-19)
(-0.181392 1.77409 -1.91779e-18)
(1.87426 0.0468124 6.71685e-20)
(-1.20654 -1.10478 -3.78094e-19)
(1.60523 0.203916 2.02661e-20)
(2.5851 -0.019049 0)
(2.32877 -0.384701 0)
(1.59524 -0.35707 0)
(2.15595 -0.426693 1.14553e-19)
(1.80683 -1.53231 0)
(1.83306 0.693013 0)
(2.00187 0.0122927 0)
(1.73479 -0.396493 2.35605e-19)
(2.09078 0.20864 -2.31242e-19)
(1.78722 0.0196026 0)
(2.09357 -0.575235 -1.49013e-19)
(1.97926 0.198815 -2.50071e-19)
(2.55971 0.981969 -2.61834e-19)
(1.485 -0.695456 3.15768e-19)
(1.9103 0.740507 2.67294e-23)
(1.75265 -0.431183 -4.53075e-21)
(1.68807 -0.114534 2.82066e-20)
(1.89979 -0.361125 -6.31476e-20)
(2.42189 0.168846 3.04277e-20)
(1.88016 0.114493 -1.78916e-21)
(1.80619 0.098988 -3.43448e-19)
(2.12202 -0.0408874 0)
(0.673301 -0.145645 4.42681e-20)
(1.96278 0.0772555 3.54985e-19)
(1.17419 -0.466018 -2.59625e-20)
(2.0993 -0.291173 -1.3661e-19)
(0.992513 -0.126097 -6.73633e-19)
(2.43714 0.145724 -6.07137e-21)
(3.18459 0.402735 3.61103e-19)
(2.00012 0.089278 0)
(1.78246 -0.371523 8.66025e-21)
(1.75209 0.0340728 -9.10186e-21)
(1.91561 -0.371096 1.24612e-19)
(0.109443 -0.374754 -1.29844e-19)
(2.05181 0.0309331 1.82783e-19)
(2.17523 0.118501 -2.15405e-21)
(2.09879 0.0099481 -5.73735e-21)
(2.16773 0.0709989 0)
(1.34431 -0.273771 0)
(1.30487 -0.627079 3.85476e-19)
(-2.28285 0.907033 1.08529e-18)
(2.02728 0.00750141 4.73386e-22)
(1.96034 0.0765525 7.10367e-19)
(1.63701 -0.306394 -2.2385e-20)
(1.41509 0.327927 0)
(1.77938 0.124245 0)
(1.55185 -0.31111 -3.06199e-21)
(2.50112 0.00212853 7.36849e-20)
(1.9633 0.718329 3.4897e-19)
(2.48367 -0.178423 0)
(2.07413 0.00376145 0)
(2.05777 -0.593888 4.14269e-19)
(1.98642 -0.143261 2.88861e-19)
(0.021262 -0.00199001 -1.15568e-20)
(1.78203 -0.0405932 0)
(2.75917 0.45257 1.6242e-19)
(2.27514 -0.717002 -6.55257e-20)
(-1.83057 -0.134129 -1.11474e-18)
(2.00695 -0.021082 -3.91858e-19)
(3.8118 -0.155566 0)
(3.23507 -0.562577 4.11273e-19)
(2.24227 -2.57222 -1.30878e-18)
(-0.0132781 0.0120421 0)
(1.92204 0.0175569 -1.09486e-21)
(1.90959 0.132081 -2.31334e-19)
(1.89838 0.009759 6.16822e-24)
(2.58734 -0.252315 4.02768e-20)
(1.38057 1.16789 4.78803e-19)
(1.86017 0.0456805 0)
(0.98009 -0.344043 -4.29323e-21)
(1.74893 -0.310923 1.65011e-20)
(3.33383 -0.668624 -2.51778e-18)
(2.05388 0.319162 1.90557e-19)
(0.762023 -0.573236 -2.29267e-21)
(2.00958 0.0152547 -8.44788e-19)
(1.8775 0.782486 -1.57999e-20)
(1.62321 -0.0749695 2.62621e-20)
(1.70227 -0.356011 0)
(1.79346 0.0163658 -5.17279e-20)
(1.03923 -0.47793 2.66172e-19)
(2.2265 -0.106802 -4.16486e-19)
(1.98466 0.0672538 -3.21235e-19)
(2.44135 -0.313593 1.45146e-19)
(1.64355 -0.133882 8.17385e-19)
(2.17264 0.0145075 -4.39829e-21)
(1.7657 0.126364 2.00059e-19)
(1.94357 0.147725 4.1501e-21)
(3.12775 -0.376341 -5.80156e-19)
(2.4985 1.11101 -1.8082e-19)
(1.76326 -2.43958 4.05174e-19)
(1.89023 -0.0221601 0)
(1.6424 -0.375438 0)
(0.967211 -0.185987 0)
(1.27282 -0.355062 5.98214e-19)
(2.14945 0.0729703 -5.22923e-19)
(1.77934 0.266822 0)
(1.45745 -0.274277 -4.69371e-19)
(1.7744 0.235264 0)
(1.72046 -0.253517 -3.66503e-19)
(2.0483 -0.376436 -1.37004e-19)
(1.82945 -0.466077 -3.32521e-19)
(1.94084 0.0479365 0)
(1.94525 0.0630938 0)
(2.06372 -0.0913218 7.96523e-20)
(2.60328 0.279976 6.28348e-21)
(2.71852 -0.108441 2.20395e-19)
(2.48083 1.8586 -4.67444e-21)