/*--------------------------------*- C++ -*----------------------------------*\
| =========                 |                                                 |
| \\      /  F ield         | OpenFOAM: The Open Source CFD Toolbox           |
|  \\    /   O peration     | Version:  2306                                  |
|   \\  /    A nd           | Website:  www.openfoam.com                      |
|    \\/     M anipulation  |                                                 |
\*---------------------------------------------------------------------------*/
FoamFile
{
    version     2.0;
    format      ascii;
    arch        "LSB;label=32;scalar=64";
    class       volScalarField;
    location    "0.3";
    object      p;
}
// * * * * * * * * * * * * * * * * * * * * * * * * * * * * * * * * * * * * * //

dimensions      [0 2 -2 0 0 0 0];

internalField   nonuniform List<scalar> 
5098
(
0.464541
1.68495
0.455611
2.35473
0.262886
2.64312
1.5347
0.437343
0.535312
0.898369
0.66351
1.00488
0.569196
2.99614
0.430869
0.174612
0.381825
0.676356
-6.24081
0.366957
2.30737
0.311924
0.763254
3.66626
0.555317
2.55159
2.50179
1.62646
-7.63077
0.0967611
0.975419
3.19521
2.33114
0.784981
1.06773
0.368404
1.84538
2.21803
2.87599
1.06408
2.32061
0.593188
2.51785
0.598646
1.09524
1.85314
0.497037
3.22641
1.01588
2.41609
1.42053
2.58393
0.285767
1.87525
2.66026
2.71455
2.3578
2.22429
3.20673
0.257072
0.423498
0.512742
1.06852
0.599588
0.267911
3.03478
0.00783079
1.34631
1.38426
2.05715
2.38016
0.591356
1.29996
0.846514
0.537391
2.43189
0.0253244
2.75088
0.735357
2.66647
0.354121
0.518254
2.26944
0.810666
0.675548
-0.103424
4.15229
0.115262
0.273781
0.388349
1.06298
-0.184234
1.15431
2.36794
2.88521
0.806399
2.05136
2.93383
0.600191
1.37583
0.578513
2.5769
-0.606361
0.188873
2.80613
0.696679
2.30437
1.40715
3.29774
0.656275
2.20209
-5.95434
2.28563
-0.0173604
2.27077
-1.25191
0.473674
-0.332643
0.265231
3.61626
2.59953
1.70891
0.838754
0.512689
-0.221228
0.315741
1.83324
0.81293
2.9711
-0.0756058
0.550343
3.12034
3.08233
-0.0396839
0.791042
0.456533
-0.205584
2.4303
2.90794
1.92997
2.58442
-4.12362
1.47638
0.460335
1.91075
0.184055
1.58647
0.465073
0.34526
1.07671
0.681765
-0.926019
0.415976
2.35666
4.15702
3.54321
2.24042
0.665117
2.32784
-7.13585
1.72661
0.442564
-1.21026
2.15823
0.617334
0.824175
0.466316
0.374221
0.556994
2.27219
0.738994
2.40894
1.62739
1.6402
0.846346
2.27183
2.26606
0.329231
2.49026
4.06778
-1.71199
0.490937
2.11606
0.605847
2.06726
0.394241
2.87518
1.76682
2.40141
0.12259
-5.69423
0.659953
1.22891
0.453508
0.688942
-0.121362
0.499029
0.53969
0.0482481
2.20737
0.508619
2.67248
0.920961
1.84818
1.86137
3.53913
0.929208
2.95139
1.06298
1.22415
2.15664
2.6222
0.66144
1.7699
0.530221
-4.87087
0.389284
0.68034
-0.237958
2.15005
1.16585
2.56395
0.183885
1.08314
0.0955103
1.89996
3.91933
2.62357
1.46116
-1.12404
2.20761
3.72247
0.398836
-0.0997591
0.434565
0.524814
2.04987
0.399485
0.62638
2.32952
0.508887
1.32952
0.210509
3.32346
2.33902
1.08498
2.94022
0.661459
0.463677
0.979942
1.41584
1.52136
-0.91951
0.422047
2.3492
0.406346
0.742304
0.741951
3.18
0.197984
0.429534
0.2247
0.530569
1.34983
0.0533361
0.588778
-6.47981
0.682114
0.738664
2.3459
0.139923
1.331
-9.24521
0.650085
3.15543
-0.0104148
0.557591
0.572691
0.39256
2.26471
0.547354
0.362102
0.119709
0.516184
-2.95876
-0.277223
2.42301
0.135961
0.782005
0.925268
0.474265
-0.388523
3.3488
1.27013
1.48344
0.87797
1.02227
0.795464
2.36453
2.32505
0.195809
1.07033
2.53647
2.3252
0.572274
1.80417
-1.04225
2.08279
2.07626
0.522197
1.11975
-0.888554
2.59821
0.315887
0.495213
4.10056
-0.381608
0.188493
1.28145
3.4675
0.674495
-0.485452
0.446423
-0.440751
0.830493
2.91094
1.47961
2.66962
3.25967
0.28067
2.05553
1.2533
2.9171
0.167738
1.95787
1.43789
0.826881
2.4606
1.40805
2.09538
1.40675
2.1232
0.829626
2.4223
-7.06025
0.45997
1.90768
-8.54733
-0.313695
1.05038
-0.552472
3.50624
3.43145
0.523173
0.368658
0.558502
0.406188
0.932616
2.94913
0.629352
2.39695
1.52328
1.17675
0.164141
0.621755
3.17648
2.3515
2.13077
0.165955
0.341419
3.09177
0.763447
0.0554136
0.436946
0.556517
0.527896
2.10898
0.700191
0.516419
0.220544
2.0502
0.28259
2.43457
0.759046
0.569764
-0.704178
0.786992
0.387473
2.33078
-1.62214
2.43225
0.697005
2.52084
2.23507
1.96745
0.324864
2.46668
0.13013
1.76191
0.387854
-0.99759
3.38702
2.76446
2.68585
-1.39919
1.74701
1.74043
0.590803
0.66364
0.377317
2.4099
0.694769
0.271366
1.36987
-0.212206
0.198746
2.29754
3.50402
-0.726317
0.965233
1.91223
2.72265
0.607364
2.21696
0.56636
-0.181704
0.774909
0.567337
0.689435
1.65825
0.0958993
-8.06811
0.141299
1.81286
-0.443149
-0.463988
0.353746
0.860533
2.2225
0.242214
2.52927
2.12838
2.17195
0.206002
2.19851
-0.497169
0.456674
0.464659
-4.37447
1.95836
0.521677
1.0756
2.5835
0.305843
0.610931
0.632227
0.59542
0.839717
1.81204
-0.743576
2.48379
0.231194
3.42889
-1.7227
2.29483
0.6428
0.042197
0.460126
0.555602
2.21753
-2.55255
0.0631137
0.887688
0.766022
2.55454
0.150299
-3.65344
2.64854
-0.738633
1.76068
2.16573
0.132544
-0.0173959
1.24935
0.785426
1.95569
1.52543
0.395138
0.700635
1.97955
-0.0879909
0.553451
0.793258
0.262302
-0.314326
-0.0724222
2.77816
-0.499671
2.6474
2.41943
0.662116
0.770482
-4.47664
0.677159
-5.99843
-0.240338
2.14391
1.79365
0.347923
1.23939
-0.277305
2.56245
2.38162
0.751131
1.97457
1.85639
3.46243
0.380741
0.334908
3.07414
0.589643
0.293046
3.38137
0.241297
-0.0506685
0.0207454
0.390911
-0.894693
1.61335
0.193444
0.645219
3.88208
0.634079
1.27948
0.746394
0.865403
1.19246
-0.167023
-0.012617
0.500309
2.48419
0.453231
0.349441
2.43373
0.292369
0.519232
1.19568
0.753026
3.98551
-0.119284
-1.16898
2.04713
0.437366
-1.66902
0.544696
0.716235
0.572488
2.63308
0.582131
0.321497
0.671238
0.476866
2.21681
-0.629085
0.743784
-0.582291
-0.776093
0.174148
0.562421
-1.01089
0.503332
-0.175177
-0.838334
2.40974
2.52471
4.08122
0.67809
2.406
3.07536
0.670785
1.42211
0.648374
1.82057
-2.93351
1.66243
0.503585
0.192405
2.12576
1.66467
0.361619
-0.288537
3.44149
0.716412
0.639104
0.921909
2.20929
0.818556
2.31915
0.074381
0.17501
0.225177
3.01205
0.232976
-0.975934
3.12829
0.0361815
2.97164
0.589585
0.396788
0.875332
0.0154385
0.320231
-0.377733
3.03392
0.13882
0.136895
3.08106
0.358135
0.965016
0.922703
3.35669
-1.27979
2.76538
1.28548
0.257261
0.525158
-0.0890348
1.11597
0.801401
0.393281
0.607038
1.53166
2.69235
0.538273
0.310706
2.22892
3.42601
0.382373
2.56935
4.00528
0.186261
1.1221
0.537725
2.64974
2.96063
2.66805
-4.1668
1.66252
0.837282
0.596224
1.42892
1.18987
2.16275
0.84664
1.77405
0.804498
-2.28038
0.219514
0.748198
1.73066
2.31933
1.301
0.705267
3.22862
2.17722
2.75761
1.6025
0.703355
0.209316
0.174989
3.13719
3.49634
-0.262633
2.60996
0.59984
-0.835289
-0.467
1.91893
-2.66947
-7.15793
0.610243
0.664668
0.446446
0.985706
0.17881
1.88232
2.53967
-5.72584
2.54859
0.177032
2.36657
0.264383
0.739164
0.488432
3.28604
0.668658
0.661543
0.772168
-1.80156
1.82909
0.495329
0.587984
3.04269
0.647353
0.65753
-0.27108
0.564953
-2.95055
2.38786
0.419244
3.53564
3.2109
3.0019
0.612468
-0.149093
-6.94175
-3.65701
1.34324
-0.331639
-1.47394
0.259207
0.630921
2.73898
-0.114554
2.14319
0.568962
2.98495
2.52091
-0.516539
1.53964
-1.5396
3.7625
0.211845
1.56184
0.45387
0.653547
0.77833
0.641827
-0.611854
2.83943
0.45729
0.410456
-0.957339
0.0237874
1.07444
0.586313
0.536139
0.188504
0.715623
1.6382
0.59462
2.28452
2.99811
-0.701341
1.03674
0.599652
2.24752
-8.67768
0.69718
0.984695
0.604424
0.460013
-0.0892825
0.653015
0.532791
0.731067
2.17008
1.32187
-3.07594
0.688628
0.843854
2.29898
1.34994
-0.179502
0.581385
3.83507
1.12968
2.60495
0.676495
1.81058
0.340349
0.491585
1.09621
0.416028
0.776156
3.10846
2.88689
0.460217
0.998603
0.56715
2.7989
0.259832
0.027035
0.224816
0.160289
-3.70571
0.285698
0.581167
2.42234
0.0923443
1.20732
-0.532141
1.33839
0.380377
-0.259805
2.46096
0.691589
3.18107
0.482562
2.53556
2.45454
2.31985
0.67529
2.08733
0.452589
0.601945
1.39716
0.800391
1.12251
-0.331793
0.342739
0.741988
0.542382
1.72355
1.73409
1.81835
-0.123308
-0.477737
4.02435
0.563002
2.20947
0.0566805
3.03931
-0.744439
2.31502
0.747004
0.605326
3.24047
0.80294
-2.07635
1.7056
3.35567
2.15753
1.01834
0.469217
0.0327366
-0.307235
-0.429621
-0.245592
2.19632
-0.418154
0.12903
0.0433356
1.22331
-0.0363082
-0.850108
0.631738
-1.17264
2.39061
1.20462
1.90231
0.734099
-0.940503
3.07682
0.285972
0.312885
-0.757045
0.638995
-0.0315511
0.312393
0.556814
0.462645
0.208384
2.35216
0.350135
0.678669
-1.13708
0.289736
0.527221
-0.421428
0.599485
0.130018
2.48461
-5.31347
3.30443
2.75394
0.822878
2.40236
1.54928
2.34926
3.59522
2.46201
0.498071
0.695212
-0.649956
0.699721
0.87753
0.548041
2.61991
-1.09048
2.78573
2.9118
1.8362
1.78462
0.611962
1.00067
0.266838
0.257292
3.10734
2.2843
1.14229
1.23814
0.147824
0.749978
-4.72605
-1.32049
0.391108
0.803162
1.24756
0.688991
0.0711199
3.18291
1.91475
2.6695
2.4689
2.37142
0.189293
0.458713
0.467825
-0.826311
1.56002
0.737868
1.43944
2.16499
3.31494
0.437043
0.868539
1.40842
2.53805
0.580097
0.606186
-0.443654
3.70952
2.44379
-0.345056
1.75323
0.910985
0.581487
2.39327
2.50438
1.32889
1.61512
0.295897
0.436695
1.19711
1.44984
3.11559
-0.534215
2.83104
0.458156
0.763023
0.399392
2.37552
2.70547
0.414532
0.166665
3.69013
1.61912
1.50305
1.57581
3.45604
1.24273
2.09531
0.912412
2.35002
0.16362
0.569038
2.80756
3.9008
0.654918
0.724404
0.488798
0.57854
-0.746036
2.50773
1.81248
-0.102057
1.71217
2.3916
1.67685
1.79862
0.325226
2.63557
2.84039
0.470978
3.49855
2.37151
0.615996
-0.0609969
0.146401
0.272592
1.96674
1.48303
2.25766
2.36267
1.86534
0.637944
0.538413
2.41558
1.41096
2.85237
0.591935
2.10257
2.21194
1.44201
2.49192
2.52246
0.411176
0.436573
1.84747
2.47009
0.484673
0.41428
0.720477
2.76069
0.680211
2.35789
3.4118
0.58808
3.29575
3.64325
0.930081
0.410862
-0.649722
3.95647
-1.25427
2.42404
3.42801
1.76509
0.152786
1.95713
1.35068
3.65315
1.28338
1.20389
3.76849
2.96639
0.421794
3.7323
3.0371
0.515765
0.534197
-0.347503
0.0877401
0.78271
2.28492
3.00733
-0.945982
0.317988
2.0132
0.893571
3.04009
0.563639
3.41883
0.542983
0.58116
1.49692
-0.107072
2.68549
1.28
1.35772
0.612823
3.00615
2.01603
2.49552
2.31857
0.531391
1.18682
0.371131
0.761592
1.09078
3.19493
2.17515
0.0965626
1.32776
0.714885
0.594754
2.97744
0.567524
2.51099
0.774026
-0.0621976
0.649253
0.598507
1.13196
3.38089
0.712566
1.45206
0.63478
0.786535
2.89529
3.18625
0.587662
2.82212
1.94335
0.635579
1.50761
0.885537
3.8878
0.63765
-1.07339
2.54799
-4.79965
2.5157
0.101307
0.542732
0.204731
-0.228476
0.322547
-0.28225
2.17106
0.421902
0.320419
0.0706623
0.797256
0.139751
1.73014
3.21677
2.344
2.00383
0.598902
0.62726
0.485403
1.61798
0.332912
0.0823095
0.206983
0.0446702
0.735248
2.10484
1.72818
1.87235
2.31006
0.993673
0.120264
-1.82848
0.446893
0.596553
3.69205
2.0927
1.93491
0.666665
0.460713
0.727173
0.343339
0.642833
0.496371
0.47414
0.385222
2.05028
0.0602514
0.230943
2.27623
0.283047
0.267134
3.14026
0.248631
0.209596
0.85528
2.45236
0.716813
0.720798
0.754694
0.438661
0.289885
0.667987
2.28282
0.563009
1.14896
0.234705
0.610947
0.690626
0.646117
2.50071
0.577321
0.554735
3.16112
0.282624
2.40261
0.502121
-0.0655425
-0.922294
0.428778
0.166199
1.83841
2.53074
2.20332
0.961757
0.445287
2.88214
0.670684
-0.609691
0.0579226
0.555525
0.234389
0.552258
2.8689
0.229339
-7.60934
0.782414
2.03128
1.91459
0.537495
1.23013
0.257709
1.10064
0.568117
1.25794
0.894829
-0.785936
0.578507
3.11336
1.2888
0.216196
1.09833
0.0679386
2.21747
0.581019
0.463534
0.683057
2.3507
0.304733
0.379379
0.918445
0.10061
1.58377
0.861896
2.28235
0.335147
0.412741
1.79682
2.38385
0.005112
2.20152
2.0501
2.48612
2.373
2.15465
0.877644
3.33787
1.24773
0.355576
1.21397
0.508502
0.641634
0.183833
1.92145
0.321065
3.3477
0.841781
0.6106
-4.60268
0.966141
0.634916
0.801183
-0.529275
1.87076
0.178341
2.05454
2.33408
2.57816
0.491094
2.6725
0.445078
2.02773
2.37946
1.65714
0.803994
0.32145
0.457572
2.23819
0.623717
-3.88205
2.29685
1.00178
0.347917
2.27086
2.28797
0.527579
3.07435
-0.930612
-0.26877
0.464346
0.869416
0.433988
0.326282
0.523336
3.33049
-0.138918
1.70121
0.588897
0.738606
2.44778
2.80536
0.0522571
0.199734
2.46658
-1.50481
1.6563
2.4275
0.486539
0.460803
1.02652
0.634416
3.36367
-0.132958
2.44986
0.328506
-0.00384109
3.5048
2.10803
0.732625
2.72629
0.720163
2.48915
2.42712
0.620498
2.45169
1.67989
2.29994
2.49492
0.56574
2.57797
-0.678982
0.547422
0.0699089
-1.55908
2.59557
0.207151
-0.30254
1.27708
0.31658
1.25928
-0.37923
1.94746
0.811999
2.14201
2.18212
1.33417
-0.602117
0.293053
0.756601
2.48304
0.663686
0.39788
0.48921
0.236213
2.46828
0.410929
0.486826
2.43094
0.451046
2.38481
1.9231
0.34138
-0.0615367
2.41897
2.85621
0.347104
2.32322
-0.395335
0.295408
-0.403123
0.71988
0.52302
0.0208415
3.594
0.420815
-0.588328
0.104862
0.415518
2.39549
1.09087
0.417872
0.0975028
0.596139
0.691116
-0.284481
1.18872
2.99217
1.05897
0.611946
0.0972278
0.205022
3.01996
3.64283
0.31538
1.19319
1.93149
0.164604
0.838409
3.28711
-2.55496
0.510278
2.49407
2.7434
2.76112
0.584768
1.08867
0.0817487
0.900322
-0.034515
0.202037
2.43181
0.50259
0.709987
1.18049
2.3868
2.57236
0.251099
1.86602
2.42407
2.31999
1.61601
3.38346
1.13856
3.18011
0.227504
3.1021
3.85776
0.294374
0.302324
1.5687
2.41448
-8.924
1.97703
1.12914
0.23493
2.00805
2.77372
2.11675
2.15265
1.58028
1.05202
0.524182
3.72272
0.371192
0.76683
0.573
0.664785
0.421776
2.47577
2.19293
2.15215
2.27729
-0.410836
0.239399
2.39124
1.70233
0.649995
0.401623
1.32067
0.357755
0.849285
2.34885
3.54729
2.52149
2.54164
2.47693
2.02449
3.41956
2.40138
2.48029
1.53294
0.694078
0.543729
1.40958
1.24085
3.77497
-0.240357
0.972211
0.018502
0.231625
3.59759
2.13868
1.22021
0.581586
1.39373
0.432042
0.352205
2.67833
2.46998
1.60669
2.51376
0.56293
3.00344
-1.14783
1.56736
1.4801
0.731877
0.807478
2.94365
0.740046
0.803842
2.43103
1.71365
0.699816
2.41614
3.05688
0.401589
0.546917
0.429995
-9.85859
0.438824
0.473695
1.0365
2.49175
0.935251
0.1922
1.95273
0.663799
0.559001
0.855975
-0.139562
0.465529
0.59101
0.317193
0.229198
2.04684
2.56312
2.58311
0.424722
1.94798
0.722758
2.47964
3.08396
0.544868
0.102908
0.250077
3.06858
1.48871
0.785928
0.503535
-2.21257
0.214632
0.478772
3.27637
0.251067
0.0210475
2.0457
0.834893
0.0995761
2.02171
0.606911
1.01812
0.482386
0.50555
0.791209
0.31923
0.243487
0.61043
-0.194433
2.56462
2.23005
3.51807
0.881548
3.32627
0.581528
2.55348
0.793364
0.750802
0.392701
2.88444
0.92466
0.763583
0.613199
-0.0439828
0.435226
0.0834901
0.170759
0.319956
0.496146
0.352103
0.437179
2.234
2.61348
-1.58711
0.469497
0.511487
0.408215
0.812831
2.462
0.48637
1.84374
0.626395
0.249694
2.71773
0.386161
0.923724
0.0197357
0.169823
0.526315
2.66118
0.371833
0.151265
0.278727
-0.763403
0.431373
0.334554
3.12105
2.62316
0.0853523
-5.57316
0.619538
2.40615
0.348928
0.473363
0.0330975
0.720503
0.445199
0.247692
0.438806
0.0356696
1.99769
1.1566
1.92251
-0.534942
0.366104
1.34746
2.00343
0.339582
0.628885
2.23869
1.22879
0.459694
0.470046
0.371085
0.742524
0.177901
2.24534
-0.184485
0.338433
0.461213
0.145219
-0.964634
0.842384
0.314714
0.224153
2.82112
2.7301
-2.22649
0.141162
0.538625
0.617829
0.864866
0.336478
2.42623
0.618115
2.68307
2.2033
0.654941
-0.602619
0.724927
-6.92038
-0.310544
2.45293
0.364595
0.935982
0.205676
2.27464
0.190396
2.52946
0.386487
0.44403
2.77116
0.106578
0.0665728
0.469928
2.75356
0.808335
2.45347
2.4822
0.640644
0.193098
2.48469
-1.65286
2.69212
0.651307
2.61187
0.481973
0.244426
0.449947
2.26086
2.53762
0.520157
2.69344
2.04908
0.37215
2.90273
2.03454
0.572634
2.42416
0.248598
0.343875
0.464378
0.633543
0.232736
0.430847
0.0144638
2.45054
2.21428
0.280032
0.203161
2.08369
0.349205
2.90123
0.838916
0.100422
0.547468
0.821828
0.253718
-4.46167
1.45317
-0.775294
0.261633
-0.700236
2.01911
0.28762
0.403796
0.446711
0.799838
3.0863
-0.373244
0.00762889
1.16991
0.703362
0.311341
-0.462862
0.186728
0.609309
0.198665
1.19118
2.41452
0.0330333
0.265448
0.346525
0.252614
0.137765
0.632073
2.5008
0.520416
0.0953138
0.317785
0.498034
0.35625
0.24531
0.914867
0.596941
0.392777
0.515501
0.236905
0.268877
0.101226
0.0506181
0.666846
0.452971
0.646263
1.51061
1.04834
0.187575
2.1702
2.04031
0.285737
0.101165
2.32736
0.668389
0.105537
0.571789
0.39596
1.64697
0.163294
0.62156
0.086241
1.45964
0.399007
2.22761
2.59495
0.256904
0.689281
2.43164
0.233283
0.5974
0.241309
0.430318
2.54165
2.5202
0.248693
0.17791
0.282722
0.260479
0.136695
0.241962
0.542999
0.41061
2.51135
0.491063
0.253319
2.48275
0.262182
3.07846
0.281181
0.248715
0.413025
0.323168
2.72074
0.24588
0.15987
0.705897
0.153372
2.38593
1.96896
0.272194
2.61254
0.215679
1.41621
2.53148
0.670562
2.20495
0.238114
1.16612
0.22471
0.73217
0.255328
0.711582
0.2196
2.45255
1.93284
1.63807
1.95667
0.0106168
0.183272
0.240585
0.918377
1.12615
0.747904
0.148427
0.0107268
0.155648
0.274451
0.456287
0.565054
3.14401
0.688275
0.18448
3.03393
0.448912
0.158233
0.21925
0.173622
1.61466
0.193893
0.239437
-3.23902
0.66867
1.09777
2.52978
0.230895
0.186229
0.291034
0.0722247
0.355037
0.287914
0.25017
0.213269
2.52229
0.575722
0.194562
2.3554
0.34361
-1.79975
0.253405
0.672134
0.16859
2.01144
-1.15464
2.51333
0.371233
0.22898
0.0611299
0.278247
0.574905
0.258559
0.607153
0.425721
3.00574
0.582535
-1.1579
0.0122652
0.406297
0.167543
0.24841
0.159043
0.0658233
0.219319
0.457217
0.253038
0.161708
2.59224
0.76891
0.00895745
0.281433
0.240787
0.559543
0.263925
0.316986
0.231113
0.347219
2.55947
0.516358
2.84005
0.126602
0.541211
0.177504
0.0365335
0.0932746
-8.67877
0.588825
0.205886
1.03834
1.55604
1.96557
0.181221
0.246913
0.147122
2.44263
0.267558
0.625401
1.30212
0.0408953
0.25129
-0.118972
0.252438
0.0794818
0.247667
2.54025
0.0275949
1.30791
0.224882
1.92118
0.179641
0.954197
0.0291112
0.150016
0.305099
0.243139
0.180964
0.40127
0.398364
2.3787
0.165185
0.390372
0.282524
0.257318
0.760201
0.176419
0.264906
0.481433
0.130486
0.224281
2.53986
2.43889
0.106538
0.257415
0.460724
0.106709
0.767494
0.00571029
0.165697
2.69318
0.626931
0.120942
0.0954703
-0.485232
2.4591
0.319463
0.189529
0.080906
-0.169494
0.404351
0.148533
0.465624
1.90362
1.25466
0.209367
1.11967
0.333411
2.97774
0.0698755
0.091593
0.184648
0.230994
-4.12362
0.228468
0.20715
-0.0274949
0.301405
0.100555
0.611464
0.0389988
0.2968
0.422722
0.277481
0.204432
0.20548
3.58029
0.171144
0.314298
0.0108353
0.314933
0.823817
0.254376
0.366186
0.760048
0.151668
0.183345
0.18758
0.0635561
2.92301
0.0236954
0.238955
0.389626
0.102768
0.103846
0.297456
0.188881
2.18373
0.330549
0.412942
1.72955
0.183497
0.126762
0.140859
0.428575
0.178228
0.121364
0.560462
0.188059
0.369039
0.101505
0.537787
2.4107
2.21157
0.111181
0.282534
0.234585
0.199742
2.45441
0.0234592
0.231772
2.53579
0.180895
2.52729
0.158214
0.133824
0.361097
0.154342
0.00899537
2.71615
0.253674
0.0188329
0.412857
0.49953
1.85515
2.75266
0.0536127
0.530504
0.140731
0.0990131
0.00496224
1.88699
0.402358
0.000277843
0.123831
0.278718
0.204431
0.265993
0.184505
0.0728384
0.0182472
0.0625007
0.887078
2.53763
-1.82619
0.114729
0.251346
2.07658
1.91589
0.096484
0.00912872
-0.414506
0.496404
0.0654012
0.133717
0.0718276
0.129892
0.0253913
-0.404467
0.0730052
0.384057
0.118369
2.48368
0.0553907
0.214959
0.141318
0.74397
0.038736
2.19338
0.427432
2.17687
0.437353
0.387638
0.106175
0.224737
0.154889
0.205882
0.261853
0.0930069
0.103272
0.220605
-0.000308738
0.062225
0.199254
0.100146
0.0930765
0.159366
2.48209
0.144876
0.369264
2.47523
0.103265
0.208171
0.453014
1.78141
0.128017
0.691196
0.111477
0.117095
-0.335094
0.47311
0.120525
1.06419
0.128211
0.30523
0.620816
-0.0537149
0.392256
0.311607
0.129929
0.563785
0.829324
0.101588
0.105946
0.136341
0.532153
0.224174
0.191323
1.57602
0.0723769
0.0840764
0.0755302
0.727914
0.101566
0.0296318
0.122334
0.23066
0.240434
0.135035
-0.0394798
0.601642
3.09254
0.135338
0.12163
0.125798
0.694336
2.36262
0.265109
0.342404
0.015166
2.58173
0.0888408
0.830775
0.267837
0.0340377
0.0947803
0.246894
-9.29655
0.264724
0.656252
1.61212
0.111694
-0.0549814
0.255197
2.18081
0.155412
0.0978613
0.0641001
0.302679
2.17004
0.323289
0.0947628
0.0847349
0.138085
0.123615
0.114406
1.70792
0.672021
2.93174
0.000662699
0.529212
0.489682
3.58167
1.18971
0.146432
0.10726
0.172807
0.186169
2.46049
0.402485
0.209168
0.167181
0.365467
0.128136
0.216733
0.113763
3.95603
2.28554
2.29348
0.145529
2.41194
0.0487222
0.719183
0.416901
2.51289
0.468814
0.431676
0.102275
1.32195
0.358817
0.13055
0.591254
0.37372
0.47684
0.822998
-5.48211
0.144711
2.47665
0.25681
0.202626
0.111141
0.119842
0.144893
2.46132
0.119843
0.616192
0.135434
-8.34071
-0.0056025
0.172428
0.201583
3.14563
0.51259
0.420489
0.178929
0.114546
0.128325
2.47769
2.51701
0.224968
0.178516
-0.093824
0.164936
0.678976
3.49898
2.04615
0.579193
0.240736
0.191318
0.11896
1.66166
0.148877
0.190566
0.116261
1.80634
2.50028
1.83307
0.335558
1.20317
0.186319
0.383762
0.451095
0.296054
0.160077
2.15759
0.425729
0.0015516
0.138283
3.04277
0.473854
0.352857
0.223866
0.557906
0.564437
-2.46133
3.28648
0.259065
0.690841
0.0462015
0.170824
0.277919
0.656295
0.344398
0.529142
0.487375
0.233514
2.56667
0.267633
0.497663
0.174771
0.845237
0.301247
0.196091
0.127032
0.719267
3.6376
0.128995
0.146016
3.25265
0.0365636
0.26586
0.210213
0.0699587
2.57162
0.449892
2.56827
2.42741
0.295229
0.205857
2.40563
1.94773
0.310819
0.659006
0.567544
-1.36724
2.52958
0.165428
0.378106
-0.371306
0.692257
0.631492
0.25055
0.197433
2.52101
0.205635
0.211317
-0.303603
0.112002
0.107514
0.113192
-0.158771
0.542898
0.359033
0.171182
0.513649
0.300206
0.226732
3.497
0.237534
0.464056
0.577243
0.0973435
1.97077
0.309493
2.47511
0.189801
1.96133
0.0376279
0.268059
2.80665
0.816989
-0.253461
2.55454
0.758293
0.27631
0.202577
2.44643
2.0775
0.135365
2.13276
3.2724
1.01547
2.19756
0.316303
0.260023
2.92068
-0.969839
0.886224
0.295702
2.46528
-0.963022
2.2383
2.1254
2.34386
0.807673
0.195574
0.675632
0.116958
0.30433
0.689199
0.57067
0.251943
0.114842
0.47086
0.179166
0.361252
-0.0437212
2.4317
2.61064
2.51038
0.279189
1.14013
0.595313
1.62284
0.265692
0.27667
3.40129
0.212524
0.323952
0.42102
-0.136228
2.74813
0.310201
0.605582
-0.122861
0.509863
0.851718
0.485016
0.509503
1.3621
0.0992928
1.56379
2.47907
0.566327
0.863959
0.484908
1.95102
0.552515
0.053444
0.209038
0.0283266
1.50004
0.955323
0.343243
3.84938
2.83114
0.333968
0.232503
-0.299072
3.11878
1.63942
0.781284
3.61616
0.0973869
1.78373
1.59873
3.29664
0.526576
0.492817
2.0132
-0.396442
0.0529722
0.175901
0.490467
0.572434
3.3055
0.431271
0.372587
0.451782
-0.480375
1.18969
3.63412
0.469038
0.395556
0.228553
2.40348
0.324366
0.628865
1.15778
1.86098
0.252432
0.346004
0.539803
0.423162
0.89328
1.70102
0.262242
3.22369
0.570802
0.519136
2.50656
0.10912
0.00304835
0.357232
0.749274
2.10246
0.0782218
0.879986
0.383126
0.481758
1.51819
0.474341
0.291786
0.537675
0.323281
0.394195
1.50794
0.15225
0.218593
0.0136127
1.06464
0.242109
0.416284
0.027299
0.0808237
0.70764
0.637587
0.43338
0.668215
0.193428
0.530575
0.499366
2.73027
0.397101
0.590443
0.392142
0.487551
2.85935
0.449199
0.233762
0.629883
3.91794
3.50083
0.23022
0.75274
-1.11988
0.00134135
2.37468
2.45907
2.08337
0.551891
0.0435892
0.374245
3.06236
0.35569
0.651241
0.800101
0.836028
0.447082
0.526298
2.42925
2.97019
0.208688
-3.52279
0.517809
2.31543
2.64365
0.891536
0.941318
0.755356
3.56067
0.0242202
0.242968
1.40878
0.515345
0.0622496
0.0835063
2.48699
0.0242648
-0.0112094
1.08991
-2.61025
0.38477
-0.00602924
2.94198
1.83354
2.30655
0.613294
-5.45805
3.7441
0.428787
0.453148
1.86839
0.464105
1.36179
2.41928
2.38939
0.00944363
0.666088
0.528873
2.44474
0.421495
0.0829546
0.188259
2.21697
0.809175
0.111503
0.253605
1.59794
0.330779
0.0782478
0.437808
0.454197
0.398266
0.613871
2.31555
3.03613
-1.48372
2.70132
1.63576
0.602998
0.06756
0.484952
1.92752
0.347509
0.612825
0.573335
0.547535
0.534491
0.661094
3.84013
0.0269332
2.55922
2.2285
0.576915
0.277453
0.795217
0.19181
0.654752
-2.37915
0.273455
1.10113
0.541785
0.406684
2.59892
0.836855
0.747409
0.629245
0.386345
0.492395
0.911897
0.639494
1.39655
0.483015
0.333738
2.77009
2.41217
0.717158
1.55364
0.064744
1.92719
2.38773
2.41784
0.751685
-5.49298
-1.82063
0.577435
2.44362
0.436412
2.67076
0.100862
1.05065
0.618338
-8.39535
2.48668
0.452319
2.52341
1.5296
0.467078
0.48491
0.365563
0.41568
1.41939
0.543713
2.39619
0.837544
2.5563
2.79089
0.233805
2.56628
0.4799
-0.0220458
1.83905
2.71587
0.476552
-0.350433
2.50045
1.15562
0.657216
2.65654
1.89257
2.57296
0.505286
0.339042
0.498455
0.253375
1.2586
0.535999
1.67771
0.58637
2.55018
-0.0360711
0.488688
1.60299
2.49432
0.64607
2.25264
0.139368
0.388409
0.388519
0.282708
-1.83114
2.2156
2.09456
0.571275
0.468675
0.601672
0.601435
1.09209
2.69846
2.93688
0.913863
0.646751
1.17095
0.654642
1.69983
0.0446008
2.31526
-3.3065
0.440201
0.480369
0.560219
1.213
2.46833
2.32905
1.44938
0.573038
0.162351
2.4586
2.45692
2.04914
0.0311339
2.62941
1.80709
2.46615
1.25331
0.483197
0.642126
1.99195
1.87471
0.650644
2.48525
0.552319
0.842711
2.25663
0.447887
0.751405
3.1404
2.82376
0.614579
1.83661
1.76729
2.41598
0.476434
0.514283
0.259265
0.391269
0.609126
0.500148
0.181166
0.447558
0.284965
2.46254
2.94089
0.489034
2.44977
0.368896
4.24467
0.15889
2.44051
0.513694
-1.5908
0.458235
4.17414
0.608033
0.542345
4.08238
1.42282
-0.280141
1.8045
4.00576
0.612563
3.92323
2.15905
0.472074
0.517912
3.78596
0.253551
0.516112
-0.584695
1.53048
0.456697
2.28838
3.57753
0.0469442
0.709517
2.51376
0.867791
2.1796
2.40067
0.209381
0.248421
-2.26299
3.51957
0.923826
0.346164
0.660161
0.595355
3.4643
1.35023
0.612962
0.408959
3.3989
0.552901
0.458946
3.34347
2.57724
0.501874
0.380902
0.550596
1.91695
2.61766
0.506724
3.27517
2.43276
0.604877
0.554975
2.61845
1.2974
0.675059
0.458641
0.520117
2.53772
2.44155
0.0923849
2.24423
0.593676
0.505502
0.238635
3.09625
0.979295
2.40154
0.796573
0.593169
0.58543
0.584615
0.579968
0.56822
0.56581
0.572776
0.569677
0.517216
2.85492
3.05917
0.951968
1.99125
0.651801
2.21983
0.491541
3.03842
0.00132832
0.464648
2.45522
0.118536
0.453492
0.258086
2.89971
2.76091
2.27198
1.64477
2.50852
0.580089
0.427152
2.8723
0.440813
0.562386
-0.323705
0.248178
2.44648
2.82944
0.425081
2.5233
0.200275
2.33155
0.338556
0.468841
1.1191
2.78569
0.40684
-9.0042
2.73335
-1.92346
0.776208
0.48064
0.277879
2.68472
2.01946
0.784316
2.45548
0.831571
0.202739
0.115417
0.250174
0.535558
2.60308
0.955134
0.241933
2.66785
1.02706
0.656986
0.52383
0.227604
2.57784
0.588677
2.09954
0.209501
0.034915
0.175522
2.52551
1.64848
0.512945
2.48814
0.136115
0.306789
0.391314
-8.93318
-1.36414
2.45632
0.131284
2.37236
0.0508601
0.486268
2.47467
-0.0258724
2.16034
0.209327
2.31294
0.0835122
0.684114
3.23947
2.96405
-0.125504
0.73441
2.26087
0.692551
0.508261
2.36905
-0.112493
2.4471
2.1964
0.120525
0.723468
-1.08473
2.45525
2.17729
0.604945
-1.00362
-0.1634
-7.69692
2.13202
0.863461
0.41601
0.644268
0.338613
0.246111
-1.22078
2.20981
2.08206
2.91674
1.91022
3.01557
2.45556
-0.302093
0.907361
1.03069
0.59443
2.52279
0.176117
0.353818
2.18196
2.37908
0.39113
-0.379252
0.574851
1.98048
0.635332
1.01217
2.37036
2.16959
0.989318
3.31798
0.673787
1.62693
0.675171
-0.470537
0.880446
0.417464
1.89343
2.67173
2.51179
2.37694
-0.542219
1.80999
1.73724
1.67289
1.56406
1.47091
1.37442
-5.80434
1.73541
1.27813
2.27165
1.05705
0.441867
3.10615
-0.64125
0.8501
0.481037
2.45715
-1.03901
2.60309
-0.744865
0.853874
-0.888899
0.567962
-1.01164
2.45626
0.797057
0.797826
-1.20244
0.136319
0.722021
2.47958
0.443599
-1.82238
2.51186
2.45667
0.252545
0.679135
2.55256
0.723738
0.529955
0.687636
1.67853
2.33297
0.302367
0.605049
0.80938
2.54403
0.22846
0.471742
0.597037
1.90034
2.41356
0.696436
-0.141194
1.83775
2.5833
1.40636
-0.141999
2.41312
0.975855
1.54225
0.363781
2.3328
0.63452
-0.0285335
-0.0439037
1.90825
-1.60852
2.89554
0.687899
-0.166498
0.822439
-3.29334
2.73342
2.52075
2.47515
2.47814
0.571855
0.61211
-0.192839
0.472518
0.347017
0.692328
0.62171
2.24722
-1.91222
0.56117
3.54248
0.00594095
2.11587
2.09554
0.585916
0.279142
1.38946
0.576257
2.03389
1.6123
2.41988
2.49501
2.22449
0.644095
2.56759
-5.04005
0.25971
-0.311565
-4.93346
1.30789
-0.474231
2.28396
0.577749
2.2075
0.285315
0.475461
0.718394
0.280636
-0.514473
-5.12712
0.658035
2.51664
0.554707
0.518184
0.18232
1.46498
0.621898
0.785661
0.150938
1.8873
0.723398
0.717347
2.32258
0.673379
2.34426
0.0713719
0.528483
0.440245
0.194273
0.786177
0.585396
0.767282
0.240135
0.0807794
2.02139
2.90689
1.22295
-0.0869846
2.44224
0.812925
2.26532
0.12239
0.154062
1.64725
0.309759
0.0379405
0.543372
0.601599
0.287339
2.29172
0.307196
2.35683
0.435156
-0.0429687
3.01543
2.86778
0.811273
1.89154
0.741817
0.462261
2.59315
0.448838
0.776735
0.097317
0.345928
-0.97493
-0.184195
1.16625
0.683342
-0.101605
0.0688175
2.49929
0.582856
-0.199629
1.22657
0.512041
2.83887
0.519951
1.80981
3.01311
3.07679
0.0616141
2.88485
2.35139
2.28381
0.739638
2.66319
2.48652
1.36195
-4.00105
0.521118
2.35604
2.29891
-0.0359475
0.0956406
0.784986
3.66052
2.28196
0.468741
2.34111
2.03738
0.790385
2.37126
1.61447
2.77661
0.438162
-1.68523
0.621005
3.27204
-0.507073
2.56985
4.29528
2.31439
1.9009
1.25216
1.007
-0.0305223
2.374
3.44287
-0.708749
0.282331
3.32782
1.25977
0.653629
3.64107
0.0976659
0.492877
0.825189
0.29262
-8.90074
1.62169
0.083424
-0.134896
0.524039
0.782147
0.563248
0.67514
3.72533
2.57316
0.979339
1.39472
2.2838
0.780305
1.85203
-5.04371
3.94671
0.414326
-2.36634
0.314519
2.89634
1.91149
2.52578
0.707704
0.752715
-0.449361
0.441912
0.607423
0.669222
1.40159
0.52291
0.594423
0.84411
1.92333
0.815976
2.43933
0.19716
0.147026
0.727094
3.32728
2.4174
-3.37555
1.40649
-0.451864
2.56886
-3.52422
2.32759
3.36108
-1.72535
0.538415
0.581232
0.641744
2.45161
-4.99277
1.87102
0.813419
2.40884
0.139854
0.432028
2.72354
0.257233
0.428683
0.74601
2.09497
2.65464
-1.80967
3.78624
1.91422
0.830936
2.26648
0.267842
2.10333
0.57862
-3.12649
0.423041
0.583645
2.45699
0.785097
0.815297
0.843163
3.23541
1.15803
0.4847
0.184764
0.548313
-0.791952
2.33444
1.42124
1.26131
0.146037
0.0762529
0.586188
1.8954
0.52507
2.19534
0.499494
0.589755
0.77101
1.9686
1.63165
1.88443