/*--------------------------------*- C++ -*----------------------------------*\
| =========                 |                                                 |
| \\      /  F ield         | OpenFOAM: The Open Source CFD Toolbox           |
|  \\    /   O peration     | Version:  2306                                  |
|   \\  /    A nd           | Website:  www.openfoam.com                      |
|    \\/     M anipulation  |                                                 |
\*---------------------------------------------------------------------------*/
FoamFile
{
    version     2.0;
    format      ascii;
    arch        "LSB;label=32;scalar=64";
    class       surfaceScalarField;
    location    "5.4";
    object      phi;
}
// * * * * * * * * * * * * * * * * * * * * * * * * * * * * * * * * * * * * * //

dimensions      [0 3 -1 0 0 0 0];

oriented        oriented;

internalField   nonuniform List<scalar> 
7520
(
-1.00221
0.791564
0.210643
-1.3328
-0.213439
1.54624
0.00492042
-1.90865
1.90372
0.230872
-0.0324327
-0.19844
0.120898
1.50753
-1.62843
-0.0879509
0.0945545
-0.00660358
-0.28984
2.09298
-1.80314
-0.197594
-1.79361
1.9912
-1.48616
1.49108
0.843784
-0.058453
-0.785331
0.144691
-0.266577
0.121886
-0.291071
-1.64537
1.93644
0.711584
-0.111053
-0.600531
-0.0971223
0.134345
-0.0372228
-1.91844
0.89979
1.01865
0.118884
1.57172
-1.6906
0.051453
-0.0745121
0.0230591
-0.212992
-0.0139975
0.22699
0.0167888
0.0545218
-0.0713106
0.0227183
0.0287348
-0.39606
-0.286487
0.682548
-1.07289
1.19177
-0.0299331
-0.312135
0.342068
0.130758
-0.141373
0.0106156
0.0350482
-0.235195
0.200147
0.250898
-0.242923
-0.00797413
0.856403
1.12787
-1.98427
-0.0349243
0.313196
-0.278272
-0.0642552
0.081044
0.195154
-0.030737
-0.164417
-1.1506
1.74592
-0.595321
-0.0470819
-0.017997
0.0650789
-1.83856
2.0397
-0.201145
-0.300843
0.245121
0.0557224
-0.274733
-1.27294
1.54768
-0.445918
0.99476
-0.548842
0.273199
-0.544375
0.271176
0.781514
-1.53387
0.752351
0.0884335
-0.309884
0.22145
-0.0440478
-0.100235
0.144283
-0.0270871
0.257959
0.355749
0.220606
-0.576354
0.284165
-0.0332679
2.1263
-1.60256
-0.523732
-0.525834
-0.62251
1.14834
-1.46929
1.61289
-0.143603
-0.0903713
0.02402
0.0663513
0.258368
-0.075759
-0.182609
-1.34225
0.191653
0.271226
-0.076196
-0.19503
1.79736
0.179455
-1.97682
-0.729292
0.262957
0.466335
0.151189
-0.137681
-0.0135086
1.06446
0.480992
-1.54546
0.0140664
-0.102017
-0.75436
0.128917
0.625443
0.392059
-1.26563
0.873572
-0.0422701
-0.121544
0.163814
-0.115355
0.0682733
-2.19455
1.10955
1.08499
1.44165
-0.666737
-0.774912
-0.00964245
0.0667571
-0.0571147
-1.27093
0.9962
0.832928
-0.121344
0.0244022
0.126787
0.00392159
-0.101044
1.10559
-2.26798
1.16239
0.144813
1.65255
-1.236
0.974878
0.261118
0.312765
-0.235365
-0.0774008
-0.510048
0.902107
0.228423
-0.903381
0.674959
0.336828
-0.0928749
-0.243954
0.371026
-0.430703
0.0596775
0.784556
-1.44774
0.663188
0.125912
-0.109933
-0.015979
1.90258
-0.798867
-1.10371
0.395562
-0.745844
0.350281
1.68765
-1.18913
-0.498517
-0.817339
0.0629788
-1.47619
-0.718359
1.31898
-0.261806
-1.05717
0.221606
-0.607662
0.386056
-0.182522
-0.118321
-0.260263
0.0472713
0.211927
-0.016773
0.010449
-0.0503042
0.0398551
0.949537
0.95304
-1.84898
2.11305
-0.264069
0.612405
0.829244
-0.951351
1.11828
-0.16693
-0.0110246
-0.0357636
0.0467881
1.33529
-1.62636
0.238794
0.19274
-0.104307
0.451157
0.248019
-0.699176
0.00746508
0.0827686
-0.0902337
-0.545561
0.39186
0.153701
1.30751
-0.522956
-0.717072
0.621493
0.0955791
0.756696
-1.1642
0.407504
-0.086208
0.108809
-0.0226014
0.00418175
-0.00900417
0.00482241
2.50162
-1.37558
-1.12604
0.524479
-0.439816
-0.56239
-1.34733
0.837282
-1.93373
1.64389
0.16379
-0.0771226
-0.0866675
0.0186955
0.125995
-0.156637
0.15545
0.00118666
-0.146274
0.216793
-0.070519
1.91166
-1.13014
0.0597402
-0.0244763
-0.0352639
-0.758979
0.362919
-0.0177866
-0.048482
0.0662686
0.14048
1.1785
-0.806047
0.494577
0.311471
1.32774
-1.97121
0.643476
0.0291626
0.101595
-0.189889
-0.539403
-0.386234
0.0991194
0.287114
1.07027
-0.226489
0.125107
-0.125882
0.000774934
-0.0180351
-0.00837261
0.0264077
-0.0351985
0.025796
0.0094025
0.684339
-1.78014
1.0958
0.384533
-0.414466
-0.34334
-0.0530133
0.396353
0.0697704
-0.0100301
-0.0310717
-0.357561
0.388633
0.141221
0.0310623
-0.172284
-0.0622174
0.203439
-0.620871
-0.185177
-0.171229
-0.564538
0.735766
-0.881534
1.92239
-1.04085
0.408506
-0.423413
0.0149062
-1.16295
-0.184381
-0.0328802
-0.0490064
0.0818866
1.43029
-0.36583
-0.644918
0.424664
0.220254
-0.000925614
0.114075
-0.113149
0.285994
-0.0739953
-0.211999
0.22678
-2.13543
0.328974
-1.79826
-2.27507
0.787627
1.48744
-0.836577
-0.399419
-1.26681
1.14125
0.125559
1.98308
0.227002
-2.21008
0.179157
-0.223205
-0.0543292
1.22115
-1.16682
-0.245856
-0.357745
0.603601
0.149051
-1.41586
-1.83785
-0.000709911
-0.00449454
0.0149436
0.0623912
-0.117318
0.054927
0.28302
-0.325291
0.998895
-0.242199
-0.152248
0.125161
-0.0444425
0.0109117
0.0335308
0.754671
-0.427738
-0.326933
-0.441477
-1.47696
-0.0166104
-0.229245
0.0377152
-0.582652
0.544937
0.237184
-0.0366802
-0.200504
-1.5679
0.938119
0.62978
0.7155
-0.594602
-0.0507581
0.442764
-0.392006
-0.263475
0.298524
0.51365
-0.242838
-0.270812
0.984567
-0.53341
0.234018
-0.310214
0.920435
0.309294
-1.22973
0.297012
-0.331937
-0.356106
-1.45136
1.80746
1.26939
0.675057
0.681511
-0.459905
-1.35045
0.904527
-0.71228
0.92537
-0.213089
0.0133543
-0.0370105
0.0236563
0.276162
-0.320636
0.0444743
-1.47266
1.61314
-0.268243
-0.152395
0.420638
0.246029
-0.00884467
-0.849472
0.887188
0.568467
-1.06209
0.493626
-0.514789
-0.030773
0.675605
-0.402406
0.136478
-0.0105665
-0.469566
0.275409
0.194158
0.0742166
-0.22049
-0.337515
-0.12671
0.464225
0.130606
0.206223
-0.844965
-0.602779
-0.750023
-0.817877
-0.000333007
0.0439069
-0.0435739
1.60836
-0.508103
-1.10026
-1.30027
0.418734
-1.16117
2.13953
-0.978361
0.355347
0.158303
-0.399062
0.321564
0.0774985
-0.770099
0.58021
0.595447
-1.12128
1.75008
-0.0507459
-1.69933
-1.45824
1.92332
-0.46508
-0.0226669
0.0850581
0.398419
1.4195
-1.81792
0.0329635
-0.162575
0.129612
-0.139142
1.79256
-1.65341
0.00164953
0.107725
-0.109375
-0.902564
1.23715
-0.334589
-0.119871
-0.650228
0.08369
-0.421204
0.280095
-0.156623
-1.68562
1.84225
0.0104164
0.0441054
-1.62136
0.776392
0.107256
-0.243982
0.136725
0.0453026
-0.0633377
0.135991
1.571
-1.70699
-0.582138
-0.548942
1.13108
-0.506055
0.401755
0.1043
2.51855
-1.63936
-0.879185
0.442872
-1.02501
-0.0122657
0.0169757
-0.00470999
0.102923
0.729266
-0.832188
0.0405193
-0.0444294
0.0039101
0.82166
0.82011
-1.64177
-0.221582
-0.49549
-0.0575917
0.163767
-0.106175
-0.933506
0.708825
0.224681
-0.0706725
0.0387471
0.0319254
1.67695
-0.0685855
1.08623
-2.03962
0.953394
-2.82873
1.23248
1.59625
-1.20705
-1.62168
-0.372785
0.490291
-0.117506
0.454907
-0.387625
-0.0672826
0.774212
-1.63863
0.864419
0.0302483
1.09329
-1.12354
-0.912035
0.650229
1.13211
-0.211675
1.07428
1.2415
-2.31578
-0.174791
0.0800993
0.0946918
0.0488139
-0.98232
1.87397
-0.488505
-1.38547
0.132018
-0.0990546
0.125952
-0.0348821
-0.0396301
1.06274
0.811231
0.212738
0.655078
-0.867817
0.355169
-0.0419725
-0.0240432
0.0668443
-0.0428011
0.400218
-0.429373
0.0291548
-1.81052
0.857681
0.952836
0.287095
0.167813
0.690497
-0.861725
0.434735
-0.0271417
-0.407594
0.131499
0.12687
-1.80064
1.75512
0.0455126
1.16612
-0.597654
0.0587263
0.0840744
-0.142801
-0.0280327
-0.205214
0.233247
0.117151
-0.210026
1.66517
-0.559578
-0.00811046
0.128533
-0.120423
0.00194096
-0.0463835
-0.189882
-0.076695
0.881461
-0.633442
-0.657772
0.688021
-0.389464
-0.0801022
2.09298
0.0263174
-0.0250526
-0.0012648
0.00922227
0.872239
-0.198429
0.128874
0.0695558
0.0335062
-0.0293244
-0.253749
0.609498
1.44476
-1.49909
0.410849
-0.366497
-0.0443517
0.298347
-1.20091
0.196664
-0.227736
-1.83709
1.68047
-0.061673
0.0494073
-2.03468
0.216999
-0.217924
-0.0733547
-0.018518
0.0918727
-0.606923
-1.20359
1.56993
0.93169
1.7234
-0.785279
-1.64537
0.12709
-0.00198257
0.0896414
0.0270527
-0.116694
0.178552
-0.238225
0.0596728
-1.23614
0.613634
-0.193137
-0.261148
0.454285
0.331616
-0.390069
-0.112389
-1.97536
2.08775
0.995894
0.193233
-1.48884
1.29561
0.9346
1.1051
-0.70514
1.53907
-1.14065
-0.0530514
0.384694
-0.331642
-0.886122
0.747256
0.138866
-0.0768343
0.0687238
-0.0819936
0.322628
-0.240634
-0.262774
-0.260903
0.523676
-0.533151
1.80254
-0.279628
-0.363046
0.642673
-0.0758479
-0.0145233
0.260393
-1.21174
0.0157301
-0.0397733
0.00834654
-1.84448
0.989908
0.854572
0.357551
-0.468604
0.00885974
-0.0193208
0.427827
1.07433
1.44422
1.64174
-0.532535
-1.1092
0.116822
-0.0434745
-0.0733479
0.734067
0.953581
0.0967268
-0.00708546
0.662842
-2.09714
1.4343
-0.0518914
0.0708658
-0.0189743
0.578094
0.729418
-0.211741
-0.0981428
0.754356
-0.541617
-0.571497
1.4279
0.153431
0.0103589
1.83414
-0.506409
0.142062
-0.134597
1.76857
-0.126835
0.0991378
0.396378
0.0144714
0.017293
0.295472
-1.75428
-0.837587
0.975562
-0.137975
0.00575409
-0.115687
1.74849
0.0685876
-1.81708
-0.711806
0.432178
0.219605
0.0663886
-0.303441
0.0680765
0.0152856
-1.20442
1.54763
-1.56751
0.0198788
0.0123827
-0.286013
0.27363
-0.685991
1.26408
-0.83101
1.51535
0.0380838
-0.0257011
0.794715
-0.300138
1.93473
-0.59944
0.00516019
0.117257
-0.122417
-0.0661782
-0.0984169
0.164595
0.113876
0.00294669
-0.202398
-0.734926
-0.261819
-0.0939087
0.355728
0.60717
1.31522
-1.7224
1.3663
0.1096
-0.45294
-0.766719
0.995142
-1.14539
1.33222
-0.186836
0.533089
-1.77848
1.63933
1.85055
-0.901016
1.30678
0.819514
-0.0669308
0.274864
1.27277
-1.32585
0.295419
1.03043
0.246852
-0.277589
0.380851
-0.0937567
-0.209368
0.14715
-0.0907979
-1.51177
0.495503
-1.22206
0.726557
-1.29364
0.822095
0.47155
-0.16425
-0.739131
-0.076673
0.0670306
0.0871044
-0.00227329
0.165598
-0.163325
-0.535049
0.484291
0.863892
0.986661
-1.45824
-0.0264555
-0.00874306
1.61653
-1.42721
-0.189323
-0.408948
1.82844
-1.64969
2.53637
-0.886683
-0.756074
1.04844
-0.292368
0.103172
-1.37411
-0.0339521
-0.353673
-0.271713
0.4187
-0.146987
-0.0202037
0.0111995
1.3211
0.70944
-1.27665
0.567207
0.00285199
-1.56297
1.56011
-0.0517376
-0.104899
-0.00301164
-0.470963
0.473975
-0.592982
1.48444
-0.891461
0.19473
-0.134862
-0.0598681
-0.349247
0.326865
0.0223824
-1.97959
1.76616
2.11138
-0.460962
-1.65042
-0.0873204
0.0557583
0.0315621
0.0126776
0.165875
0.0976907
-0.612479
-0.858304
1.67996
-0.0339547
0.0161681
1.75008
-0.962656
1.06558
0.0847375
-0.0847375
-0.128984
0.294494
-2.14348
2.24931
-0.925627
-1.32369
-0.75747
0.817521
-0.0600509
-0.0765264
-0.277272
0.353799
1.02162
-1.20316
0.181546
-0.590637
-0.221308
0.811945
0.815938
-2.00598
1.19004
-0.0840925
-0.802029
-0.207007
0.140829
-0.204078
-0.590099
0.794176
0.765623
0.419203
-1.18483
-1.29915
-0.412647
0.660679
-0.248032
-0.805623
1.17855
-0.372925
1.4427
-1.30671
0.00345166
-0.26527
0.034278
-0.0564464
0.427472
-1.18958
1.07386
0.115725
-1.30023
1.8188
-0.518566
-0.016525
0.12893
-0.112405
-1.49895
-0.769032
-0.0602008
-0.00405439
-1.63805
0.476884
-0.364935
0.282941
-0.20263
-0.553444
0.0341343
-0.0860257
-0.780749
1.85503
0.0426152
-0.35475
-1.52835
0.132005
1.39634
0.853559
-0.732825
-0.120734
-0.879027
0.166746
0.216291
-0.563064
0.346773
1.5862
-0.133923
-1.45228
-0.0345351
0.0147647
0.0197704
-0.375796
0.752346
0.723443
-1.47579
-0.551599
1.45139
0.227209
0.673523
0.756772
-0.11073
1.58104
0.187533
-1.39101
1.39386
0.011476
-0.0680605
0.0565846
0.0703468
-0.170918
0.100571
-2.03323
0.38354
-0.0796393
0.300245
-0.611866
-0.22572
0.247867
0.850759
-0.269538
-0.581221
0.187302
0.0968634
-1.17429
1.80704
-0.632749
0.147922
-0.246339
-0.0682666
0.344428
0.242408
-0.514121
-0.206448
0.229177
-0.0227295
0.152169
-0.0412562
-0.110913
0.797656
-1.01045
0.212794
-0.0313741
-0.053982
0.0853561
-0.284901
0.316112
-0.0312109
0.0778403
-0.411323
0.333482
0.300306
-0.053454
0.157269
0.301912
-0.459181
1.43705
-1.03273
-0.951538
-0.00489537
-0.391669
0.396564
0.085462
-0.0413566
-0.27336
-0.232695
1.13057
-0.279814
-0.0808885
-1.21807
1.29896
-0.356063
-0.0301711
-0.0287511
-0.59212
-0.138966
-0.210281
0.166108
-0.164458
-1.39103
-0.0343079
-0.0783959
0.112704
1.31392
-1.00463
1.08902
1.02236
0.381748
0.052987
-0.151967
-1.61226
1.76423
0.710656
0.489994
-1.20065
-0.0483366
-1.03833
0.672582
0.365745
0.897698
-0.0441389
0.00739019
0.0412219
-0.0486121
2.1793
-1.17876
-1.00054
0.132801
-0.297903
0.165102
0.698055
0.429532
-1.12759
0.0683772
0.0994525
-0.16783
1.72856
0.0219575
-1.75052
-0.124495
0.110498
-0.249711
0.292326
0.0557677
-0.0120033
-0.0437644
0.0166323
-0.276896
0.0492891
0.0155429
-0.064832
-0.48735
-0.661325
1.14867
1.14678
0.439416
0.97478
-1.05567
0.719203
-1.31218
-1.86409
1.7517
0.0450188
-0.0533914
0.255136
-0.604027
0.348892
0.729445
0.993953
1.11813
-1.3248
0.206671
1.22362
-0.550094
-0.129076
0.0856017
0.0840947
-0.383308
0.299213
-1.61841
-0.392004
2.01042
-0.406914
0.447686
-0.040772
-0.00490967
0.0896472
0.224188
1.28334
-0.134959
-0.0398317
0.861375
-1.93694
1.07557
-0.762026
-0.343151
1.10518
1.58728
-0.501053
0.20429
0.555807
-0.913552
-0.258284
0.0043125
0.253971
0.0189625
-0.183379
-0.474803
1.18424
0.00852093
0.0319983
-0.279537
0.0781571
0.20138
0.0246496
0.996966
0.355998
-0.920535
-0.442881
-0.415093
0.514212
0.739138
-0.941768
0.0163765
-0.0408528
-0.11262
0.0729903
-1.93705
0.904315
0.0120177
0.101499
-0.113517
-0.294101
0.230154
0.063947
0.230723
0.86257
0.0723673
-0.00561016
-0.0138268
-1.65286
1.66669
0.255967
-0.785758
0.529791
-0.00994609
0.058253
-0.0483069
-0.700699
1.1962
-0.13576
-0.36728
0.503039
-0.272313
0.488604
-0.795241
0.956454
-0.161213
-0.600892
0.528493
0.0723993
2.04158
-0.0585039
0.0490322
-0.249753
0.200721
-0.267367
-0.0901941
-0.174546
-0.0403831
1.1511
0.961956
0.233279
-1.4089
1.17562
-0.803294
-0.176059
0.979352
-0.122594
0.185493
-0.0628988
0.103258
0.14547
-0.248728
-0.0539643
-0.170731
0.224696
-0.0327574
0.0484875
-1.10984
-0.246092
0.010897
-0.0917511
0.0519778
-0.12188
0.385448
-0.263568
-0.225752
0.259693
-0.0339416
-0.0100843
0.119299
-0.109214
0.79607
-0.381961
-0.0720672
0.021763
-0.126059
-0.602093
0.728152
1.21027
-0.979551
0.0101267
-0.352907
0.342781
-0.708211
-0.455988
-1.3631
1.50791
1.17905
0.0420957
-1.31623
0.843018
0.473207
0.213127
-0.0913413
-0.121785
1.75086
-1.75086
-1.58591
0.109721
-1.07305
-0.247269
-0.60966
0.856929
0.579857
-0.542448
-0.0374096
-0.210006
-0.0880575
0.0817661
0.00629144
0.00756224
0.19966
-0.207223
-0.498656
1.26897
-0.770318
0.281935
-0.155442
-0.126492
0.789298
-0.686126
-1.04207
0.23878
-0.0387075
-0.210714
0.249421
-0.00871412
-1.31714
-0.511404
-1.22086
0.70946
0.659851
0.0168992
0.228217
-0.245116
-0.268266
0.325217
-0.0569512
-0.223348
0.165757
-0.0804943
-0.091769
0.0184143
0.0352906
-0.0100822
0.216005
-0.205923
-0.288023
-0.0952849
-0.208938
0.366207
0.0275926
-0.0612861
0.0336935
-0.0399973
-0.088559
0.128556
0.0465405
-0.07709
0.0305494
-0.0628263
0.164278
-0.101451
-0.616662
1.34322
0.564254
-1.14065
0.576394
-0.147692
-0.0782807
0.225972
-0.0800095
-2.33607
2.41608
0.885285
-0.587128
-0.298158
0.445469
-0.0363782
-0.201847
-0.0393936
-0.00908841
-0.0536642
0.186465
0.316029
-0.94804
0.632011
-0.465545
-1.33509
-0.196559
0.833066
-0.636507
0.0150246
0.0547458
0.400595
-0.269263
-0.131333
0.350582
-0.476641
-0.68124
0.134612
-0.301568
0.166956
-0.520007
0.32687
-0.152766
0.577429
-0.278669
0.250636
-1.71721
0.34163
-0.293097
0.535505
0.0282111
-0.235219
0.379258
-0.0800446
0.316542
-0.299643
-0.0820133
-1.30746
0.6908
1.98813
-0.195573
-1.68562
2.24955
-1.07943
-1.17012
-0.0954408
0.487301
-0.0702926
-0.747046
0.505038
-0.430821
-0.240818
-0.0174653
-0.591171
-0.406101
0.997272
-0.00081263
0.152534
-0.151721
0.0276043
-0.864181
-1.98919
-0.307533
-0.331918
0.639451
0.591749
-0.335782
-0.239649
-0.036926
0.276575
0.462301
-0.0777679
0.159369
0.053758
1.99902
-1.18309
-0.90963
0.318459
-0.246781
-0.0489565
0.295737
-0.0461075
-0.116979
-1.08618
0.189816
-0.299134
0.109319
-0.0819499
-0.0334053
0.908431
-1.16979
0.261363
-0.648153
-0.0522809
1.80314
-0.00720389
-0.594889
1.3292
-2.05409
0.724892
-2.02271
1.43013
0.592582
0.144288
0.101316
-0.245604
0.155485
1.18805
0.00806357
0.822641
-0.830705
-0.0370183
0.165552
-0.0127865
-0.0745339
-0.0292021
-0.263559
0.292761
1.24066
-1.39262
0.163302
0.186994
-0.126714
-0.0602808
-1.45622
-0.129693
-0.576626
-0.595715
0.590819
0.106404
0.00346032
-0.109865
-0.600652
0.276967
0.323685
-0.388689
0.335638
-1.07756
-0.559184
1.63674
-0.109287
0.191356
-0.267883
0.149884
-0.599479
0.449596
-0.184245
1.00634
-0.152882
-0.84112
0.08365
0.782794
-0.092297
0.922197
-1.42085
-0.0496076
0.0403035
0.00930419
1.09231
-0.480778
-1.14765
-0.340421
-0.0718107
0.412231
-0.0524275
0.199578
-0.100497
-0.13594
0.236437
0.280466
-0.233195
-0.203043
1.6478
-0.184114
0.301585
-0.067567
-0.42828
0.408959
-0.174912
0.071911
0.103001
0.239251
-0.106551
-0.1327
-0.140613
-0.0397057
0.180318
0.269059
-0.0768036
-0.192255
-0.0389395
0.0653472
-0.20812
-0.0778923
-0.0533599
1.19694
-0.176345
0.0696597
0.106685
-0.0391478
0.0178925
0.0212554
0.0397938
-0.426937
0.387143
0.245254
0.232955
-0.645603
-0.0103631
0.356822
-0.0738018
-0.290463
0.0269875
-0.127055
-0.0355202
1.80363
-0.983521
0.0884181
-0.238126
0.149708
-1.58983
0.226733
-0.081175
0.0821042
-0.000929158
-0.0392923
-0.0313801
-0.580458
-1.44225
0.354682
-0.0576702
-0.821421
-1.27572
-0.125024
-0.154512
-0.595568
0.745451
0.985338
-0.718445
-1.1621
1.39538
-1.91666
0.298248
-0.22644
0.116142
0.110298
0.116905
-0.175777
-0.39274
0.568517
-0.0705445
-0.0498784
-0.444361
-0.878041
1.3224
-0.794434
-1.08198
1.87642
0.608014
0.346813
-0.954827
-0.000777192
0.364025
-0.229413
-0.263464
-0.250657
-0.165628
-0.101544
0.267171
0.250912
0.352689
0.272796
0.1278
0.258977
-0.600629
-0.010525
0.0368423
-0.648035
0.872869
-0.224834
-0.14167
0.186182
-0.979486
0.0507133
-0.00680643
-0.848324
0.0504566
0.338176
-0.69315
-0.168575
-0.133643
-0.905356
-0.322573
1.22793
-0.151207
0.656245
0.150467
0.667054
-0.288418
-1.00423
-0.932818
-1.25578
1.43733
0.0745541
0.0966581
0.00835298
-0.0586175
0.0502645
-0.624134
0.569951
0.0541827
0.674169
-0.794039
0.185575
-0.173557
-1.13172
-0.184508
-0.32237
0.313154
0.00921576
1.04058
-0.242923
-1.4507
-0.13713
1.58783
-0.0385262
-0.249497
0.21854
0.0888228
-0.307363
-0.228186
0.38576
0.138719
-0.0641144
0.00470793
0.0594065
-1.30441
0.815907
-0.111722
0.0411778
-0.170611
-0.127292
-0.32172
0.0162781
9.83907e-05
0.250082
0.315202
0.0605341
-0.104298
0.323223
1.4319
-0.659513
1.96629
1.00961
0.625827
-0.847135
0.0171846
-1.46789
-0.176558
-0.32226
0.37823
-0.0559697
0.0433916
-0.0175956
-0.0430387
0.0130659
-0.0536851
0.121958
-0.103224
1.65425
-1.55103
0.20087
-0.851098
-0.122912
-0.255477
-0.0698134
0.187904
-0.279421
0.353188
-0.0737666
-0.0122818
-1.43682
1.44911
0.636368
0.268274
0.311583
-0.638813
-0.575707
0.952246
-0.376538
-0.00685088
-0.0568884
0.287042
-0.444991
0.931254
-0.486263
-0.130513
-0.175958
0.306472
-0.122385
-0.649438
0.771823
-0.273671
-0.0582654
-2.03034
-0.0239149
0.179037
-0.173877
0.0212425
-0.0561683
-0.0555541
0.333097
-0.665015
2.18307
-0.942059
-1.24101
-0.0428417
0.422338
0.252262
-0.0337217
-0.34522
0.0436523
-0.168496
-0.0141137
-0.367623
0.185101
-0.26741
0.861211
-0.983596
0.135339
-0.09152
-0.0438193
-0.378709
-1.93811
1.00923
0.928875
-1.86423
1.78422
-1.15716
0.361744
0.795411
0.0663037
0.0332368
-0.0995405
0.636396
0.494176
-0.094579
0.194568
-0.0823132
-0.0648042
-0.0249781
-0.257886
-0.0113767
1.04401
1.13906
0.078697
-0.0118527
1.54552
-1.31852
-0.040867
-1.38855
1.42942
1.21149
-0.0145527
-0.289115
-0.0758199
0.305745
0.0275475
-0.243908
0.00867968
0.372172
0.621386
-1.63932
1.01793
0.0762785
2.40695
-1.4282
-0.978754
0.00986049
-0.316718
0.039446
1.45616
0.15698
1.28516
-1.17544
1.07385
-1.86828
-1.23406
0.0154133
1.21865
-1.21989
-0.0481982
1.26809
-0.0165322
0.06851
2.30901
0.0251765
-2.33419
-0.870439
2.01149
-1.14105
0.0443115
0.215382
-1.02503
0.219402
-0.00590139
-0.0557716
-1.34035
0.194965
-0.00528798
-0.0100165
0.0153044
-0.091824
0.218595
-0.126771
0.139041
-0.484522
0.34548
0.525079
0.450483
-0.512322
-0.0883305
0.0751983
0.869976
-0.954069
-0.065223
-0.0520952
-0.247877
0.0528468
-0.000322645
1.40974
-1.40942
-0.542476
0.930155
-0.387679
0.0513005
-0.407139
0.355838
-0.987468
-1.58509
0.748916
0.836171
0.0198545
0.818767
0.277704
-1.09647
-0.385059
0.216393
-0.239355
0.0229624
0.164009
-0.0343979
-0.243367
0.00371727
-0.283707
-1.45584
-0.0432484
-0.392501
0.790367
-0.397865
-0.723746
-0.626699
1.72887
-0.738959
-0.0996207
0.175862
-1.41007
0.0486245
-1.39547
1.34685
-0.201125
0.041163
0.159962
0.992206
-1.15635
0.164141
0.133397
-0.0193221
-0.0977072
-1.47342
0.74967
-0.596234
1.26882
-0.324544
0.134663
0.291275
0.209078
0.030173
0.807577
-0.375398
-0.0181913
0.69236
-0.971358
0.431955
-1.85591
0.773924
1.18727
-1.19955
-1.45024
1.34702
-0.150162
-1.46367
0.197996
1.26568
0.598506
0.23456
0.0324222
-0.93124
0.683971
-0.105631
-0.12886
0.23449
-1.63376
0.293864
1.3399
0.347043
0.775049
-1.12209
0.0634361
-1.31922
0.770488
0.112344
-0.882832
-0.0120492
0.231842
-0.998561
-0.0429557
-0.0113347
0.0500818
1.49412
-1.47216
0.0368409
-1.02004
-0.565044
0.786829
-0.0378986
-1.19616
1.1034
-0.284629
-1.63933
-0.00603133
-0.314523
-0.915206
0.328497
0.00492974
1.86409
0.228886
0.152572
-1.23875
0.132629
-0.101567
0.203512
-0.466286
0.318283
-0.536328
0.218045
0.283997
0.011131
-0.295128
0.0082541
-0.258007
0.0791667
0.321051
-1.12619
1.14375
-0.0175601
-0.736637
1.13372
-1.89846
0.76474
-0.676774
-0.0563778
0.0883032
-1.48639
0.142116
1.34427
-0.360261
0.89335
-0.659544
0.687149
0.163282
0.971108
0.569387
-1.01227
-0.82921
-0.163217
0.992427
-0.623965
-1.26472
0.820362
-0.119081
0.122193
-0.003112
0.0415413
-0.0898483
0.976361
-1.45116
-0.501494
-0.334587
0.836082
-0.157505
0.126154
0.0313507
-1.07634
0.426907
0.0357571
0.0250321
-0.223472
0.405171
2.0605
0.248508
-0.793811
0.801875
-0.257997
0.0873861
-1.15533
1.87134
-0.716017
-0.0741492
0.0619735
0.0745047
0.363268
-0.0211998
0.964876
1.17465
0.649544
-0.949682
0.320715
-1.96008
-0.162342
0.128034
0.14477
-1.1494
-0.207178
-0.962617
-0.203783
0.051535
0.779612
-0.374442
-1.42293
0.569613
1.07819
0.178751
-1.67681
0.318508
1.3583
-0.0843736
0.470133
0.668101
-1.15885
-0.299397
0.732638
-0.310683
-0.421954
0.854968
-0.283181
-0.571787
-0.172041
0.0371792
0.627957
-0.647842
0.0198845
-1.01103
0.229785
0.781246
0.493419
0.463035
0.000575641
0.105829
0.745207
-0.512252
-1.89524
0.685429
1.20982
-1.84225
1.45024
0.856623
0.776552
-1.63318
0.788424
-0.725445
1.80095
-0.601419
-1.19953
-1.03639
0.165924
-0.0803224
-0.074458
-0.10179
0.181889
-0.0318298
0.109708
-0.0778779
-0.256964
-0.173739
-1.63109
-0.162518
0.0610509
-0.0902529
-0.0311683
-0.0132611
1.01847
-0.495968
-0.522501
0.76047
-0.483503
-0.110126
0.122803
-0.167245
1.28537
-0.201972
0.000846711
-0.327353
-0.748992
-1.47601
0.570656
-0.0721292
-0.0692442
0.120344
0.071685
0.0919991
-0.0836461
-0.502355
-0.150242
0.0882076
-0.0763256
-0.011882
0.173545
-1.00471
-0.354238
1.35895
-0.0982271
0.0420589
-0.0160095
1.0741
1.01159
-2.08569
-0.386354
0.994368
0.207809
-0.0826483
0.63341
-0.840884
-0.679398
1.52028
-0.937013
-0.977774
0.571673
0.293996
-0.188878
-0.105118
0.763829
-1.27193
-0.146701
1.66004
-0.526324
-0.17419
0.100194
-0.409818
-0.73083
0.0798806
1.98464
-1.7517
-0.232933
-0.88794
-0.588072
-0.163732
0.159872
0.0640731
-1.02665
-0.194083
1.22074
0.247657
0.338759
-0.469273
-1.63568
-1.63119
0.707689
0.923504
-0.15514
-0.00476568
0.159906
0.948075
-0.556327
-0.391748
0.102728
-0.156413
0.0751
0.0803499
0.868588
-1.94615
0.759618
0.0953506
-0.3194
-0.59023
0.170664
-0.0181301
0.144798
0.170448
-1.17516
0.0294364
0.355257
-0.529663
0.473217
-0.0820606
-0.00978377
0.0918444
0.988469
0.812478
0.569339
0.0602441
0.682923
-0.523953
-0.158969
1.77848
-1.45997
-0.196221
-0.42976
0.139353
0.024656
0.202172
0.00487268
-0.210796
0.00357479
-0.122656
0.546688
0.0359329
-1.80656
-0.0191337
-0.136007
-0.0685433
0.00992585
1.02455
-0.874081
0.889583
-0.452554
-0.437029
0.00384071
0.104969
-0.00884215
0.00355416
0.394177
0.0984562
-0.209369
-0.560527
-0.449923
-2.30083
0.897325
1.4035
-0.0456601
0.00989653
-0.00356441
0.0993226
0.112604
-0.276405
-0.286659
0.522469
-1.36335
0.247045
-0.95923
2.03333
0.631655
-0.085928
-0.545727
-0.644471
-0.486113
-0.0563344
0.0865004
-1.11078
0.496077
-0.721062
0.224984
-0.15495
0.048413
0.106537
-0.166999
1.23833
1.29804
-1.39138
1.45997
-1.73596
1.28342
0.452537
1.07531
-2.03454
2.17206
-1.09773
-1.04417
-1.01488
-0.0271944
0.192792
-0.0571164
-0.413847
-1.54184
0.0781684
-0.0522264
-1.27257
1.20808
-1.97517
0.767083
-0.0506901
0.229848
-0.418017
0.212608
-0.140209
0.998815
1.40814
-1.90424
0.748914
-0.166552
-0.770461
-1.33517
0.182353
-0.13394
1.86423
-1.92273
-0.136298
-1.09889
0.104682
1.23853
-0.486181
-1.56042
1.61611
-0.0556964
0.479992
1.93609
0.430899
-0.0689211
-0.361978
1.84112
-0.767275
0.226749
-0.24348
0.739039
-0.76779
0.0831183
0.12596
0.550011
0.920114
-1.47013
-0.598002
-0.452695
1.02558
-1.06309
0.0375183
-0.154273
-0.144861
-1.73417
0.740793
0.993375
1.24503
-0.25282
-0.517613
-0.00373723
0.833527
-0.925824
0.27792
-0.541384
-0.262185
0.289173
-0.623731
0.447954
-1.1794
-0.802436
1.98184
-0.323411
0.246608
-0.201624
-0.0752717
1.03413
-0.950482
0.0556989
1.3622
-2.02171
-0.108208
-0.418257
0.208427
-1.18798
0.0915211
0.700043
0.434176
0.0276312
-0.61773
-1.50761
0.345511
0.0997924
0.335935
-0.435728
0.0668777
-0.307512
1.16157
1.08798
1.25423
-0.992871
0.0632232
-0.182046
-0.247327
0.427884
-0.23952
0.00632455
-0.679356
-0.945248
2.02056
-0.253082
0.272936
-0.606753
-1.13575
1.7425
-1.89427
1.02383
-0.0652571
0.298629
0.0885139
-1.46538
-0.0629646
-0.136354
0.632431
-1.03822
-1.26261
1.98464
0.557165
-1.37504
1.00804
-0.55756
-0.212259
0.112302
-0.341715
-0.242016
0.252143
-1.63207
0.208656
-0.784364
1.07748
-2.02273
-0.792374
-0.309087
0.218893
-0.0742464
-1.48617
0.854067
-1.02264
1.34009
0.760619
-1.49448
0.733859
1.29933
-1.06955
1.93644
-0.932062
-1.03587
1.96793
0.55211
1.27929
-1.03163
-0.659015
-0.972178
-0.871709
-0.864251
0.45268
-0.655257
1.44689
-0.791631
-0.138437
1.38457
-1.24614
-1.00049
-0.952066
1.95255
0.91058
0.114996
0.232886
0.353929
-0.430736
0.274751
0.155985
-0.00301802
-0.243321
0.487012
-1.37495
-0.782617
-0.382016
-0.242118
-0.28335
0.333806
-0.308555
0.983514
-1.98789
0.868835
1.11906
-0.0381741
-1.64569
1.68386
0.0395356
-0.243671
0.0364485
0.610918
-1.84165
1.84165
-0.0420555
-0.0131103
0.0551658
-0.63924
1.05844
0.112102
0.0702509
-0.772095
-0.324013
0.676703
-1.39138
-0.0641764
-1.26298
0.300321
1.2703
-1.27901
-1.19415
0.167501
-0.282674
0.378066
-0.0953914
0.12705
0.500907
0.334952
-0.0509542
-0.96463
-1.18359
0.198048
0.985537
-1.40822
-0.2788
-0.673491
-1.22496
-0.0289552
-0.0351592
0.156071
-0.207565
-0.137655
-0.00884742
0.0693815
0.370827
-0.270562
-0.353169
-0.747098
1.27403
-0.526935
0.300565
0.199036
-0.227072
0.393944
-0.166872
-0.432324
0.171422
0.416188
-0.526007
0.109819
-1.1305
1.81833
-0.961711
-1.27005
-1.68933
0.25251
-1.35249
0.0486718
1.00882
1.17048
0.152436
-1.06764
1.15243
-0.0785717
-0.24901
-0.0755342
0.656636
0.606392
0.182031
2.01269
-0.935213
-1.0627
-0.794078
1.85677
1.12075
0.0109555
-1.13171
0.100349
-0.0824569
-0.187371
0.170846
0.124791
1.3353
-1.46009
-1.27277
1.19955
0.0732212
1.27277
-1.34702
0.208117
-0.258807
-0.818906
1.05075
0.074404
0.153915
-0.0885679
-1.6714
0.182556
1.5203
-0.759678
-0.315941
-0.0609909
0.132902
-0.424708
0.945319
0.249169
-0.0840671
0.614791
-1.10105
0.170625
-0.230493
-0.558407
-0.0492548
0.676012
-2.08081
0.51784
-0.0685373
0.424852
-0.356315
-1.03495
-0.940216
0.0576566
0.661888
0.504233
-0.88765
0.0938387
-0.0919979
-0.315141
0.0997
-2.08359
1.03942
0.0427106
-0.0197916
-0.279851
0.107655
0.142427
-0.0559475
-1.41926
0.669551
-1.48517
0.815616
0.0570974
0.240219
-0.297317
0.143321
-0.116269
-1.01377
1.31409
0.624051
0.370317
1.30426
-1.15885
0.180166
0.0394397
1.67711
-1.97147
0.294362
-0.0442421
-0.555237
-0.821151
-0.0616807
0.367495
-0.439306
0.345653
-0.425698
-1.21881
-0.0197733
-0.0626372
0.0824105
-1.47058
0.19585
1.27473
0.381877
-0.420404
0.0666999
0.288211
-0.35491
1.16146
-1.19936
-0.351287
0.362418
0.603292
0.253637
-0.354658
0.363874
0.214248
-0.159502
0.173818
0.644556
-0.818374
-0.425322
-0.0592
-0.923432
-1.01163
1.93506
-0.0470343
-0.248875
0.398582
-1.00472
1.78422
0.290626
-0.173721
0.0444847
0.0457339
0.033828
2.06035
-1.01634
-1.22811
0.757219
-0.548563
-0.619185
1.829
0.31401
-0.215554
-0.138946
0.134036
0.218731
-0.112046
-0.279209
0.177665
-0.271415
0.0519008
-0.259466
1.08199
-0.280693
0.388348
0.30224
-0.0740234
0.036208
0.3056
0.0665714
0.480482
-0.751044
0.202938
-0.232021
0.0290827
-0.29196
0.333123
0.171416
0.893998
-1.06541
-0.234978
0.106118
0.47829
-0.629496
1.72015
-1.11298
1.02101
0.909492
0.0985942
0.559744
-1.072
0.345482
-0.42325
-0.369086
1.16079
0.838239
-1.49341
1.49341
1.72926
-0.828176
1.08857
-0.0190095
1.52159
-1.50258
0.926481
1.01796
0.860035
-2.03944
0.160813
-1.14441
-1.34579
-0.210145
-1.43645
1.6466
-0.399497
-0.12051
0.0700564
0.996913
0.152512
-0.259063
-0.889241
1.55586
-0.666618
-0.172699
0.255817
-0.027002
-0.0690878
0.966786
2.57051
-1.00334
-1.56717
1.62199
-1.47987
1.12811
0.204111
0.0360327
0.00205102
0.0142601
1.55674
0.571536
1.11935
0.687696
0.0202797
0.1905
-0.21078
-0.333863
0.206571
0.175276
-0.187054
0.0117781
0.155956
-0.209784
0.0538279
0.511763
-0.436565
0.329436
-0.471106
-0.0877155
0.214805
0.0156734
-0.234979
0.0249734
-0.544711
0.511462
0.0332489
-0.146162
0.125115
0.0210474
1.92273
-1.57569
0.395463
-0.29206
-0.103404
-1.49412
-0.333717
0.259915
-0.992379
1.91886
0.251722
-0.321535
2.04775
-1.18771
0.238941
-0.306508
-0.151614
-0.331507
-1.33204
-0.0560058
1.60614
1.29448
-1.08605
-0.107154
0.136316
-0.078888
-1.48862
-0.285317
0.277343
0.235628
-0.35854
-0.357055
0.283288
-0.0747152
-1.34172
1.30085
-1.46262
1.48249
-1.16665
-0.465151
0.420799
0.652305
0.377638
-0.389015
-0.0511743
0.057325
0.341756
-0.399081
-0.355737
1.41848
-0.970343
-1.011
-1.98552