/*--------------------------------*- C++ -*----------------------------------*\
| =========                 |                                                 |
| \\      /  F ield         | OpenFOAM: The Open Source CFD Toolbox           |
|  \\    /   O peration     | Version:  2306                                  |
|   \\  /    A nd           | Website:  www.openfoam.com                      |
|    \\/     M anipulation  |                                                 |
\*---------------------------------------------------------------------------*/
FoamFile
{
    version     2.0;
    format      ascii;
    arch        "LSB;label=32;scalar=64";
    class       volVectorField;
    location    "5.4";
    object      U;
}
// * * * * * * * * * * * * * * * * * * * * * * * * * * * * * * * * * * * * * //

dimensions      [0 1 -1 0 0 0 0];

internalField   nonuniform List<vector> 
5098
(
(2.61356 0.997094 0)
(2.15036 0.0779072 -3.39233e-20)
(2.57142 0.0614406 -2.58952e-21)
(1.50703 -0.669262 8.37686e-19)
(2.14194 -0.750646 0)
(0.870373 -0.419414 0)
(2.41428 -0.00111268 -2.73017e-21)
(2.50349 -0.2765 1.63472e-21)
(2.66839 0.0489723 -5.41293e-20)
(2.06046 -0.230358 1.34377e-19)
(-0.186145 -0.975188 0)
(2.19804 -0.0573518 1.90759e-19)
(2.48548 -0.443798 -1.33256e-20)
(0.915921 -0.447116 0)
(2.07557 -0.284714 9.8358e-20)
(1.95152 0.040193 3.57451e-22)
(-0.144103 -0.325635 -6.83794e-20)
(-0.984282 -0.543481 0)
(-0.331113 0.359273 4.64643e-19)
(-0.223649 -0.21997 7.76021e-20)
(1.83012 0.583323 -8.10866e-20)
(1.90292 0.0333122 1.15349e-21)
(2.07902 -0.805984 0)
(0.727555 0.0878453 3.10821e-20)
(-2.15765 0.983259 0)
(1.45696 -0.57974 0)
(1.97329 0.0311044 1.35306e-19)
(1.82764 -0.774968 2.2822e-19)
(-0.175814 0.568809 -1.39976e-18)
(1.66366 -0.731604 0)
(2.40781 -0.206851 -1.27305e-19)
(0.704431 -0.342282 0)
(2.0781 0.00462077 -1.49558e-19)
(0.566449 -0.854327 0)
(2.56147 0.306079 -4.66943e-20)
(3.45234 0.248388 1.50408e-18)
(1.86516 -0.451772 1.63491e-19)
(1.95649 0.00145106 -2.8463e-21)
(1.31029 -0.425867 6.02418e-19)
(1.36428 -0.634478 0)
(1.51442 -0.684395 -3.95711e-19)
(1.33388 -1.3251 -2.17319e-18)
(1.47102 -0.583402 0)
(2.5663 -0.181378 6.56177e-20)
(2.40103 0.642319 3.92516e-20)
(2.06233 0.0957484 7.3076e-21)
(-0.363041 -0.330512 4.55902e-20)
(1.05167 -0.345586 0)
(2.395 -0.232241 0)
(1.51426 -0.635023 8.92058e-20)
(2.2509 0.135377 5.372e-20)
(1.64006 0.469716 -4.96215e-19)
(-1.09633 0.822392 9.78616e-22)
(2.0678 -0.0661614 1.9267e-19)
(0.93392 -0.46622 -3.69066e-19)
(1.55415 0.126786 0)
(1.85589 0.269759 -2.68008e-19)
(1.61719 -0.65806 0)
(0.834204 -0.411293 0)
(1.90613 0.00115545 -2.79499e-20)
(1.4976 -0.340228 4.91601e-20)
(-0.727504 0.208572 -2.25714e-19)
(2.51834 0.351576 0)
(2.44265 -0.421933 0)
(-1.25865 1.05264 2.45858e-18)
(0.791728 -0.397968 4.57523e-19)
(2.17726 0.0278013 6.61305e-21)
(2.31523 0.179781 7.40113e-21)
(2.09308 -0.250482 2.01083e-19)
(1.65806 -0.694341 2.64047e-19)
(1.905 0.224997 1.63883e-20)
(1.37215 -0.423132 -7.08494e-21)
(1.89929 -0.789688 0)
(1.04766 -0.59625 0)
(1.66383 -0.0743904 2.8015e-20)
(1.10349 -0.538585 -4.27204e-19)
(1.58183 0.187344 0)
(1.49403 0.20939 4.60992e-19)
(2.52682 -0.237994 7.63617e-20)
(1.59087 0.176372 0)
(1.71475 -0.0210736 0)
(3.59589 -0.529704 1.0379e-18)
(1.6866 -0.266702 5.68368e-19)
(0.541042 -0.916598 -3.47799e-21)
(-1.07811 -0.651228 2.91133e-19)
(1.50466 -0.664344 2.87065e-19)
(0.0126829 0.342183 -2.77959e-19)
(1.57834 0.188643 -7.95062e-23)
(2.65477 -0.207375 6.1408e-20)
(1.45919 -0.401921 5.5801e-20)
(2.2679 -0.275848 -9.09372e-21)
(0.413283 -0.260865 8.60006e-19)
(2.43509 -0.0871382 -2.42804e-19)
(1.52951 -0.65469 -4.4671e-19)
(1.29704 -0.456786 1.06241e-19)
(1.38503 -0.394987 -1.02129e-20)
(1.03214 -0.518555 -3.64005e-19)
(1.49783 0.277321 3.40686e-19)
(1.60456 -0.063148 1.54005e-20)
(2.0162 -0.482216 -1.38742e-19)
(1.72713 -1.44285 -1.35444e-19)
(0.987384 -0.486001 -4.39454e-19)
(-0.0188793 -0.0886641 4.81605e-20)
(2.36725 0.369443 -8.64438e-21)
(1.50121 0.195648 -5.24022e-19)
(2.42282 1.10013 0)
(1.94022 0.263775 2.84185e-19)
(2.30742 0.0874026 1.57451e-21)
(0.998401 -0.399366 8.15452e-20)
(-0.319479 -0.865713 0)
(1.03549 -0.49797 -9.68812e-19)
(1.31795 0.626068 6.8154e-19)
(1.86414 0.00843777 -2.829e-19)
(-0.142101 0.485185 1.92623e-19)
(1.74704 0.666136 1.15532e-19)
(0.267325 -0.397214 0)
(3.72089 -0.88264 2.11248e-18)
(2.74098 1.48145 0)
(1.90479 0.304488 3.93531e-21)
(0.755811 0.0336689 -4.78467e-19)
(1.71328 0.453744 4.07444e-19)
(1.63953 2.10848 -6.67802e-20)
(2.07904 -0.244492 -8.52605e-20)
(0.0606834 0.431079 -1.5682e-18)
(0.24015 0.0791126 -1.11474e-18)
(-0.300813 0.02981 1.50877e-21)
(2.12772 -0.0687684 1.61676e-19)
(2.06813 -0.773237 -2.89747e-19)
(1.34362 -0.139109 -1.25777e-19)
(-0.0741079 0.404965 -3.64665e-19)
(-1.82665 0.179791 -1.30344e-18)
(1.089 -0.483933 -6.02291e-19)
(1.11905 -0.48379 5.04479e-19)
(2.62983 1.51653 -1.26217e-19)
(1.29799 -1.26543 -2.89937e-19)
(2.82085 -0.760667 4.05516e-19)
(2.07061 2.63251 6.83931e-19)
(1.92596 0.266644 1.93828e-19)
(0.847284 -0.415794 0)
(2.10505 -0.0596118 -6.22218e-19)
(1.5965 0.579039 -3.28462e-19)
(1.24395 -0.296829 -1.42128e-20)
(1.72606 -0.78591 4.42871e-19)
(2.51427 0.0166494 -1.4033e-20)
(2.07744 0.0795119 -4.82085e-20)
(2.2641 0.330004 0)
(2.0824 -0.25283 2.06672e-19)
(1.93449 -0.84093 0)
(2.64825 -0.0649497 4.09517e-19)
(1.61159 -0.740108 1.72257e-19)
(3.12202 -2.20916 -8.74526e-19)
(2.38599 0.462552 0)
(1.95554 -0.860594 9.83053e-20)
(2.04194 0.0357281 0)
(-0.0082815 0.22385 -3.53918e-19)
(0.782872 -0.290746 -1.99138e-19)
(1.62309 -0.648882 -4.71874e-19)
(1.63634 -1.43308 -8.3304e-20)
(1.46024 -0.679215 -3.23491e-19)
(-0.395684 0.351279 1.45958e-18)
(1.94606 -0.442526 -4.49345e-19)
(2.09418 -0.294464 -1.31188e-19)
(0.587029 0.307133 -5.27447e-19)
(1.8267 -0.168099 -3.51778e-19)
(-1.62103 0.11355 -3.51701e-19)
(2.45106 -0.194547 -1.28686e-19)
(2.09238 -0.857474 -3.4443e-19)
(2.3204 -0.581814 0)
(-2.18596 0.827947 5.84212e-19)
(1.6791 -0.529548 -5.13791e-19)
(1.50478 -0.355047 7.35982e-21)
(1.52738 -0.61224 -3.03625e-19)
(2.24664 0.583194 1.12518e-19)
(1.82819 -0.748114 4.08823e-19)
(2.61352 -0.0617813 0)
(1.96682 0.0062953 0)
(1.69784 -0.246547 -2.20981e-19)
(3.5356 0.298418 -3.7494e-20)
(1.7768 -0.131709 4.83536e-19)
(0.203063 0.155174 0)
(1.78459 2.28966 0)
(4.05455 -1.23832 -1.34941e-18)
(1.74497 -0.531245 6.34836e-19)
(-1.63441 0.0841276 0)
(1.83176 -0.166002 0)
(2.70835 0.815861 5.13573e-19)
(1.53274 0.317551 0)
(1.88958 -0.437058 5.64201e-19)
(0.971518 -0.47369 8.311e-19)
(-1.23677 2.18923 -4.94135e-19)
(1.39021 0.756645 0)
(1.49324 -0.255531 1.34618e-19)
(1.92303 -0.806842 0)
(1.66435 -0.114313 3.23489e-20)
(2.44352 -0.204358 1.43246e-20)
(0.37006 -0.231967 -9.0505e-19)
(4.21302 -0.197317 6.72246e-19)
(2.97001 -0.819881 0)
(2.00074 0.0116262 -7.66992e-21)
(1.70368 -0.510429 -9.36077e-20)
(-2.31664 0.828411 -2.30412e-18)
(1.68373 0.381843 6.21353e-21)
(2.44162 0.637639 1.75824e-21)
(2.26412 0.00109284 4.88666e-21)
(1.49611 -0.0295835 2.25748e-19)
(0.758336 -0.302303 -1.42495e-19)
(2.57557 0.05499 -1.94879e-20)
(1.14947 -0.529885 0)
(2.31543 -0.080991 0)
(1.24457 -0.605324 -4.67604e-19)
(1.94423 -0.139822 -1.80308e-19)
(1.72229 0.347943 3.31309e-19)
(1.61307 -0.274993 -1.34864e-19)
(2.08404 0.0806028 -1.7335e-19)
(2.11074 -0.0723616 -2.45832e-19)
(0.332229 0.408107 -4.04042e-19)
(1.73162 -0.113268 0)
(-0.481805 -0.914357 -3.1658e-19)
(0.420243 -0.201994 1.62392e-19)
(2.00986 0.0465601 1.29191e-19)
(2.30834 -0.29555 -3.41883e-20)
(1.56327 -0.313717 0)
(2.17043 0.0148078 1.32158e-20)
(2.30783 -0.343658 1.75794e-19)
(-0.0494355 0.18201 2.50139e-19)
(2.01337 -0.152887 0)
(0.340967 -0.0609324 0)
(1.93047 0.0445646 0)
(1.97343 -0.484215 0)
(1.68208 -0.67316 1.02026e-20)
(1.85489 0.474697 0)
(0.565197 -0.224785 -5.19779e-19)
(4.16823 -0.663004 -9.07362e-19)
(2.03699 0.0314028 -4.48744e-21)
(2.67577 -0.0244631 -6.91143e-20)
(2.41893 -0.0162037 0)
(1.46609 1.55673 -1.69442e-19)
(-1.4729 1.60164 -2.88665e-18)
(3.16768 -0.156729 0)
(1.90375 -0.0213477 3.44247e-19)
(3.19496 -0.51975 -3.57782e-18)
(2.26329 0.563177 0)
(2.44218 0.129083 0)
(0.993728 -0.20111 8.79074e-19)
(1.8372 0.535303 -4.21737e-19)
(2.29702 -0.132917 -2.20389e-19)
(1.02855 -0.490676 9.79085e-20)
(-0.514811 -0.645431 -1.83011e-19)
(-0.181159 -0.388541 0)
(2.39787 -0.108687 6.13616e-20)
(2.21207 0.748504 -7.26142e-20)
(1.83371 -0.771465 4.25157e-19)
(0.364535 -0.378319 6.74727e-19)
(-1.98818 1.2757 1.39528e-18)
(1.93769 0.032635 -2.57385e-19)
(-1.55175 1.77733 2.66545e-18)
(1.3688 -1.06539 2.49278e-19)
(1.05256 -0.358564 -8.2011e-20)
(1.08356 -0.369095 -3.69496e-19)
(1.84729 0.0213999 6.78742e-21)
(2.6819 0.809832 7.76078e-20)
(-0.994441 0.904615 1.09785e-18)
(-2.27288 1.0967 9.81998e-19)
(1.84635 -0.799201 0)
(1.99159 0.0232689 -1.81184e-21)
(-1.04948 0.192093 1.17498e-19)
(-0.401854 0.270387 -1.69824e-18)
(-0.19496 -1.06658 0)
(1.38193 -0.358875 0)
(1.81723 0.00882325 -3.1896e-20)
(-1.22905 2.0931 6.00795e-19)
(1.85653 0.0976132 2.6455e-21)
(-0.137254 0.248379 -7.61528e-19)
(1.4138 -0.298632 0)
(1.09531 -0.436918 2.45965e-21)
(0.134324 -0.150685 6.58059e-20)
(1.29316 -2.01064 -1.95986e-18)
(3.39342 -2.24106 0)
(2.21785 -0.719988 0)
(1.97501 -0.0984478 0)
(-2.02576 0.635202 -7.77489e-19)
(2.45637 -0.18482 1.70539e-19)
(-0.222893 0.402494 -1.04951e-18)
(2.4548 -0.154931 -1.89505e-19)
(1.93092 -0.52129 1.33288e-20)
(0.467212 -0.444085 0)
(1.95384 0.0293602 0)
(2.35252 0.353948 -2.70483e-20)
(2.47621 -0.160087 1.03517e-19)
(1.77011 -0.0178729 -2.96019e-19)
(0.115878 0.341581 0)
(-0.546632 0.314775 6.00082e-19)
(1.04213 0.0120843 -2.56952e-19)
(2.41145 0.469046 3.29787e-20)
(1.9489 -0.614553 4.40775e-19)
(0.975061 -0.12608 -6.26316e-20)
(2.5192 0.0997459 0)
(2.41677 -0.200335 -1.14444e-19)
(2.01065 0.0708752 0)
(2.07718 0.0576264 -1.57903e-19)
(2.29025 0.36583 2.20191e-20)
(2.61519 0.0502554 1.2623e-19)
(1.56602 -0.402707 5.88657e-19)
(1.87755 0.470886 2.34215e-19)
(-1.00815 0.259329 -1.90015e-19)
(1.76107 -0.717379 -2.55351e-19)
(2.61918 1.93426 -1.51747e-19)
(2.08211 -0.0184915 0)
(1.81075 -0.417987 0)
(-0.398545 -0.345869 0)
(2.26459 -0.279729 4.38266e-20)
(0.107386 -0.360085 6.76037e-20)
(0.803432 -0.399623 4.86773e-19)
(1.84931 -0.000725365 -5.97e-20)
(2.5298 -0.441787 -5.64181e-20)
(0.0927424 0.133357 6.93395e-19)
(1.99993 2.41646 -6.49327e-20)
(2.24453 0.0350314 -1.17332e-20)
(2.22821 -0.14129 6.00399e-19)
(0.837244 -0.346883 0)
(2.70521 -0.22747 -9.10259e-20)
(-0.555516 0.274389 -1.37627e-18)
(3.03474 -0.0782742 -5.71115e-19)
(0.654089 -0.182549 -2.13177e-22)
(1.61181 -0.0391006 1.21633e-20)
(1.29117 -0.393962 4.04418e-19)
(2.22378 0.795459 0)
(1.96645 0.102395 -9.76739e-20)
(1.01039 -0.407345 -8.62073e-19)
(1.90871 0.262719 -3.95801e-21)
(1.24404 -0.604369 0)
(2.27095 -0.134437 -1.74613e-19)
(0.991402 -0.478604 2.72433e-19)
(2.25711 -0.715791 -1.50037e-19)
(1.68248 -0.702035 -3.58352e-19)
(2.3638 0.0822846 -4.38292e-20)
(2.37283 -0.36027 1.02808e-20)
(0.927428 -0.458168 5.40665e-19)
(2.13726 -0.0974882 2.48771e-19)
(1.8245 -0.3646 0)
(1.74804 -0.797812 -4.1914e-19)
(1.63741 -0.693655 -1.08024e-18)
(2.58848 -0.238844 2.90841e-20)
(1.96422 0.0710629 4.1519e-20)
(1.86173 1.19156 0)
(1.55487 0.0222506 0)
(2.02336 -0.0357772 -1.97517e-19)
(0.505897 0.339983 3.36563e-19)
(2.76839 1.41937 0)
(2.28417 -0.102336 1.75655e-19)
(1.4857 -0.661683 -4.17942e-21)
(0.868692 0.420641 -6.24582e-19)
(0.832424 -0.353974 -4.60234e-19)
(-2.23148 0.686601 8.16943e-19)
(1.81992 -0.0172304 3.49633e-20)
(-2.08217 0.46 2.51202e-18)
(2.77572 -0.718394 -3.67167e-19)
(2.23797 0.0148332 0)
(1.37306 -0.101135 -1.08257e-19)
(1.50308 -0.42413 0)
(1.95999 0.112973 -4.7576e-19)
(1.9774 -0.451375 0)
(2.11785 -0.0161033 -1.70233e-19)
(1.64392 0.275822 1.03128e-20)
(2.7944 -0.134783 -5.1833e-20)
(1.07146 -0.411153 4.87503e-19)
(1.95054 0.1008 -3.83507e-19)
(2.00278 0.181072 -4.14309e-19)
(1.93552 -0.834338 0)
(-1.02426 1.8013 0)
(1.14726 -0.453415 -4.81306e-19)
(2.74263 -0.182033 0)
(3.45032 0.516161 -8.6397e-19)
(1.37001 -0.251476 0)
(1.53082 -0.440944 9.48318e-21)
(-0.744149 0.151122 1.98102e-19)
(1.72714 -0.549941 7.53956e-19)
(0.585296 -0.281556 -3.56788e-20)
(2.30787 -0.554198 0)
(1.64539 0.308606 -7.20563e-21)
(1.80013 0.0135133 -2.51585e-19)
(-0.249208 -0.0397874 -1.07934e-20)
(1.92791 0.0343741 -2.19176e-19)
(2.62796 -0.0265261 -8.24627e-20)
(2.67902 -0.0269085 -3.67735e-20)
(3.17113 1.01379 3.44933e-19)
(2.4969 0.436458 -6.28037e-20)
(-1.6982 1.62991 -6.40117e-19)
(1.65517 -0.464521 0)
(-0.0131671 -0.0918296 -6.22256e-20)
(1.97663 0.130559 -1.69101e-19)
(2.51303 -0.257327 0)
(1.95397 0.0784855 1.4414e-19)
(1.10668 -0.5333 -3.64031e-19)
(1.63715 1.32201 1.53045e-19)
(3.81019 0.323084 0)
(1.33599 -0.629778 1.31011e-19)
(1.02712 1.04169 0)
(2.15605 0.04332 3.81577e-20)
(2.26032 -0.233057 -1.40833e-19)
(-0.233966 -0.0586211 1.19243e-18)
(1.00239 -0.017645 0)
(1.57694 0.293165 2.34705e-19)
(2.00679 0.0663167 1.54283e-19)
(0.32742 -0.317794 0)
(1.70472 0.0132413 0)
(1.98407 -0.162281 0)
(-0.634677 0.295174 4.92858e-19)
(0.278678 -0.141581 -3.79861e-20)
(2.65405 -0.0660171 0)
(2.03188 -0.00260871 0)
(1.46423 -0.653015 7.20807e-20)
(-1.96715 1.74474 0)
(2.39229 0.459373 7.25071e-21)
(2.8982 1.31606 1.90366e-19)
(2.04752 0.213198 7.42348e-21)
(1.84193 0.42973 -4.7407e-21)
(0.867925 0.49644 7.18443e-19)
(2.94132 1.47779 -2.01729e-19)
(2.37247 -0.259791 8.01193e-21)
(1.99889 -0.0525584 1.68183e-19)
(1.546 -0.131801 -2.6354e-19)
(1.76651 -0.297572 4.18584e-21)
(1.99935 0.0140286 0)
(-2.10527 0.369334 -2.39814e-18)
(0.410432 -0.226976 0)
(1.14621 -0.569655 6.30321e-20)
(1.84897 -0.741399 0)
(2.22854 -0.180607 0)
(1.24538 -0.596031 -3.08025e-19)
(2.05888 0.0319224 -9.10574e-21)
(-0.301805 0.484659 -1.53564e-18)
(2.03681 0.00626698 9.83399e-21)
(1.7717 -0.692651 4.11815e-19)
(3.034 1.23243 2.19554e-19)
(0.700707 -0.168279 1.34765e-18)
(2.36218 0.137565 2.08679e-20)
(2.03676 -0.815465 1.69028e-19)
(1.95604 0.051876 -2.62256e-19)
(2.66737 0.506282 0)
(1.7999 -0.090846 -5.02878e-19)
(1.79166 -0.45247 4.1959e-19)
(2.00243 0.135972 -5.93984e-19)
(-0.0334368 -0.208439 -2.75822e-20)
(1.55861 1.33391 -1.4482e-19)
(2.87755 1.36488 2.89726e-19)
(3.23701 -0.487967 0)
(2.05837 -0.265163 0)
(0.500446 0.448221 -6.01324e-19)
(2.11093 -0.105921 1.04507e-19)
(-0.280831 -0.462317 0)
(2.27015 -0.141888 -1.52004e-19)
(1.99026 0.014158 -3.19007e-19)
(0.0343385 -0.406575 -1.89063e-20)
(-0.100175 -0.760187 1.74827e-19)
(2.65526 -0.0849301 -5.49957e-21)
(0.862298 -1.36885 5.00251e-20)
(2.35007 -0.367075 -3.53908e-19)
(1.92014 -0.457672 2.95713e-19)
(3.37087 1.04277 7.915e-19)
(1.48559 -0.60165 3.83862e-19)
(1.89946 0.234318 -5.24003e-22)
(0.968953 0.341955 5.24992e-19)
(2.1163 2.08854 0)
(1.66186 -0.438525 2.41133e-19)
(-0.804277 -0.636617 0)
(-0.574664 0.88164 -2.62692e-18)
(2.71946 -1.28199 0)
(-0.903361 0.288077 -6.4323e-19)
(1.57974 -0.668715 -5.43879e-19)
(1.72819 0.755831 -3.22975e-19)
(2.00406 -0.82715 0)
(1.01598 -0.955862 0)
(3.11763 -0.254376 0)
(1.98225 0.0949273 1.2369e-19)
(1.93849 0.886615 -1.48651e-18)
(0.0175108 0.286843 1.22536e-18)
(1.54861 -0.290489 -7.88445e-21)
(3.47589 1.06088 -8.95775e-19)
(2.01361 0.331221 0)
(1.17929 2.12452 2.24186e-19)
(2.52754 1.38763 1.20259e-19)
(0.631692 1.15268 -2.5158e-19)
(1.49258 -0.697566 3.58425e-19)
(2.56305 -0.188617 5.00836e-21)
(1.12002 -0.54564 6.17253e-19)
(2.30757 0.501625 0)
(2.25834 -0.26992 1.33491e-19)
(1.05293 -0.309277 9.29695e-20)
(1.84286 -0.0278218 2.8934e-20)
(3.45498 0.688686 -4.67254e-19)
(1.87082 -0.750413 0)
(2.50777 0.795535 0)
(3.18157 0.36382 0)
(0.466514 -0.257758 0)
(1.8965 0.014862 0)
(1.37361 -0.512441 1.63273e-19)
(3.73269 0.96428 6.5482e-19)
(1.40445 -0.577873 4.54484e-19)
(2.06975 0.036349 2.59691e-19)
(-1.08964 -0.351863 0)
(2.00102 -0.838399 3.08297e-21)
(-0.45911 0.139755 0)
(-0.750905 -0.977761 -4.72068e-19)
(-0.522673 0.32944 6.39291e-19)
(3.98478 0.479473 -3.51571e-19)
(1.97014 0.159251 2.97765e-19)
(2.02559 0.339439 -9.08639e-20)
(4.0735 0.0937943 -5.2156e-19)
(2.47639 0.018934 0)
(0.284482 0.026246 1.06087e-18)
(1.98019 0.0537704 0)
(1.52151 0.935135 1.75581e-20)
(2.47923 -0.153703 0)
(2.06785 0.233174 -1.16985e-19)
(2.05829 -0.0892458 0)
(0.866293 -0.316998 -3.24885e-19)
(-2.45089 1.52007 2.18517e-18)
(2.34267 -0.192109 -1.4172e-19)
(1.3607 0.403842 4.7087e-19)
(-1.01939 0.459968 -1.03051e-18)
(2.07997 -0.776512 0)
(0.967794 -0.169881 -1.24398e-18)
(1.77561 0.332027 -4.44162e-22)
(3.53882 0.607915 -1.15087e-18)
(1.87273 0.0134501 5.54853e-21)
(4.16924 -0.611556 2.24726e-18)
(3.12975 0.794944 0)
(1.71414 -0.771763 -8.93149e-20)
(1.40301 -0.640808 0)
(2.51414 -0.244519 1.5452e-20)
(0.396033 -0.0845098 7.91438e-20)
(-1.55336 -0.32573 0)
(2.39255 0.406802 0)
(1.41962 -1.42352 -1.99766e-19)
(2.48831 0.735054 0)
(1.74801 1.89724 7.24711e-20)
(2.96375 1.01882 -3.44503e-19)
(0.270469 -0.0142617 -8.44835e-19)
(-0.0510548 -0.566437 -5.0815e-20)
(1.98104 0.0251018 -7.35508e-21)
(0.678207 -0.465419 1.36388e-20)
(-1.99038 1.22977 -1.36021e-18)
(1.88561 0.00149626 5.35795e-19)
(-0.045268 -0.286108 2.15094e-20)
(-0.753597 0.220359 0)
(2.47452 0.138845 -9.64484e-20)
(1.26057 -1.47443 2.19421e-19)
(0.304941 0.309432 8.5028e-20)
(3.4583 0.662081 9.11506e-19)
(2.86756 1.72965 0)
(1.78008 -0.489113 -4.21435e-19)
(1.16111 -0.369384 -9.66687e-21)
(2.55138 0.771776 -9.97498e-20)
(2.62039 -0.0331037 -3.959e-19)
(0.125373 -1.0688 5.28529e-20)
(-1.81819 0.126643 1.72954e-18)
(1.42439 -0.566881 -1.0958e-19)
(-0.2729 -0.586746 2.30477e-20)
(2.61266 -0.210651 -3.52476e-19)
(-0.121854 -0.878644 -5.92594e-20)
(1.96462 -0.680385 0)
(1.87152 -0.137584 -4.93035e-19)
(-0.903197 -0.0449734 0)
(0.652219 -0.642594 2.57719e-20)
(-0.50747 -0.692133 2.34106e-19)
(0.0788293 -0.25818 9.82829e-19)
(1.86119 0.346263 -6.78547e-22)
(-1.9947 0.83279 1.0108e-19)
(-0.366101 -0.396593 0)
(2.13904 -0.792096 4.60553e-19)
(2.10357 -0.831442 1.23881e-19)
(-0.715693 -0.287599 -8.35053e-19)
(1.76469 0.556819 0)
(1.68768 0.524892 0)
(0.126829 0.438527 0)
(1.33981 -0.707543 -4.13659e-20)
(1.93895 -0.0546969 -4.74871e-19)
(1.33398 0.197513 0)
(1.914 -1.64313 0)
(2.28787 0.182248 -8.60109e-21)
(2.72001 -2.27451 -7.32674e-20)
(2.1356 0.258551 -3.44058e-19)
(1.5705 -0.363363 3.19086e-20)
(1.72668 0.0419325 4.25553e-20)
(1.91335 0.00664213 -4.1755e-20)
(1.74428 0.389945 6.28861e-21)
(1.94064 0.598906 -2.73099e-20)
(1.8919 1.25965 0)
(-1.96065 1.25484 -1.22816e-20)
(-0.151342 0.479981 0)
(1.00109 0.22153 0)
(2.90974 0.194098 -5.20652e-19)
(-1.36263 -0.341943 0)
(2.48257 0.375255 0)
(1.87836 -0.0916986 7.58091e-19)
(1.81742 -0.80274 0)
(2.02511 0.189085 4.24625e-19)
(3.33502 0.690855 4.64219e-19)
(3.28727 0.630929 1.61509e-19)
(1.91771 0.256393 4.77917e-22)
(1.0687 1.4594 2.66685e-19)
(2.14973 -0.828596 5.73583e-21)
(1.9001 -0.760359 -1.15982e-20)
(1.12348 -0.431504 4.7007e-19)
(0.461463 -0.484714 0)
(0.908942 -0.449394 0)
(-1.94151 0.510268 -1.28283e-18)
(-2.36248 1.47086 -2.9905e-18)
(0.967321 -0.852975 0)
(0.333939 -0.435906 -9.52205e-21)
(-1.31012 0.982452 0)
(0.437633 -0.0874423 1.14464e-18)
(1.07987 -0.501966 -6.09997e-19)
(3.35929 0.476971 -2.13195e-20)
(3.23231 0.755127 3.67803e-19)
(1.17396 -0.389301 9.51868e-20)
(2.61797 -0.1777 1.7969e-19)
(2.35573 0.939885 0)
(2.44179 0.878992 0)
(1.0532 0.0795784 0)
(0.0769695 -0.420197 -6.19843e-19)
(1.37186 -0.517759 0)
(2.30777 0.659123 0)
(1.83193 0.0609023 0)
(2.42865 -0.397047 -7.80347e-20)
(-0.150671 0.558358 3.62601e-19)
(1.98641 -0.763027 -2.36302e-19)
(1.33275 -0.697156 1.19265e-19)
(1.40196 -0.301343 0)
(-1.7659 -0.471621 0)
(1.94916 -0.582504 -4.02084e-19)
(1.56796 0.582099 7.00993e-19)
(-2.32122 0.950199 -8.82147e-19)
(2.42936 0.440718 2.03883e-23)
(1.70616 -0.420912 4.42341e-19)
(0.952832 0.507014 -1.12857e-18)
(-2.36614 1.62859 0)
(1.17878 1.40721 -6.15347e-19)
(0.305205 0.489573 -6.99498e-19)
(3.34418 0.489898 0)
(2.23907 -0.060947 0)
(1.76809 -0.0891527 0)
(2.01872 0.0435644 -4.63628e-19)
(1.44063 0.305589 -4.83241e-19)
(1.63226 0.155009 0)
(2.8364 1.43062 1.59438e-18)
(1.74999 -0.784057 4.18023e-19)
(2.44401 -0.357301 8.89018e-20)
(-1.34953 0.333669 3.45858e-19)
(2.03001 -0.268449 0)
(2.46363 0.0475899 6.43899e-20)
(1.76073 -0.39142 0)
(1.16441 -1.55432 -2.19367e-19)
(1.69153 -0.768696 0)
(2.0911 -0.75783 5.34964e-19)
(1.41996 -0.300423 -2.04282e-23)
(2.06225 0.19115 -8.24738e-21)
(2.4725 -0.381287 0)
(1.77552 -0.76051 0)
(1.55779 -0.654845 -5.66235e-19)
(2.35166 0.435706 -8.00957e-21)
(-0.428354 -1.15988 1.99228e-19)
(0.833016 -0.400625 4.76748e-19)
(1.881 -0.0555803 0)
(1.53793 0.244943 -7.34339e-19)
(2.34002 0.00893166 -4.30245e-20)
(1.33685 -0.799758 -5.43898e-20)
(2.06401 0.261779 -1.0647e-20)
(2.10151 0.326987 0)
(1.13863 -0.314389 6.68629e-19)
(0.937097 0.276462 -7.24606e-19)
(3.66936 0.725556 1.02198e-20)
(1.76103 0.262231 -8.33888e-19)
(-1.16863 0.211831 2.64708e-19)
(-0.631599 -0.333908 -1.87272e-18)
(1.49354 -0.298602 -1.0211e-19)
(2.06205 -0.0359583 -4.38947e-20)
(1.05903 0.406163 1.36902e-18)
(-0.439522 0.387043 6.283e-21)
(-1.25265 0.0486582 5.11596e-19)
(-0.770538 -0.885861 4.89692e-19)
(1.74935 -0.0253484 5.039e-20)
(2.37589 -0.229382 0)
(2.00912 0.575779 1.6318e-18)
(1.12137 -0.546744 2.79935e-19)
(1.62591 -0.179892 2.62012e-19)
(-0.371098 0.288386 0)
(1.59735 -0.368199 -7.04201e-20)
(1.9555 0.0277819 6.29367e-22)
(2.09234 0.0746968 0)
(-1.90467 1.69049 9.23051e-19)
(0.562398 -2.03738 1.10907e-19)
(1.19272 -0.262633 0)
(1.00289 -0.368945 0)
(1.49782 -0.723203 -6.97341e-20)
(1.31377 -0.992901 -2.34915e-20)
(2.88371 0.232011 1.86929e-19)
(-0.0642523 -0.335951 0)
(1.97385 0.00723965 -4.31496e-19)
(2.25959 -0.767022 -1.1125e-19)
(2.15575 -0.736578 3.20565e-20)
(1.17589 -0.454222 5.91868e-19)
(-1.34972 -0.086285 -5.36214e-19)
(-1.02927 -0.699921 4.18787e-19)
(3.68389 0.678173 -8.85193e-21)
(2.73955 -2.21519 0)
(2.22852 0.970638 -1.28223e-18)
(1.55597 -0.605595 2.82582e-19)
(2.0868 2.13708 1.89836e-19)
(0.775065 0.672532 0)
(1.11277 -0.198362 -5.88775e-19)
(1.17699 -0.499364 -7.18513e-19)
(-1.8148 0.279094 8.32685e-19)
(0.0961893 0.256623 -1.14826e-18)
(2.30676 1.5436 0)
(-0.306183 0.0709201 -7.76947e-19)
(2.33863 0.548034 0)
(-0.503091 0.856933 -8.02794e-19)
(-0.317454 -0.140413 1.46422e-18)
(-0.888362 1.88934 0)
(-1.57773 -0.155206 2.74829e-19)
(1.55187 -0.0827353 -1.07627e-19)
(0.131996 0.00617741 4.70241e-19)
(1.65343 -0.645116 5.16785e-19)
(-2.12382 0.740363 -2.30618e-18)
(1.14489 -0.523643 0)
(2.0214 0.0521555 1.4807e-19)
(0.43138 -0.112664 0)
(2.24275 0.209061 -2.97614e-21)
(-0.473405 -0.413561 -1.35745e-18)
(0.520413 -0.186033 3.0976e-19)
(2.10926 0.358434 0)
(1.8604 -0.743817 -4.00221e-19)
(3.01422 -0.0976826 1.59023e-19)
(-1.3391 -0.502415 1.1694e-18)
(0.790178 -2.00692 0)
(-1.31978 -0.507517 -1.04011e-18)
(3.51302 0.562789 -1.00546e-18)
(1.5762 0.240737 9.40596e-19)
(2.01017 -0.560826 0)
(2.40399 -0.163619 3.57335e-19)
(-1.14163 -0.238125 1.02818e-18)
(-0.537432 0.921571 -1.75717e-19)
(2.17027 -0.582459 1.6425e-19)
(-0.965109 0.0166939 0)
(1.79833 -0.343316 -4.34642e-20)
(1.96764 0.160004 3.05904e-22)
(2.53222 -0.37568 1.41953e-19)
(2.29536 0.00347084 0)
(-1.54449 -0.41049 8.26339e-19)
(1.63545 -0.422242 -7.66767e-22)
(1.23267 -0.349483 7.35315e-20)
(1.84084 0.472861 0)
(2.01393 -0.780791 -1.8846e-19)
(-1.91964 0.378604 1.59349e-18)
(1.72963 -0.385205 -5.52912e-19)
(-0.154365 0.317437 0)
(1.50908 -0.261751 -5.35325e-20)
(2.04047 -0.760171 1.52772e-19)
(-1.36515 0.17274 -5.70867e-19)
(1.10788 -0.406353 0)
(0.417391 -0.220759 1.67577e-18)
(1.51392 -0.794622 0)
(-2.00326 0.521528 1.73896e-18)
(1.44064 -1.20283 0)
(1.86465 -0.0901185 -2.78893e-19)
(2.15276 -0.228992 -2.92125e-19)
(2.89189 1.37865 -7.96965e-19)
(1.4709 -0.600735 0)
(1.95791 -0.839004 -2.94749e-19)
(1.98943 0.0325619 0)
(2.39121 0.455376 0)
(2.037 -0.842412 1.00391e-19)
(-1.77321 -0.319171 8.62486e-19)
(0.504261 0.00770231 1.94242e-19)
(2.09813 -0.553753 -9.67117e-20)
(1.66682 0.342164 3.06101e-19)
(0.708304 -0.524351 3.33265e-20)
(2.09866 0.348405 1.60183e-19)
(-2.2864 1.75989 -2.26609e-19)
(2.33045 -1.77616 0)
(2.47689 0.258071 0)
(-2.52405 1.5564 0)
(0.404186 -1.15133 1.55596e-19)
(1.13976 -0.387752 -4.15242e-19)
(1.47199 0.147357 0)
(-0.503188 -0.0568213 2.98498e-19)
(2.29097 -0.163517 -2.0413e-19)
(-0.870861 0.0349046 -1.89987e-19)
(1.35702 -0.486093 -1.35994e-19)
(2.12501 -0.848714 0)
(0.175818 0.118769 1.44526e-18)
(-1.54487 1.38183 -1.99025e-18)
(-0.789316 2.10339 0)
(-0.676495 -0.179624 -9.69121e-19)
(1.87122 0.0393268 -7.42312e-21)
(2.68024 -0.149558 8.84516e-20)
(1.93161 0.0636656 2.80737e-19)
(2.83187 1.14389 -3.70025e-19)
(2.4442 0.223761 8.32333e-21)
(-1.06091 0.236733 0)
(1.91736 -0.752754 0)
(-0.347208 0.00933655 2.17498e-19)
(-0.0749033 0.567205 0)
(1.59872 -0.333917 -7.12668e-20)
(2.12961 -0.765452 -2.9062e-19)
(0.955033 -0.449667 4.99827e-19)
(2.22063 -0.144218 -1.23866e-19)
(1.74297 0.373594 -3.04081e-19)
(1.51306 -0.592384 -2.77302e-19)
(1.60442 -0.625733 -5.17386e-19)
(1.30839 -0.862694 0)
(1.70498 -0.659633 4.94816e-19)
(1.94786 -0.0502055 0)
(2.51284 -0.410797 -6.13528e-21)
(2.02535 1.33398 1.47316e-20)
(1.20729 -0.233644 6.39379e-20)
(2.23038 -0.40013 -2.57231e-19)
(0.431764 -0.100997 -9.56928e-19)
(-2.06336 1.46282 0)
(1.32329 -1.99927 -1.16863e-19)
(-0.03074 -1.39806 -1.70613e-18)
(2.09831 0.595727 -1.72145e-19)
(1.80654 -0.727125 4.6478e-19)
(2.14149 0.0269762 -4.53123e-21)
(0.0186278 0.343598 3.85445e-19)
(1.76102 -0.743412 -1.28089e-19)
(0.25766 0.191872 0)
(-0.791756 -0.0884575 5.17833e-19)
(1.77528 -0.348691 2.92227e-19)
(1.99565 0.00768083 -1.68478e-22)
(1.14672 -0.501893 1.05408e-18)
(-0.23459 -0.16793 -1.07183e-20)
(1.72675 0.651432 0)
(0.355141 -1.00225 -4.91071e-20)
(-1.43101 -0.610719 -9.94256e-20)
(1.04964 -0.304486 -7.92438e-19)
(0.630227 -1.07604 4.16167e-20)
(2.71162 0.93821 -3.66321e-19)
(2.13898 0.568212 3.95017e-21)
(0.924783 -0.370315 3.5859e-19)
(1.79214 -0.336535 0)
(2.60147 0.0589382 -1.63654e-19)
(2.38007 -0.0485608 -5.62099e-21)
(3.06769 0.915349 -3.71464e-19)
(-0.377772 0.118811 0)
(3.50302 0.991754 3.82352e-20)
(-0.290073 0.958868 7.68685e-19)
(1.59173 -0.68038 1.09938e-18)
(-0.185834 -0.545288 1.07621e-20)
(1.13517 1.13039 -6.99714e-19)
(-0.016097 0.347645 2.85438e-18)
(1.97298 -0.743794 4.7672e-19)
(2.12398 0.00742029 -4.55792e-21)
(0.53901 -0.36416 -6.82125e-21)
(2.72786 -0.0129146 4.46272e-20)
(-0.24226 0.0337124 0)
(1.99566 0.0278033 0)
(2.36259 0.455743 0)
(1.75323 -0.676035 -4.32268e-19)
(1.52961 -1.25988 2.02702e-19)
(-0.616633 -0.334906 0)
(1.19315 -0.346443 -1.71924e-19)
(-0.89319 1.81157 0)
(3.88472 -0.028195 0)
(-1.0063 -0.126384 0)
(2.04459 -0.0253554 0)
(0.449823 -0.150313 -5.22306e-19)
(-2.16371 1.89107 0)
(3.90097 -1.19903 1.24043e-18)
(1.44555 -0.00752137 0)
(1.93153 0.145308 0)
(1.91797 0.237481 1.76759e-21)
(-2.33587 1.59691 0)
(2.6215 -1.84384 0)
(-0.248822 -0.441392 0)
(2.47954 0.0533869 2.15326e-20)
(2.50517 -0.373993 0)
(2.12409 -0.830333 -1.34314e-20)
(1.5356 -0.450528 3.25318e-21)
(-0.321261 0.366255 -5.1704e-19)
(1.98979 0.0630912 6.75511e-19)
(-0.156201 -0.0350236 1.16848e-20)
(1.05716 0.965768 -5.97956e-19)
(1.46722 0.740982 0)
(2.38445 -0.354017 9.15472e-21)
(1.61933 -0.139736 -2.55809e-19)
(1.56752 1.76767 1.46408e-19)
(1.87751 0.39902 4.26334e-19)
(0.743386 -0.247638 -7.52548e-19)
(1.48604 -0.641612 -4.28974e-19)
(3.26524 -1.62973 2.1362e-19)
(1.07013 -2.25071 0)
(2.27603 -0.504947 3.38204e-20)
(1.52765 -2.3009 1.37733e-19)
(2.67113 0.269897 -8.60679e-20)
(-2.26487 0.92109 0)
(1.83094 -0.00347118 -3.14022e-19)
(3.03393 0.793355 -1.15398e-18)
(1.325 -0.530821 5.48158e-19)
(1.19992 -0.543833 -6.60253e-19)
(1.63241 -0.754865 0)
(1.74005 -0.766629 0)
(3.47105 -1.71372 1.11151e-18)
(2.28255 -0.395781 -1.65591e-19)
(3.41535 0.318475 -6.22377e-19)
(1.7796 -0.0120423 2.99636e-20)
(1.17242 -0.31166 -1.59519e-19)
(1.68178 -0.473958 4.70183e-19)
(2.49887 0.271863 0)
(2.41076 0.316048 2.33097e-20)
(-1.19637 1.43675 -2.34128e-18)
(2.30854 -2.36587 9.85902e-19)
(1.00384 -0.202942 1.70503e-20)
(-0.5618 -0.464715 7.97036e-19)
(3.39811 0.353438 5.19758e-19)
(2.54241 0.773044 7.85668e-20)
(2.36177 0.57242 0)
(-0.183667 -1.25493 0)
(2.18803 -0.83464 -4.07583e-21)
(1.12145 -0.22403 0)
(1.84677 -0.372323 1.96579e-19)
(1.64544 0.298061 5.30707e-19)
(1.68654 0.495526 -1.54719e-19)
(1.57254 -0.628681 1.12102e-18)
(1.97119 0.187058 -2.0052e-22)
(1.57507 -0.0051749 0)
(1.81638 0.00764963 -7.01548e-21)
(-0.93392 -0.250543 -8.83564e-19)
(2.16365 0.277689 0)
(2.6094 -0.397397 0)
(1.88933 -0.76134 1.73488e-19)
(1.91637 0.596649 2.30771e-19)
(1.05706 -0.132162 0)
(2.84199 -1.03454 3.04047e-20)
(2.6433 -0.00215347 1.86493e-19)
(2.34052 0.354353 2.32756e-20)
(1.7862 0.485591 4.5695e-19)
(-0.0548904 -0.667146 -9.42327e-20)
(1.49994 -0.48492 0)
(0.541471 -0.0766038 -2.40218e-18)
(0.496304 -0.209045 1.12352e-18)
(1.9592 0.0331145 1.74729e-20)
(0.0593938 0.30835 -9.72884e-19)
(1.77776 -0.737932 3.27891e-20)
(2.66098 0.295926 2.29664e-19)
(2.28555 -1.835 0)
(1.93753 0.199599 2.3965e-21)
(1.81717 -0.00756307 9.76675e-20)
(2.14472 -0.0176679 -1.75772e-19)
(2.20204 0.570131 -1.24674e-19)
(2.17719 -0.795398 0)
(0.0162092 -0.499484 0)
(2.49164 0.0264284 0)
(2.34011 0.440451 -5.79474e-20)
(1.0246 -0.480007 7.84607e-19)
(2.46129 1.83959 -1.01328e-19)
(1.44336 -0.0871757 0)
(-2.53532 1.41035 -5.06475e-19)
(0.156463 -1.2054 1.24156e-19)
(-1.93291 1.4207 0)
(1.92307 0.250196 -1.40124e-19)
(1.61978 0.293057 -1.77197e-19)
(2.974 -0.305078 -9.47341e-20)
(2.05385 0.240605 -6.45328e-21)
(0.642554 -0.206684 0)
(2.18088 0.183014 -1.6276e-19)
(2.01225 -0.434531 0)
(2.04428 -0.263852 9.34486e-21)
(0.970562 0.133513 0)
(2.2864 0.80746 8.1108e-20)
(1.67298 -0.66642 -5.0559e-19)
(2.42134 0.796068 0)
(1.81954 -0.0464357 -4.84698e-19)
(2.07166 0.287832 1.02679e-20)
(1.78708 -0.417478 0)
(1.10378 -0.521977 0)
(0.462595 0.276971 -9.43795e-20)
(2.5001 -0.220551 -1.45506e-20)
(1.10547 -1.87678 -1.23904e-19)
(0.507564 -0.348846 -4.71414e-20)
(2.62971 -0.0853981 1.81839e-21)
(1.71389 0.0354649 7.41958e-19)
(1.78771 0.419828 -1.9718e-21)
(2.05148 0.577433 0)
(3.40465 0.873971 5.11276e-19)