/*--------------------------------*- C++ -*----------------------------------*\
| =========                 |                                                 |
| \\      /  F ield         | OpenFOAM: The Open Source CFD Toolbox           |
|  \\    /   O peration     | Version:  2306                                  |
|   \\  /    A nd           | Website:  www.openfoam.com                      |
|    \\/     M anipulation  |                                                 |
\*---------------------------------------------------------------------------*/
FoamFile
{
    version     2.0;
    format      ascii;
    arch        "LSB;label=32;scalar=64";
    class       volScalarField;
    location    "3.75";
    object      p;
}
// * * * * * * * * * * * * * * * * * * * * * * * * * * * * * * * * * * * * * //

dimensions      [0 2 -2 0 0 0 0];

internalField   nonuniform List<scalar> 
13486
(
2.39892
1.91013
0.165056
-0.219012
0.791892
-0.197148
0.378135
1.34877
1.63084
0.81006
-6.39067
0.404196
2.52307
-0.331661
0.632568
0.908322
-7.27951
-0.00664028
0.561249
2.16249
-0.189444
2.49357
1.87157
-1.10447
0.774825
-1.03301
-5.86676
-0.680698
0.00333581
-0.539351
-0.144508
0.46157
-1.36914
-0.396183
1.35252
0.0132378
0.0453297
1.95515
-0.00857727
1.63194
0.21593
2.61706
0.0473873
0.779085
0.740121
0.385895
-9.35504
0.00600272
0.0424745
-0.756273
1.38835
-0.0365769
0.251747
1.98897
-0.0534643
0.85439
0.082138
-0.0391375
-1.31327
0.0657315
-4.21951
0.0647884
-3.67623
-0.177037
-0.496238
0.0507158
-0.230688
2.40014
1.62037
0.0193535
-0.230675
-0.0440453
1.64098
-5.55851
0.0563438
0.0860324
0.0511327
0.61846
-11.1209
-0.1227
0.00910114
1.93105
-4.09137
0.182169
2.4086
0.807957
-0.121528
1.30969
1.57793
0.889357
0.31818
1.17541
2.3
2.05521
1.68978
0.00763699
-5.54714
-0.227167
1.60635
-7.84687
0.0300276
-0.237487
-0.23321
-0.0349698
1.01491
-8.18056
1.5995
-0.0146072
-10.7054
1.05786
1.55844
0.383225
1.98792
0.0667639
2.81768
1.63135
0.775118
-0.369446
1.65635
0.0393488
-0.017334
-4.24792
1.76682
-0.013801
1.55653
-0.0308427
1.16363
0.370794
-0.315552
-0.439066
-0.0267681
-8.87424
-4.71941
-5.05884
1.46293
1.27409
2.81658
1.1011
0.0396343
1.39234
-1.14761
0.239517
0.451248
-0.120534
0.069159
-3.1948
0.0255524
1.69656
-0.819449
0.00337861
0.910331
0.590104
0.0112254
1.97083
0.433362
0.158256
0.872326
0.0805486
1.77381
0.108278
-0.585286
1.77475
0.228948
2.60957
-0.038061
-0.598817
-0.0776731
3.24718
0.0430923
-5.06453
-4.42707
0.448556
1.09798
0.874668
0.00814743
-0.500668
-0.582936
-1.3945
1.60702
0.465174
1.53199
0.0646559
0.703679
-0.779541
0.195171
-0.685515
0.000860065
-0.509761
0.285494
1.71456
0.0443063
0.121937
-0.0561289
2.04209
-0.0811648
-6.48161
-0.448842
-0.601513
2.15507
-0.505432
-0.154576
0.349666
1.95927
0.634612
0.10569
-0.0865265
0.00256109
1.75968
-0.0489875
0.200516
-0.586288
-0.726452
2.13404
1.60074
-0.198867
-0.265417
-0.572053
0.919751
2.1792
-2.16929
-7.49428
-0.843223
1.42848
-0.615577
0.0550183
2.3364
-0.499152
-0.281727
-0.206373
-0.058639
1.5138
-0.182347
-1.19623
2.6691
-0.233061
2.24501
-0.434731
0.125087
2.26803
0.731937
-1.3301
1.07731
0.0721422
2.13704
0.0154264
1.83165
0.756017
-0.761527
-5.56972
0.887529
-0.278038
2.84987
1.57675
-0.0207478
-0.148907
-0.616931
0.443993
-0.257848
0.111197
-1.24026
1.74769
0.0213166
0.620536
-0.566414
0.880777
-0.827241
-0.208862
-0.168931
1.54195
-0.197209
1.57139
1.56351
-0.594945
0.285383
2.3402
-0.723815
-0.149196
-0.184412
-0.030626
-0.00295377
-0.200474
1.34707
1.61623
-1.88292
-3.49449
-8.34407
-1.17636
-0.337573
0.0633148
1.55082
-0.226074
0.0655444
1.68821
1.47464
-0.411953
-0.46839
-0.571574
0.276481
1.65425
0.315107
0.211527
-0.00567292
0.0345168
0.492696
0.0394557
0.663267
-0.20792
0.79929
-0.0506237
0.0441614
-4.80479
-0.214861
-0.301807
0.381829
-4.08207
1.30184
0.0685221
1.57948
1.76665
-0.244805
0.0478668
0.0500827
1.59066
2.06628
2.77989
0.345828
1.03344
1.31925
0.204003
0.957888
1.3217
1.1239
0.279611
2.20214
0.366094
1.59622
2.91555
0.627765
0.972868
0.027149
-0.225735
2.04452
0.9233
0.722869
-0.824351
0.00787618
1.09233
2.81326
-2.1744
0.0635049
1.05518
0.216113
0.273251
-4.76781
1.64032
0.0187656
-5.55728
1.13879
-0.0260223
-0.710833
0.577572
0.270235
1.77949
1.56563
-0.562314
0.00277007
-0.445184
-7.12876
2.18436
1.15142
0.0396898
1.11038
0.0241105
-0.313072
-0.174884
1.41855
1.62379
0.0488223
-3.78439
-3.42878
1.5175
1.09058
2.5303
1.66929
-7.73668
-0.161157
0.104318
0.947019
-5.9857
-0.0896361
2.09915
-0.655585
0.669784
2.2874
2.3519
0.0395461
-0.225972
-0.288128
-6.23345
-1.20414
-6.0654
0.338449
1.43775
-0.262082
0.414321
-1.29722
2.02426
-1.32486
1.1688
1.79919
0.929342
-1.28125
-0.734658
1.65717
1.60845
1.96594
-0.604917
0.905241
-4.23455
0.75746
1.60362
0.227497
2.82356
1.01577
-0.557992
-0.484725
0.335032
1.61473
-6.23585
0.0290557
2.47437
1.44377
0.65217
0.0344462
0.729758
-0.866901
2.51735
0.0589488
0.918011
2.3606
-7.40594
-0.611277
-5.08305
-0.737826
0.0557929
1.90942
1.85176
2.48921
-3.47036
0.0377808
-0.935937
0.991815
1.60865
-0.738505
-1.4443
1.58725
-0.231812
-0.522229
-1.87588
-2.95603
-0.171765
2.01946
0.00726361
0.0635031
-0.204511
1.52198
0.00554786
3.0832
2.32517
1.64162
1.2964
0.0187235
0.00408038
2.89829
-0.165231
0.0370903
-0.542074
1.61078
-8.6457
0.254251
1.12613
0.0279259
-0.743529
1.84959
-1.84962
-6.51549
1.0402
-0.101401
3.23543
1.06207
1.40388
1.74497
-0.517929
0.207506
2.60206
0.793073
2.08034
0.368022
0.43985
-0.184064
-0.112739
0.0439374
-9.00256
1.64144
1.59581
-0.291693
0.00223699
-0.244686
2.37611
1.91507
-0.159624
1.62606
1.19
-0.718803
0.883177
1.42971
-4.29322
2.48866
0.0458627
0.0210338
2.60047
1.10241
0.00315119
1.07353
-0.209206
-0.222305
0.655314
1.01032
1.79273
2.30554
-2.01235
0.723448
-2.17508
0.006832
2.24046
0.438686
-0.648288
-0.238353
0.211895
0.116045
1.30376
-0.465332
-1.36927
1.63078
2.1787
-0.143797
1.7428
-3.43636
-0.377765
-1.89047
0.65833
-1.29824
1.77411
0.206346
-3.59875
1.37696
1.89488
-1.21929
-1.74942
1.40899
2.24673
0.481535
2.41894
0.198705
1.06407
0.360628
1.78622
0.0602455
2.18611
-5.12822
0.315927
1.55108
-0.288151
-0.68288
1.58526
-6.95107
0.28766
1.81665
2.48715
-0.26543
0.119121
0.420571
0.146114
1.44424
1.1183
0.529327
-4.76587
0.0418331
2.38036
0.258747
0.0923492
-0.954737
2.50309
-0.328033
0.0691219
1.55233
1.27707
-0.1105
-0.487155
1.37112
0.193625
-0.252155
0.625363
-1.595
2.42989
1.59542
1.13366
1.174
-0.790829
-1.20087
2.72872
0.480996
2.73526
-0.261557
1.55237
0.0138587
-5.59615
0.969698
0.882947
2.86074
-0.611301
1.04646
0.996656
-2.32215
0.841968
0.00849575
-0.727208
1.57576
-1.63036
-0.657812
-0.87894
-0.340446
-0.310988
1.73201
0.00848627
2.65034
1.61182
0.0982998
-0.338855
-0.577079
0.515268
-3.92776
-0.437461
-8.56221
2.22711
0.00271904
0.0834466
-1.2715
2.53829
0.00414757
0.204723
2.59532
1.40688
-0.441805
-0.13392
1.14288
0.143096
1.53819
0.0688547
-0.316141
0.606732
1.47003
0.466771
1.32203
2.6327
0.0682374
-0.368073
1.58767
0.240999
-0.235986
1.10432
1.18202
0.684308
-0.542074
0.203273
0.0421892
0.195129
2.23701
0.489144
0.188204
0.187075
0.1272
-0.103544
1.6072
0.0987975
1.50442
1.52827
2.21003
-0.00959436
-1.36336
2.7145
0.0319019
-0.226176
1.68934
-0.909355
1.80683
0.0671095
1.55093
-0.258697
-5.43619
-0.879202
0.00601307
-6.81819
0.837308
2.79211
-0.298829
-2.59329
-0.572115
1.64625
-0.207755
0.699537
-1.79941
2.76081
-0.482751
0.86393
-0.78537
0.914056
1.59337
0.552121
-3.20656
-0.154719
2.57092
1.63031
0.690142
1.44981
0.107821
1.26645
1.28263
0.929183
-4.84088
-0.14476
2.00563
0.382541
-0.0394098
1.33653
-0.224012
-0.28841
-0.00477174
1.73781
1.69896
-0.305797
0.201221
-0.386083
-0.169452
0.204591
-0.300403
0.279504
1.54723
-0.134096
-1.62184
1.87662
-0.032995
-0.358351
-0.171455
-0.705668
-0.294381
-0.798268
0.0329965
-0.768544
1.52756
2.52031
0.0390155
-0.361007
2.60199
2.44363
-0.249747
-0.472871
1.65929
-6.82013
0.0733696
-0.188582
0.042908
0.894758
-6.60437
0.74013
1.07464
-0.62632
-0.229784
-1.24411
-0.181881
1.38867
0.653334
1.04401
-0.321509
1.35194
2.39355
-11.8201
-0.691196
1.79939
0.56356
1.0558
-0.00188157
-0.52237
-0.323929
-0.140179
1.63752
2.74212
1.76717
-0.877051
-0.168712
1.59558
2.33032
-0.480525
1.71685
1.58562
2.42979
0.409928
0.0333751
0.238609
-0.23743
2.42151
0.202645
-0.215216
1.11299
-0.148773
0.396973
-0.112166
-1.37459
1.51633
1.13812
1.10849
0.747011
-8.23175
-0.340969
-0.276033
0.901774
-1.68706
-0.93369
0.0700253
-1.14239
-3.50473
0.832594
-0.533273
-5.52781
-5.33833
-0.330366
1.18825
-7.25918
-0.495168
1.80245
-0.219622
2.49656
-0.287152
-5.62195
1.89677
2.25511
0.0587886
0.0787044
0.36989
1.64117
0.910075
-2.55851
-0.096439
0.0380704
-0.22211
1.56063
0.0787746
0.934427
0.048643
1.61441
-6.57752
0.0647748
0.0175821
1.95362
-0.94989
-5.55853
-0.908599
2.47449
-0.178893
-0.388472
-7.60709
1.58922
-0.358539
0.0549519
0.391321
0.767503
-0.632328
1.10708
-0.49334
1.28784
1.57685
1.85982
0.714556
0.0202099
-0.335057
1.20373
-0.636815
1.92546
1.06804
-0.132056
-0.0214693
-0.176321
-0.0796371
0.0383868
1.81325
0.648805
0.241344
1.59001
-0.022201
1.28486
2.83014
-0.110399
-1.93021
1.0922
-0.59914
-0.000852215
-0.191614
-0.202947
1.59011
0.0696099
0.0316369
0.0568334
-0.0134566
2.05226
-0.391222
0.0060811
1.59557
-0.771091
2.27064
1.83701
2.14078
0.416775
0.976164
0.491796
0.131581
1.19848
1.57772
-0.191779
-0.294557
-5.86057
-0.467063
-1.11213
1.60142
-2.48975
-1.32496
-1.11654
-0.185904
0.0248523
1.60327
0.025828
0.303082
-5.06942
1.61909
2.78997
-0.962647
-3.20724
0.883029
-0.0209713
1.55779
0.101351
0.00849134
1.93146
-0.0471584
2.64079
1.11099
1.5817
-0.518258
2.08323
0.0795622
1.84697
0.0481402
-1.26071
-0.58254
-0.668228
1.09397
-0.496983
-0.119082
2.49049
1.61383
1.72198
2.26937
1.75739
1.9486
-0.268323
1.67346
1.6282
1.64454
-0.250872
-0.488886
-0.766506
-1.59914
0.407959
1.7983
-5.53772
2.4019
-1.6164
0.0705258
2.72015
2.29208
-0.291069
-0.766189
1.62033
0.812333
0.0833008
1.50813
-5.47717
-0.642725
1.5815
2.21702
0.00904987
1.76927
2.06207
0.00510713
-0.571417
2.07111
0.716762
0.042466
-3.53166
0.177557
-1.31121
1.48851
1.08327
0.0544821
-0.0900603
-0.595501
0.416203
-0.00625185
0.397851
2.33945
-0.0224256
3.02535
1.61141
0.537212
1.80519
-0.456351
-5.09021
-0.332241
1.58868
-0.000154072
-4.72944
-0.148409
0.783924
0.921884
0.0317042
1.13889
-5.55838
0.832805
-0.246627
0.0522292
1.2935
0.498607
2.08039
1.62892
1.67282
1.54644
-0.294875
-1.10188
-0.954948
0.193851
-0.291789
-0.309637
1.26879
-0.202048
0.0170555
0.0599413
0.193697
-1.8003
1.13812
0.732058
0.127328
-0.619635
0.779061
-0.827803
-0.917878
0.210769
-0.487642
1.76638
1.18214
2.05511
-5.10573
1.44573
0.0641146
2.23911
-0.274826
0.83369
-0.070321
-0.214502
2.59754
2.67715
1.33814
0.875258
1.08046
1.47104
2.62521
1.09843
-1.22376
-1.52413
0.321838
-1.58475
-8.2159
1.60798
1.55555
-0.793212
0.426327
1.33961
1.46572
2.85617
-2.83107
1.24983
-6.31056
-0.351764
2.29454
-0.170255
1.33721
-0.210726
0.493598
0.631059
2.9777
0.0426625
-0.766893
0.80216
0.236902
-1.11114
-5.42458
0.00258606
1.77281
0.107907
0.88307
2.4417
2.24691
-0.0978668
-3.00467
0.0663198
0.261535
1.87579
1.53137
2.22558
0.97779
-7.27443
2.33372
1.45592
-2.30109
1.23272
1.63132
2.01545
-2.97672
-0.177659
0.00243504
1.35635
2.55835
0.868115
0.186035
-1.29266
2.8694
-10.8371
-1.14516
2.66856
1.40437
-2.00239
1.28303
-0.22512
0.890963
-0.392648
-10.4721
0.0300315
-0.371499
0.083879
-0.321505
-6.91127
-6.86671
-5.391
0.22439
-6.0762
-0.278788
1.25055
1.47449
0.839884
-6.13705
0.422759
0.226863
-0.298784
3.01034
1.05921
-0.865599
1.40034
-0.400657
-0.404212
1.31402
1.30197
1.55793
3.04607
0.00745035
-0.168302
-1.0985
0.197747
1.09291
1.56426
-0.622433
2.35877
1.0874
1.69288
-0.189676
-0.098527
0.090407
1.65904
1.60089
1.71231
1.59251
2.79691
2.7394
-0.416856
1.40898
2.04124
-0.834872
2.21797
-0.00297077
2.70737
2.19679
0.07482
1.81332
0.77386
1.22265
0.117192
1.61524
-1.07821
1.40363
0.596275
1.07879
-0.188144
1.55683
-0.000942407
0.397045
2.61552
2.60818
1.07134
-5.15925
0.410766
0.0972966
-0.154408
1.28414
2.34328
-5.20681
1.64591
1.53488
0.789854
1.64976
-0.720829
-0.218039
0.0581573
2.84067
0.482866
0.0795339
1.83618
-0.185075
0.0826799
0.804516
0.31531
1.21317
0.638317
-0.527323
0.959895
1.28534
1.0569
1.19796
2.76475
2.26782
1.9898
1.87571
2.55819
0.773787
-0.013442
-0.0276627
-1.87649
2.58798
-0.207673
1.60006
1.43974
-0.430224
0.843728
1.77189
-0.74683
0.806519
0.993331
3.08392
-4.43193
0.716515
-2.01443
1.82569
0.164079
-0.236297
2.5444
2.17062
1.54958
1.57994
-0.445895
0.755398
-9.15497
2.73377
0.0482674
2.95602
-0.131133
0.163845
-5.66489
0.853923
-5.57831
0.266684
-0.040393
0.576169
-0.194251
0.540425
-0.247534
0.00300191
-0.274063
-5.02221
-0.693157
-2.74888
-0.152524
-0.0903905
-0.202223
-3.54142
1.63397
1.66596
2.01717
1.58018
0.651423
0.626731
3.24337
1.56127
-7.0406
0.00686178
-0.160418
1.22157
1.41558
2.36347
-1.19541
-1.17167
1.3005
0.00108264
0.43043
1.99603
-5.26245
-0.650809
-8.7184
2.76501
-0.222441
1.12093
2.04408
-0.189477
1.2703
0.0118596
-4.31129
-3.08999
0.0967812
1.06499
1.90221
2.00639
-2.69718
-5.09618
1.05155
-12.0727
-0.535828
-0.298941
0.307265
-0.373101
-0.0185767
-0.244623
-4.04978
-1.11158
2.45274
-0.196392
2.67987
-1.35096
-0.210615
0.614139
-0.296359
2.26629
1.56479
1.87454
-0.411163
-0.398603
-4.88206
2.18082
-5.00037
1.16579
0.0389168
1.91904
2.26256
0.0294261
1.57852
2.57262
1.75843
1.72358
-3.38577
-0.0871516
0.67266
-0.861558
-0.0323759
0.971568
1.13629
0.168116
-6.54966
0.390743
0.0946341
1.39162
1.18342
-0.617755
2.69854
0.196578
0.00461634
0.222934
1.56889
-0.463011
0.00971192
1.73918
-0.873262
0.140653
-0.307756
1.68642
1.57176
1.49981
-0.00729124
1.4953
1.84054
1.80427
-0.40384
0.0736915
0.349901
1.38495
-1.24745
-4.06224
-0.37384
-2.05332
-0.224529
0.0397945
-0.0289312
0.0672528
-5.58685
-0.855945
-2.06265
0.0964706
-0.395451
0.590727
-1.44229
1.69567
3.26676
0.534245
-0.274993
0.70648
0.174833
0.414207
0.0312573
-0.504246
-1.00906
0.213315
2.1086
0.00652538
2.52698
0.0337946
1.49497
1.31115
0.710959
-5.54296
0.923803
2.78622
-0.205865
1.59767
1.53238
2.35341
0.213993
2.16162
1.71209
-5.74569
1.82247
-4.83632
-10.9342
2.20866
1.40688
-2.48998
-0.0398126
2.07002
0.1764
-0.621001
0.0677449
0.0645342
1.22277
0.862938
1.59425
1.49552
1.36961
-3.27221
-0.698071
-0.3737
1.55677
2.95191
-0.559161
-11.3184
-5.3187
1.59646
0.201823
0.203847
0.698828
0.0472634
1.24425
-0.201032
0.375425
2.45883
0.713544
-0.0634551
-0.153246
-0.223288
-0.836118
-6.5514
-1.11483
-0.695378
1.89361
0.858838
-0.74943
2.5648
0.00799919
-3.69328
-0.297
-11.0548
1.73019
-4.8239
0.528687
1.59617
0.00792441
-0.415354
-0.191237
-7.29733
-0.245036
1.73559
-2.11923
0.00973818
-8.69593
1.53578
1.71734
-0.223479
2.02477
1.87335
2.43087
2.49558
1.77958
0.277533
2.84255
-9.23359
1.55493
0.327295
-1.64249
1.93616
-0.329755
2.43842
0.749449
-1.70024
-4.45391
-7.24509
1.70207
-0.388243
-0.396502
0.083894
-1.39272
-0.0510912
0.98604
0.27762
1.16723
2.76236
-5.30652
-1.03182
-0.949525
1.65718
1.19526
-0.699171
3.2269
-0.0037171
0.090715
1.01318
-1.65025
1.52733
1.64676
1.83896
1.84978
-0.0470138
0.870347
1.53553
0.372146
-0.245184
0.0192208
1.72952
1.79197
2.20193
-0.181915
0.161295
0.821003
0.972043
0.236217
-1.44007
1.31493
-0.251499
1.38941
1.64125
-7.08262
2.51745
-0.688538
2.73314
1.82042
-1.51359
0.00733069
0.0519383
0.580584
1.67723
-0.987098
2.16885
1.50852
0.823699
0.0538382
0.358983
-0.420679
0.822568
-7.77811
0.98914
-0.234812
1.55484
-3.74916
0.0292583
-0.359652
1.97119
2.28447
0.747197
-3.88253
0.777604
-0.106879
0.186638
0.896806
-0.187445
-0.153112
2.68069
-0.855809
-0.161071
-1.02159
-10.1725
-0.0626146
1.63767
-7.42317
-0.313057
1.66777
1.02966
1.71618
-0.237493
0.738317
2.70787
-3.14825
1.5341
0.499915
-0.165327
0.560466
0.382397
-1.18827
2.76459
1.82972
-1.10373
2.67712
2.07808
1.95175
-11.7317
-3.78071
1.02201
-1.90281
-0.0413013
-2.9455
-1.69489
-2.77901
1.26571
0.616358
0.968156
1.07334
-0.187586
1.20283
1.56107
-9.42829
1.66622
0.993932
1.58459
-0.108872
0.0306265
-0.227231
-6.76321
-0.224436
-0.370234
1.54383
-1.72436
2.44189
-0.413768
1.536
0.985663
0.0627161
0.297318
1.63998
0.719444
0.375815
1.44014
0.0849898
-0.0156125
2.31176
1.87884
-0.724311
-2.36558
0.0691212
1.40627
0.0183456
0.722934
-2.53472
0.0375201
-0.132904
0.0804221
1.39474
1.33919
0.132632
0.710448
-0.0327264
0.013472
-1.30552
1.96746
-0.228257
1.55621
0.00467671
1.37021
1.69797
0.907337
1.48611
0.121603
-0.253953
0.0665109
-4.53624
-0.336332
-0.675916
-0.352633
-0.0920168
1.27038
-0.0576891
1.5601
-0.043785
0.0289952
-2.52069
0.000168186
1.66354
-3.36082
1.55884
0.411012
-0.983797
-0.0985898
-0.225223
1.14069
1.682
0.0168485
0.311473
-5.26898
1.87101
0.13583
0.48834
-0.733166
2.00565
0.79846
0.030709
1.70445
1.65684
1.93721
0.23068
1.95528
-3.31887
0.0964871
-0.204196
1.54029
1.02827
0.436614
0.187957
-1.36643
-0.779956
0.883126
0.149107
-0.914553
2.48843
-3.68928
1.9052
1.15677
-0.397182
-0.022442
0.120766
-0.0826411
0.192513
0.24293
1.4941
0.0689459
1.59597
-2.62468
0.657095
-0.143008
0.401769
-1.42796
1.98632
2.71715
1.74145
0.902216
0.34116
1.03454
-6.48298
0.04554
0.0286269
-0.143289
-0.766689
-1.74821
-1.38207
-0.71854
1.42242
1.57007
-3.64335
0.429556
1.80039
-0.716153
-2.17458
1.70884
-0.0194789
-4.59612
0.0541259
-0.277731
0.00832445
2.54048
0.0380037
1.53387
-1.58915
-0.963444
-0.697318
1.56016
0.424642
1.32126
-1.36193
-0.926514
0.124793
0.333043
1.8382
1.40713
0.291259
-0.165622
-0.408639
2.82468
-0.173315
1.81383
1.98397
-0.156301
-0.0410121
0.745759
-5.00603
-0.927011
1.38512
0.912872
1.54275
-0.383741
1.73573
0.198806
2.27486
0.339681
1.40406
2.01368
1.31461
0.285232
-0.492086
0.524535
-10.0407
1.37457
0.721078
1.92959
0.161663
2.42312
0.287645
2.57692
-0.512535
2.0094
-0.218023
1.20367
-4.22748
1.5268
0.77693
0.652158
2.3864
1.57583
0.385262
-0.700071
0.925634
1.50795
0.0014837
-6.31573
1.17379
0.106296
2.07327
-0.223649
2.46736
0.403746
3.27904
2.48666
1.17192
1.03689
-4.31016
0.108651
2.64861
0.0637749
-0.0500456
-0.116583
2.61761
0.776919
1.37055
2.22007
-0.995453
1.72994
-0.302841
1.89994
0.0848687
1.79461
1.6244
2.20426
-0.0195403
-10.7815
0.476841
-0.222226
0.751261
0.266294
0.0748922
2.03056
2.32356
0.029172
0.544793
-0.282023
2.0806
1.31901
1.46821
0.990951
-0.197391
-4.29762
-0.20269
1.62996
-2.60836
-0.0685938
0.0428673
1.13364
0.770165
-0.729135
2.7946
-0.098649
2.44178
0.480663
2.48427
-0.492597
0.366345
0.0636215
0.0835933
1.35301
1.5678
-0.307211
-0.0725895
-0.398782
-0.0690985
2.30654
-0.531482
0.034167
-0.151281
-0.0903277
0.549982
1.94943
0.769704
0.0956246
0.0512339
1.58057
2.9612
-0.221888
0.125518
1.55439
0.0473602
0.818744
0.0383132
1.13934
-0.0783609
-4.69566
-0.485512
-0.244711
-0.185383
-0.0531344
-2.6001
-0.626236
-0.0368971
1.24644
1.7032
1.3858
2.87506
-4.83776
2.60158
-4.75829
2.45378
-1.00382
-1.09464
2.77822
0.651795
-0.352556
1.61422
-0.0205928
1.7419
-0.273263
-8.238
0.289135
-0.672522
-0.766748
0.00927072
-0.160633
0.637885
1.97977
-1.23585
0.713378
-2.56256
0.400846
-0.128368
0.00556299
0.206376
-0.118825
-2.03352
2.07386
0.0332944
2.28779
0.615908
-3.71818
0.528347
-1.41536
0.0668751
1.37094
1.99688
2.88658
1.20125
1.33749
0.764045
-5.31341
2.78487
2.97623
1.73439
-0.955153
-0.365472
-10.2493
1.4802
1.05184
0.594723
1.27291
-0.166574
0.0157914
-8.81174
2.37767
0.112033
0.208217
-0.248133
1.53741
0.29944
3.18668
2.98306
1.42191
0.0794757
0.451935
-3.7994
0.59886
3.06203
0.208652
0.0644285
1.1794
0.00634414
0.317841
-0.188418
-0.36796
0.383706
0.130455
0.732858
0.0420726
0.502422
2.22682
0.499308
1.69151
-0.269374
-0.447249
2.6854
-2.14472
0.283784
0.425686
0.68358
0.209899
-0.228584
0.337204
0.103615
0.220809
3.21468
-5.70192
-3.31291
-0.897359
-1.12388
0.195275
0.421931
-0.221729
-2.55476
0.0293744
-3.55932
-1.30889
-0.856602
0.206932
0.140463
0.16365
3.13867
0.151278
0.475729
-0.188048
0.316633
-5.08458
-0.378843
2.17852
1.56983
0.479767
-0.10304
1.53194
1.6992
0.0641805
-1.52381
0.041249
2.17027
-0.747954
1.48859
0.0782542
2.44648
0.107007
-0.29703
-0.0390212
1.73261
-0.604812
1.41142
-1.01961
3.0278
-0.228613
-0.325831
-7.28508
0.69897
-0.237682
-1.10004
-0.232599
0.234836
0.720922
-0.447864
-0.154207
-0.0825053
0.285776
-0.662728
-1.32399
1.29223
-11.1925
1.38848
-0.243437
1.75363
2.7708
1.49495
-5.28529
1.61097
0.216228
0.300221
-0.0955573
-0.498778
-8.22829
0.0662457
-0.409894
0.702209
0.00177964
-1.19955
-0.079772
-3.74575
0.830941
1.61294
-1.76731
-0.225064
-0.544861
0.0398715
-0.106835
0.956437
-3.38987
-0.235202
1.60434
-0.0658208
0.913602
-1.18368
-4.91817
-1.69676
-4.63118
3.14973
0.514125
-0.86425
0.405611
2.60521
2.69156
-0.33016
-0.315498
1.57849
0.0176457
0.0484055
2.67924
0.903643
1.40687
3.20501
-0.500445
0.48358
0.252735
2.38969
1.64164
1.65039
1.985
1.13043
0.0552966
0.103915
0.741886
0.383953
-6.20429
2.74355
-0.855934
-0.939316
0.041698
-0.653978
0.80071
-0.253411
-0.345214
0.376955
1.66769
1.71599
1.82647
-6.59704
2.34917
2.67168
-3.2126
1.01509
-0.135568
-0.160702
0.289759
0.929088
-0.0981705
-0.73291
-1.05085
2.9644
-5.31717
1.84587
1.60329
2.10922
1.20702
1.2678
-0.0945902
0.0472743
0.942518
-0.0340145
-11.5638
-2.3622
0.150386
-0.224994
1.96588
-0.427227
0.0422826
0.324606
-5.00245
-0.267834
-7.74947
1.41626
-0.308745
-0.0111271
0.753288
-1.09909
0.578654
-3.84823
-0.127824
1.71738
-3.86514
2.73148
0.0382664
2.90619
0.00386033
0.0215264
0.251732
1.39453
1.37032
-3.35259
-0.133081
-0.348085
0.243288
1.13408
3.21554
2.11623
0.558251
-0.717481
0.859299
-0.0590112
1.82848
-0.135077
0.937428
-0.208886
-0.238263
-4.84972
0.592202
0.0538081
-4.96408
1.049
1.02842
2.64131
2.83416
-6.64623
-8.0059
-0.24029
-1.49433
2.75237
0.194691
-0.713268
0.699262
1.15236
-0.228529
0.144034
0.0789731
-0.0169123
1.46262
-0.192208
0.489775
-1.4115
-1.08543
-2.96141
-0.436056
-2.95417
-2.65609
1.76903
-0.369383
-0.277056
-0.32681
0.0303887
3.00791
1.18536
1.49334
-0.346205
0.833262
-0.0491513
0.675409
0.489231
-0.224858
-3.9719
2.74319
1.69361
-0.0138531
-5.82054
3.1183
-0.262668
-3.95609
-0.199683
0.830485
-0.244097
-0.215719
2.3792
-0.10571
1.47746
0.645184
-0.219287
0.167272
-0.00653389
0.800642
-3.15284
0.0291702
0.491748
1.57319
-0.226457
-4.46521
0.167528
-0.460081
-1.74188
-1.56524
2.9288
1.04708
-1.0822
0.787728
0.415178
2.57747
0.918468
-4.46731
0.975962
2.0219
1.73547
-0.681348
1.40912
-0.0853368
2.72025
0.0493266
1.62719
-2.03429
-0.634123
0.0459901
-0.228263
0.961201
0.550031
-5.10095
-0.253856
1.88677
-0.0368338
-0.0913985
2.23144
1.26097
2.17228
1.4905
-0.974119
0.0257612
0.0663263
1.58562
0.00337994
1.98136
1.24785
2.70057
-0.229174
2.11487
0.809781
2.72844
-0.217987
-0.986754
2.79227
-0.230977
1.21919
-6.09536
2.40274
2.69017
1.72375
-2.64517
1.58104
2.06673
-0.636423
0.682231
-0.298474
2.20674
-0.236354
-0.1258
-8.70181
-9.35899
2.02992
0.794011
-12.4678
0.848683
2.68727
-0.874585
-0.267826
-10.1332
-1.17472
1.34714
-0.19595
1.52081
1.50235
-12.6499
3.01295
-0.0431617
2.27996
2.2613
0.130747
0.0225837
1.42083
-2.23686
-0.253691
1.40763
1.21218
-0.570383
1.50934
-0.204246
2.35999
1.72497
0.641075
0.044393
1.77232
-0.149112
0.969818
2.11543
0.385253
0.0375469
2.05086
1.71074
-0.814413
-5.20881
1.2258
1.78997
2.71777
-5.59816
2.87021
2.82358
2.91768
-0.15785
1.99157
-1.54875
1.59317
2.14432
2.08991
1.77266
2.34505
3.18293
1.38264
-5.18536
0.190482
-3.95068
3.15164
0.879364
-0.0824347
-0.227132
1.4955
2.36408
1.5306
0.567256
-0.115344
2.351
-3.04853
1.71029
-0.230365
0.738723
0.01412
0.518775
1.05627
-0.591921
-0.499579
-0.0971164
-0.443094
-0.174298
1.95238
-0.34945
0.206566
1.49416
-3.64234
1.00196
0.0418251
-3.18429
-2.24655
-4.67815
2.24352
2.41549
-0.250755
0.603184
2.06014
1.85554
0.0306872
-0.838401
1.75051
-5.95935
2.20642
-2.79282
2.14845
1.00103
0.239714
1.99991
1.08322
2.09824
0.600917
0.749146
-0.612119
-5.29819
-6.9329
-0.0564586
2.05921
-1.23153
-0.267494
-1.26082
2.28043
2.07688
0.566027
1.19687
2.31347
-2.55107
1.52654
-0.203649
-0.704076
1.51998
-0.306225
-6.24916
-1.44847
-7.19055
-0.346362
-1.3021
-0.149155
-11.5175
-5.57194
1.31804
2.7518
3.0037
2.61372
-1.18167
1.72893
-2.48857
1.48386
2.3032
0.235333
2.02203
-1.27054
0.586366
-0.655608
-0.0906488
2.19956
-1.21087
1.81226
-7.74848
-0.406561
-8.11081
1.84377
1.79786
1.58915
-5.24667
1.51278
-0.165544
-11.8196
-10.8765
0.545215
2.76295
-3.20469
-0.341354
-0.243353
1.55388
1.52406
-0.0389518
1.00562
-6.98196
2.34719
2.11834
-0.242069
-0.3274
2.28861
-0.322186
-3.95759
0.0224082
2.09215
2.35365
-1.26424
1.14513
-0.23439
2.70343
-12.3301
-0.60243
-0.0916061
2.53728
0.0118101
-0.582733
-0.0813715
2.18309
1.26313
2.16607
-0.148003
-2.85659
1.77663
3.11681
-5.55234
1.43934
-0.0297588
-12.1094
-0.0141991
0.604054
-0.224234
1.11843
-0.209217
1.05104
-0.168992
-0.803906
1.98367
2.37312
1.50281
-2.06812
-0.62264
1.849
-7.03753
0.620919
-0.73239
0.80854
-10.5514
1.7197
1.85502
-0.0612279
1.74033
2.66628
-0.276654
1.30698
1.81588
-9.78387
0.97981
-0.585948
0.804858
0.602295
1.25427
0.00780923
0.564382
-0.251382
-3.40225
2.23215
0.660956
0.227651
-0.358051
-0.239491
1.65206
-9.01886
2.90534
-4.45418
-8.46862
-0.105469
2.03697
1.8082
2.13429
-4.85804
2.56582
-1.96062
1.26553
0.0507832
-4.02366
1.47008
0.745297
-0.291433
1.10333
-3.98775
1.29324
-7.02564
-0.340343
0.00878236
-2.45654
-2.9534
1.43084
2.63472
0.0165853
-1.82842
2.05136
-2.65451
2.3952
0.744241
0.0612533
0.875313
1.60134
0.850374
-0.113262
0.216157
-0.0112791
0.402442
0.585801
-4.46854
-0.26623
0.0996641
0.953665
-0.25709
3.16863
1.7231
1.57983
2.41832
0.264364
1.78255
-1.25455
-6.58438
-0.422669
1.59941
3.09006
1.48978
-1.1123
2.23508
1.50516
1.52949
0.0230316
-0.0559172
0.862905
2.91925
0.15944
-0.8105
2.14155
2.28086
1.68415
1.58236
1.94346
1.13019
-0.186812
-0.587977
1.75443
-5.70981
-5.10135
1.54978
-0.486751
0.0189832
0.546011
1.73288
1.7952
1.82471
-0.163156
2.12994
2.18059
0.33649
1.91533
1.67536
1.31891
1.20345
1.08896
0.833323
-0.0429893
2.03609
1.9001
-0.0682518
1.46007
-0.181275
0.0511507
2.61281
1.97546
0.00771213
-0.831172
0.10489
2.03346
1.15168
0.313608
0.0159552
0.241452
-0.328921
0.318801
-0.236515
-0.232758
1.18006
-0.241472
-2.03176
-5.88297
2.46556
-0.2159
-4.23006
-0.323236
2.64653
-0.212708
0.375894
0.325818
-10.73
1.24839
1.49099
1.0166
2.32752
1.28517
0.041886
-4.32946
-0.617828
0.0312289
1.84614
0.00912559
-1.73533
-12.3306
-0.366637
-4.13115
-0.289233
-3.39105
-0.222199
0.603097
1.56368
2.07499
-0.317867
-0.180354
2.3369
1.77676
-1.08764
-0.267333
-4.02228
0.991938
0.0427277
0.890347
1.35512
-0.0273233
-0.235501
-0.278725
0.429604
-1.64836
-4.89792
0.186433
-0.891579
-6.63822
-11.6976
-0.460979
0.182317
-4.5137
0.829504
-1.92908
1.5683
1.40821
0.449483
2.06089
-1.11857
2.64643
-0.668866
0.0997245
-1.38454
1.58417
0.979759
-5.10367
-5.2814
1.6197
1.9266
2.74506
-1.16647
-6.20045
-0.894937
-0.187031
0.00951274
-5.49664
0.599938
-7.95982
0.953902
-2.10566
1.22396
0.212729
-0.0702811
2.40396
1.41793
-1.225
0.0260307
-1.88832
-5.3965
2.06509
3.00628
-5.12712
1.95271
1.50546
0.00525895
-0.191111
2.00675
1.92115
-3.72874
-0.19855
-0.444659
-1.14148
-1.30307
-7.88587
-1.19009
1.04946
-0.177213
1.75205
-4.3396
-12.1094
1.48547
-1.19947
-9.13636
0.089743
1.2102
-9.91604
-0.689322
-12.6623
-4.08749
-8.52169
2.78559
-5.72506
-0.264935
-2.24508
1.74016
-9.17264
-0.139193
-2.8262
-5.11643
-0.649831
1.80725
0.0184918
-5.70233
1.3909
0.0149952
-0.557512
-3.78648
-6.78815
1.14354
1.31662
1.59753
-8.25614
2.38358
-0.424902
0.00752062
0.127445
-2.65891
-0.639832
-6.33205
-1.38726
0.355291
0.690377
-0.00714374
-0.353311
-1.21773
1.49889
-3.15987
1.67236
-3.37354
1.01022
-0.333208
-0.0778526
-0.0884727
3.12023
-0.254651
-10.7279
-5.95506
-1.04042
1.59531
0.0481718
-0.0966494
0.0794347
-11.4943
-0.959282
-5.41402
-7.25006
1.74048
-10.3257
0.236809
-12.4776
-0.0429193
1.39814
0.127775
0.732064
-0.535493
2.09377
-7.27313
-0.816317
2.24164
0.658274
-8.18884
-0.3552
-3.27118
-1.1167
-0.421737
2.04704
-0.344131
0.681153
-6.05316
-2.88141
-7.77031
-9.09107
-4.05093
0.955182
-0.257078
1.5647
0.602856
-2.54647
-0.438155
-0.793528
1.96778
2.36385
-11.0482
0.0822293
1.70381
1.56782
1.25985
-1.07442
-1.9993
-2.1026
1.5979
0.465086
-1.12093
-4.65116
0.92459
1.89332
-0.282456
0.0143323
0.0784816
2.21532
-1.77448
-1.93982
0.0411177
1.37126
0.0841907
-0.0898877
2.39868
1.98249
0.0068939
-1.1915
2.0213
0.793126
-0.111957
1.47345
-0.457553
-1.53168
-2.53738
-1.21367
1.94078
1.7028
-0.122751
-0.735812
-0.199647
-0.0047471
1.74507
-1.1497
1.20854
2.10886
2.25812
-0.300949
1.59695
1.41094
1.76817
1.8748
-0.196078
1.88761
0.00807636
1.59311
0.872185
1.7267
-0.532292
2.00531
1.91386
1.43539
1.04792
-0.71518
1.13739
0.100676
-0.880522
2.15883
2.12637
-0.769847
1.80935
-1.21291
-5.78734
1.72864
1.7279
-2.41607
-0.0941899
-6.31454
-1.04836
-1.42948
-0.276142
-2.47673
-0.441285
1.46066
2.89601
2.00957
-0.341204
-0.216652
1.69841
0.848379
-0.145566
-1.49482
-0.59038
-1.91697
-5.49841
-5.37053
1.52071
-0.442634
0.804848
0.0459561
0.0413203
-0.0979862
0.0395685
0.36676
0.837582
1.06724
-0.641591
0.76959
-2.63899
-2.36524
1.1195
0.881052
-0.0802216
0.186073
1.05957
-0.018983
0.620896
-0.697156
1.56743
1.33229
2.53771
1.59463
-1.0355
-0.427465
-0.730583
-0.543888
0.0129589
0.0476121
-0.217674
-0.825781
2.95342
0.173919
0.0140371
2.3591
-0.234092
-1.03699
-0.178082
-0.556111
-6.0926
0.494886
-1.48814
1.55716
-0.266575
-0.936798
-0.120094
-0.348242
-1.06669
-0.122343
-0.10052
1.24237
-0.229197
-0.272135
-1.617
0.639143
-1.15258
1.71852
2.41981
-0.51673
1.75244
0.923066
1.16285
2.67454
-0.225392
0.971654
0.851634
0.744367
2.28617
-0.491743
-0.185357
-0.123885
1.6948
2.41687
-0.37888
-0.178153
-1.18203
-0.984798
0.824396
-0.780081
-2.38256
-0.569997
0.633045
-5.86858
0.396915
0.528155
1.39259
0.308999
-5.29334
-0.82863
0.0154748
-0.211983
2.57839
2.89422
2.1466
3.05869
1.41247
0.842374
1.79822
1.56105
1.44552
-0.950602
1.64029
-0.395767
-5.48784
2.36553
-0.263631
-1.18045
2.77317
0.044021
-1.28155
0.85868
0.740107
1.9471
-6.60997
1.47231
2.55502
-0.227632
-5.70163
-2.01847
1.1392
-2.30823
2.05308
-0.143751
1.95111
1.58555
-0.264059
1.87133
-0.721022
-4.34144
-4.76925
-0.515074
1.92796
-1.05824
1.63985
-0.030875
-6.46055
0.104252
-0.116221
-1.64516
-0.648779