/*--------------------------------*- C++ -*----------------------------------*\
| =========                 |                                                 |
| \\      /  F ield         | OpenFOAM: The Open Source CFD Toolbox           |
|  \\    /   O peration     | Version:  2306                                  |
|   \\  /    A nd           | Website:  www.openfoam.com                      |
|    \\/     M anipulation  |                                                 |
\*---------------------------------------------------------------------------*/
FoamFile
{
    version     2.0;
    format      ascii;
    arch        "LSB;label=32;scalar=64";
    class       surfaceScalarField;
    location    "3.75";
    object      phi;
}
// * * * * * * * * * * * * * * * * * * * * * * * * * * * * * * * * * * * * * //

dimensions      [0 3 -1 0 0 0 0];

oriented        oriented;

internalField   nonuniform List<scalar> 
20045
(
0.251841
-0.277345
0.0255039
-0.542378
0.190092
0.352286
0.153612
0.880684
-1.0343
0.0571434
-0.0814449
0.0243015
-0.426165
0.416253
0.00991156
-0.281923
1.09188
-0.80996
-0.515677
0.225809
0.289868
0.0353085
0.219612
-0.25492
0.237796
0.216451
-0.454247
-0.412656
-0.0643864
0.477042
0.290228
0.000594511
-0.290822
1.12946
-0.559671
-0.569787
0.186879
-0.185902
-0.000976778
-0.64978
0.540237
0.109543
-0.167818
0.540231
-0.372413
-0.55237
0.139714
0.0979417
0.117201
-0.215143
0.459552
-0.350268
-0.109284
-0.85384
1.24738
-0.393541
-0.379134
0.0238428
0.355291
0.208242
-0.190002
-0.01824
0.065214
0.121665
-0.0635929
-0.478786
0.260307
0.421177
-0.681484
0.426964
0.0998761
-0.52684
-0.452175
0.712483
-0.279556
0.286094
-0.00653843
-0.563446
1.08528
-0.521831
0.88113
0.113731
-0.994861
-1.04006
0.598823
0.441234
-0.0626805
-0.186396
0.249077
0.730498
-0.514726
-0.215772
-0.418318
0.732356
-0.314038
1.10939
-0.647541
-0.461853
-0.283053
0.318362
1.10145
-0.543833
-0.557617
0.729619
0.123341
-0.85296
-0.0311553
0.190144
-0.158988
-1.00499
0.386432
0.618556
0.30968
0.256657
-0.566336
0.0261076
0.200621
-0.226729
0.0661655
-0.0958445
0.0296789
1.07275
-1.07479
0.00203842
0.745703
-0.266232
-0.479472
0.338314
0.407389
0.534621
0.594836
0.054963
0.202022
-0.256985
0.625981
0.289109
-0.91509
0.935972
-0.206354
0.0614593
0.908764
-0.970223
0.650452
-1.10061
0.450156
0.925205
-0.688601
-0.236604
-0.589388
-0.471704
1.06109
-0.0438486
-0.157137
0.200986
0.437872
-0.106364
-0.331507
-0.352667
-0.073498
0.0458372
0.738507
-0.784344
0.833699
0.0335306
-0.86723
0.386725
-0.805043
1.0652
-0.724248
-0.340947
0.291177
0.0576758
-0.348853
0.422582
0.642614
0.443142
-0.925896
0.482755
0.169488
0.0387532
0.341263
0.105028
-0.446292
0.823682
0.129198
-0.95288
-0.0255037
0.0891059
-0.0636021
-0.34089
0.0783203
0.26257
0.430966
-0.19317
0.930517
-0.945097
0.0145794
-0.0525036
0.0269999
-0.0564973
0.494369
-0.129049
-0.520281
0.649331
-0.00839368
-0.0961539
0.104548
0.913728
-0.154121
-0.759606
0.693315
-0.647478
-0.034705
0.948433
0.21846
-0.386278
-0.269305
0.0258096
0.243496
0.261036
-0.588822
0.327786
0.521852
0.609994
-1.13185
0.4589
-0.355094
-0.103806
0.802527
-0.359385
-1.14381
0.20908
0.934735
0.00617947
0.245662
-0.267433
0.314728
-0.0472945
0.575592
-0.568492
-0.0071005
-0.803158
0.0341772
0.768981
0.516645
0.088814
-0.605459
-0.439787
0.395246
0.0445419
-0.73839
-0.112215
0.850605
0.368549
-0.063283
-0.305266
0.204846
-0.297248
0.092402
-0.0771199
-0.413296
0.490416
0.30227
-0.31885
0.0165799
0.748617
0.202683
-0.9513
-0.215527
-0.0640291
0.0146895
-0.129046
0.114356
0.61754
-0.307861
0.0652056
0.19749
-0.262696
0.743703
0.357746
-0.247955
-0.401826
-0.154061
0.168751
-0.138562
0.972261
0.00880228
-0.276236
-0.258076
0.323282
0.227881
0.603076
-0.830957
0.622229
-0.913687
0.291458
-0.214342
-0.211321
0.184341
0.0269802
-0.0996826
0.127338
-0.0276559
0.63344
-0.461508
-0.171932
-0.252326
0.208477
0.665438
-1.07161
0.40617
-0.0911997
0.164458
-0.0732586
0.0230267
-0.123724
0.100697
0.588861
-0.161897
0.824737
0.284657
-0.585355
0.456306
0.697945
-1.0177
0.319754
0.311474
0.148079
0.265428
0.0257491
-0.394443
0.322871
0.0715718
-0.382759
0.0477598
-0.297411
0.249651
0.670037
0.255168
0.565333
-0.718492
0.153159
0.810902
0.0860274
-0.896929
-0.998711
0.772955
0.225756
-0.215013
-0.325009
0.540022
0.982496
-0.312458
-0.162026
0.364048
0.115431
-0.139416
0.0239858
-0.0476101
0.0181865
0.0294237
0.570669
0.40184
-0.972509
0.606817
-0.576424
-0.0303936
-0.17678
0.0993017
0.0774785
-0.151636
-0.0596857
1.13633
-0.438387
-0.329966
0.353473
-0.0235074
0.618579
-1.0243
0.405722
0.215188
-0.804577
0.572015
0.237326
-0.809341
0.64506
-0.384025
0.969594
-0.124104
-0.845491
0.164274
-0.731442
0.567169
1.05394
-0.864838
-0.1891
-0.136878
0.233645
-0.0967677
0.0145623
0.985605
-1.00017
1.07166
-0.190527
-0.825679
0.0273516
0.798328
-0.481969
0.422625
0.0593447
1.02139
-0.499539
0.171362
0.287539
-0.64004
0.769173
-0.129133
-0.714392
0.868004
0.010814
-0.154454
0.14364
0.0394399
-0.0548496
0.0154097
-0.0150635
-0.192857
0.20792
0.913914
-0.0824758
-0.831438
1.28197
-0.629208
-0.652766
-0.225558
0.210494
0.362092
-0.687692
0.325601
0.0778825
-0.011717
-0.827162
-0.493522
0.68447
-0.190947
-0.673732
0.505877
0.167855
-0.0117067
-0.0292821
0.0409887
0.265684
0.788253
-0.0562239
0.00861374
0.0335626
0.0818681
-0.696756
0.056716
-0.732511
0.932048
-0.199537
-0.663921
0.764659
-0.100738
-0.608192
-0.425985
1.03418
-0.0438809
-0.185577
0.229458
0.443562
-0.48291
0.0393483
0.776058
0.131898
-0.907956
0.0158786
-0.755274
0.739396
-0.376296
0.948311
0.202353
-0.551316
0.348963
-0.400925
1.06636
-0.838306
0.549342
0.288963
-0.00798523
-0.00760888
0.0155941
0.380328
-1.10316
0.722836
-0.878544
0.315098
-0.619708
-0.402304
0.982667
-0.614186
-0.368481
-0.270209
0.296316
0.124656
-0.131726
0.00707003
-0.774614
-0.191995
0.966609
-0.795117
1.12055
-0.325435
0.945579
-0.652881
-0.292698
0.075475
-0.250403
0.174928
-0.221601
-0.507329
0.728931
0.0263217
0.263906
-0.457385
0.242372
-0.652127
-0.221155
0.873282
0.0907242
0.0253363
-0.11606
0.11036
-0.603882
0.167302
-0.229983
0.863236
-0.0523345
-0.142275
0.11112
-0.131146
0.159831
-0.0286851
-0.0983878
1.0123
-0.772414
0.550813
0.325869
-0.0138349
-0.312034
-0.700897
0.135111
0.565786
0.332884
0.612695
1.15227
-0.771941
0.685843
-1.13254
0.446702
0.232642
-0.687512
0.454871
0.03153
-0.410664
-0.486837
0.714718
0.658013
-0.939936
0.24267
-0.66929
0.42662
-1.12994
0.626163
0.50378
-0.0298312
-0.409956
0.181494
0.14645
-0.327944
0.685157
-0.179683
-0.505474
0.295432
-0.678007
0.692569
-0.258672
-0.0712931
0.629847
1.10281
-0.934759
-0.168055
-0.0110692
-0.130521
0.141591
0.674854
0.0937782
-0.768633
0.175457
0.106835
-0.282291
-0.0780519
0.602714
-0.524663
-0.0679456
0.643538
0.574237
-0.371884
-0.0553484
0.155194
-0.0998457
0.848813
-0.230234
0.0921067
-0.00781984
-0.0842869
0.156406
0.0494196
-0.205826
-0.105668
0.109447
-0.00377915
0.980823
-0.640416
-0.340408
0.237039
-1.03216
-0.115357
0.00968883
-0.882423
0.283791
0.598632
1.01694
-0.284584
0.248738
-0.981249
1.25305
-0.583857
-0.669193
-0.0119455
0.10267
0.884008
-0.352398
-0.53161
-0.617718
0.145905
0.471814
-0.972506
0.969716
0.0027903
0.274969
-0.751536
0.476567
-0.048812
-0.00964236
0.0584544
-0.483016
0.632997
-0.149981
-0.0159331
-0.107002
0.122935
-0.149513
0.0583136
-0.115677
0.0159945
-0.640379
-0.273308
0.455419
-0.742277
0.286858
0.256955
-0.249473
-0.00748212
0.415215
0.315283
0.589317
-0.346647
0.0071548
0.0322851
0.623977
0.392963
-0.495361
0.0114682
0.483893
0.264485
0.619523
0.385408
0.154823
0.253086
0.00386939
-0.288755
-0.0200247
0.308779
-0.0331657
0.0251805
-0.643458
0.565406
-0.203901
0.284136
-0.0802351
-0.900549
0.857608
0.0429404
-0.426949
0.615508
-0.188559
-0.213589
-0.116583
0.330172
0.762996
-0.829915
0.0669196
-0.677082
-0.452861
1.29278
-0.861538
-0.431244
-0.0954334
0.0843643
0.837925
-0.562955
-0.320515
0.775934
-0.0863681
-0.260194
0.346562
0.8308
-0.109211
-0.72159
1.09019
-0.10602
-0.984168
-0.383713
0.297345
0.832328
-0.484759
-0.347568
-0.163408
0.784332
-0.620924
0.547387
-0.703946
0.156559
0.0634352
-0.265831
0.202396
0.344336
-0.0550991
-0.289237
1.16079
-0.908795
-0.251991
-0.534962
-0.463749
0.808195
0.29462
-0.815456
-0.0850931
-0.053058
0.209464
0.188723
-0.813121
0.624398
0.0041099
0.120546
-0.540345
1.11101
0.355866
0.624957
1.07223
-0.671355
-0.400872
-0.763664
0.54251
0.774805
-1.19876
0.423951
-0.627472
-0.0412866
0.668759
-0.233694
-0.178022
0.411717
0.5793
-0.217208
0.0576938
0.268175
0.22535
-0.028372
-0.486354
-0.708405
0.994105
-0.285701
-0.150473
0.0193269
-0.0605327
0.0051843
0.114201
-1.08671
0.551737
-0.619682
0.161358
-0.231045
0.323466
-0.0924208
-0.00276435
0.0599077
-0.516332
0.369108
0.147224
0.35557
0.27787
-0.379713
0.61392
-0.234207
0.491378
0.115439
-0.64076
0.829483
0.578432
-0.0617868
-0.202698
-0.498199
0.958647
-0.688262
-0.270385
0.947023
-0.923794
0.301885
0.621909
0.798229
-0.867396
0.0691671
-0.43295
0.35583
-0.1202
-0.0565798
-0.120572
-0.617818
0.284265
-0.547026
0.262761
0.424245
0.408082
0.765494
-1.08848
0.322981
0.225046
-0.540548
0.315502
-0.971862
0.168704
0.00934928
0.359199
-0.583499
0.894156
-0.310657
-0.256948
0.311553
-0.0546048
-0.407295
-0.108381
-0.133042
-0.224538
0.357581
0.0871745
0.000733371
-0.0879079
-0.334741
-0.147228
0.372896
0.447512
-0.820408
0.844399
-0.579914
0.315189
-0.451382
0.0184316
0.466405
-0.241359
-0.671615
-0.166691
-0.0986416
0.0467853
0.0518563
0.974406
-0.348426
-0.455313
0.75289
-0.297577
-0.120124
0.141237
-0.0211132
0.746527
-0.0613707
-0.243157
-0.569964
-0.502559
0.922327
-0.419768
0.69329
-1.11597
0.422682
0.535935
0.756847
0.238089
-0.179214
-0.0588747
0.0898493
-0.717322
0.692178
-1.04799
0.355815
0.144631
-0.153024
-0.0711589
0.636492
-0.0694218
0.621158
-0.453268
0.685909
0.18755
-1.04139
-0.917014
0.499928
0.417087
0.648968
-0.105111
-0.543857
0.932075
-0.16908
-0.413895
-0.53982
-0.483481
0.431811
-0.133657
-0.205919
0.339576
0.320363
-0.29652
-0.714637
0.643478
0.852065
0.220682
-0.789042
0.333729
1.09862
-0.290427
0.129719
-0.113779
-0.0159406
-0.00240013
-0.608282
0.610682
-0.90238
0.169002
0.733378
0.729889
-0.729889
-0.265985
0.864284
-0.5983
0.3289
-0.708613
0.666769
-0.414965
-0.251804
-0.921455
0.95515
-0.0336959
0.342291
-0.0470239
-0.295267
0.265061
-0.107117
-0.157944
0.114791
-0.32838
-0.295683
0.488121
-0.808636
-0.830705
0.985671
-0.154966
-0.28706
0.659956
0.0219497
0.0047909
-0.0267406
-0.119251
0.215282
-0.096031
-0.378662
0.410192
1.01092
-0.813082
-0.197834
-0.0949256
-0.519731
0.614657
-0.236838
0.255444
-0.0186055
0.125651
-0.28016
0.154509
-1.05698
0.438638
0.618345
-0.0598254
-0.0216196
0.132932
-0.00321322
0.0608237
0.0183966
-0.0792203
0.481548
0.679237
-0.0219489
0.0438986
-0.0630437
-0.285414
0.348457
-0.491518
0.790024
-0.298505
-0.00676371
0.0770482
-0.0702845
0.4368
-0.210991
0.711605
0.200507
-0.912111
0.00300778
-0.416304
0.0215261
0.754532
0.425502
0.303634
-0.729136
0.468443
-0.418414
-0.050029
-1.01213
0.186452
-0.430619
0.193281
0.237337
0.399499
0.526244
-0.925743
-0.627722
0.586435
0.0482153
-0.916286
0.868071
-0.131481
0.206956
-0.0168674
0.00796878
0.00889863
0.0208732
-0.309628
0.0331538
0.0282678
-0.0614216
-0.679741
-0.202682
0.618955
0.111552
0.0471941
-0.158746
-0.128614
0.00849055
0.165306
-0.709843
0.544537
0.1968
0.54509
-0.74189
0.311313
-0.716093
0.859457
-0.143365
-0.722037
0.558629
0.110645
0.175449
-0.404453
-0.269279
-0.259198
0.0637678
0.19543
-0.861192
0.369674
0.663865
-0.75879
0.348551
0.750071
-0.30124
0.306141
-0.00490042
0.325183
-0.821027
0.495844
0.15406
-0.2708
0.116739
0.553498
-0.796655
-0.644167
-0.0197541
-0.315271
-0.0256193
0.0272727
0.248236
-0.275509
0.333833
-0.00109015
-0.037061
0.0381512
0.86217
-0.462671
-0.798639
0.874543
-0.0759034
0.259736
0.185744
-0.44548
-0.371793
0.240312
-0.220538
-0.0386599
0.361723
0.305046
-0.26169
-0.756009
-0.00938478
-0.0892568
0.612819
0.417128
0.161304
-0.858523
0.919982
0.0792122
-0.447665
0.368453
-0.0863755
-0.828098
0.914474
0.0617187
-0.0649189
0.00320017
0.244207
-0.288088
-0.170869
0.718256
0.783489
-0.619216
-0.425716
-0.0906157
0.00528843
-0.409771
0.404482
0.403323
-1.01151
-0.10671
-0.482471
0.589181
0.0374535
-0.14337
0.105917
-0.654008
0.0551032
0.598905
0.961633
-0.672524
-0.01487
0.0867639
-0.0718939
-0.216695
-0.0201435
0.186572
0.353972
-0.540544
0.0966896
-0.122496
0.0258059
0.651539
0.372122
-1.02366
-0.40121
1.14983
0.0836476
0.00352696
-0.253265
-0.575477
0.828742
0.406863
0.729469
0.893713
-0.696914
-0.355572
0.222529
0.292613
0.0517232
-0.383767
1.15857
0.132761
-0.766245
0.633484
0.941806
-0.137942
-0.803865
-0.446456
0.707892
-0.261436
0.40485
-0.339475
-0.490545
0.83002
-0.146877
0.0681599
0.078717
-0.281764
-0.487763
0.769527
0.0873826
-0.206634
0.0363358
-0.0480424
0.507499
-0.789262
-0.706229
-0.209055
0.915285
-0.0697925
-0.474185
0.543977
0.067509
1.13517
-1.16181
0.0266354
0.212981
-0.14657
-0.0664107
0.00855325
-0.309794
0.261257
0.229159
-0.317252
0.0835579
-0.80979
1.01221
-0.202421
0.0319496
-0.235851
0.379137
0.265923
-0.835557
-0.239229
-0.0424975
0.316356
-0.273858
0.53718
-0.120052
-0.197864
0.218514
-0.0206501
-0.142161
0.126228
-1.16382
0.544114
0.918871
0.173013
-0.126975
0.252626
-0.205563
0.465299
0.797963
-0.309842
-0.206167
0.00830309
-0.0960689
-0.618568
0.238013
0.208333
-0.197519
-0.917272
0.0148916
0.0667163
0.212096
-0.0580359
-1.00253
0.632259
0.370275
0.778892
0.151626
0.192442
-0.0657281
-0.126714
0.278709
-0.26209
-0.0166192
-0.848802
0.304969
-1.02295
0.520388
-0.271804
0.222939
0.0488649
0.00915469
-0.0617747
0.05262
1.04486
-0.0047697
-1.04009
0.142052
0.00791316
-0.149965
-0.133417
-0.261026
0.228362
-0.0235164
0.0662954
-0.0824862
0.0161908
0.3895
-0.0609105
-0.32859
-0.051855
0.11815
0.849039
-0.646356
-0.02821
-0.145108
0.173318
-1.00893
0.199137
-0.0244763
0.0335908
-0.187652
-0.111312
0.222864
0.00661685
0.000537952
0.248658
0.154399
-0.403058
0.421737
-0.0804735
0.422368
-0.343155
0.19193
-0.168903
0.0676243
-0.324572
0.592008
-0.058328
-0.53368
0.541368
-0.0372293
-0.504138
-0.582688
-0.148754
0.129758
-0.0488713
-0.0808867
0.382111
-0.44525
0.0631395
1.10565
-0.041113
-1.06454
0.099449
-0.139977
0.0405282
-0.491987
0.656505
-0.164518
0.481095
0.593973
-1.07507
-0.292963
0.350639
-0.262049
0.431773
-0.169723
0.218631
0.0909567
-0.309588
-0.8929
0.433533
0.459366
-0.0886897
0.0062035
-0.843552
0.137323
0.304972
-0.185668
-0.119304
0.471072
-0.610898
0.139826
-0.0865755
-0.19077
0.172199
0.962971
0.82085
-0.13553
-0.68532
-0.832853
0.116761
0.340669
-0.543368
0.673905
-1.08741
0.413506
-0.101595
0.283089
0.0225625
-0.400244
0.3372
-0.162884
0.210644
-0.112993
-0.756764
0.869757
0.37955
0.458374
-0.741834
0.775306
-0.033472
-0.206029
0.233302
-0.662821
-0.257002
-0.114183
0.127864
-0.0136809
0.17501
-0.338956
0.163946
0.025491
0.0105866
-0.0360776
-0.08799
0.559062
-0.819256
-0.143755
0.963011
-0.7352
-0.243016
0.978215
0.477878
-0.358986
-0.118892
-0.166699
0.0191965
0.147502
-0.0174983
-0.198282
0.21578
-0.975934
0.0351035
0.940831
0.0242557
0.188449
-0.212705
0.799685
-0.894652
0.094967
-0.511163
0.47548
0.113592
-0.589071
0.0122095
-0.126393
-0.225744
-0.385683
0.611427
0.625154
-1.02608
-0.948397
0.824364
0.124034
0.112216
-0.0155262
0.652118
-0.272981
-0.0612179
-0.237279
0.298497
-0.0082591
0.122898
-0.114639
-0.306356
0.907347
-0.600991
0.713814
-0.8188
0.104986
1.02811
-0.970674
-0.0574349
0.797271
-0.345105
-0.452166
0.0412
-0.22391
0.18271
-0.290082
-0.00732887
-0.943657
0.833052
0.110605
0.0554487
-0.999105
-0.632954
0.933164
-0.30021
-0.575678
-0.333117
0.188258
-0.162198
-0.0260607
-0.787979
-0.220949
-0.179464
0.120552
0.0589111
0.264099
-0.0886429
-0.898551
0.853791
0.04476
-0.197263
-0.108122
0.0119684
0.153356
-0.0113043
-0.598223
0.115207
0.134299
-0.159427
0.0251281
-0.426096
0.363427
0.0626685
0.357894
-0.0156027
-0.256283
0.617544
0.128983
0.366765
0.0789814
0.284116
-0.363097
-0.115331
0.558893
-0.613477
0.388882
0.224596
-0.0536964
-0.0349933
0.832702
-0.453151
0.687584
-0.362401
-0.227614
-0.177462
0.405076
0.312503
-0.762018
0.449515
0.543347
-0.61314
0.989493
-0.430724
-0.55877
-0.00373775
-0.512233
-0.101244
-0.771669
0.993972
-0.222303
0.0159793
-0.260926
0.946769
-1.06034
0.272362
-0.161711
0.225146
-0.113802
-0.300573
0.112478
-0.00303102
-0.490265
-0.521352
1.15204
-0.458726
0.296988
-0.152221
-0.144767
0.0614374
0.203624
-0.668333
-0.359373
1.02771
0.233582
0.345717
-0.0051444
-0.138839
0.143984
0.819454
0.0511637
-0.0321253
-0.0190384
0.536386
0.0556225
-0.36354
-1.00959
0.178885
-0.205534
0.00900038
0.196534
0.568305
0.684745
0.25772
0.0785683
-0.336289
0.972996
0.0551125
0.590033
-0.843324
0.253291
-0.830637
-0.00325297
0.83389
-0.77189
0.994404
-0.222515
0.13469
-0.0061938
-0.128496
-0.386519
1.01167
0.00784289
0.248526
-0.256369
0.02463
-0.766464
0.156227
-0.0173088
-0.138918
-0.911593
1.18504
-0.273445
-0.244167
0.538618
-0.29445
1.16262
-0.512062
-0.650563
0.00594408
-0.599609
0.593665
0.00367242
0.00429636
-0.472379
0.953474
0.563488
-0.829473
1.07744
-0.384145
-0.180515
0.152305
-0.859137
0.0284997
1.15298
-0.387483
-0.019748
-1.12407
0.222802
-0.0221808
0.259905
0.549061
-0.808966
0.548373
-0.1231
-0.425273
0.666476
-0.972769
0.306294
-0.124056
0.00941486
0.114642
-0.202778
-0.467521
0.670299
0.349354
-0.281729
-0.476797
0.170718
0.306079
0.143976
0.275192
-0.419168
0.076436
0.111822
-0.857275
1.00888
-0.151606
0.059897
0.00182168
0.443109
0.202143
-0.645251
0.480216
0.381636
-0.861852
0.154559
0.494408
-0.0191397
0.988734
0.00159504
0.784445
-0.78604
0.000161148
-0.00692486
0.0338488
0.0925452
-0.126394
0.686912
-0.621869
-0.0650439
0.446941
0.542552
0.124901
-0.158621
0.0337202
-0.279485
0.804844
-0.525359
0.0105013
0.153242
-0.163744
0.346125
-0.704104
0.357979
-0.562258
-0.216232
0.77849
0.806658
-0.131804
0.299982
0.248391
-0.471139
-0.0623915
0.53353
0.290677
-0.810408
-0.201635
0.314391
-0.112757
0.181921
-0.0727786
-0.109142
-0.0220629
0.0257353
-0.073151
0.676384
-0.603233
-0.115887
1.02465
0.771255
-0.625673
-0.145582
0.630878
-0.542064
-0.533779
0.17124
0.362539
0.0316385
-0.446603
-0.192168
0.145744
0.0464242
0.0604458
0.131996
0.137734
0.735132
-0.872866
0.205566
0.183934
0.121625
-0.856825
-0.423155
0.172713
0.250443
-0.313433
-0.241148
0.554581
0.472621
-0.223962
-0.842396
0.555336
0.318059
-0.262722
-0.0553366
-0.50076
0.775356
-0.274596
-0.436661
0.439669
-0.426671
0.555489
-0.128817
-0.652485
0.907313
-0.254828
-0.0206767
0.19515
-0.174473
0.0972368
-0.0880821
-0.323166
-0.632966
0.957504
-0.324538
-0.540845
0.675956
0.502587
-0.510635
0.00804836
-0.0251567
-0.206359
0.231516
-1.09743
0.797148
0.300284
-0.0141187
-0.0201973
0.034316
-0.0226801
0.581005
-0.887361
0.705097
-0.392594
-0.376311
-0.540703
-0.696989
0.698584
0.499057
0.00681999
0.365533
0.153798
-0.519331
-0.32072
0.299725
0.020995
0.32699
-0.276178
-0.0508121
0.119105
-0.422921
0.303816
-0.210721
0.497959
-0.287238
-0.757668
-0.209393
0.967061
0.183131
-0.208287
0.541194
0.145718
-0.90639
0.696002
0.210388
0.309663
-0.0794659
-0.230197
0.00328209
0.175761
-0.224392
0.0486306
-0.65012
-0.340441
0.459546
0.129545
0.193866
-0.152666
0.308793
-0.133783
0.182986
-0.507995
0.0329014
0.269369
-0.313534
0.198705
0.114829
-0.570648
-0.444574
1.01522
-0.106203
-0.364935
-0.51227
-0.0811146
0.593385
0.131367
0.173511
-0.304878
-0.0219761
1.13124
-0.738614
-0.39263
0.17049
0.65036
0.0489901
0.444141
-0.406406
-0.0377349
-0.281428
0.749269
-0.467841
-0.569348
-0.229427
0.798775
-0.444073
0.182023
-0.409439
-0.12434
0.963535
-0.437993
-0.525541
-0.182241
-0.0139816
0.196222
0.385945
0.0518245
-0.437769
-0.16288
0.187135
-0.0564478
0.239863
-0.183415
0.0601892
-0.0206856
-0.204872
-0.00686729
0.523737
0.439798
-0.485737
0.872169
-0.310633
0.909456
-0.207378
0.025137
-0.840343
0.270995
0.715242
-0.625393
-0.103028
-0.616142
0.124155
0.184723
-0.817677
0.699662
-0.702062
0.816832
-0.0186034
-0.188234
-0.109014
-0.272843
-0.0834926
0.356335
-0.289978
-0.0288717
0.71604
0.136288
-0.852328
0.0251941
-0.248244
0.22305
0.010129
0.324346
-0.931958
0.607613
0.857124
-0.0574392
-0.89627
0.926249
-0.0299792
0.209037
-0.130717
-1.00405
-0.093377
-0.33406
0.862305
-0.029253
0.297203
1.10822
-0.423922
-0.684301
-0.612143
-0.056799
0.668942
0.114229
0.518195
-0.632424
-0.68314
0.029132
-0.173435
-0.138311
0.311746
-0.467146
0.599907
0.142384
0.50523
-0.647614
-0.675608
0.175319
0.50029
-0.921045
0.0916955
0.82935
0.202525
0.502571
-0.2213
0.525231
0.27204
-0.288371
-0.142248
0.729841
-0.853945
-0.0270556
-0.339402
0.366457
-0.444168
0.151205
0.667727
0.0392273
-0.706954
0.612231
-0.922864
0.00448992
-0.0533019
-0.524691
0.891081
-0.366391
-0.596264
0.37052
-0.0136476
0.265971
-0.252323
0.126089
-0.22783
0.101741
0.252635
-0.0084285
-0.242013
0.582682
-0.0433573
-0.228447
-0.144954
0.157164
0.33285
-0.226015
-0.0396338
0.0299914
-0.176196
0.170365
0.00583052
0.195278
-0.218875
0.0235971
-0.708651
0.554529
0.112593
-0.624863
-0.0111344
-0.259074
0.0145551
0.542241
-0.556796
0.310418
-0.330443
0.293063
-0.781119
0.488056
-0.357458
0.663957
-0.306499
0.245999
-0.954403
0.0604285
-0.026064
-0.922333
0.451485
0.700557
-0.734939
-0.107456
-0.658273
-0.265521
-0.397273
0.172735
0.177208
0.11612
-0.293328
1.12699
-0.558685
0.910328
-0.21815
-0.222366
-0.147972
0.370338
-1.02361
0.405726
0.617884
0.280847
-0.280253
-0.0990723
0.574552
0.152077
-0.0868628
-0.48934
0.24533
-0.237487
-0.306258
0.373374
-0.0671159
-0.106611
0.822651
0.175208
-0.173763
-0.00144539
0.855383
-1.25599
0.581844
0.674145
0.230747
0.189534
-0.420281
0.359236
-0.0472715
-0.311964
-0.504907
0.26074
-0.352356
0.00832758
0.377617
0.88507
-0.971445
0.388468
-0.169837
-0.385806
0.676483
-0.982946
0.701569
0.281378
0.378889
-0.740409
0.36152
-0.684427
0.719867
-0.0354401
0.403717
-0.519049
0.0139477
0.227092
0.250786
0.0303043
-0.619126
0.190421
-0.887669
0.393626
0.494042
0.240434
-0.852577
0.732416
-0.0490494
-0.568669
0.134976
0.203421
1.01435
-0.33484
-0.679507
-0.406766
0.256353
-0.569786
0.1448
-0.945928
0.889129
-0.716998
0.377522
0.464902
-0.701934
0.794222
-0.0922883
-0.893509
0.599204
0.294305
-0.284954
-0.0970041
0.134458
-0.975014
0.682124
0.292891
0.610452
-0.996971
-0.839815
-0.0174606
1.08019
-0.406286
0.322828
0.144736
-0.467564
-0.0197595
-0.126169
0.145929
0.037045
0.481571
0.52751
-0.895252
0.193319
0.167831
0.181522
0.227814
0.334272
-0.562086
0.359172
-0.212722
-0.0488344
-1.04539
1.09423
-0.325278
0.409782
-0.786078
-0.563773
-0.392172
0.955945
0.238724
-0.302007
-0.649073
0.206251
0.442822
-0.00124
0.00873781
-0.00749782
0.788113
-0.901106
0.288832
-0.813523
0.451851
0.27179
-0.723641
0.21139
0.0855983
-0.78336
0.220258
0.563102
-0.807857
0.245599
0.467386
-0.748813
0.391637
-0.418692
-0.002149
0.000908998
-0.0432451
0.985051
-0.587946
0.731774
-0.143829
0.941089
0.00265357
-0.943743
-0.695714
-0.00774395
-0.223302
0.0649503
0.664938
0.113425
0.0278118
-0.183648
-0.210612
0.539511
0.49177
0.0953355
0.231654
-0.835477
-0.0630749
-0.870057
0.41875
-0.771147
0.165231
0.175358
-0.340589
0.839978
0.045981
-0.885959
-0.0958809
0.0896871
-0.323618
-0.699329
-0.756557
-0.110838
-0.332789
0.945019
-0.317207
0.434414
-0.117208
-0.839423
0.268775
-0.262916
0.49073
-0.391887
-0.610646
-0.268922
-0.298102
0.33745
-0.446955
0.0208594
0.994228
-0.131923
0.279219
-0.194019
-0.0852006
0.0811843
0.0740098
0.239529
0.98487
-0.936655
0.0072259
-0.20956
0.301962
-0.475633
0.487101
-0.427929
-0.485737
0.198175
0.166241
-0.364416
-0.767472
0.0375834
-0.111694
0.731491
-0.619797
-0.0949397
-0.801331
-0.673823
0.767602
1.21009
-0.522085
-0.688009
-0.121603
0.314884
0.804374
-0.431673
-0.372701
0.245871
-0.266557
0.0867524
-0.0529037
-0.195867
0.0424515
0.153415
-0.13975
0.505283
-0.403407
1.01386
-0.0281565
-0.134041
-0.257493
-0.0751145
0.332607
-0.0120735
0.800186
0.16247
0.182806
-0.345276
-0.352445
0.539017
0.400384
0.40446
-0.324363
-0.0987922
0.485695
-0.172864
-0.312831
-0.0508366
0.0299418
0.0208947
0.101541
-0.751218
0.649677
-0.879527
0.122969
0.203378
-0.369682
0.788432
-0.00333988
0.249211
0.113221
-0.430428
-0.979281
0.4958
-0.946375
0.317167
-0.41832
0.039658
-0.397343
-0.554829
0.952172
-0.948004
-0.155502
0.19559
-0.0400884
0.844658
-0.635578
0.694595
-0.580366
0.146665
0.498407
-0.645072
0.196675
-0.37011
-0.687338
-0.231426
0.918765
-0.129273
0.307207
-0.177934
-0.398197
0.82523
-0.427033
0.788864
-0.498612
-0.290253
0.789796
0.0207539
-0.81055
-0.507703
-0.748287
-0.304507
-0.0107639
0.352736
0.629759
-0.0120151
0.0827586
-0.0707434
-0.632068
-0.151292
0.669075
0.578305
-0.501702
0.599405
-0.0977027
0.0343356
-0.0664609
0.104846
0.373857
-0.478703
-0.000823517
0.176032
-0.105794
-0.86922
-0.855419
0.327699
-0.00964047
-0.136074
0.303376
0.0726694
0.692581
-0.765251
-0.492193
-0.10603
0.609682
0.234718
0.0636935
-0.215329
-0.10201
-0.195511
0.297521
0.0946597
-0.344013
0.249353
0.2337
0.381808
0.206011
0.776578
-0.352333
0.862248
-0.452466
-0.103879
-0.230704
0.334583
0.709348
0.0749842
0.026545
-0.629055
0.426277
0.489539
-0.501613
-0.474637
-0.410246
0.884883
-0.583581
-0.440028
-0.945521
0.986896
-0.0413745
-0.0812354
-0.361402
0.277909
0.527742
0.248836
0.0646931
-0.273247
0.208554
-0.310459
-0.634638
-0.153337
-0.716484
0.86982
0.470677
-0.237094
-0.365256
0.163622
0.546544
-0.870162
0.443654
-0.343778
-0.357535
0.961083
-0.603548
0.434505
0.480894
0.276624
-0.757518
0.9994
-0.609417
-0.389983
-0.340811
-0.724337
1.09278
-0.368447
0.314155
-0.0349354
-0.260207
0.256867
0.398839
0.763786
-0.189706
0.169947
0.0289591
-0.0300492
0.902421
-0.50058
0.43335
0.693641
-0.375595
0.195964
0.179631
0.222479
-0.450093
0.708386
-0.0406591
0.58221
-0.259381
-0.646957
-0.0922699
0.739227
0.168659
-0.0281334
-0.140525
0.124994
0.0879867
0.131396
-0.903286
-0.257518
0.278391
0.653414
-0.575998
-0.0774153
0.142496
0.343199
-0.134499
0.068771
0.219422
0.223339
-0.442761
-0.462034
0.848759
0.16217
-0.492241
1.08964
-0.597399
-0.26324
0.407216
-0.276156
-0.399452
1.04982
-0.494261
-0.321195
0.103215
0.256021
0.271364
-0.282499
-0.139842
0.119165
-0.271159
-0.124054
-0.00455998
0.567257
-0.136009
0.763157
-0.627148
-0.114986
0.17581
-0.326762
0.0894827
-0.295466
-0.00904104
-0.858631
0.605366
0.209585
0.222187
0.0823253
-0.325762
0.243436
0.261106
0.0536216
0.788434
0.431064
-1.2195
-0.0873479
-0.0171937
0.104542
-0.16501
-0.633629
0.789847
0.420247
0.734734
-0.662064
-1.1081
0.0900642
0.0359159
-0.165324
0.436257
0.657725
0.227507
-0.885232
0.336567
-0.0261491
-0.02848
-0.294078
-0.081517
-0.512509
-0.454503
0.486142
0.189294
0.685248
0.541546
-0.53903
-0.00251511
0.162203
0.0081622
-0.0638462
0.226261
-0.0309836
0.704733
0.17698
-0.881713
-0.53903
0.232773
-0.204281
0.125025
0.0792564
-0.312608
0.00415599
0.308452
0.387105
0.424886
-0.811991
0.213574
0.259047
0.645433
-0.0133398
-0.238986
0.399198
-0.609809
-0.0444988
0.0618905
-0.0173917
-0.916443
0.514139
0.777659
-0.622738
-0.154922
0.0114854
-0.116945
0.105459
0.79254
-0.865691
0.567462
-0.0967854
0.239328
0.455267
-0.113158
-0.0108961
0.276477
-0.152505
-0.123972
-0.542753
-0.103701
0.99991
-0.510492
-0.489418
0.712787
-0.118721
-0.594067
0.368009
-0.641319
0.27331
0.0292805
0.4757
-0.00929509
-0.153337
0.536872
-0.383534
0.159625
0.116851
-0.296708
-0.197928
0.0241647
0.684462
0.00601535
-0.690477
-0.325215
-0.212741
-0.100793
-0.153037
-0.00558406
0.314021
0.577061
-0.121703
0.147194
-0.00355233
0.0259305
-0.126397
0.1352
-0.356649
0.503314
0.0129711
0.195362
-0.307929
-0.294674
0.709889
-0.0307659
0.572311
-0.128151
-0.099363
-0.220917
0.440339
-0.197135
0.782511
-0.585376
-0.743913
-0.0996391
-0.407886
0.74675
-0.338863
-0.0192604
-0.178667
0.278166
-0.0585547
-0.0193538
-0.208232
0.227586
-0.744607
0.250346
0.0959861
-0.110856
0.439827
-1.10816
0.296621
-0.872097
-0.213867
0.635044
-0.306017
0.454209
-0.23087
0.0129803
-0.593865
0.695406
0.00112394
-0.131645
0.130254
-0.48924
-0.0807858
-0.550119
0.630905
0.254889
0.29466
1.13085
-0.738591
-0.392255
-0.199098
0.0615577
0.181163
0.0200139
-0.201177
-0.719447
0.131501
0.158054
0.0238673
-0.00493908
-0.106118
0.111057
0.380945
-0.788831
0.0755409
0.402649
0.0245395
-0.427189
-0.869718
0.672583
0.120266
0.0334587
-0.153725
0.30869
-0.941656
-0.122196
-0.000610462
0.122806
0.154037
-0.0337706
0.00973674
0.654583
-0.500024
0.542768
0.441595
-0.228021
-0.801985
0.238213
-0.607197
0.489041
0.118156
0.403413
-0.878049
-0.436119
-0.274901
0.71102
0.0769193
0.345705
-0.263653
0.216629
1.0042
-0.137612
-0.866592
0.000657687
-0.836134
0.717134
0.0726617
0.383572
0.420802
-0.136837
-0.00200243
0.119366
-0.256641
-0.290385
0.055013
-0.0869453
0.0319323
0.0192847
-0.701818
0.682534
-0.0407485
0.240433
-0.199684
0.278681
-0.810744
0.532063
-0.0919401
-0.484484
-0.0282454
0.017952
0.603548
-0.292841
-0.176283
0.469124
-0.314846
-0.364894
0.389036
-0.222795
-0.087245
-0.108753
0.195998
-0.261799
0.344124
-0.840675
-0.117955
-0.0248086
0.142764
0.101153
0.277585
-0.378738
0.66262
-0.848785
0.186166
0.00818566
-0.486971
0.14038
-1.05197
-0.445383
-0.575509
1.02089
-0.847372
0.0362637
0.811108
-1.15506
-0.705109
0.0206823
-0.231881
0.239728
-0.00784663
-0.946975
-0.310844
1.01558
0.327437
-0.173038
0.06935
-0.290267
-0.152182
0.411228
0.127182
0.0762323
-0.333725
0.0130208
-0.0994739
0.0864531
-0.201053
0.0641751
-0.0674915
0.0789769
-0.227136
0.457883
-0.938881
0.600328
0.338553
-0.317251
0.374945
0.535909
0.1731
-0.0044418
-0.225696
0.290389
-0.417619
-0.231455
-0.473769
0.174571
0.299198
0.0408001
-0.0990644
0.0582643
-0.345224
0.439884
-0.0662295
0.632015
0.572048
-0.409578
0.488857
-0.803703
0.390554
-0.521849
0.131295
0.0884571
-0.00169315
-0.203532
0.0243174
-0.942697
0.545354
0.205581
0.507206
0.0140809
-0.164496
0.150415
-1.20728
0.49289
-0.159438
0.208857
-0.163946
-0.0155251
-0.189555
0.20508
-0.486795
0.193954
-0.936335
0.830541
0.807657
-0.355807
-0.149038
0.133356
0.0156825
0.246658
0.0696974
-0.127135
-0.985056
0.382971
0.602085
-0.118987
0.101794
-0.0574668
0.235565
-0.178099
0.359094
0.208368
0.0264328
0.0674062
-0.093839
-0.21983
0.232801
0.0199161
0.124714
0.517845
-0.761696
0.928777
0.0442197