/*--------------------------------*- C++ -*----------------------------------*\
| =========                 |                                                 |
| \\      /  F ield         | OpenFOAM: The Open Source CFD Toolbox           |
|  \\    /   O peration     | Version:  2306                                  |
|   \\  /    A nd           | Website:  www.openfoam.com                      |
|    \\/     M anipulation  |                                                 |
\*---------------------------------------------------------------------------*/
FoamFile
{
    version     2.0;
    format      ascii;
    arch        "LSB;label=32;scalar=64";
    class       volScalarField;
    location    "8.3";
    object      p;
}
// * * * * * * * * * * * * * * * * * * * * * * * * * * * * * * * * * * * * * //

dimensions      [0 2 -2 0 0 0 0];

internalField   nonuniform List<scalar> 
13486
(
7.22488
6.8529
2.25249
-10.5333
-2.47079
1.10009
-2.52143
0.183109
3.0619
4.37665
-21.7946
2.46108
7.52287
1.19637
-0.543678
4.66123
-14.9208
-3.10177
2.61023
6.68083
-13.4337
7.36161
6.71865
-4.45811
4.15032
-4.0307
-16.7091
-0.211541
0.0452153
0.360419
-10.3902
1.88023
-3.63743
2.1509
0.275651
-0.124726
-2.833
4.08407
-10.998
3.77618
-11.1926
7.95302
0.678422
4.03503
3.92439
2.42786
-15.8097
0.0627223
-2.51819
-0.676762
4.99555
0.55301
2.34537
4.38795
-4.63798
-1.99623
1.23847
-1.51951
-3.34738
-3.15707
-18.9074
-2.44943
-9.61102
-13.6054
-4.94174
-2.63733
-9.66789
7.90421
2.90726
-6.74441
-9.60857
-4.34356
4.29958
-12.0972
-1.37258
1.28718
-0.998194
-0.841252
-18.8206
-3.80517
-0.045711
7.08757
-10.891
2.29904
7.22616
5.67793
-19.9454
4.85032
5.64322
5.03544
2.67461
-0.620317
6.57435
6.75992
2.70025
0.0320504
-16.6474
-9.23449
3.68729
-15.2826
-0.0473698
1.41404
-9.30204
-1.50485
6.24698
-15.402
5.26586
-7.76198
-17.628
-2.49193
1.37984
1.34522
4.41138
1.12495
9.44523
1.92171
4.20255
2.35127
4.3475
-1.25797
-3.30036
-18.4919
3.27721
-8.09594
1.6613
-0.762834
1.72941
2.70395
2.79137
-4.35614
-0.921926
-14.9166
-10.6482
-11.7784
5.10965
5.29418
10.9532
-2.12344
-1.16807
0.870112
-2.35621
2.41014
2.31418
-3.00009
1.31902
-11.4092
0.541618
8.80825
-0.910239
0.0289001
4.01032
-2.20965
-0.0338667
7.25198
2.95616
2.26648
-4.11304
-11.5857
3.0012
1.00672
-0.111269
3.01438
2.86911
7.86303
0.544717
0.364436
1.78448
11.5468
0.734762
-11.7998
-11.5724
2.99158
4.47695
1.59583
-0.0439978
-4.90904
0.85957
-3.25423
5.22611
2.34075
3.05003
1.13211
1.8922
-11.9239
2.36475
-0.245702
0.0026403
0.914015
-10.164
2.4434
-1.5659
2.0062
1.31229
8.31195
3.00705
-21.0556
-4.72612
-0.167147
5.28478
0.583292
-10.4529
2.63977
4.09394
-6.54432
0.691175
3.30961
-3.7431
5.10066
0.583002
2.35534
0.495543
-3.28398
6.60781
5.28386
1.10368
0.133148
0.212283
5.07557
5.91745
-4.25637
-14.9624
-1.02742
1.14731
-0.208486
1.51053
6.38699
0.289972
-9.64574
2.26212
-17.7925
3.03315
-19.3238
-2.58994
8.25495
-10.3958
5.78203
1.66162
2.05517
5.9127
2.26745
-3.63459
4.40476
1.29949
5.18252
-13.5369
5.95526
2.52121
-1.9092
-12.2746
4.31293
-8.25796
9.62757
1.48057
-5.90955
1.48813
-4.52717
2.07323
-0.295267
-9.44702
-3.34577
6.17411
-16.6327
-0.222164
-4.70887
-3.28152
-12.0943
2.53514
-10.932
4.34101
-8.13719
6.88811
5.25414
0.0531041
2.30412
6.4026
-1.54514
1.91743
-5.51202
-3.96769
0.330116
-5.28104
2.78693
5.36022
-8.41705
-16.4415
-16.9153
-2.20238
2.63267
1.50113
4.41649
-10.6288
-15.8707
2.26446
5.13535
1.84595
1.29799
-0.0804077
2.28115
5.37179
-7.00551
2.70687
-3.84898
0.745958
1.7224
-2.64007
-6.27347
-22.5282
2.60328
-18.8848
-1.74992
-10.1482
-10.8775
1.63937
1.5794
-20.9566
5.41124
-12.3198
5.69014
5.19744
2.33122
-2.37455
-28.0351
5.21468
6.87089
10.707
2.60827
0.471167
2.66524
2.15067
0.0455355
4.87618
-1.11083
2.71308
7.98218
-3.34497
2.30902
9.59543
-2.262
4.23228
-16.9175
2.64097
6.85375
-0.294209
1.78367
-11.4998
0.0467599
2.02177
9.05906
-4.34177
-17.4971
2.44411
2.14332
2.26529
-16.3314
5.33341
-0.902441
-12.0099
1.74821
-16.6445
-2.95921
2.59958
2.5744
6.06813
5.27247
0.198386
-0.00946395
1.47548
-12.3438
6.76758
1.89893
0.590466
2.14897
1.31465
-8.28522
1.28371
5.06157
5.27774
-24.6398
-19.6504
-7.3234
4.1891
-1.58133
8.06207
7.10547
-13.0875
2.60714
2.00648
4.16094
-13.2791
-10.772
6.44373
-0.297254
3.51643
6.25419
8.33251
-0.455112
-10.1277
-8.45797
-13.5997
-2.3964
-13.3549
3.65159
3.56551
-24.3151
-2.01893
-16.2182
6.65281
-3.00618
2.36657
6.56438
4.06754
-0.287265
-0.691785
5.4088
5.24689
8.16002
-11.3942
-3.17889
-11.5243
2.22537
5.24255
2.25298
9.13721
4.36155
-0.00127673
1.11995
2.63469
5.38634
-16.8503
2.10774
7.33413
3.63661
3.48383
1.35822
-4.55381
-2.24861
8.14244
-20.5334
1.69674
7.77721
-13.5239
0.0162463
-11.6541
-0.770159
-5.3403
4.86745
7.81865
7.45742
-7.52321
-1.70014
-11.6465
4.2947
5.7836
-0.604012
-1.80585
5.26107
-9.09616
-4.66363
-8.83732
-10.3282
1.95323
5.66778
-0.0575474
2.16821
-13.3375
5.44651
0.0558942
10.6681
6.47691
4.0172
-0.506331
-0.198367
0.0207313
9.48303
4.46485
-0.903848
0.0715115
2.34327
-16.8991
2.24019
4.52621
-1.62507
-0.10352
6.71655
-3.93417
-13.9215
4.28115
-10.5575
11.5064
4.33038
5.04549
5.54133
-4.89711
2.1565
9.5542
-3.93074
6.79727
-6.49244
2.91359
-10.8511
-3.01096
0.748999
-16.1062
5.86064
1.69857
-7.90343
0.0230844
0.960227
8.33546
4.81966
2.96834
1.91082
2.09574
0.0186738
-3.87665
5.06974
-11.4845
7.96313
0.147703
-6.66076
7.99981
-1.72617
-0.183607
2.53527
-10.7204
-8.9227
2.57465
-2.90629
3.46557
6.54532
-14.0764
-4.44049
-14.3134
0.026035
5.87734
2.92213
-11.5786
-9.07751
2.17346
-9.38322
0.600209
-5.13585
-1.62366
1.91812
7.84144
-10.188
6.03241
-11.8669
-8.499
-2.61237
3.42029
-12.3998
4.88054
2.27219
-17.5429
1.75486
4.30234
-3.32787
-13.6946
5.04947
6.22852
3.20571
7.37571
2.19706
4.45601
2.70877
5.30838
1.09793
5.89117
-16.4584
3.50878
1.57497
3.14025
-1.29919
5.13735
-13.2159
2.29408
7.59124
7.22297
-8.73454
-5.39277
3.02589
2.14062
3.80066
5.17966
-7.67387
-17.0911
1.81332
6.81837
2.39735
2.27177
-5.68492
7.32911
-1.97958
1.18421
5.22525
-0.755302
-2.40751
2.73203
0.050995
2.20409
-15.6479
3.35488
-2.6315
7.088
1.95451
2.67499
2.77881
-5.28432
-2.25517
8.84659
3.02263
8.78707
-10.0809
4.57427
-0.173695
-12.1721
-3.25659
4.29604
9.50314
-5.67628
-1.87046
0.17535
-4.88474
4.19813
-2.91582
0.343664
3.37548
-13.5691
-1.00922
-2.49059
1.66272
2.22729
5.47038
-0.0614436
8.13244
3.55658
-0.15899
-8.5423
0.609906
3.11633
-17.231
1.22633
-15.8394
5.68118
-0.00999218
1.28213
-9.07561
8.02617
0.0388399
2.52107
7.85968
5.04088
-10.528
-10.6772
2.23956
2.08985
1.28191
1.23927
-7.90316
3.32511
3.79738
2.9673
3.25546
8.0672
1.18353
-6.62148
5.14096
2.23087
0.934837
0.495831
4.63671
3.65211
-11.0249
2.25262
-27.0434
2.0824
5.87014
3.01988
2.10808
2.29348
-12.8937
3.8427
6.10028
0.974431
1.03286
3.58594
7.8424
-2.72982
-0.828844
8.7433
0.484321
-9.00986
4.59904
-2.19974
6.12939
1.25053
5.20782
-26.0406
-11.9285
-3.80247
-0.0407648
-14.3079
4.03967
9.17793
0.396192
-9.33008
0.0611737
6.24287
-10.0731
3.58006
-11.3385
9.46148
-10.8752
2.61072
-0.800862
4.23856
5.66351
4.06753
-6.72777
-15.0246
7.80307
5.31954
-4.563
3.8228
-10.4251
1.81274
0.593386
4.11998
-10.8774
3.21174
6.51871
-1.36089
-3.00949
-0.150594
-8.84851
0.122571
-7.42209
5.01278
6.03673
-8.30746
2.34625
-10.3766
-14.8467
2.24569
2.1756
2.62096
5.20177
1.63402
-2.03227
3.96162
-5.65745
-4.5893
-6.96499
-0.373701
-8.49595
-3.37922
-26.6082
-4.88357
1.19035
7.53872
-0.627535
-4.38973
7.88932
7.12783
-9.20361
-4.1302
2.53475
-12.4267
1.50134
-9.34309
1.95786
-2.00104
-14.0567
3.61449
4.47251
-0.12824
-5.5143
-3.91447
1.17407
1.88275
4.29607
2.66429
-7.59795
5.84412
6.8681
-27.2799
-4.79108
3.16296
-7.22595
2.88914
-13.801
0.564985
-7.40406
1.30562
5.29454
8.83093
4.9219
-6.6139
1.27963
5.22646
6.78434
2.42122
2.88837
4.8588
8.24189
-1.60016
-33.604
2.33251
3.83203
8.00381
2.32048
3.22762
2.62798
2.92442
2.40743
1.3604
-2.75839
5.41587
6.08665
4.51411
3.79096
-21.347
0.65982
2.37253
-1.79642
-2.96254
0.701519
1.32174
-6.90711
-17.634
3.93718
0.589117
-12.2007
-15.0474
-2.31689
-1.05378
-21.0103
-4.85416
5.35585
-10.613
7.30381
-9.56269
-12.2952
3.67841
5.99732
-1.1497
2.05901
-9.01382
5.75376
-2.95465
-6.52086
-1.94063
-2.9828
-5.22757
5.23197
1.22204
4.14024
-29.1585
2.48333
-17.1549
1.21311
-0.83858
4.92069
-1.48813
-21.0794
-5.73055
7.25842
-8.42661
-6.34674
-25.6222
4.82645
-6.41274
-24.2387
2.43933
-0.34208
-31.2056
0.361339
-4.79595
5.68213
5.24418
4.12403
3.63162
-6.00046
0.494369
4.79123
0.548089
3.88486
5.07472
-3.96438
-5.40306
2.25205
1.46432
-2.04609
5.90238
3.39934
2.49472
5.28513
-3.65908
1.97811
9.32926
1.36088
-4.08273
4.49289
-11.8075
-14.4299
2.17053
-13.4229
4.78804
1.24459
0.517414
1.045
-1.69958
4.63385
-10.3178
-0.0155047
5.29275
-14.3746
8.01798
6.0606
5.7294
2.53251
4.82414
2.33616
2.13584
-0.301598
3.83491
-25.609
3.05691
-15.637
-0.671324
-8.65149
4.54567
-8.638
-4.36409
-6.84684
-27.1369
-1.46964
5.47977
-0.489042
2.70689
-11.0212
5.25398
8.9325
-12.8978
-17.2531
4.15505
-5.23073
4.63673
0.162123
-12.7747
4.60817
2.95046
8.09272
2.60771
5.21912
0.752062
6.03708
1.52881
6.13143
0.0733677
-3.48491
0.953556
-5.57047
2.62215
-39.9819
-17.8382
7.37875
5.25268
6.12741
6.43364
6.1507
4.97016
2.17682
2.89557
5.29103
5.25637
3.6608
0.30438
-0.683386
-1.11625
2.34813
3.18714
-11.9136
9.88178
-2.10855
1.25664
8.87973
7.01375
3.18216
-5.40967
3.95009
3.96913
-11.3908
2.31695
-11.839
-0.0286515
5.21184
6.03286
-14.3822
3.02929
6.00361
-0.0173492
-0.0756659
6.37235
2.39129
-1.90196
-15.8941
2.32198
-2.55881
5.41086
5.88965
-12.2122
-7.96923
-0.552304
2.2416
-0.571151
2.42544
7.76596
-2.16177
10.2519
4.61397
2.62029
5.19017
-10.3943
-11.4295
-6.8236
4.81902
-12.6996
-10.5422
-10.1411
3.77095
4.38301
-19.611
-1.75967
-10.6784
-0.702533
-9.54468
-24.7715
2.63538
2.37151
5.40489
5.36729
5.97072
3.62032
3.25359
-2.46918
-1.48858
2.23144
-8.47888
2.65554
2.52693
-10.7734
-7.32349
-9.78161
2.39272
-11.091
2.67335
4.01058
2.11682
-0.813795
1.81082
-0.967623
-2.39705
2.13288
-37.7905
3.05295
4.63243
4.65768
-11.7383
5.08573
1.15605
6.67223
1.94612
3.93616
-2.95825
1.13396
8.08232
9.81866
3.3542
-3.57092
4.52248
2.06709
8.13732
-0.414619
-2.95203
-10.4365
2.35691
-1.35984
-19.8566
5.23484
4.48353
-33.8957
-8.07098
-0.158506
3.74038
9.31885
-10.1669
4.93017
-13.5816
3.16144
7.61741
4.44307
1.58692
-8.94039
4.90831
2.54662
10.0163
-5.44774
-0.666874
3.81794
2.1966
-12.1212
-11.8214
-2.57116
6.0921
0.729008
-3.08436
7.17463
6.75089
3.7051
-6.22248
-4.19862
2.61239
3.55342
4.27318
5.83872
2.78672
-26.0097
6.39052
1.21952
-5.51241
0.283787
5.75948
4.60791
-16.0703
-23.4666
0.00620163
5.01384
7.62414
2.60532
2.07359
-2.51927
9.41445
-27.1772
-2.26167
8.25194
5.03144
-15.3465
2.16229
-9.94051
-0.410052
-1.35004
-26.4399
-23.3768
-6.28041
1.91622
0.285775
-12.8374
-14.4397
-15.8781
-4.07995
-13.4047
-8.47718
7.02004
5.39204
-4.25127
-11.2721
2.16221
2.53333
2.97419
10.1863
-0.8033
-1.12122
5.04452
0.254094
-5.97749
-0.1199
-0.386915
4.49412
10.4972
0.0561032
4.44085
-4.612
2.35518
-0.272407
1.4837
-0.00877695
6.50841
5.05511
5.47831
-10.7789
-2.7095
1.64504
2.75099
5.2177
2.47798
5.43586
9.55244
8.6368
0.35748
5.05705
6.36611
-1.00845
5.6289
-8.98556
8.48215
5.51291
1.90582
6.09535
3.86518
0.364657
2.07066
5.86103
-2.28006
2.951
-1.80083
-1.76668
1.10843
4.69893
-1.22315
2.40855
7.98092
7.92894
0.578276
-11.7743
2.52149
-12.9763
4.30588
5.26251
6.61007
-11.7623
5.28758
2.65918
2.22247
2.81709
-7.27532
-8.32931
-12.3664
10.1631
-0.0657948
-2.42273
6.53918
1.11215
1.32878
3.76884
2.34801
4.79573
-6.2793
0.743449
2.69528
0.371817
-1.01047
-0.062297
9.00522
6.96342
4.2546
9.12416
7.62268
-0.149719
-5.42246
-4.51946
-2.68085
7.99123
-10.7246
3.95525
2.22803
-9.75199
-0.444656
5.1036
-5.08123
2.26099
4.76572
10.6248
-16.1342
2.34134
-18.7906
3.25226
2.28556
-10.3524
7.68348
5.5174
2.82925
4.81103
-0.264957
-5.22658
-15.9754
8.61744
0.367525
9.9209
-17.1823
1.93691
-12.6555
-4.12424
-11.9826
2.65109
-2.80739
3.25643
-24.578
3.16818
-9.7589
-0.0137817
-4.92003
-11.6827
-0.223668
-7.11567
-12.1547
4.03118
-15.7327
-16.6875
2.19254
2.42647
7.98777
5.23599
1.95064
2.57522
11.8046
3.86731
-17.3686
-0.0590482
1.27397
4.85759
3.06319
6.52944
-2.22526
-2.16069
-0.420837
-0.0169072
2.54499
6.95105
-11.8251
-10.5752
-15.2391
8.76827
-9.18191
2.65475
5.76414
-19.2514
1.35351
-4.50293
-16.568
-15.2
0.53463
4.49402
4.14863
5.68373
-7.31887
-11.8132
-2.22419
-21.4002
-0.0871707
3.03294
2.6417
-2.23915
-16.4225
-9.05674
-15.9206
-4.13228
7.14572
-12.731
8.7091
-12.2509
-3.03387
1.48086
-12.2262
6.0994
1.42811
6.92023
-15.9202
-1.10247
-17.3936
5.41555
-11.6483
4.61294
-31.8455
7.32758
6.45858
-30.9461
4.85428
7.97456
3.46097
5.00115
-7.01004
-7.68437
1.88217
-1.85376
-3.27071
-0.988573
-1.7073
2.28739
-19.929
2.40578
0.813298
0.578624
-0.943123
0.268885
8.45149
2.36862
0.0185814
2.16524
5.22352
-3.855
0.0926165
3.72047
-0.543871
2.18183
0.767454
2.26973
5.22883
5.15222
-14.3757
5.37559
6.01737
4.16648
0.636153
1.30985
2.80504
2.58377
-2.35924
-10.8964
-6.81099
-4.13308
-10.1377
0.0147287
-4.27863
1.0744
-11.92
-1.07563
-12.2365
0.759283
-2.35724
3.34426
-13.2346
5.52593
11.7
3.31137
-4.73617
3.70428
2.32534
2.51556
0.430805
0.0938956
-6.4524
2.10753
5.51707
0.0594176
7.67325
0.372713
5.13413
0.870826
1.99062
-12.656
-3.69651
9.9437
-15.4978
5.27802
5.21898
6.48183
1.95585
5.48971
2.49493
-12.6484
3.24446
-16.4493
-20.4947
5.60326
5.03435
-6.13747
2.31615
6.43876
-11.3884
-4.98727
1.02476
1.15245
5.1689
3.91366
5.77612
1.46279
3.30009
-7.11561
-0.330416
0.426804
5.74348
9.8398
-0.362408
-28.214
-12.3997
1.68446
2.23591
2.21995
-4.76337
-2.05677
1.32705
-21.1478
1.89313
9.85855
3.54699
-4.53904
-10.666
-8.96353
-2.36583
-13.7594
-3.94945
-10.2098
6.63076
3.91867
-0.707776
9.32078
-0.0520991
-16.2232
-4.12498
-21.3214
3.59123
-10.6096
3.17163
2.94158
-11.1571
0.720797
-5.22302
-17.689
-10.4096
6.0592
-12.4754
-11.2117
-15.4424
5.23381
5.05965
-9.10262
5.83461
4.71539
7.03445
7.93617
3.52617
2.28793
10.2653
-15.55
2.18649
-5.11237
-9.29029
6.80938
-7.68447
8.30497
3.72554
-3.47192
-9.74089
-12.7389
5.82971
-6.65929
-3.87274
1.34409
-1.00606
-4.26801
4.27777
2.5185
0.717235
8.76068
-11.9026
-3.87639
1.26359
2.11248
5.06084
-2.40191
11.5275
-12.9109
0.62756
4.85533
-2.94604
5.19389
3.3182
4.49509
3.40206
-3.97674
-0.263303
3.67495
2.44344
-21.9035
-0.438875
3.04655
5.19459
5.692
-21.3209
2.22748
-4.64418
4.19626
2.54559
-7.58121
5.1078
-7.23185
5.00295
5.5181
-14.7051
7.42541
-4.62508
9.82951
3.85175
-9.31339
0.0498652
-2.08089
4.23023
5.78291
-5.98168
5.76424
5.44838
-3.62034
0.979784
2.39019
0.916208
-3.77006
-14.8118
-1.39465
-10.5661
5.24439
-10.2526
-12.0119
0.314992
6.40465
6.04085
4.70465
-9.9945
3.80504
2.48935
2.42057
3.97092
-24.4866
-22.0616
8.5716
-0.444026
-6.92696
-2.02835
-21.6438
-17.4621
5.33804
-14.7044
2.39867
5.80469
0.626142
5.2676
-9.20392
2.3111
9.22674
-6.88151
5.71199
2.07256
-17.8059
3.21979
2.48462
0.933169
9.30171
4.25515
-22.2659
9.56685
5.4515
6.59669
-19.8045
-10.3625
-2.77127
-3.86205
-14.19
-9.31954
-3.01258
-8.52401
2.00511
2.55871
-0.84303
0.41504
-18.7397
-0.889798
6.01186
-27.7967
2.12805
4.29796
5.23329
2.17073
-1.62177
-9.07637
-13.7972
-8.97044
1.96236
5.99841
-9.95922
6.96655
-10.0153
5.19708
-2.39623
-9.7207
-5.06167
4.36675
3.83194
2.74077
2.58954
2.62592
-3.62333
6.22876
7.16972
-2.75883
-9.58696
-9.71474
5.23527
1.83341
-5.70365
-6.83398
1.81953
4.73637
-2.85969
3.04007
-0.103918
1.37623
3.8193
1.69757
-8.25635
-7.73082
6.8585
-9.11943
4.69637
0.0451437
5.04535
4.58414
4.0922
2.89845
-7.6113
-9.67984
-12.5259
-11.5364
-7.24943
-4.32259
-14.0468
-23.4758
5.01596
1.52491
5.21283
-8.11681
-2.91627
-5.56821
-11.9724
4.50964
-15.4384
3.79088
2.44394
-6.39243
-15.647
-8.86686
2.69708
5.43035
-13.6001
2.34222
-11.5483
3.50234
-1.62082
2.03549
-11.1469
5.81307
2.4161
-0.101889
5.1552
3.44781
5.0475
4.24832
7.27444
-7.32168
0.617543
-5.1186
1.26743
4.28458
2.49033
-8.78773
-6.59687
-7.95273
0.0103258
2.27825
-6.7741
9.62461
-7.81388
4.48107
2.40161
-4.1589
1.09453
1.67463
-2.25332
2.25087
2.22022
5.34385
-11.0755
5.24987
-5.88305
-6.30526
-20.2851
1.13151
-7.0105
4.25099
9.10831
5.34937
-3.40994
-8.44556
4.83116
-16.9929
-2.96201
-10.3837
4.18964
-3.45832
-10.5545
-7.10863
-0.494133
2.5917
1.68908
-11.1704
2.53935
5.81518
-0.493828
-5.17578
5.80234
-4.09027
-18.5782
0.9203
0.782821
0.074574
9.44941
-9.53894
2.12005
-2.75133
-1.16139
-0.390687
3.207
1.21051
1.42744
-1.72645
-1.43365
1.98579
-1.6144
6.15575
3.14709
2.49539
-6.07194
1.96728
9.41965
-20.9769
4.41638
4.25316
1.93015
2.47563
2.41017
-12.0427
2.60891
5.16316
4.3422
3.82433
-6.30265
5.80775
2.2871
7.61071
-0.902892
5.25731
6.23227
5.07549
2.39448
-10.8356
3.11731
-19.2084
0.0881309
3.70729
5.07639
2.13305
7.01758
2.30707
7.74368
-19.6388
4.60908
1.12734
2.4514
-19.2964
5.19504
1.9301
3.66363
9.14217
5.40491
2.4705
-0.260151
2.43352
5.15453
-8.09898
-13.7065
2.79015
0.463563
6.11873
-9.13926
7.23644
2.83233
11.9805
8.24263
-1.07889
-2.59498
-20.3912
2.01094
8.4485
1.1546
1.53201
3.12573
10.1952
4.02251
2.44076
9.44006
-1.27993
5.07824
2.61279
4.26985
1.33563
3.25572
4.31499
5.56174
0.0311673
-19.3731
2.63447
-8.94865
1.74249
-10.0938
-3.03655
7.65045
6.79998
0.426354
-5.45865
3.47439
4.83881
3.08251
2.88845
4.23636
-5.0491
-10.7645
-11.9761
5.49779
-5.77518
-7.30958
3.52357
0.726145
2.38343
-0.426414
9.48022
-27.2229
6.97395
-6.97351
9.4778
0.0254282
2.04758
-5.66985
1.58295
3.2745
5.2224
-1.3221
-6.94839
-17.3379
-7.31048
6.20477
0.370814
1.79355
-25.6488
-5.8544
-7.47539
4.23747
-2.46192
0.00855477
0.323318
5.2911
9.90699
-8.82405
1.82814
2.67908
-2.31677
3.79853
-25.1186
-1.46447
-6.42158
-9.67332
2.0311
-7.83187
-1.51158
-1.54906
-8.69273
-5.24316
1.82648
4.72083
4.70942
5.00261
9.36245
-20.7143
9.99
-10.9525
9.15338
-5.81
-1.68167
8.86023
3.53603
-6.49699
1.72748
2.74239
2.85022
-23.7567
-15.2263
2.30176
-0.304789
-1.33803
-0.042121
1.55569
3.4324
4.23954
-7.38743
3.58407
-5.77764
2.32784
-26.2022
-10.6936
2.64289
-19.9025
-4.19984
8.30103
-6.14971
8.6784
2.52471
-15.6828
3.32146
-2.00787
-4.61105
4.9511
5.52946
10.1635
4.7633
5.38386
-2.11862
-11.954
9.83386
9.9746
5.84626
-1.03567
-6.4848
-19.8464
3.01789
-0.44746
1.59005
6.02872
-10.5315
-8.59495
-28.0025
8.99166
1.3065
2.25345
-10.0316
2.01065
4.2775
11.2964
10.492
3.47779
2.75954
-0.123259
-8.54452
3.79907
10.7573
-2.40347
-4.25651
0.141142
0.119139
2.36984
1.09527
0.583017
2.44618
2.07978
2.59048
0.121728
3.1239
6.29395
-7.96182
4.71668
-9.44051
0.330662
8.36012
-8.58829
2.63421
-6.98945
3.63739
3.05847
-9.13522
-8.82584
0.803909
2.49943
11.5642
-12.8534
-10.1197
-5.26842
-0.908624
-5.20499
-7.3418
-9.26857
-7.91451
-0.0545025
-9.15607
-1.73059
-1.69602
2.98332
2.33281
2.13808
11.1514
2.24809
2.56208
-2.13174
2.61551
-11.7163
1.74459
7.63054
4.87916
2.65898
-5.62085
4.23479
4.98212
-1.98212
-9.60701
-9.39925
7.6769
-0.571735
5.12699
1.91586
7.34841
1.80487
-8.77535
-1.65465
5.42627
0.321498
5.19337
-1.3423
10.2909
-9.57827
0.703196
-21.6049
4.01681
-8.82515
-1.86735
-9.58977
2.27093
-5.51611
-5.33268
-25.1606
3.74251
2.55987
-2.72399
-1.81791
3.11462
-20.2167
2.43154
-9.37667
5.41311
9.58433
1.73931
-11.9318
2.58527
2.01715
2.61713
4.28593
0.192324
-16.2996
-1.59318
-0.0275842
-5.57549
1.74765
-0.547769
-14.9248
-17.176
2.6283
5.25959
-1.39216
-8.90646
0.212618
-0.259837
-5.69449
1.12553
-6.53429
-8.61382
6.04647
-9.98238
-3.58976
-2.69495
-22.7105
-13.6189
-20.966
11.7879
1.70766
-1.27131
3.67177
9.34685
8.38149
-8.05912
2.57057
5.21616
-7.83315
-2.39318
9.46788
2.27443
0.360574
11.7536
0.541295
-6.70845
2.3771
7.77052
5.41264
2.55555
7.48488
4.53606
0.802694
1.87899
3.69902
2.44874
-13.4437
9.10739
1.04369
-0.414642
0.161722
-2.20741
1.29066
-9.928
1.9694
2.50532
3.29245
5.73071
3.43765
-16.8582
8.08161
8.74415
-10.1059
2.46633
-5.51728
-15.0131
2.47849
4.25269
-19.1329
-0.57971
1.4078
9.98928
-16.7631
4.15264
4.79319
5.03319
-0.105358
2.87469
-6.36476
0.651271
-3.39154
-2.6521
-26.8426
-5.47061
2.20015
-10.0051
5.40417
-5.67585
-27.5408
2.73184
-11.6482
-9.18582
-14.6072
3.6688
2.72475
-13.3784
3.63274
-5.9808
1.81244
-12.1075
-5.51954
5.22065
-16.1429
9.59752
-0.0468299
10.5529
-0.0338919
-10.9758
2.1226
5.06478
2.2612
-7.84872
3.06136
0.981694
2.04174
0.875957
11.9308
5.07914
-0.330833
-0.369682
0.0495661
-4.58296
3.41091
-5.4931
4.28825
-11.3035
-10.0513
-11.1066
-6.63988
0.752085
-11.4768
4.34837
2.38108
8.35256
9.94447
-13.9397
-16.3228
-0.875038
-2.47109
8.72125
-4.83214
0.282348
3.57054
4.58286
-10.5064
-3.40002
1.69252
2.27137
1.06222
-10.7426
-5.92958
-21.4869
-1.4709
-6.89634
0.611089
-6.75448
-6.14334
3.59619
-7.20449
-9.31667
0.816171
-2.05312
10.2645
-1.29609
5.1696
-1.74368
1.49673
1.56536
0.0192549
3.06287
-9.30865
-10.0768
8.64543
5.13525
1.67549
-12.8624
10.8753
-8.97203
-10.407
-11.6943
-1.67927
-8.5947
-10.7263
7.53837
1.43494
2.43358
3.44161
-10.5727
1.36886
-6.8482
2.62482
-7.27066
1.81409
3.17804
3.75316
-8.72171
-11.6059
-5.8216
0.238722
-3.197
-2.77455
10.2564
4.44213
-7.33082
-2.1226
2.83271
8.04159
0.247096
-11.0241
-1.28702
6.50155
2.63815
-0.434527
5.20309
-7.02092
8.52539
0.678367
5.68907
-14.1039
0.00797825
-0.0582222
-10.6972
-2.52171
3.23835
-11.9985
-8.20472
4.61057
-5.99689
1.42365
6.79248
4.77003
6.59468
5.13466
-1.65269
0.310659
1.92907
3.03716
0.0142353
4.65714
-0.558492
8.6283
-9.67807
6.38494
-4.5299
9.4841
-10.7841
-1.20347
9.24029
-9.72164
-1.05971
-17.4462
6.75151
9.06868
5.37584
-5.26159
5.23096
5.50481
-2.35603
3.84276
-9.07174
6.1019
-9.64755
-16.1946
-16.4185
-16.6427
5.40777
-3.76087
-22.295
1.65789
8.93407
-0.199063
1.20039
-17.148
-1.97888
-0.183072
-0.691174
5.18201
3.26782
-23.5633
10.5455
3.61023
7.76605
5.91015
2.20838
-1.05361
1.87078
-5.19632
0.686937
1.18245
0.901267
0.196032
3.1562
-12.6275
9.48302
5.91106
1.48212
-13.1379
2.90102
-10.3405
4.49969
5.18267
2.45311
0.13496
5.17902
3.62641
-0.911127
-11.8466
-0.602492
3.87594
8.56053
-12.3454
9.3408
10.6865
9.71041
-5.62177
5.32761
-13.0353
5.19795
5.23606
6.61835
3.91858
6.56007
11.2263
5.18085
-12.1522
-10.7456
-9.54626
11.1338
1.88959
-7.63276
-9.02106
5.79104
8.16574
4.23529
1.62361
3.322
7.57254
-9.07358
3.1137
-8.78919
3.64463
-9.44173
-7.4612
2.14393
-10.9792
-9.8759
-22.0978
0.537447
-7.5894
5.2341
0.921464
2.1444
3.3611
-15.9341
-2.87933
-0.216605
-13.0101
-14.3868
-11.7278
6.26478
7.7095
-9.3679
4.98055
6.19071
7.48046
0.447728
-5.76135
3.92335
-13.2679
6.74532
-10.841
6.55151
4.56118
2.37603
6.38999
2.70583
5.642
1.68024
3.71208
0.304841
-11.8247
-27.069
-6.46122
5.51796
-7.21638
-9.92718
-7.01945
8.54966
5.28215
3.45547
1.09879
7.30075
-6.01327
3.17337
-34.5087
-0.321701
3.28584
-8.647
-17.1615
-2.47078
-14.0619
2.18151
-7.87574
-30.6101
-22.7822
-12.1961
2.30401
9.07689
10.1872
8.27356
-7.11627
3.16666
-14.6722
3.43116
7.93826
2.4881
5.44441
-6.7127
1.89379
-0.031969
1.44235
6.11755
-1.24155
3.94001
-17.3657
0.621855
-14.5535
5.61299
3.99781
5.22436
-17.2644
3.3841
-26.1672
-19.7572
-17.7712
1.78132
8.78281
-7.56107
-1.33017
-8.46378
4.49981
5.20294
3.14153
4.23795
-18.3771
7.46263
8.20152
-10.3949
0.825733
6.63924
-8.4361
-19.3457
1.79453
6.33843
6.97938
-12.8869
-1.15788
1.32423
8.94258
-26.3336
-4.4417
1.40535
7.77216
1.75829
0.486489
-7.89604
5.62795
4.78809
5.95415
1.24662
-6.73191
4.00938
10.9235
-11.919
0.604355
1.62143
-24.3159
1.68172
2.03258
-8.90785
-1.51257
-12.3149
4.35883
-10.6093
-1.772
5.36414
6.59431
3.46075
-4.67283
-4.11865
3.40899
-17.8191
-2.6576
-0.473674
1.75479
-28.5412
6.29752
3.64679
1.5391
2.69502
8.28029
-3.99457
-0.0163234
5.48534
-16.2254
4.39085
-0.0859322
1.43345
-4.73188
4.87112
0.0792093
1.99906
3.82037
-6.38804
5.74633
-4.2752
2.90469
-7.63284
-0.399885
5.24543
-21.3491
9.61684
-16.2706
-14.3959
-15.1346
6.42511
3.70638
5.16651
-10.1893
7.69692
-10.4341
-0.658596
1.25394
-15.7545
5.27354
2.00664
3.0215
0.81352
-10.0752
4.81194
-14.3705
-7.89716
-0.0214879
-9.19087
-10.9954
1.40374
8.28987
-5.55186
-13.5267
5.23296
-7.65397
6.92037
-5.21504
1.91224
4.82284
5.42567
1.78007
-9.21176
-3.8267
1.66738
2.92504
3.45539
-18.7429
-8.16545
1.65328
-3.28316
1.82758
11.3607
3.25158
5.11508
6.84481
2.58493
5.76009
-6.24057
-11.9494
-5.99912
5.21396
10.9424
3.51758
-1.50513
5.93201
1.06924
1.5066
-10.2329
1.56945
2.36928
9.63375
-8.12703
-1.65698
9.09227
6.04632
2.30574
3.977
5.25499
2.66323
-23.4354
-4.35552
4.00624
-12.0207
-11.2893
4.86282
-5.07717
-14.0214
-5.71859
2.86521
3.07065
3.77896
1.50613
5.31137
5.44685
2.25611
4.03873
3.41375
6.51665
5.41521
-2.09889
1.61311
3.62089
6.14134
3.72841
-4.16669
1.31367
1.44199
-14.6201
8.23267
4.4182
0.202421
-10.5336
1.66538
4.52979
-0.35262
3.23878
-13.8897
2.27957
-6.4351
2.35796
-8.89054
0.957976
-1.40171
-4.24408
-8.76507
-17.7763
7.12286
-8.97722
-10.3486
-7.6846
8.50245
-7.56679
2.46975
2.76046
-18.7265
5.49971
5.17847
-0.944116
6.33033
3.02975
1.82338
-10.493
-9.60511
0.541178
6.5034
-1.82041
-13.6459
-26.3207
-3.71635
-10.2893
-7.73464
-9.76747
3.9961
3.35369
5.21968
4.78133
-3.80896
-21.1843
6.48092
5.02189
-12.5728
1.59222
-9.5329
0.534098
1.2481
2.42595
4.94779
-5.62614
-7.04949
-6.71764
3.00603
-9.0344
-11.4986
2.39857
-6.03691
-13.6323
-20.8583
-8.08027
2.25629
-9.62575
1.80527
-13.9735
5.36928
5.08218
0.897794
6.54956
-6.98315
8.15813
-0.946096
2.0163
-2.17724
4.04073
2.45666
-11.7565
-10.2228
5.50979
6.62452
8.69255
-11.6216
-13.3502
-5.02857
4.35057
0.081815
-17.0309
-4.49091
-16.7046
2.47307
-14.1127
-0.991231
-6.11927
4.21245
7.53456
2.73113
-0.709896
-6.1015
-4.08962
-12.4232
7.53107
10.1402
-11.4558
4.06884
4.09677
0.0115142
-23.1721
6.34699
6.54591
-11.1814
-7.39622
-5.536
-6.5639
-1.85502
-17.9801
-1.342
4.79448
-9.09459
5.97176
-16.9767
-22.2242
5.28658
-1.47574
-16.7281
2.07184
5.34979
-17.1789
-0.239697
-23.6828
-16.0064
-16.5036
8.88384
-10.7727
0.991866
-14.1053
4.92278
-15.3062
-5.48448
-8.37667
-22.5631
0.0194084
4.23676
-0.0255055
-16.8619
3.35755
-0.0121473
-3.69038
-15.1826
-18.9581
-0.204105
1.57481
5.16604
-14.6059
6.64283
-3.67414
0.0386988
2.12652
-5.54436
-4.288
-17.8668
-6.51641
2.52328
3.49104
-14.3257
0.883675
-2.76586
2.4562
-17.2985
5.39836
-16.1732
4.26725
1.97121
-8.50547
-5.25417
11.8598
-21.4628
-17.9239
-14.0153
-2.49331
5.22648
-9.3031
-5.25778
1.07989
-26.8125
-11.2695
-12.0267
-17.2094
2.70548
-28.0752
2.34545
-24.8387
1.57714
3.4018
2.18916
-2.39764
0.0587419
5.03263
-14.2561
-4.4334
5.76775
1.39215
-14.7675
0.796849
-14.0937
-2.39342
0.512027
5.32131
-7.50927
3.72641
-13.3402
-11.6938
-27.1499
-28.6383
-10.2544
-2.77546
-4.35255
5.01858
3.56569
-13.9102
3.35672
-4.65569
6.52178
6.5344
-18.8649
2.33901
4.81855
5.23465
-0.406858
-5.41231
-8.25542
-8.05837
5.20192
3.00492
-2.99615
-20.2131
-1.03906
6.55261
1.07052
-2.96602
2.02717
5.80251
-3.36441
-3.69555
-25.3717
4.97658
2.56958
-5.21475
6.73613
6.22036
-12.9868
-6.93049
5.10628
3.90127
1.49084
0.850291
-0.913894
-6.87002
-9.86149
-6.70798
6.49565
2.65194
4.71237
-0.489333
-9.6563
-5.22024
3.526
-6.96785
-1.2025
5.17099
5.90233
-6.87421
4.78343
1.36621
2.88942
3.56105
1.3542
3.84496
-0.0661887
5.38528
4.50866
5.32142
-10.6054
5.99664
5.13404
5.06698
4.67746
-4.25225
0.474552
0.954694
-1.39519
5.31344
8.12195
-5.4459
8.50891
-6.33884
-12.1189
3.92653
4.92294
-7.2542
1.41401
-13.4588
-6.60323
-1.32604
-9.04419
-7.99171
0.658885
3.0013
10.2939
4.39768
-3.92967
-11.1451
3.17102
3.87032
-16.5662
-7.03193
-4.21775
-3.58826
-11.9855
-11.7879
5.18053
-23.3531
3.76103
0.565627
0.541141
-5.47725
0.860404
2.49863
-1.38681
5.37382
-0.66519
-4.97124
-1.47256
-13.8067
2.32389
4.03524
4.22745
-3.17122
4.76616
-0.0884817
3.57042
-0.366821
5.03962
3.15638
7.60375
5.16429
-5.51163
0.603527
-0.431594
-4.11975
-11.3674
-20.8584
-2.31915
-5.78336
10.5495
2.29525
-3.66184
6.5572
-8.55919
-0.811611
-22.006
-10.3813
-11.561
-5.5318
-2.72688
2.06834
-1.88833
-5.14272
-5.20838
-6.87232
-1.81108
-9.73616
-2.11931
4.85786
-9.34785
-8.84222
-3.1214
2.07693
-2.72778
5.12144
6.85183
-4.32283
5.22962
0.454597
4.59358
8.52127
-8.8065
4.36133
2.45835
3.63465
6.08501
0.947761
4.57821
-9.6398
4.82239
6.84363
-7.08687
-17.9404
-3.81575
-2.20853
3.96596
-4.5725
-6.2384
-4.62718
3.59395
-13.2002
2.48489
2.00288
5.14381
2.33348
-12.1509
-18.887
-25.4929
-4.62918
7.75441
9.47595
5.35922
10.8946
5.574
6.42039
3.08257
1.60775
6.12207
-3.73449
3.94808
0.637065
-12.0483
7.10076
3.62526
-2.56408
9.27625
1.85833
-8.55682
3.98364
3.65348
6.17734
-16.5591
5.30009
9.10702
-8.71661
-11.9916
-4.646
2.63133
-14.5097
4.82659
1.26343
6.40234
5.20104
-8.66786
4.77947
-0.476734
-11.1186
-11.866
-4.73495
4.06477
-2.71994
5.32714
3.32701
-17.4723
1.65964
-5.57351
-1.85148
-4.59807
-13.2232
4.67681
2.62723
-15.9711
0.0342885
4.70333
2.58167
-6.06592
3.96913
-9.87137
3.86153
-16.3964
4.58786
2.89783
-3.13303
4.26001
4.09823
2.4901
3.10714
-14.1662
10.5441
-1.7356
-20.9061
4.1734
3.18953
-17.1456
-2.19647
-10.5853
-0.786555
0.263666
-2.02706
1.38161
0.836338
10.9687
-23.2831
-8.00635
1.81806
0.187034
-0.747413
2.40988
3.47635
4.7343
-14.7182
2.55285
-13.2685
-0.758352
2.55201
3.09518
4.64502
0.0781289
0.0964643
0.184693
5.19945
2.26495
2.45121
-16.8116
-0.161908
-0.0273347
5.50457
-18.5796
1.22327
-15.6777
3.89137
-18.3039
0.848362
5.62506
4.95224
4.27081
-9.04061
-9.60608
5.30855
-1.80785
6.03356
4.03527
-3.59186
4.90138
2.1682
3.03283
2.38272
0.453237
-2.78239
4.74758
-7.53205
5.95715
2.68235
11.0657
1.68422
2.98596
5.29257
2.33904
2.54535
5.10399
1.11357
2.11995
-3.27574
-18.2505
3.71303
2.21105
-0.152048
-7.59653
-0.210413
-8.54824
-17.7506
-0.254874
5.10838
1.3298
4.85568
1.61327
9.2426
7.73441
3.44977
1.72364
3.3409
-14.7686
5.70032
2.77566
2.13213
2.03027
5.67212
4.18008
-4.62595
-7.50822
-5.35077
2.23611
0.155696
-2.72099
5.27562
-7.64643
1.80869
-8.89962
3.98994
3.79419
-6.34685
3.6425
4.66926
4.29464
3.37662
4.99378
2.33793
-0.157783
4.46647
1.72508
7.40035
-16.6405
6.29157
4.25211
-18.9928
-3.837
0.016668
0.426449
-14.7556
-8.83396
5.22345
6.98621
5.93622
6.64028
4.60494
5.92189
3.62725
2.26792
3.78443
2.23503
2.34285
3.32974
0.706387
8.08312
2.42563
-25.2428
4.75863
6.98388
8.0325
-19.1971
0.977117
-4.76349
-12.0936
3.91564
0.47175
-8.75061
4.19641
9.06436
-13.4851
-13.3849
-12.7508
3.68406
1.93855