/*--------------------------------*- C++ -*----------------------------------*\
| =========                 |                                                 |
| \\      /  F ield         | OpenFOAM: The Open Source CFD Toolbox           |
|  \\    /   O peration     | Version:  2306                                  |
|   \\  /    A nd           | Website:  www.openfoam.com                      |
|    \\/     M anipulation  |                                                 |
\*---------------------------------------------------------------------------*/
FoamFile
{
    version     2.0;
    format      ascii;
    arch        "LSB;label=32;scalar=64";
    class       surfaceScalarField;
    location    "8.3";
    object      phi;
}
// * * * * * * * * * * * * * * * * * * * * * * * * * * * * * * * * * * * * * //

dimensions      [0 3 -1 0 0 0 0];

oriented        oriented;

internalField   nonuniform List<scalar> 
20045
(
0.539279
-0.614158
0.0748789
-1.12229
0.443105
0.679189
0.258548
1.79715
-2.0557
-0.165712
0.290735
-0.125023
-0.963819
0.835181
0.128638
-0.534911
2.11713
-1.58222
-0.887165
0.180524
0.706641
0.0547625
0.500946
-0.555708
0.519924
0.442011
-0.961935
-0.733802
-0.172172
0.905974
0.232887
-0.430643
0.197756
2.33074
-1.12934
-1.2014
0.416964
-0.412711
-0.00425335
-1.22816
1.00145
0.226709
-0.187224
0.947316
-0.760092
-1.05133
0.317524
0.0638621
0.0639931
-0.127855
1.29094
-1.55413
0.263188
-1.70434
2.47209
-0.767751
-0.772937
0.00202462
0.770913
-0.724884
0.578438
0.146446
0.147396
0.269569
-0.196519
-0.925775
0.586619
0.948718
-1.53534
0.847945
0.139196
-0.987141
-1.02036
1.60697
-0.252475
0.269227
-0.0167517
-1.13061
2.14065
-1.01004
1.74976
0.0350267
-1.78479
-2.04384
1.06732
0.976528
0.133872
0.265771
-0.399643
1.26828
-0.911639
-0.356639
-0.816442
1.50773
-0.691289
2.06912
-1.17687
-0.892252
-0.634862
0.689625
1.74909
-0.825969
-0.923125
0.566334
1.71085
-2.27719
-0.0718313
0.437733
-0.365902
-1.81862
-1.52858
3.34719
0.630454
0.546822
-1.17728
-0.0366181
0.594089
-0.557471
0.182729
-0.256972
0.0742427
2.5717
-2.55152
-0.0201761
1.44313
-0.490756
-0.952378
0.635169
0.807965
1.07916
1.25158
-0.232032
0.532664
-0.300632
1.0019
0.691708
-1.69361
2.45507
-1.88873
0.124404
1.77195
-1.89636
1.31801
-2.20044
0.882424
3.35724
-2.96231
-0.394923
-1.38018
-0.802356
2.18253
-0.101591
-0.340386
0.441976
2.01474
-1.02498
-0.989754
-0.720199
-0.243621
0.444068
0.981414
-1.42548
3.89015
-1.12277
-2.76738
0.835514
-1.65196
0.942991
-1.49326
0.55027
0.211223
-0.255703
0.0444805
-0.609864
1.55286
0.664411
-1.75891
1.0945
-0.517471
-0.207413
1.00213
0.275031
-1.27716
0.366669
1.75019
-2.11686
0.0903204
-0.314
0.22368
-0.695775
0.109124
0.586651
0.916937
-0.397013
0.680978
-0.749612
0.0686341
0.204673
-0.114352
0.459039
1.5557
-0.2693
-1.06748
1.33678
0.0261554
-0.10012
0.0739648
0.759089
0.877578
-1.63667
1.25091
-0.806838
-1.28837
2.04745
0.541064
-0.728288
-0.117328
-0.38913
0.506458
-0.0571282
-0.390595
0.447723
0.932026
1.06936
-2.00139
0.900857
-0.760517
-0.140339
1.53803
-0.873623
-2.38416
0.410627
1.97353
-0.00505985
0.544339
-0.421372
0.562715
-0.141343
2.93674
-1.41159
-1.52514
-1.59323
0.0521103
1.54112
1.0165
0.201511
-1.21801
-0.854258
0.7142
0.140058
-1.19267
-0.348062
1.54073
0.828422
-0.187942
-0.64048
0.4387
-0.651458
0.212757
-0.220107
-0.812443
1.03255
0.648725
-0.697198
0.0484728
1.24259
0.521002
-1.76359
-0.225433
-0.0270422
0.00459675
0.346904
-0.3515
1.28204
-0.651581
0.050944
0.126217
-0.177161
1.19513
0.55396
-0.48711
-0.741052
0.433897
-0.4293
0.270868
3.61929
0.0855742
-0.506947
-0.19742
0.248364
0.436271
1.21992
-1.65619
2.87689
-1.2105
-1.66638
-0.349359
-0.530978
0.452978
0.077999
-0.277091
0.352679
-0.0755881
0.983308
-0.821518
-0.16179
-0.554497
0.452906
1.46722
-1.9142
0.446984
-0.238067
0.375897
-0.13783
0.0567862
-0.33911
0.282323
1.11001
-0.262063
1.5324
0.536725
-1.21211
0.942815
1.17463
-2.902
1.72737
1.51035
-0.219403
-0.1663
0.377523
-0.85732
0.693942
0.163379
1.05827
0.122052
-0.659032
0.536979
2.79574
0.561498
1.109
-1.47814
0.369141
1.5838
0.17339
-1.75719
-1.87369
1.50624
0.367449
-0.517066
-1.01973
1.5368
3.78886
-0.993123
0.076435
0.456229
0.0103725
-0.0473605
0.036988
-0.0329871
0.0130234
0.0199638
1.15017
0.792839
-1.94301
1.22392
-1.12235
-0.101567
-0.30992
0.112208
0.197712
-0.382241
-0.148736
3.12823
-1.9536
-0.731165
0.754544
-0.0233785
1.21627
-2.04153
0.825257
0.224281
-1.60446
1.15283
0.368047
-1.52088
0.454663
-0.511791
2.22579
-0.312821
-1.91297
0.56855
-1.66211
1.09356
2.39873
-2.1836
-0.215135
-0.283877
0.383159
-0.0992817
0.0198949
1.93874
-1.95863
1.89278
-0.143021
-1.64481
0.045385
1.59942
-1.01487
0.747667
0.267204
1.75366
-0.82163
0.271106
0.629751
-1.25954
1.50905
-0.249508
-1.55814
1.81669
0.0168297
-0.441477
0.424647
-0.43347
-0.156149
0.589619
-0.0424333
-0.416259
0.458692
1.08859
-0.281012
-0.807575
2.5964
-1.24712
-1.34928
-0.498215
0.455782
0.27114
-0.86664
0.5955
0.220266
-0.0375364
-2.69145
-0.941158
1.28524
-0.344086
-1.26833
0.975152
0.293176
-0.0237999
-0.100956
0.124755
0.340777
2.05795
-0.0359764
0.00298931
-0.119136
0.129508
-1.3716
0.112055
-1.48282
1.85744
-0.374622
-1.34179
1.48843
-0.146645
-1.15278
-0.747744
1.90053
0.135642
-0.213884
0.0782422
0.802635
-0.901266
0.0986307
1.61111
0.214836
-1.82594
0.00854275
-1.50442
1.49588
-0.655032
1.80787
0.400814
-1.14999
0.749171
-0.538703
2.00592
-1.60883
1.07177
0.537064
0.11191
-0.135833
0.0239229
0.759183
-2.30658
1.54739
-1.72735
0.59674
-1.3322
-0.483023
1.88914
-1.12795
-0.76119
-0.702773
0.666155
0.337097
-0.358628
0.0215305
-0.8866
-1.66013
2.54673
-1.63628
2.40398
-0.767708
2.90122
-0.94528
-1.95594
0.0498637
-0.431633
0.381769
0.597268
-1.87493
1.27767
0.431626
-0.198739
-1.32206
0.804992
-1.31832
-0.446522
1.76484
0.238646
0.0624412
-0.301088
0.190532
-1.13169
-0.0614764
0.195348
1.68915
-0.105344
-0.350493
0.278662
-0.387831
0.489092
-0.101261
0.0510557
1.03753
-1.35453
1.9518
0.483331
0.254342
-0.737673
-1.44495
0.298095
1.14686
1.98731
0.913914
2.4234
-1.66421
1.29934
-2.19742
0.898078
0.443782
-1.60757
1.16379
0.107441
-0.880379
-0.991581
1.42785
1.28402
-1.81893
1.03886
-1.35013
0.311263
-2.24205
1.31972
0.922336
-0.118374
-0.735883
0.383886
0.327496
-0.711382
1.31684
-0.383442
-0.933401
0.190079
-1.33711
1.357
-0.550197
-0.180968
1.27808
2.4894
-1.90973
-0.579673
-0.025844
-0.302668
0.328512
1.30745
0.177245
-1.4847
0.0187724
0.353902
-0.372674
-0.394673
0.931273
-0.5366
2.03878
0.897954
1.19213
-0.79132
-0.178636
0.88676
-0.708124
1.70615
-0.489878
0.245642
-0.01908
-0.226562
-0.372595
-0.0610135
0.433609
-0.278644
0.288538
-0.00989406
1.82826
-1.16323
-0.665031
0.549825
-2.1861
-0.30686
0.0282161
-1.7304
0.551955
1.17844
2.13328
-0.625553
0.472397
-1.95522
2.86696
-1.49401
-1.37295
-0.0347869
0.273433
0.0757592
2.27787
-2.35363
-1.22972
0.245206
0.984517
-1.92856
1.91857
0.00999194
0.500513
-1.59092
1.09041
-0.0218472
-0.0228863
0.0447335
-0.950749
1.21895
-0.268197
-0.0148908
0.352854
-0.337963
-0.346368
0.108301
-0.330925
0.0538337
-2.42083
1.21033
0.418245
-0.657557
0.239311
0.0947456
-0.190197
0.0954515
0.704686
0.563592
1.3593
-0.320439
-0.768939
0.335469
1.28899
0.844296
-1.03419
0.0814581
0.952732
-2.33825
2.41401
0.772131
0.175185
0.154129
-0.0593835
-0.613746
-0.0992499
0.712996
-0.0431779
0.155088
-1.05445
0.659775
0.34071
-0.493685
0.152975
-1.83018
1.76681
0.0633738
-2.44847
2.34323
0.10524
-0.335625
-0.280868
0.616493
1.5205
-1.66924
0.148748
-1.41067
-0.831387
2.72513
-1.7263
-0.998826
-0.236941
0.211097
1.77266
-1.27214
-0.24193
0.660175
-0.88623
-0.584861
1.47109
0.507703
1.68371
-2.19141
2.51629
-0.113876
-2.40241
-1.50908
0.622848
1.69859
-1.01139
-0.687198
-0.343906
1.58544
-1.24153
1.13116
-1.59662
0.46546
0.452055
-0.212735
-0.23932
0.352123
-0.0701754
-0.281947
2.29878
-1.82635
-0.472428
-0.996084
-0.877603
1.6256
0.863799
-1.67719
-0.152993
0.124124
-0.496719
-0.336616
0.568333
-0.231717
0.00717417
0.329923
-1.06856
2.21873
0.699103
1.12916
2.03717
-1.23362
-0.80355
-1.62079
1.17427
1.58676
-2.54005
0.953287
-1.25
-0.10189
1.35189
-0.672342
-0.227716
0.900058
0.726781
-0.455641
-0.341174
0.824505
0.33269
-0.0703356
-0.841304
-1.1031
3.11479
-2.01169
-0.464669
0.0768383
-0.603555
0.424919
0.215644
-2.14421
2.37229
-0.33351
1.56847
-0.465241
0.622233
-0.156992
0.0302353
-0.195947
-0.963804
0.663418
0.300386
0.605409
0.377899
-0.453649
1.11588
-0.662232
0.958552
0.265368
-0.00945252
-0.327164
1.16347
-0.146971
-0.444915
-1.00004
1.3808
-1.20508
-0.175725
2.07752
0.272126
-0.428836
0.156709
1.5848
-1.73562
0.15082
-0.931338
0.711232
-0.273687
-0.0362331
-0.108979
-1.08369
0.64758
-1.12134
0.473756
0.841538
0.85705
1.67013
-2.36369
0.693558
0.545774
-1.11182
0.566047
-1.94811
0.354879
0.0621847
0.766237
-0.813037
1.49366
-0.680623
-0.466213
0.649938
-0.183725
-0.932996
0.0458315
-0.267575
-0.504614
0.772189
0.23542
0.00113054
-0.23655
-0.580742
-0.434129
0.718586
0.901949
-1.62053
-0.181911
-2.15634
0.326355
-0.910069
-0.0212695
0.985673
-0.439899
-1.31272
-0.296107
0.243234
-0.36922
0.125986
1.75078
-0.748877
-0.958158
1.51677
-0.558613
-0.275075
0.325914
-0.0508391
1.38986
-0.0730194
0.846329
-0.277996
-1.03259
1.8582
-0.825612
1.46156
-2.40688
0.945325
1.21447
1.51066
0.232868
-0.207695
-0.025173
0.197398
-1.4474
1.15046
-1.67736
0.526906
0.134967
-0.108811
-0.186673
1.29567
2.01841
0.353889
-1.10468
1.54846
0.34897
-2.05331
-1.64285
0.682634
0.960211
1.3267
-0.252535
-1.07417
1.88172
-0.361224
-0.724127
-0.927407
-0.788702
0.873941
-0.404389
0.00280951
0.40158
0.659187
-0.657163
-1.47915
1.29248
1.99338
0.578317
-1.59323
0.635072
2.47625
-0.850649
-0.314682
0.378755
-0.0640728
-0.0269705
-1.1624
1.18937
-1.79683
0.324476
1.47235
1.60119
-1.60119
1.80025
-0.624876
-1.17537
0.885311
-1.33896
1.22185
-0.729314
-0.492537
-1.88421
1.9667
-0.0824883
0.733856
-0.0616662
-0.67219
0.576478
-0.20345
-0.373028
0.271681
-0.607306
-0.327954
0.554607
-0.796537
-1.62264
1.92814
-0.305508
-0.583051
1.30164
0.0308217
-0.00160069
-0.029221
0.416829
-0.670907
0.254078
-0.771458
0.878899
2.01192
-1.67316
-0.338763
-0.195832
-1.01966
1.21549
-0.523383
0.558155
-0.0347718
0.319396
-0.585028
0.265632
-2.78132
1.70237
1.07895
0.195688
0.095047
-0.396738
0.0820551
0.0373061
-0.000366679
-0.0369394
0.979556
1.31922
-0.00453111
0.0353528
-0.16948
-0.485847
0.655328
-1.02236
1.62234
-0.599978
0.111154
0.361238
-0.472392
0.748144
-0.56762
2.87594
0.0645886
-2.94053
0.0703139
-0.882757
0.0944469
1.51666
0.891643
0.583524
-1.47517
0.981431
-0.809615
-0.171816
-2.02926
0.384452
-0.750788
0.351457
0.399332
0.852108
1.01503
-1.86714
-1.27539
1.1735
0.122545
-1.81893
1.69638
-0.299993
0.349857
0.101532
-0.122389
0.0208569
0.0931923
-0.706938
0.153132
0.00556534
-0.158697
-1.34216
-0.388237
1.22846
0.354707
-0.174395
-0.180312
-0.3016
0.026525
0.305426
-1.39211
1.08668
0.383155
1.05681
-1.43997
0.655516
-1.40122
1.67975
-0.27853
-1.44974
1.10583
0.131586
0.137641
-0.784653
-0.483675
-0.572389
0.134697
0.437692
-1.75422
0.731856
1.30183
-1.49766
0.966726
1.50952
-0.70546
0.654577
0.0508827
0.750112
-1.74439
0.994278
0.364842
-0.588809
0.223968
0.164191
0.682139
-1.26294
-0.0788478
-0.690228
-0.00554704
0.0872257
0.229296
-0.316522
0.601254
0.0360499
-0.0731511
0.0371012
1.75046
-0.898356
-2.13515
0.802441
1.33271
0.545955
0.400132
-0.946087
-0.712722
0.412729
-0.498186
-0.0742035
0.712119
0.509731
-1.81704
-1.08495
0.399937
-0.156703
1.20737
0.862715
0.300754
-1.73624
1.86064
0.143075
-0.814569
0.671495
-0.182254
-1.64759
1.82985
-0.135811
0.139118
-0.00330615
0.402555
-0.266913
-0.499287
1.63045
1.72262
-1.15407
-0.761121
-0.202683
-0.00951664
-0.853761
0.863278
0.732196
-1.88498
-0.168228
-0.939945
1.10817
-0.23583
0.505634
-0.269805
-1.29428
0.0737908
1.22049
1.77724
-1.08553
-0.0141039
0.209056
-0.194952
-0.473927
-0.0494557
0.376255
0.741945
-1.1182
0.281199
-0.344739
0.0635402
1.01716
0.563405
-1.58057
-0.838923
2.08151
0.225424
0.00999598
-0.268519
-1.47122
1.73974
1.71999
1.40823
1.73645
-1.3533
-0.763269
0.495694
0.25822
0.093903
-0.887254
2.47401
0.243968
-1.51522
1.27125
1.67601
-0.35487
-1.32114
-0.827966
1.33187
-0.503899
0.784912
-0.700768
-0.903462
1.60423
-0.0772397
0.0306168
0.0466229
-0.550824
-0.981465
1.53229
-0.186645
0.603474
0.112531
-0.136331
1.0207
-1.57153
-1.39645
-0.43679
1.83324
-0.101603
-0.987476
1.08908
-0.0597549
2.14469
-2.22127
0.0765729
0.448612
-0.241442
-0.207169
-0.0464266
-0.659033
0.514873
0.517677
-0.680771
0.00842916
-1.609
2.02541
-0.416408
0.0322642
0.308446
0.431423
0.0232399
-1.96221
-0.589309
-0.0561781
0.32242
-0.266242
1.07578
-0.213069
-0.455812
0.498671
-0.0428588
0.314876
-0.329766
-2.09883
0.766624
1.79322
0.323908
-0.210125
0.52952
-0.439038
0.984994
0.772283
-0.217677
-0.466849
0.0110369
-0.231901
-1.24725
0.457279
0.522027
-0.505198
-1.84215
0.0453183
0.0339963
0.459951
-0.0951092
-2.20483
0.825207
1.37962
0.629406
0.0515714
0.433144
-0.15155
-0.281594
0.635784
-0.570038
-0.0657457
-1.29626
0.470288
-2.0777
1.04511
0.0785566
-0.172777
0.0942207
-0.0147287
0.137075
-0.122346
2.06978
-0.019614
-2.05017
0.401641
0.0272932
-0.428934
-0.296473
-0.560847
0.499542
-0.0608421
0.135718
-0.14832
0.012602
0.846049
-0.0589255
-0.787123
-0.0396523
0.17537
1.61682
-1.09582
-0.060586
-0.320184
0.38077
-2.03956
0.43056
-0.0343013
-0.0297995
0.463696
0.194914
0.159793
-0.18404
-0.5849
0.498012
0.371867
-0.869879
1.24913
-0.247001
0.776279
-0.633204
0.470591
-0.413805
0.193858
-0.660071
0.25925
0.890979
-1.15023
1.10773
-0.117334
-0.9904
-1.1883
-0.47381
-0.316542
-0.0320793
0.348621
0.688046
-0.802818
0.114772
2.18636
-0.0615991
-2.12476
-0.293555
-0.128356
0.421911
-0.99894
1.35236
-0.353419
1.05113
1.25841
-2.30955
-0.253586
-0.00211708
-0.587322
0.9106
-0.323278
0.468185
0.202798
-0.670982
-1.86944
0.925382
0.944063
-0.146975
-0.00134473
-1.6937
0.297256
0.664377
-0.394704
-0.269674
0.895348
-1.18958
0.29423
-0.211595
-0.402562
0.295184
1.84951
1.6483
-0.296689
-1.35161
-1.63804
0.236821
0.670188
-1.1151
1.51135
-2.63551
1.12416
-0.228702
0.612588
0.00743466
-0.754732
0.585252
-0.344344
0.466396
-0.14859
-1.36229
1.51088
0.691606
1.08105
-1.48227
1.5657
-0.0834298
-0.150249
0.237475
-1.32558
-0.441041
-0.262535
0.294866
-0.0323313
0.544102
-1.16612
0.622013
-0.294368
0.791348
-0.496979
-0.195448
1.0908
-1.83474
-0.0522637
1.88701
-1.55531
-0.48237
2.03768
0.904158
-0.734027
-0.170131
-0.502765
0.0243605
0.478405
-0.295414
-0.154246
0.44966
-1.91772
0.0739765
1.84375
0.0476087
0.418887
-0.466496
1.56019
-1.74498
0.184788
-0.952881
1.10482
0.337446
-1.44226
0.0276947
-0.29023
-0.154898
-1.16842
1.32332
1.44197
-1.98067
-1.89242
1.6513
0.24112
0.332867
-0.0516672
0.409498
0.0219252
-0.14683
-0.363768
0.510598
-0.0251677
0.347201
-0.322033
-0.691461
1.99993
-1.30847
1.9435
-3.28443
1.34093
2.03262
-1.93976
-0.0928626
1.48263
-0.621723
-0.860911
0.085148
-0.492904
0.407756
-0.627264
-0.0317676
-1.98654
1.7483
0.238244
0.106586
-2.09313
-1.9854
2.62449
-0.639087
-1.11837
-0.707979
0.433539
-0.35832
-0.0752189
-1.58925
-0.450312
-0.408391
0.284003
0.124388
0.15933
-0.140558
-1.86696
1.79236
0.074599
-0.279095
-0.0967973
-0.00332295
0.441767
-0.040126
-1.16101
0.210258
0.327187
-0.36787
0.0406831
-1.11071
1.05124
0.0594648
0.813732
-0.0798752
-0.464241
1.20185
0.188018
0.72819
-0.31535
1.07357
-0.758224
-0.230198
1.03283
-1.27435
0.826526
0.447821
-0.131382
-0.015593
1.7315
-1.03989
1.50195
-0.751837
-0.37699
-0.36126
0.73825
0.689904
-1.31721
0.627308
1.12369
-1.22529
1.7903
-0.789259
-1.00104
-0.0113298
-1.0738
-0.200548
-0.773906
0.831897
-0.0579909
0.0622134
-0.524864
1.8242
-2.09699
0.507738
0.319925
0.13213
-0.237848
-0.253598
0.297394
-0.00885631
-0.880416
-0.925272
1.75205
-0.501147
0.0258386
0.184051
-0.209889
0.109645
0.466833
-1.56505
-0.708899
2.27394
0.0340404
0.69274
-0.0107574
-0.313882
0.324639
1.64249
-0.182495
-0.0268092
0.209304
0.923499
-0.664249
-0.701586
-1.95803
0.335395
-0.477246
0.0277089
0.449538
1.46622
1.40074
0.775981
0.397567
-1.17355
1.93982
0.0927988
1.21057
-1.70703
0.49646
-1.62954
-0.00958978
1.63913
-1.60693
2.0711
-0.464174
0.309322
-0.0135136
-0.295808
-0.583645
2.02561
0.190783
-0.0370887
-0.153695
0.0690513
-1.55132
0.578186
-0.258378
-0.319808
-1.86551
2.39434
-0.52883
-0.450613
1.11226
-0.661648
2.32402
-1.02597
-1.29804
0.0314192
-1.19341
1.16199
-0.1201
-0.00228837
-0.966127
2.01726
1.31533
0.484913
2.34427
-0.882706
-0.396861
0.336275
-1.69673
0.067194
2.51704
-0.846908
-0.00342741
-2.38073
0.589644
0.00444559
-0.375915
1.82632
-1.4504
1.10583
-0.291838
-0.813995
0.599485
-1.10616
0.506679
-0.340464
0.0193705
0.321093
-0.404667
-0.974552
1.37922
0.733018
-0.53916
-1.3998
-0.139006
1.5388
0.267377
0.48066
-0.748036
0.161134
0.272405
-2.17878
2.56932
-0.390536
-0.133635
-0.00217644
0.90253
0.422752
-1.32528
1.0414
0.762235
-1.80363
0.350653
0.976051
-0.0477567
2.27355
-0.0158599
1.57647
-1.56061
0.188802
-0.0776484
0.0450423
0.0597132
-0.104755
1.57112
-1.44504
-0.126083
0.809091
0.981211
0.0664352
-0.0860887
0.0196535
-0.529022
1.57597
-1.04695
0.00436927
0.363634
-0.368003
1.0912
-1.40583
0.314635
-1.0726
-0.630304
1.70291
1.5592
-0.251747
0.554216
0.551618
-2.63001
0.688239
1.94177
0.588388
-1.60805
-0.243826
0.0115863
0.232239
0.39672
-0.112769
-0.283951
-0.0182282
-0.101872
-0.131889
1.33895
-1.20706
-0.226716
1.99867
1.50435
-1.24299
-0.261357
1.2761
-1.07459
-1.00472
0.371091
0.633631
0.106013
-0.835327
0.680015
-0.465624
-0.214391
0.138921
0.294223
0.293424
1.45914
-1.75256
0.510167
0.335882
0.247611
-1.80293
-0.925261
0.162754
0.762507
-0.683321
-0.463455
1.14678
1.01421
-0.516198
-1.67338
1.09033
0.621784
-0.498341
-0.123443
-0.851158
0.789337
0.0618215
-0.865741
0.936055
-0.918121
0.920646
-0.00252502
-2.75858
1.67527
1.08331
-0.0425038
0.45751
-0.415006
-0.266835
0.252106
-0.258932
-2.57669
4.4212
-1.8445
-1.09052
1.38862
0.998623
-1.05328
0.0546528
-0.102986
0.0959171
0.00706918
-2.31103
1.70769
0.603342
-0.013775
0.105309
-0.0915341
0.162545
1.21851
-1.90997
1.20916
-0.519259
-0.826962
-0.815883
-1.40421
1.38835
0.937191
0.0379615
0.659423
0.279056
-0.938479
-0.698795
0.647032
0.0517626
-0.146904
0.198339
-0.0514352
0.156292
-1.21346
1.05717
0.110466
1.62082
-1.73128
-1.46315
-0.406848
1.87
-0.219544
0.116558
1.3109
0.260226
0.174292
1.83317
-2.00746
0.195178
-0.0456164
-0.149562
0.0122152
0.397859
-0.501359
0.1035
-1.06132
-1.16987
1.32616
0.298564
0.427196
-0.342048
1.0659
-0.521798
0.354973
-1.3747
0.0554373
0.593287
-0.294312
0.341775
-0.0474636
-1.31102
-1.079
2.39001
-1.46323
-1.16678
-1.0052
-0.140144
1.14535
0.193394
0.446447
-0.639842
-0.0108044
2.22376
-1.43569
-0.788074
0.365432
1.28287
0.0960436
1.27381
-1.49036
0.216545
-0.631017
1.59616
-0.965145
-1.11214
-0.436669
1.54881
-0.937324
0.350002
-0.72135
-0.283372
1.91998
-0.928006
-0.991974
0.0450243
0.13208
-0.177104
0.693957
0.161399
-0.855356
-0.362747
0.410356
0.157782
-0.306391
0.148608
0.00498106
-0.0567562
-0.441459
-0.0136729
1.06387
0.856112
-3.0075
1.47892
-0.697803
1.76512
0.138092
-0.0930681
-1.63493
0.522795
1.44353
-1.24613
-0.247257
-1.27323
0.274293
0.551573
-2.53697
1.3455
-1.37247
1.63693
-0.0521258
-0.400044
-0.251413
-0.433221
-0.187428
0.620649
-0.623814
-0.0733839
1.48558
0.282577
-1.76815
-0.0110438
-0.500995
0.512038
-0.169977
-1.37864
-0.246832
1.62547
1.67651
-0.116317
-1.81335
1.72791
0.0854364
0.425376
-0.316253
-2.14996
-0.161071
-0.580051
1.80104
-0.052738
-0.0788746
2.3036
-0.87381
-1.42979
-1.18081
-0.115322
1.29614
0.265707
0.989369
-1.25508
-1.38701
0.0927369
-0.372012
-0.189145
0.561157
-0.942108
1.18608
0.302073
0.983403
-1.28548
-0.873908
0.509488
0.36442
-1.78798
0.170984
1.61699
0.560206
0.648957
-0.526804
0.997068
0.485566
-0.475165
-0.275623
1.75688
-2.0697
0.070371
-0.934806
0.864435
-0.171093
-0.082493
1.33745
0.0665164
-1.40397
1.1173
-1.8151
0.00918205
-0.0310293
-1.12719
1.60093
-0.473743
-1.38383
1.22893
-0.0564111
0.60331
-0.546899
-0.32055
-0.14622
0.46677
0.212485
0.190071
-0.517582
1.18777
-0.0302993
0.108856
-0.325569
0.353263
0.650633
-0.296731
-0.0242138
0.0013275
-0.410503
0.392105
0.0183983
0.429782
-0.479566
0.0497834
-0.87112
1.7487
0.204092
-1.20929
-0.1122
-0.590573
0.00607504
1.10845
-1.11453
0.657145
-0.756394
0.455777
-1.50904
1.05326
-0.800162
0.367085
0.433077
1.98887
-3.09198
-0.235265
-0.0453952
-1.84703
0.4726
1.27945
-1.4481
-0.225288
-0.606291
0.878417
-0.859768
0.355154
0.254758
0.0812995
-0.336057
2.65998
-1.19376
1.41292
-0.262467
-0.471562
-0.322288
0.79385
-2.04001
0.812257
1.22776
-0.256081
-0.174561
-0.302641
1.40746
0.337903
-0.190508
-1.76023
0.340499
-0.149715
-0.0772838
-0.0715723
0.148856
-0.243453
1.72903
-0.211241
0.14125
0.0699908
-0.264645
-2.64853
1.23953
1.409
0.348258
0.474053
-0.822312
2.42839
-0.214394
-2.214
-1.05057
0.59996
-1.04703
-0.0468264
0.740783
1.76499
-1.94724
0.838392
-0.370208
-0.750747
1.33913
-1.55682
0.527575
1.02924
1.10377
-1.46235
0.358575
-1.35617
1.459
-0.102831
0.740712
-0.97091
0.0272304
0.384715
0.519443
0.464379
-0.854974
-1.91313
-0.959811
0.605023
0.354787
0.468408
-1.64922
1.29775
-0.0590536
-1.17067
0.2466
0.403792
2.03813
-0.688629
-1.3495
-1.09509
0.496541
-1.17986
0.331556
-1.84071
1.72539
-1.39123
0.690461
0.915336
-2.48386
2.75507
-0.271216
-4.31342
2.67132
1.6421
-0.0285377
0.220217
-0.456047
-1.94323
1.36394
0.579294
1.4826
-2.06624
-2.15052
-0.0282594
2.62897
-1.11762
0.293041
1.16531
-1.45835
-0.0485353
-0.307553
0.356088
-0.19627
0.826249
1.04655
-2.99482
0.51096
0.292306
0.440712
0.412679
0.709631
-1.12231
0.781108
-0.453612
-0.130246
-2.1308
2.26105
-0.66661
0.839246
-1.49428
-1.09279
-0.821858
1.91465
0.483335
-0.671277
-1.34165
0.416636
0.92501
0.227741
-0.031618
-0.196123
1.57158
-1.72017
0.239036
-1.36622
0.703075
0.853866
-1.55694
-0.115048
0.140886
-1.58857
0.447953
1.14062
-1.72657
0.65397
0.974291
-1.60531
1.05858
-0.988208
0.19484
0.0329017
0.0292781
1.64674
-1.16832
1.47534
-0.307029
1.3791
0.016193
-1.3953
-1.1611
-0.013395
-0.451846
0.103215
1.49798
0.262847
0.0630663
-0.118879
-0.228405
1.11372
0.975328
0.0176038
-0.164507
-1.75725
-0.109712
-0.72285
2.8358
-0.557932
0.353786
0.379942
-0.733728
2.6647
0.118352
-2.78305
-0.232294
0.218781
-0.665485
-1.41221
-1.50158
-0.234041
-0.717063
1.83436
-0.650753
0.922036
-0.271284
-1.93571
0.624694
-0.566366
0.979045
-1.53544
-0.66939
-0.580457
-0.531297
0.629928
-1.26034
0.149633
2.06632
-0.265284
1.18711
-1.14358
-0.0435277
0.0366662
0.850094
0.532556
1.96146
-1.83891
-0.0355676
-0.444699
0.657457
-0.934947
1.01641
-0.9106
-0.644871
0.442813
0.344971
-0.787784
-1.64723
0.0460378
-0.238659
1.47572
-1.23707
-0.305197
-1.50815
-1.30869
1.48593
2.38883
-1.01803
-1.37079
-0.197119
0.548576
1.43615
-0.818395
-0.617757
0.531857
-0.588613
0.109763
-0.0647206
-0.326938
0.00489829
0.32204
-0.25796
0.917383
-0.693925
2.17653
-0.0324173
-0.325903
-0.534188
-0.187473
0.721661
0.0330911
1.53849
0.411204
0.447771
-0.858976
-0.740065
1.11632
0.771273
0.804699
-0.874013
-0.0512483
1.04217
-0.389293
-0.652882
-0.0585547
-0.0293385
0.0878932
0.190007
-1.43147
1.24146
-1.76627
0.264692
0.435676
2.04287
0.79293
-0.0187729
0.55063
0.266561
-0.917314
-1.60119
0.812488
-1.87911
0.631993
-0.89319
0.121732
-0.786761
-1.10154
1.8883
-2.74508
-0.0235759
0.37378
-0.350204
1.78194
-1.37132
1.37265
-1.10695
0.26495
1.01679
-1.28175
0.306928
-0.678941
0.699541
-1.90295
1.20341
-0.0161067
0.153436
-0.137329
-0.705362
1.69385
-0.988489
1.38804
-0.843261
-0.54478
1.58014
-0.0621972
-1.51794
-1.05512
-1.59341
-0.614923
-0.0753045
1.35133
2.43753
-0.0227969
0.201179
-0.178382
-1.27595
-0.312626
1.29843
1.17366
-1.02154
1.24334
-0.221799
-0.302232
0.275423
0.0909976
0.703644
-0.794641
-0.0392597
-0.171981
-0.21034
-1.73289
-0.964624
0.621652
0.000131706
0.0652568
-0.126733
0.15123
1.37298
-1.52421
-0.967582
-0.193425
2.07862
-2.26053
0.137264
-0.519506
-0.272693
-0.0197087
0.292402
0.0937158
-0.662935
0.569219
0.234231
2.10899
-1.23117
1.58853
-0.746996
1.66674
-0.827498
-0.231401
-0.493744
0.725145
1.41806
0.167383
0.0225081
-1.29807
0.893398
1.11285
-1.07976
-0.957517
-0.860259
1.81778
-1.15192
-0.888092
-1.9021
1.93362
-0.0315255
-0.390135
-0.641734
0.454306
1.05808
0.530449
0.151243
-0.150404
-0.000839245
-0.332537
-0.417074
-1.3822
0.612722
0.769474
0.652055
-0.618015
-0.151052
-0.0927734
1.10351
-1.769
0.826741
-0.687546
-0.384365
1.52274
-1.13838
1.02613
0.90368
0.570675
-1.47436
1.96071
-1.18739
-0.773323
-0.70299
-1.46603
2.34596
-0.879924
1.67893
-0.491826
-0.574239
0.555466
0.812288
1.51173
-0.432031
0.383496
0.0572556
-0.0212057
1.79902
-1.00618
1.17564
1.48434
-0.805617
0.435004
0.370613
0.430893
-0.807883
1.40238
-0.0649282
2.02061
-1.72757
-1.26315
-0.161448
1.42459
0.374346
-0.0495227
-0.324823
0.312915
0.135696
0.243331
-1.85026
-0.557407
0.6506
1.2855
-1.1521
-0.133402
0.324859
0.717315
-0.303491
0.151941
0.530081
0.41392
-0.944001
-0.912328
1.74784
0.195637
-1.0866
2.30144
-1.21484
-0.454884
0.72226
-0.570277
-0.303631
2.06467
-1.03211
-0.645081
0.714208
1.71418
0.585033
-0.697233
-0.350709
0.308205
-0.543651
-0.286523
-0.0150766
1.09232
-0.30035
1.53671
-1.23636
-0.0616199
0.0989261
-0.558478
0.19471
-0.645328
0.0304045
-1.73899
1.47047
0.480035
0.430565
0.23585
-1.13678
0.900927
0.401464
0.161251
1.54078
0.902146
-2.44293
-0.217304
-0.0305141
0.247819
-1.69444
-0.440706
1.54244
0.846386
1.46486
-1.31363
-2.35329
0.106382
0.0512082
0.110551
0.855199
1.31293
-0.153475
-1.15946
0.780749
-0.123604
-0.0552124
-0.6087
-0.196917
-1.73045
-0.811893
0.917906
-1.10167
1.90411
1.05522
-1.03549
-0.0197267
0.378811
0.0132938
-0.117402
0.494599
-0.0648167
1.40156
0.346929
-1.74849
-0.144805
0.0675214
-0.451613
0.277697
0.173916
-0.66743
-0.0162505
0.68368
0.663408
0.912633
-1.57604
0.41112
0.60309
1.28217
-0.0327408
-0.521756
1.05573
-1.28413
0.0208303
-0.121401
0.100571
-1.49733
1.01431
1.56828
-1.23241
-0.335869
0.0309372
-0.287952
0.257014
1.5651
-1.69699
1.19844
-0.546388
0.512747
0.859904
-0.270635
-0.0158879
-0.26997
0.210212
0.0597581
-1.06197
-0.251374
1.99774
-1.02441
-0.973328
2.66839
-0.192004
-2.47638
0.792294
-1.32083
0.528532
-0.118313
0.933556
0.052117
-0.699679
1.40028
-0.700596
-0.0223072
-0.247663
2.25291
0.183921
-0.0426717
1.524
0.0167792
-1.54077
-0.302056
-0.315441
0.021129
-0.0815581
-0.00453065
0.839365
0.761563
-0.854477
0.560108
-0.00489779
-0.0438837
-0.178388
0.263963
-0.736332
1.00128
0.0101744
0.511853
-0.269883
-0.516588
1.22127
-0.0378174
1.09303
-0.213928
-0.240101
-0.40521
0.935291
-0.385149
1.54558
-1.16044
-1.47165
-0.222048
-1.05286
1.4786
-0.425741
0.058297
0.125624
0.613471
-0.112525
-0.033663
-0.477341
0.511004
-1.52678
0.494677
0.251132
-0.265235
0.739336
-2.30438
0.331268
-1.80249
-0.498698
1.44742
-0.598887
0.958886
-0.544966
0.0214249
-1.14731
1.33732
0.00174387
-0.304412
0.19751
-0.931537
-0.19351
-1.09743
1.29094
-0.140513
-0.390664
2.59521
-1.64828
-0.946924
-0.416955
0.132504
0.43932
0.0416223
-0.480942
-1.45868
0.290361
0.37659
0.0201308
-0.0117649
-0.255853
0.267618
0.529043
-1.5819
0.170837
0.816801
0.0930164
-0.909817
-1.71202
1.32687
0.287952
0.0745347
-0.362487
1.81205
-4.38875
-0.281372
-0.0014925
0.282864
0.37144
-0.0834873
0.010421
1.33109
-0.980434
1.07335
0.940347
-0.529227
-1.59688
0.50409
-1.21315
1.0056
0.207545
0.831672
-1.78919
-0.914821
-0.542969
1.45779
0.0156273
0.73204
-0.574241
0.512575
1.96219
-0.254704
-1.70749
-0.0151166
-1.74214
0.828981
0.751156
0.609777
0.826375
-0.309826
-0.00405558
0.293023
-0.468457
-0.652879
0.0540478
-0.097146
0.0430982
0.0678284
-1.27113
1.20331
-0.237943
0.682047
-0.444104
-0.0550728
-1.26843
1.32351
-0.139772
-0.982581
-0.05504
-0.0191033
1.20487
-0.639971
-0.351657
0.991629
-0.635573
-0.706589
0.838347
-0.493376
0.19644
-0.0522524
-0.144188
-1.03485
1.2707
-0.682654
-0.213777
-0.117184
0.330961
0.319881
0.369889
-0.689769
1.78887
-1.03829
-0.750577
0.0959572
-1.02173
0.278616
-2.14412
-0.999736
-0.761804
1.76154
-1.68834
0.0682482
1.62009
-2.41218
-1.41851
0.0623446
-0.581972
0.56589
0.0160825
-1.84501
-0.619845
2.02141
0.721418
-0.349551
0.195113
-0.600322
-0.279211
0.882301
0.288415
0.190784
-0.724973
0.0325674
-0.269343
0.236775
-0.326069
0.0421921
-0.186244
0.217181
-0.526928
0.875187
-4.01879
2.43008
1.58871
-1.34881
1.00763
0.967102
0.393519
-0.0191727
-0.248734
0.399978
-0.869875
-0.471771
-0.998984
0.339728
0.659257
0.0449943
0.310638
-0.355632
-0.766731
0.860447
-0.157818
1.30468
1.45563
-1.04442
0.957306
-1.59288
0.784883
-0.988213
0.20333
0.222759
-0.0137032
-0.217857
0.0101619
-1.86596
1.0792
0.527185
2.1412
0.0270662
-0.381127
0.354061
-2.5389
0.980757
0.311658
-0.372671
-0.362438
-0.0323922
-0.41648
0.448872
-1.02777
0.387795
-1.86981
1.65947
1.64487
-0.941799
-0.43775
0.405494
0.0322556
0.224441
0.0979788
-0.293137
-1.98591
1.27405
0.711862
-0.279863
0.249349
-0.0173046
0.615604
-0.598299
0.462639
0.735804
0.0637251
0.0118798
-0.0756048
-0.533841
0.544016
0.0530503
0.0819165
0.666697
-1.07487
1.83035
0.109474
0.531196
-1.94279
1.67382
-0.0690207
-1.6048
-0.0150784
-0.349024
0.364103
0.918376
-1.79879
0.444834
1.02673
-1.47157
-0.0182195
-0.030883
0.0491025
-1.00006
0.973148
0.0269156
-0.682421
1.1382
-0.745273
2.68877
2.32776
-0.439666
-1.88809
0.108887
0.135663
-0.24455
-0.379034
-0.597817
-0.0294472
-0.574594
-0.0232232
0.110643
-0.58079
0.470147
-0.157452
1.67242
-1.51497
-1.50638
0.569447
0.936934
0.49203
1.57775
0.0538543
0.109966
-0.163821
1.01007
0.439858
-1.44993
-0.0266076
0.281365
-0.61623
1.67125
-1.05502
-1.43276
0.169618
1.15865
0.489954
-1.40478
-0.00130776
-0.206917
0.208224
1.67484
-0.377415
-1.29742
0.556467
0.423847
-1.87845
0.953181
1.79641
-1.92665
-0.903372
0.166443
0.736929
-0.0459379
-0.0162409
0.343064
-0.326823
-0.30539
0.113461
0.191929
-0.0151392
0.230486
-0.215347
0.373476
-0.367678
-0.00579838
-1.00128
2.10479
-0.550683
0.541166
0.482716
-0.500021
0.628259
-0.997329
0.36907
-1.08713
-0.469688
-0.415455
0.120041
0.174617
0.010882
-0.185499
0.998008
-0.285033
-0.712976
0.163365
1.12214
-0.447776
-0.251019
-1.03779
0.184025
0.685803
0.86265
-1.54845
-0.0164582
-0.0264124
0.0428707
-0.0211962
0.65698
0.102115
0.335738
-0.437853
1.69006
-0.671242