# Force       
# CofR        : (0.000000e+00 0.000000e+00 0.000000e+00)
#
# Time        	total_x total_y total_z	pressure_x pressure_y pressure_z	viscous_x viscous_y viscous_z
5.1001         4.368472e+02 7.557115e+02 3.481327e-17 4.231369e+02 7.599207e+02 3.493271e-17 1.371037e+01 -4.209206e+00 -1.194353e-19
5.1002         4.368124e+02 7.556839e+02 3.478752e-17 4.231061e+02 7.598913e+02 3.490708e-17 1.370631e+01 -4.207352e+00 -1.195571e-19
5.1003         4.367921e+02 7.556664e+02 3.474395e-17 4.230899e+02 7.598719e+02 3.486363e-17 1.370225e+01 -4.205504e+00 -1.196789e-19
5.1004         4.367664e+02 7.556435e+02 3.472497e-17 4.230682e+02 7.598472e+02 3.484477e-17 1.369820e+01 -4.203659e+00 -1.198003e-19
5.1005         4.366904e+02 7.555717e+02 3.472688e-17 4.229962e+02 7.597735e+02 3.484680e-17 1.369415e+01 -4.201819e+00 -1.199257e-19
5.1006         4.366720e+02 7.555620e+02 3.467918e-17 4.229819e+02 7.597620e+02 3.479923e-17 1.369010e+01 -4.199983e+00 -1.200483e-19
5.1007         4.365912e+02 7.554014e+02 3.464555e-17 4.229051e+02 7.595995e+02 3.476572e-17 1.368606e+01 -4.198151e+00 -1.201676e-19
5.1008         4.365753e+02 7.554629e+02 3.463932e-17 4.228933e+02 7.596592e+02 3.475961e-17 1.368201e+01 -4.196323e+00 -1.202942e-19
5.1009         4.366361e+02 7.555874e+02 3.460514e-17 4.229582e+02 7.597819e+02 3.472555e-17 1.367797e+01 -4.194500e+00 -1.204176e-19
5.101          4.365707e+02 7.554946e+02 3.456406e-17 4.228968e+02 7.596873e+02 3.468460e-17 1.367393e+01 -4.192681e+00 -1.205403e-19
5.1011         4.365176e+02 7.554367e+02 3.455746e-17 4.228477e+02 7.596275e+02 3.467812e-17 1.366989e+01 -4.190867e+00 -1.206637e-19
5.1012         4.364363e+02 7.553108e+02 3.452962e-17 4.227704e+02 7.594998e+02 3.465040e-17 1.366586e+01 -4.189057e+00 -1.207871e-19
5.1013         4.364268e+02 7.553109e+02 3.447462e-17 4.227649e+02 7.594982e+02 3.459553e-17 1.366183e+01 -4.187252e+00 -1.209109e-19
5.1014         4.363791e+02 7.552692e+02 3.446960e-17 4.227213e+02 7.594547e+02 3.459063e-17 1.365780e+01 -4.185451e+00 -1.210354e-19
5.1015         4.363560e+02 7.552437e+02 3.441647e-17 4.227022e+02 7.594274e+02 3.453763e-17 1.365377e+01 -4.183654e+00 -1.211590e-19
5.1016         4.362670e+02 7.551195e+02 3.441017e-17 4.226173e+02 7.593013e+02 3.453145e-17 1.364975e+01 -4.181862e+00 -1.212824e-19
5.1017         4.362462e+02 7.551104e+02 3.438591e-17 4.226005e+02 7.592905e+02 3.450732e-17 1.364572e+01 -4.180074e+00 -1.214065e-19
5.1018         4.362325e+02 7.551003e+02 3.433935e-17 4.225908e+02 7.592786e+02 3.446088e-17 1.364170e+01 -4.178290e+00 -1.215302e-19
5.1019         4.361882e+02 7.550451e+02 3.428725e-17 4.225506e+02 7.592216e+02 3.440891e-17 1.363768e+01 -4.176511e+00 -1.216540e-19
5.102          4.361119e+02 7.549270e+02 3.425722e-17 4.224782e+02 7.591017e+02 3.437900e-17 1.363367e+01 -4.174737e+00 -1.217765e-19
5.1021         4.360748e+02 7.548903e+02 3.421254e-17 4.224451e+02 7.590633e+02 3.433444e-17 1.362965e+01 -4.172967e+00 -1.219010e-19
5.1022         4.359912e+02 7.548083e+02 3.419276e-17 4.223655e+02 7.589795e+02 3.431479e-17 1.362563e+01 -4.171200e+00 -1.220256e-19
5.1023         4.360274e+02 7.549664e+02 3.420032e-17 4.224058e+02 7.591358e+02 3.432248e-17 1.362162e+01 -4.169437e+00 -1.221528e-19
5.1024         4.360062e+02 7.549380e+02 3.415897e-17 4.223886e+02 7.591056e+02 3.428125e-17 1.361760e+01 -4.167678e+00 -1.222752e-19
5.1025         4.360004e+02 7.549667e+02 3.413549e-17 4.223868e+02 7.591326e+02 3.425789e-17 1.361358e+01 -4.165926e+00 -1.223974e-19
5.1026         4.357489e+02 7.544669e+02 3.406394e-17 4.221393e+02 7.586311e+02 3.418645e-17 1.360956e+01 -4.164183e+00 -1.225149e-19
5.1027         4.356977e+02 7.543909e+02 3.404197e-17 4.220921e+02 7.585533e+02 3.416461e-17 1.360556e+01 -4.162432e+00 -1.226372e-19
5.1028         4.356404e+02 7.543190e+02 3.401257e-17 4.220389e+02 7.584797e+02 3.413534e-17 1.360155e+01 -4.160677e+00 -1.227663e-19
5.1029         4.356621e+02 7.543861e+02 3.397609e-17 4.220645e+02 7.585450e+02 3.409899e-17 1.359755e+01 -4.158927e+00 -1.228944e-19
5.103          4.355989e+02 7.542924e+02 3.394607e-17 4.220054e+02 7.584496e+02 3.406909e-17 1.359355e+01 -4.157180e+00 -1.230208e-19
5.1031         4.355372e+02 7.542117e+02 3.393545e-17 4.219477e+02 7.583671e+02 3.405859e-17 1.358955e+01 -4.155435e+00 -1.231470e-19
5.1032         4.355106e+02 7.541668e+02 3.387523e-17 4.219251e+02 7.583205e+02 3.399850e-17 1.358555e+01 -4.153691e+00 -1.232717e-19
5.1033         4.354361e+02 7.540335e+02 3.386449e-17 4.218545e+02 7.581854e+02 3.398788e-17 1.358153e+01 -4.151942e+00 -1.233952e-19
5.1034         4.353348e+02 7.539852e+02 3.379963e-17 4.217573e+02 7.581354e+02 3.392315e-17 1.357753e+01 -4.150208e+00 -1.235181e-19
5.1035         4.352948e+02 7.539214e+02 3.378235e-17 4.217212e+02 7.580699e+02 3.390600e-17 1.357357e+01 -4.148514e+00 -1.236480e-19
5.1036         4.352444e+02 7.538443e+02 3.375062e-17 4.216748e+02 7.579911e+02 3.387440e-17 1.356960e+01 -4.146821e+00 -1.237770e-19
5.1037         4.351848e+02 7.537393e+02 3.369038e-17 4.216192e+02 7.578844e+02 3.381428e-17 1.356564e+01 -4.145131e+00 -1.239052e-19
5.1038         4.351243e+02 7.536474e+02 3.366235e-17 4.215626e+02 7.577908e+02 3.378638e-17 1.356167e+01 -4.143446e+00 -1.240337e-19
5.1039         4.351173e+02 7.535789e+02 3.360988e-17 4.215596e+02 7.577207e+02 3.373404e-17 1.355772e+01 -4.141766e+00 -1.241593e-19
5.104          4.349854e+02 7.535462e+02 3.362928e-17 4.214317e+02 7.576863e+02 3.375358e-17 1.355375e+01 -4.140087e+00 -1.242946e-19
5.1041         4.350020e+02 7.536234e+02 3.361688e-17 4.214522e+02 7.577618e+02 3.374131e-17 1.354979e+01 -4.138410e+00 -1.244257e-19
5.1042         4.349507e+02 7.535353e+02 3.357961e-17 4.214049e+02 7.576720e+02 3.370416e-17 1.354582e+01 -4.136738e+00 -1.245531e-19
5.1043         4.349223e+02 7.534955e+02 3.351949e-17 4.213804e+02 7.576306e+02 3.364418e-17 1.354186e+01 -4.135071e+00 -1.246815e-19
5.1044         4.348788e+02 7.534411e+02 3.348374e-17 4.213409e+02 7.575745e+02 3.360855e-17 1.353790e+01 -4.133407e+00 -1.248098e-19
5.1045         4.348180e+02 7.533736e+02 3.348095e-17 4.212841e+02 7.575054e+02 3.360589e-17 1.353395e+01 -4.131747e+00 -1.249388e-19
5.1046         4.347544e+02 7.532572e+02 3.341955e-17 4.212244e+02 7.573873e+02 3.354462e-17 1.352999e+01 -4.130091e+00 -1.250652e-19
5.1047         4.346708e+02 7.531381e+02 3.340078e-17 4.211447e+02 7.572665e+02 3.352597e-17 1.352604e+01 -4.128440e+00 -1.251927e-19
5.1048         4.346471e+02 7.531224e+02 3.335269e-17 4.211251e+02 7.572492e+02 3.347801e-17 1.352208e+01 -4.126792e+00 -1.253205e-19
5.1049         4.345565e+02 7.530974e+02 3.338697e-17 4.210383e+02 7.572225e+02 3.351243e-17 1.351813e+01 -4.125147e+00 -1.254529e-19
5.105          4.345088e+02 7.528326e+02 3.326435e-17 4.209946e+02 7.569561e+02 3.338992e-17 1.351418e+01 -4.123509e+00 -1.255699e-19
5.1051         4.343402e+02 7.525789e+02 3.321650e-17 4.208299e+02 7.567008e+02 3.334219e-17 1.351024e+01 -4.121874e+00 -1.256912e-19
5.1052         4.343096e+02 7.524809e+02 3.316144e-17 4.208033e+02 7.566011e+02 3.328725e-17 1.350629e+01 -4.120246e+00 -1.258163e-19
5.1053         4.343322e+02 7.526500e+02 3.315883e-17 4.208298e+02 7.567686e+02 3.328478e-17 1.350234e+01 -4.118619e+00 -1.259487e-19
5.1054         4.342888e+02 7.525902e+02 3.313156e-17 4.207904e+02 7.567072e+02 3.325763e-17 1.349840e+01 -4.116995e+00 -1.260740e-19
5.1055         4.342318e+02 7.525104e+02 3.309367e-17 4.207374e+02 7.566258e+02 3.321987e-17 1.349445e+01 -4.115376e+00 -1.261992e-19
5.1056         4.341902e+02 7.524575e+02 3.306217e-17 4.206997e+02 7.565713e+02 3.318850e-17 1.349051e+01 -4.113760e+00 -1.263239e-19
5.1057         4.341457e+02 7.523980e+02 3.303797e-17 4.206592e+02 7.565101e+02 3.316442e-17 1.348657e+01 -4.112147e+00 -1.264479e-19
5.1058         4.340777e+02 7.523198e+02 3.300477e-17 4.205950e+02 7.564304e+02 3.313134e-17 1.348263e+01 -4.110538e+00 -1.265729e-19
5.1059         4.340262e+02 7.522539e+02 3.298977e-17 4.205475e+02 7.563628e+02 3.311646e-17 1.347868e+01 -4.108932e+00 -1.266960e-19
5.106          4.340298e+02 7.523008e+02 3.298589e-17 4.205551e+02 7.564081e+02 3.311271e-17 1.347474e+01 -4.107329e+00 -1.268205e-19
5.1061         4.338617e+02 7.519633e+02 3.285649e-17 4.203909e+02 7.560690e+02 3.298343e-17 1.347081e+01 -4.105731e+00 -1.269376e-19
5.1062         4.338091e+02 7.519064e+02 3.285454e-17 4.203422e+02 7.560105e+02 3.298160e-17 1.346687e+01 -4.104136e+00 -1.270601e-19
5.1063         4.337932e+02 7.518900e+02 3.280016e-17 4.203303e+02 7.559926e+02 3.292734e-17 1.346293e+01 -4.102544e+00 -1.271806e-19
5.1064         4.337442e+02 7.518340e+02 3.278337e-17 4.202852e+02 7.559350e+02 3.291067e-17 1.345900e+01 -4.100956e+00 -1.273015e-19
5.1065         4.336641e+02 7.517158e+02 3.275438e-17 4.202090e+02 7.558152e+02 3.288180e-17 1.345506e+01 -4.099370e+00 -1.274203e-19
5.1066         4.336434e+02 7.516936e+02 3.270191e-17 4.201922e+02 7.557914e+02 3.282945e-17 1.345113e+01 -4.097788e+00 -1.275389e-19
5.1067         4.335961e+02 7.516481e+02 3.268808e-17 4.201489e+02 7.557443e+02 3.281573e-17 1.344719e+01 -4.096208e+00 -1.276568e-19
5.1068         4.336033e+02 7.517016e+02 3.265512e-17 4.201600e+02 7.557963e+02 3.278290e-17 1.344326e+01 -4.094631e+00 -1.277747e-19
5.1069         4.335445e+02 7.516433e+02 3.263045e-17 4.201052e+02 7.557363e+02 3.275834e-17 1.343932e+01 -4.093056e+00 -1.278904e-19
5.107          4.332860e+02 7.509880e+02 3.254794e-17 4.198506e+02 7.550795e+02 3.267594e-17 1.343539e+01 -4.091483e+00 -1.279933e-19
5.1071         4.333144e+02 7.511227e+02 3.252442e-17 4.198829e+02 7.552126e+02 3.265253e-17 1.343146e+01 -4.089917e+00 -1.281090e-19
5.1072         4.332552e+02 7.510429e+02 3.255005e-17 4.198277e+02 7.551313e+02 3.267827e-17 1.342753e+01 -4.088353e+00 -1.282179e-19
5.1073         4.330743e+02 7.506485e+02 3.237302e-17 4.196507e+02 7.547353e+02 3.250134e-17 1.342360e+01 -4.086790e+00 -1.283196e-19
5.1074         4.332764e+02 7.511950e+02 3.240579e-17 4.198567e+02 7.552803e+02 3.253423e-17 1.341967e+01 -4.085227e+00 -1.284403e-19
5.1075         4.331935e+02 7.510428e+02 3.237875e-17 4.197778e+02 7.551265e+02 3.250729e-17 1.341573e+01 -4.083663e+00 -1.285426e-19
5.1076         4.331209e+02 7.509030e+02 3.233071e-17 4.197091e+02 7.549851e+02 3.245935e-17 1.341179e+01 -4.082097e+00 -1.286423e-19
5.1077         4.330702e+02 7.507887e+02 3.231431e-17 4.196623e+02 7.548693e+02 3.244305e-17 1.340784e+01 -4.080527e+00 -1.287351e-19
5.1078         4.330579e+02 7.505710e+02 3.227774e-17 4.196541e+02 7.546500e+02 3.240654e-17 1.340386e+01 -4.078936e+00 -1.288034e-19
5.1079         4.329604e+02 7.511899e+02 3.228207e-17 4.195605e+02 7.552673e+02 3.241099e-17 1.339995e+01 -4.077397e+00 -1.289203e-19
5.108          4.329485e+02 7.510582e+02 3.225065e-17 4.195525e+02 7.551341e+02 3.237975e-17 1.339607e+01 -4.075903e+00 -1.291002e-19
5.1081         4.328968e+02 7.509418e+02 3.213786e-17 4.195046e+02 7.550163e+02 3.226712e-17 1.339219e+01 -4.074411e+00 -1.292667e-19
5.1082         4.328480e+02 7.508620e+02 3.212861e-17 4.194597e+02 7.549350e+02 3.225804e-17 1.338832e+01 -4.072923e+00 -1.294285e-19
5.1083         4.327446e+02 7.506396e+02 3.207831e-17 4.193602e+02 7.547110e+02 3.220789e-17 1.338444e+01 -4.071439e+00 -1.295861e-19
5.1084         4.327857e+02 7.507604e+02 3.205077e-17 4.194052e+02 7.548304e+02 3.218051e-17 1.338057e+01 -4.069960e+00 -1.297389e-19
5.1085         4.327243e+02 7.506804e+02 3.201426e-17 4.193476e+02 7.547488e+02 3.214415e-17 1.337671e+01 -4.068485e+00 -1.298918e-19
5.1086         4.327262e+02 7.507078e+02 3.196009e-17 4.193534e+02 7.547748e+02 3.209014e-17 1.337284e+01 -4.067014e+00 -1.300452e-19
5.1087         4.326458e+02 7.505979e+02 3.192313e-17 4.192768e+02 7.546635e+02 3.205332e-17 1.336898e+01 -4.065546e+00 -1.301959e-19
5.1088         4.326493e+02 7.506505e+02 3.190626e-17 4.192842e+02 7.547146e+02 3.203661e-17 1.336511e+01 -4.064082e+00 -1.303463e-19
5.1089         4.326011e+02 7.505734e+02 3.184803e-17 4.192399e+02 7.546360e+02 3.197853e-17 1.336125e+01 -4.062621e+00 -1.304985e-19
5.109          4.325565e+02 7.504720e+02 3.180838e-17 4.191991e+02 7.545332e+02 3.193903e-17 1.335739e+01 -4.061164e+00 -1.306469e-19
5.1091         4.324864e+02 7.503946e+02 3.178621e-17 4.191329e+02 7.544543e+02 3.191701e-17 1.335353e+01 -4.059713e+00 -1.307968e-19
5.1092         4.324880e+02 7.504275e+02 3.175008e-17 4.191383e+02 7.544857e+02 3.188102e-17 1.334968e+01 -4.058265e+00 -1.309459e-19
5.1093         4.324320e+02 7.503694e+02 3.171866e-17 4.190861e+02 7.544262e+02 3.184976e-17 1.334582e+01 -4.056821e+00 -1.310938e-19
5.1094         4.323758e+02 7.503051e+02 3.167269e-17 4.190338e+02 7.543605e+02 3.180393e-17 1.334197e+01 -4.055380e+00 -1.312410e-19
5.1095         4.322358e+02 7.501877e+02 3.162627e-17 4.188977e+02 7.542416e+02 3.175765e-17 1.333811e+01 -4.053946e+00 -1.313858e-19
5.1096         4.323561e+02 7.502268e+02 3.160164e-17 4.190218e+02 7.542794e+02 3.173318e-17 1.333427e+01 -4.052505e+00 -1.315376e-19
5.1097         4.322871e+02 7.501534e+02 3.158105e-17 4.189567e+02 7.542045e+02 3.171273e-17 1.333042e+01 -4.051068e+00 -1.316742e-19
5.1098         4.321800e+02 7.499754e+02 3.154558e-17 4.188535e+02 7.540250e+02 3.167739e-17 1.332658e+01 -4.049635e+00 -1.318072e-19
5.1099         4.324374e+02 7.506216e+02 3.154156e-17 4.191146e+02 7.546698e+02 3.167352e-17 1.332273e+01 -4.048208e+00 -1.319535e-19
5.11           4.324314e+02 7.506713e+02 3.150418e-17 4.191125e+02 7.547181e+02 3.163627e-17 1.331889e+01 -4.046778e+00 -1.320883e-19
5.1101         4.324881e+02 7.508697e+02 3.147493e-17 4.191731e+02 7.549151e+02 3.160715e-17 1.331504e+01 -4.045350e+00 -1.322271e-19
5.1102         4.323953e+02 7.507081e+02 3.144838e-17 4.190841e+02 7.547520e+02 3.158074e-17 1.331120e+01 -4.043926e+00 -1.323577e-19
5.1103         4.323374e+02 7.506164e+02 3.139468e-17 4.190300e+02 7.546589e+02 3.152717e-17 1.330735e+01 -4.042505e+00 -1.324908e-19
5.1104         4.322774e+02 7.505400e+02 3.136313e-17 4.189739e+02 7.545811e+02 3.149575e-17 1.330351e+01 -4.041089e+00 -1.326232e-19
5.1105         4.322024e+02 7.504395e+02 3.132282e-17 4.189028e+02 7.544792e+02 3.145558e-17 1.329967e+01 -4.039676e+00 -1.327551e-19
5.1106         4.321829e+02 7.503958e+02 3.128300e-17 4.188871e+02 7.544340e+02 3.141589e-17 1.329583e+01 -4.038266e+00 -1.328867e-19
5.1107         4.321740e+02 7.503582e+02 3.123725e-17 4.188820e+02 7.543950e+02 3.137026e-17 1.329199e+01 -4.036860e+00 -1.330182e-19
5.1108         4.321058e+02 7.502649e+02 3.122015e-17 4.188176e+02 7.543003e+02 3.135329e-17 1.328816e+01 -4.035459e+00 -1.331481e-19
5.1109         4.320735e+02 7.502354e+02 3.115449e-17 4.187892e+02 7.542695e+02 3.128776e-17 1.328433e+01 -4.034060e+00 -1.332769e-19
5.111          4.319902e+02 7.501234e+02 3.113782e-17 4.187097e+02 7.541560e+02 3.127122e-17 1.328050e+01 -4.032664e+00 -1.334043e-19
5.1111         4.321142e+02 7.504202e+02 3.113293e-17 4.188375e+02 7.544515e+02 3.126647e-17 1.327667e+01 -4.031272e+00 -1.335363e-19
5.1112         4.320611e+02 7.503382e+02 3.107146e-17 4.187883e+02 7.543681e+02 3.120513e-17 1.327284e+01 -4.029881e+00 -1.336622e-19
5.1113         4.320028e+02 7.502648e+02 3.105207e-17 4.187338e+02 7.542933e+02 3.118586e-17 1.326901e+01 -4.028493e+00 -1.337876e-19
5.1114         4.319549e+02 7.502071e+02 3.098885e-17 4.186897e+02 7.542342e+02 3.112277e-17 1.326518e+01 -4.027108e+00 -1.339118e-19
5.1115         4.319791e+02 7.502890e+02 3.094173e-17 4.187177e+02 7.543147e+02 3.107577e-17 1.326135e+01 -4.025725e+00 -1.340371e-19
5.1116         4.318448e+02 7.500845e+02 3.090290e-17 4.185873e+02 7.541088e+02 3.103705e-17 1.325752e+01 -4.024344e+00 -1.341582e-19
5.1117         4.317012e+02 7.497354e+02 3.084398e-17 4.184475e+02 7.537583e+02 3.097826e-17 1.325369e+01 -4.022971e+00 -1.342733e-19
5.1118         4.316388e+02 7.496381e+02 3.078506e-17 4.183889e+02 7.536597e+02 3.091946e-17 1.324987e+01 -4.021599e+00 -1.343931e-19
5.1119         4.315937e+02 7.496036e+02 3.077886e-17 4.183477e+02 7.536238e+02 3.091338e-17 1.324605e+01 -4.020230e+00 -1.345138e-19
5.112          4.315586e+02 7.495679e+02 3.071049e-17 4.183164e+02 7.535868e+02 3.084512e-17 1.324222e+01 -4.018864e+00 -1.346322e-19
5.1121         4.314668e+02 7.494461e+02 3.068295e-17 4.182284e+02 7.534636e+02 3.081770e-17 1.323840e+01 -4.017502e+00 -1.347480e-19
5.1122         4.314387e+02 7.494156e+02 3.064236e-17 4.182042e+02 7.534317e+02 3.077723e-17 1.323457e+01 -4.016141e+00 -1.348661e-19
5.1123         4.314012e+02 7.493821e+02 3.061483e-17 4.181705e+02 7.533969e+02 3.074982e-17 1.323074e+01 -4.014783e+00 -1.349833e-19
5.1124         4.313629e+02 7.493370e+02 3.058387e-17 4.181360e+02 7.533504e+02 3.071897e-17 1.322692e+01 -4.013428e+00 -1.350990e-19
5.1125         4.313545e+02 7.493383e+02 3.052509e-17 4.181314e+02 7.533504e+02 3.066031e-17 1.322310e+01 -4.012076e+00 -1.352145e-19
5.1126         4.313000e+02 7.492673e+02 3.049648e-17 4.180807e+02 7.532780e+02 3.063181e-17 1.321927e+01 -4.010726e+00 -1.353286e-19
5.1127         4.313051e+02 7.492984e+02 3.046057e-17 4.180896e+02 7.533078e+02 3.059601e-17 1.321545e+01 -4.009379e+00 -1.354430e-19
5.1128         4.313029e+02 7.493641e+02 3.045335e-17 4.180913e+02 7.533722e+02 3.058890e-17 1.321163e+01 -4.008034e+00 -1.355544e-19
5.1129         4.311049e+02 7.489590e+02 3.024444e-17 4.178971e+02 7.529657e+02 3.038010e-17 1.320781e+01 -4.006693e+00 -1.356647e-19
5.113          4.310500e+02 7.488804e+02 3.025345e-17 4.178460e+02 7.528857e+02 3.038922e-17 1.320399e+01 -4.005354e+00 -1.357753e-19
5.1131         4.310171e+02 7.488238e+02 3.020329e-17 4.178169e+02 7.528278e+02 3.033917e-17 1.320017e+01 -4.004018e+00 -1.358847e-19
5.1132         4.308721e+02 7.485431e+02 3.018422e-17 4.176757e+02 7.525458e+02 3.032021e-17 1.319635e+01 -4.002685e+00 -1.359908e-19
5.1133         4.312775e+02 7.495724e+02 3.018314e-17 4.180850e+02 7.535737e+02 3.031926e-17 1.319254e+01 -4.001355e+00 -1.361165e-19
5.1134         4.311694e+02 7.494276e+02 3.016559e-17 4.179807e+02 7.534276e+02 3.030182e-17 1.318871e+01 -4.000022e+00 -1.362286e-19
5.1135         4.311734e+02 7.494163e+02 3.009640e-17 4.179885e+02 7.534150e+02 3.023273e-17 1.318489e+01 -3.998690e+00 -1.363295e-19
5.1136         4.311201e+02 7.493232e+02 3.005811e-17 4.179391e+02 7.533206e+02 3.019455e-17 1.318106e+01 -3.997362e+00 -1.364346e-19
5.1137         4.310489e+02 7.492056e+02 3.003029e-17 4.178717e+02 7.532016e+02 3.016683e-17 1.317724e+01 -3.996036e+00 -1.365384e-19
5.1138         4.310140e+02 7.491504e+02 2.997619e-17 4.178406e+02 7.531451e+02 3.011283e-17 1.317342e+01 -3.994713e+00 -1.366423e-19
5.1139         4.309447e+02 7.490398e+02 2.993365e-17 4.177751e+02 7.530332e+02 3.007039e-17 1.316959e+01 -3.993392e+00 -1.367448e-19
5.114          4.309474e+02 7.490818e+02 2.989757e-17 4.177817e+02 7.530739e+02 3.003441e-17 1.316577e+01 -3.992074e+00 -1.368486e-19
5.1141         4.308581e+02 7.489302e+02 2.986159e-17 4.176961e+02 7.529210e+02 2.999854e-17 1.316195e+01 -3.990757e+00 -1.369483e-19
5.1142         4.308127e+02 7.488512e+02 2.981056e-17 4.176546e+02 7.528407e+02 2.994761e-17 1.315813e+01 -3.989442e+00 -1.370489e-19
5.1143         4.307765e+02 7.487945e+02 2.976923e-17 4.176222e+02 7.527826e+02 2.990637e-17 1.315431e+01 -3.988129e+00 -1.371477e-19
5.1144         4.307327e+02 7.487243e+02 2.971818e-17 4.175822e+02 7.527111e+02 2.985543e-17 1.315048e+01 -3.986817e+00 -1.372448e-19
5.1145         4.306516e+02 7.485849e+02 2.967327e-17 4.175049e+02 7.525704e+02 2.981061e-17 1.314666e+01 -3.985506e+00 -1.373399e-19
5.1146         4.306283e+02 7.485507e+02 2.964816e-17 4.174854e+02 7.525348e+02 2.978560e-17 1.314283e+01 -3.984194e+00 -1.374346e-19
5.1147         4.305570e+02 7.484140e+02 2.959961e-17 4.174180e+02 7.523969e+02 2.973713e-17 1.313900e+01 -3.982881e+00 -1.375261e-19
5.1148         4.304804e+02 7.482327e+02 2.954554e-17 4.173452e+02 7.522143e+02 2.968316e-17 1.313516e+01 -3.981561e+00 -1.376142e-19
5.1149         4.308392e+02 7.491784e+02 2.959039e-17 4.177079e+02 7.531587e+02 2.972811e-17 1.313133e+01 -3.980245e+00 -1.377126e-19
5.115          4.305558e+02 7.487181e+02 2.951870e-17 4.174282e+02 7.526971e+02 2.965651e-17 1.312755e+01 -3.978986e+00 -1.378129e-19
5.1151         4.305708e+02 7.487124e+02 2.947693e-17 4.174471e+02 7.526901e+02 2.961484e-17 1.312378e+01 -3.977733e+00 -1.379169e-19
5.1152         4.304349e+02 7.484484e+02 2.942163e-17 4.173149e+02 7.524249e+02 2.955965e-17 1.312001e+01 -3.976486e+00 -1.380163e-19
5.1153         4.303628e+02 7.482994e+02 2.934756e-17 4.172466e+02 7.522747e+02 2.948567e-17 1.311624e+01 -3.975243e+00 -1.381142e-19
5.1154         4.303248e+02 7.482534e+02 2.930951e-17 4.172124e+02 7.522274e+02 2.944772e-17 1.311246e+01 -3.974004e+00 -1.382136e-19
5.1155         4.302843e+02 7.481952e+02 2.928054e-17 4.171756e+02 7.521679e+02 2.941885e-17 1.310869e+01 -3.972769e+00 -1.383111e-19
5.1156         4.302329e+02 7.481015e+02 2.922493e-17 4.171280e+02 7.520730e+02 2.936334e-17 1.310493e+01 -3.971539e+00 -1.384061e-19
5.1157         4.301599e+02 7.479866e+02 2.919446e-17 4.170587e+02 7.519569e+02 2.933296e-17 1.310116e+01 -3.970312e+00 -1.385010e-19
5.1158         4.301068e+02 7.479001e+02 2.914843e-17 4.170094e+02 7.518692e+02 2.928703e-17 1.309739e+01 -3.969088e+00 -1.385945e-19
5.1159         4.300713e+02 7.478333e+02 2.909388e-17 4.169777e+02 7.518012e+02 2.923256e-17 1.309362e+01 -3.967869e+00 -1.386864e-19
5.116          4.300818e+02 7.479130e+02 2.907949e-17 4.169919e+02 7.518796e+02 2.921827e-17 1.308985e+01 -3.966654e+00 -1.387812e-19
5.1161         4.299373e+02 7.476229e+02 2.905023e-17 4.168512e+02 7.515883e+02 2.918911e-17 1.308608e+01 -3.965443e+00 -1.388706e-19
5.1162         4.299735e+02 7.477225e+02 2.905324e-17 4.168912e+02 7.516868e+02 2.919221e-17 1.308231e+01 -3.964237e+00 -1.389628e-19
5.1163         4.298146e+02 7.473940e+02 2.890567e-17 4.167360e+02 7.513570e+02 2.904472e-17 1.307853e+01 -3.963041e+00 -1.390483e-19
5.1164         4.298079e+02 7.474002e+02 2.887678e-17 4.167332e+02 7.513620e+02 2.901593e-17 1.307474e+01 -3.961876e+00 -1.391432e-19
5.1165         4.296748e+02 7.471545e+02 2.883068e-17 4.166038e+02 7.511151e+02 2.896990e-17 1.307099e+01 -3.960637e+00 -1.392221e-19
5.1166         4.295782e+02 7.469475e+02 2.877813e-17 4.165110e+02 7.509070e+02 2.891743e-17 1.306723e+01 -3.959403e+00 -1.392957e-19
5.1167         4.298263e+02 7.475369e+02 2.876803e-17 4.167629e+02 7.514951e+02 2.890741e-17 1.306348e+01 -3.958173e+00 -1.393787e-19
5.1168         4.297005e+02 7.472896e+02 2.871429e-17 4.166408e+02 7.512465e+02 2.885375e-17 1.305972e+01 -3.956944e+00 -1.394557e-19
5.1169         4.296491e+02 7.472074e+02 2.868918e-17 4.165932e+02 7.511631e+02 2.882871e-17 1.305596e+01 -3.955718e+00 -1.395306e-19
5.117          4.295893e+02 7.471019e+02 2.862517e-17 4.165371e+02 7.510564e+02 2.876477e-17 1.305221e+01 -3.954494e+00 -1.396034e-19
5.1171         4.295564e+02 7.470554e+02 2.857801e-17 4.165080e+02 7.510087e+02 2.871769e-17 1.304845e+01 -3.953272e+00 -1.396764e-19
5.1172         4.295213e+02 7.470057e+02 2.852811e-17 4.164766e+02 7.509578e+02 2.866785e-17 1.304469e+01 -3.952052e+00 -1.397483e-19
5.1173         4.294644e+02 7.469250e+02 2.848528e-17 4.164234e+02 7.508759e+02 2.862509e-17 1.304094e+01 -3.950835e+00 -1.398194e-19
5.1174         4.294266e+02 7.468743e+02 2.845520e-17 4.163894e+02 7.508239e+02 2.859509e-17 1.303718e+01 -3.949619e+00 -1.398891e-19
5.1175         4.294090e+02 7.468737e+02 2.842180e-17 4.163755e+02 7.508221e+02 2.856176e-17 1.303343e+01 -3.948406e+00 -1.399594e-19
5.1176         4.293714e+02 7.468119e+02 2.835805e-17 4.163417e+02 7.507591e+02 2.849808e-17 1.302968e+01 -3.947194e+00 -1.400264e-19
5.1177         4.293350e+02 7.467641e+02 2.831604e-17 4.163091e+02 7.507101e+02 2.845614e-17 1.302593e+01 -3.945985e+00 -1.400932e-19
5.1178         4.293225e+02 7.467578e+02 2.826114e-17 4.163003e+02 7.507025e+02 2.840130e-17 1.302217e+01 -3.944778e+00 -1.401588e-19
5.1179         4.292197e+02 7.465942e+02 2.820150e-17 4.162012e+02 7.505378e+02 2.834172e-17 1.301842e+01 -3.943573e+00 -1.402221e-19
5.118          4.291817e+02 7.465511e+02 2.815565e-17 4.161670e+02 7.504935e+02 2.829593e-17 1.301468e+01 -3.942371e+00 -1.402858e-19
5.1181         4.291327e+02 7.464878e+02 2.809331e-17 4.161217e+02 7.504289e+02 2.823366e-17 1.301093e+01 -3.941171e+00 -1.403479e-19
5.1182         4.291181e+02 7.464891e+02 2.813272e-17 4.161109e+02 7.504290e+02 2.827313e-17 1.300718e+01 -3.939973e+00 -1.404095e-19
5.1183         4.291605e+02 7.466030e+02 2.807010e-17 4.161570e+02 7.505418e+02 2.821057e-17 1.300344e+01 -3.938777e+00 -1.404718e-19
5.1184         4.291127e+02 7.465453e+02 2.802280e-17 4.161130e+02 7.504829e+02 2.816334e-17 1.299969e+01 -3.937583e+00 -1.405308e-19
5.1185         4.290911e+02 7.465467e+02 2.797936e-17 4.160952e+02 7.504831e+02 2.811995e-17 1.299595e+01 -3.936392e+00 -1.405902e-19
5.1186         4.290286e+02 7.464606e+02 2.793823e-17 4.160364e+02 7.503958e+02 2.807888e-17 1.299221e+01 -3.935204e+00 -1.406466e-19
5.1187         4.290079e+02 7.464472e+02 2.788159e-17 4.160194e+02 7.503812e+02 2.802229e-17 1.298847e+01 -3.934017e+00 -1.407028e-19
5.1188         4.289776e+02 7.464238e+02 2.783252e-17 4.159928e+02 7.503566e+02 2.797328e-17 1.298474e+01 -3.932833e+00 -1.407583e-19
5.1189         4.289373e+02 7.464121e+02 2.780627e-17 4.159563e+02 7.503438e+02 2.794709e-17 1.298100e+01 -3.931650e+00 -1.408138e-19
5.119          4.288478e+02 7.461550e+02 2.782250e-17 4.158705e+02 7.500854e+02 2.796336e-17 1.297727e+01 -3.930469e+00 -1.408629e-19
5.1191         4.288143e+02 7.461378e+02 2.764249e-17 4.158408e+02 7.500671e+02 2.778340e-17 1.297354e+01 -3.929294e+00 -1.409165e-19
5.1192         4.288536e+02 7.462720e+02 2.760814e-17 4.158838e+02 7.502001e+02 2.774911e-17 1.296982e+01 -3.928120e+00 -1.409719e-19
5.1193         4.288653e+02 7.463738e+02 2.757765e-17 4.158992e+02 7.503007e+02 2.771868e-17 1.296610e+01 -3.926947e+00 -1.410221e-19
5.1194         4.286878e+02 7.458426e+02 2.748203e-17 4.157254e+02 7.497684e+02 2.762309e-17 1.296237e+01 -3.925780e+00 -1.410606e-19
5.1195         4.286077e+02 7.458005e+02 2.744155e-17 4.156490e+02 7.497251e+02 2.758265e-17 1.295864e+01 -3.924621e+00 -1.411015e-19
5.1196         4.285726e+02 7.457925e+02 2.740853e-17 4.156176e+02 7.497160e+02 2.754967e-17 1.295492e+01 -3.923463e+00 -1.411423e-19
5.1197         4.285452e+02 7.457763e+02 2.735244e-17 4.155940e+02 7.496986e+02 2.749362e-17 1.295119e+01 -3.922306e+00 -1.411813e-19
5.1198         4.285393e+02 7.457889e+02 2.733655e-17 4.155918e+02 7.497101e+02 2.747777e-17 1.294747e+01 -3.921152e+00 -1.412188e-19
5.1199         4.285062e+02 7.457638e+02 2.728415e-17 4.155624e+02 7.496838e+02 2.742541e-17 1.294375e+01 -3.920000e+00 -1.412548e-19
5.12           4.285078e+02 7.457889e+02 2.723618e-17 4.155678e+02 7.497078e+02 2.737747e-17 1.294003e+01 -3.918851e+00 -1.412900e-19
5.1201         4.284719e+02 7.457485e+02 2.718416e-17 4.155356e+02 7.496662e+02 2.732548e-17 1.293632e+01 -3.917704e+00 -1.413232e-19
5.1202         4.284541e+02 7.457400e+02 2.713842e-17 4.155215e+02 7.496565e+02 2.727977e-17 1.293261e+01 -3.916560e+00 -1.413554e-19
5.1203         4.283901e+02 7.456312e+02 2.708221e-17 4.154612e+02 7.495466e+02 2.722360e-17 1.292889e+01 -3.915418e+00 -1.413851e-19
5.1204         4.283929e+02 7.456880e+02 2.703442e-17 4.154677e+02 7.496023e+02 2.717583e-17 1.292518e+01 -3.914280e+00 -1.414114e-19
5.1205         4.283426e+02 7.456240e+02 2.698726e-17 4.154211e+02 7.495371e+02 2.712869e-17 1.292147e+01 -3.913142e+00 -1.414384e-19
5.1206         4.283457e+02 7.456591e+02 2.696376e-17 4.154279e+02 7.495711e+02 2.710522e-17 1.291777e+01 -3.912006e+00 -1.414650e-19
5.1207         4.282956e+02 7.455906e+02 2.690201e-17 4.153815e+02 7.495015e+02 2.704350e-17 1.291406e+01 -3.910872e+00 -1.414893e-19
5.1208         4.283122e+02 7.456572e+02 2.683833e-17 4.154018e+02 7.495669e+02 2.697984e-17 1.291035e+01 -3.909741e+00 -1.415133e-19
5.1209         4.283189e+02 7.457081e+02 2.677999e-17 4.154122e+02 7.496167e+02 2.692152e-17 1.290665e+01 -3.908611e+00 -1.415345e-19
5.121          4.283914e+02 7.459144e+02 2.676724e-17 4.154885e+02 7.498218e+02 2.690880e-17 1.290295e+01 -3.907482e+00 -1.415582e-19
5.1211         4.282044e+02 7.455155e+02 2.668214e-17 4.153052e+02 7.494219e+02 2.682371e-17 1.289925e+01 -3.906356e+00 -1.415714e-19
5.1212         4.280175e+02 7.451218e+02 2.662154e-17 4.151219e+02 7.490270e+02 2.676313e-17 1.289554e+01 -3.905232e+00 -1.415838e-19
5.1213         4.278205e+02 7.446335e+02 2.653480e-17 4.149286e+02 7.485376e+02 2.667639e-17 1.289186e+01 -3.904118e+00 -1.415919e-19
5.1214         4.278842e+02 7.448105e+02 2.649323e-17 4.149961e+02 7.487135e+02 2.663484e-17 1.288817e+01 -3.903004e+00 -1.416095e-19
5.1215         4.279115e+02 7.449003e+02 2.645044e-17 4.150270e+02 7.488022e+02 2.659206e-17 1.288448e+01 -3.901891e+00 -1.416236e-19
5.1216         4.279050e+02 7.449219e+02 2.640195e-17 4.150242e+02 7.488227e+02 2.654358e-17 1.288080e+01 -3.900780e+00 -1.416356e-19
5.1217         4.277182e+02 7.445678e+02 2.634515e-17 4.148411e+02 7.484675e+02 2.648679e-17 1.287711e+01 -3.899671e+00 -1.416445e-19
5.1218         4.277103e+02 7.445734e+02 2.626097e-17 4.148369e+02 7.484720e+02 2.640263e-17 1.287343e+01 -3.898564e+00 -1.416525e-19
5.1219         4.276957e+02 7.445758e+02 2.623182e-17 4.148260e+02 7.484732e+02 2.637348e-17 1.286975e+01 -3.897458e+00 -1.416597e-19
5.122          4.277030e+02 7.446203e+02 2.619160e-17 4.148370e+02 7.485166e+02 2.633327e-17 1.286607e+01 -3.896354e+00 -1.416658e-19
5.1221         4.276706e+02 7.445779e+02 2.613197e-17 4.148083e+02 7.484731e+02 2.627363e-17 1.286239e+01 -3.895252e+00 -1.416688e-19
5.1222         4.276535e+02 7.445648e+02 2.607722e-17 4.147948e+02 7.484589e+02 2.621889e-17 1.285871e+01 -3.894151e+00 -1.416704e-19