# Moment      
# CofR        : (0.000000e+00 0.000000e+00 0.000000e+00)
#
# Time        	total_x total_y total_z	pressure_x pressure_y pressure_z	viscous_x viscous_y viscous_z
5.10001        -3.415827e+02 2.074873e+02 2.840273e+03 -3.436876e+02 2.006302e+02 2.928469e+03 2.104893e+00 6.857071e+00 -8.819646e+01
5.10002        -3.527370e+02 2.124136e+02 2.976081e+03 -3.548412e+02 2.055566e+02 3.064269e+03 2.104252e+00 6.856951e+00 -8.818802e+01
5.10003        -3.603840e+02 2.156080e+02 3.072497e+03 -3.624877e+02 2.087512e+02 3.160677e+03 2.103613e+00 6.856837e+00 -8.817972e+01
5.10004        -3.659480e+02 2.178071e+02 3.143981e+03 -3.680510e+02 2.109504e+02 3.232153e+03 2.102982e+00 6.856724e+00 -8.817154e+01
5.10005        -3.701268e+02 2.194067e+02 3.198099e+03 -3.722291e+02 2.125501e+02 3.286263e+03 2.102364e+00 6.856609e+00 -8.816351e+01
5.10006        -3.731359e+02 2.204554e+02 3.238073e+03 -3.752377e+02 2.135989e+02 3.326229e+03 2.101760e+00 6.856490e+00 -8.815565e+01
5.10007        -3.754348e+02 2.211510e+02 3.269247e+03 -3.775360e+02 2.142946e+02 3.357395e+03 2.101174e+00 6.856367e+00 -8.814796e+01
5.10008        -3.771765e+02 2.216037e+02 3.293311e+03 -3.792771e+02 2.147474e+02 3.381452e+03 2.100604e+00 6.856240e+00 -8.814045e+01
5.10009        -3.785776e+02 2.219042e+02 3.313202e+03 -3.806777e+02 2.150480e+02 3.401335e+03 2.100053e+00 6.856109e+00 -8.813313e+01
5.1001         -3.794336e+02 2.219852e+02 3.326314e+03 -3.815331e+02 2.151292e+02 3.414440e+03 2.099518e+00 6.855974e+00 -8.812598e+01
5.10011        -3.802166e+02 2.220410e+02 3.338279e+03 -3.823156e+02 2.151852e+02 3.426398e+03 2.099001e+00 6.855835e+00 -8.811901e+01
5.10012        -3.808265e+02 2.220510e+02 3.347812e+03 -3.829250e+02 2.151953e+02 3.435925e+03 2.098500e+00 6.855692e+00 -8.811221e+01
5.10013        -3.812845e+02 2.220324e+02 3.355606e+03 -3.833825e+02 2.151768e+02 3.443712e+03 2.098015e+00 6.855547e+00 -8.810557e+01
5.10014        -3.816618e+02 2.220060e+02 3.362070e+03 -3.837593e+02 2.151506e+02 3.450169e+03 2.097545e+00 6.855399e+00 -8.809909e+01
5.10015        -3.818210e+02 2.219015e+02 3.365713e+03 -3.839181e+02 2.150462e+02 3.453806e+03 2.097089e+00 6.855248e+00 -8.809276e+01
5.10016        -3.822030e+02 2.219448e+02 3.371582e+03 -3.842997e+02 2.150897e+02 3.459669e+03 2.096647e+00 6.855096e+00 -8.808657e+01
5.10017        -3.824221e+02 2.219256e+02 3.375406e+03 -3.845183e+02 2.150707e+02 3.463486e+03 2.096218e+00 6.854941e+00 -8.808053e+01
5.10018        -3.824511e+02 2.218135e+02 3.377170e+03 -3.845469e+02 2.149587e+02 3.465244e+03 2.095801e+00 6.854786e+00 -8.807462e+01
5.10019        -3.827356e+02 2.218693e+02 3.381155e+03 -3.848310e+02 2.150146e+02 3.469224e+03 2.095397e+00 6.854629e+00 -8.806884e+01
5.1002         -3.827374e+02 2.217565e+02 3.382279e+03 -3.848324e+02 2.149020e+02 3.470342e+03 2.095004e+00 6.854470e+00 -8.806318e+01
5.10021        -3.828438e+02 2.217194e+02 3.384321e+03 -3.849384e+02 2.148651e+02 3.472379e+03 2.094622e+00 6.854310e+00 -8.805764e+01
5.10022        -3.829848e+02 2.216941e+02 3.386895e+03 -3.850790e+02 2.148399e+02 3.474947e+03 2.094251e+00 6.854149e+00 -8.805221e+01
5.10023        -3.829560e+02 2.215912e+02 3.387407e+03 -3.850499e+02 2.147372e+02 3.475454e+03 2.093890e+00 6.853987e+00 -8.804689e+01
5.10024        -3.829424e+02 2.214791e+02 3.388151e+03 -3.850359e+02 2.146253e+02 3.476193e+03 2.093538e+00 6.853824e+00 -8.804168e+01
5.10025        -3.829993e+02 2.214362e+02 3.389395e+03 -3.850925e+02 2.145825e+02 3.477432e+03 2.093197e+00 6.853659e+00 -8.803657e+01
5.10026        -3.829882e+02 2.213515e+02 3.389848e+03 -3.850811e+02 2.144980e+02 3.477879e+03 2.092864e+00 6.853494e+00 -8.803156e+01
5.10027        -3.829844e+02 2.212698e+02 3.390426e+03 -3.850769e+02 2.144164e+02 3.478453e+03 2.092539e+00 6.853327e+00 -8.802664e+01
5.10028        -3.829373e+02 2.211717e+02 3.390541e+03 -3.850295e+02 2.143185e+02 3.478563e+03 2.092224e+00 6.853160e+00 -8.802181e+01
5.10029        -3.829259e+02 2.211052e+02 3.390806e+03 -3.850178e+02 2.142522e+02 3.478823e+03 2.091916e+00 6.852992e+00 -8.801707e+01
5.1003         -3.828377e+02 2.209764e+02 3.390239e+03 -3.849293e+02 2.141236e+02 3.478251e+03 2.091615e+00 6.852822e+00 -8.801241e+01
5.10031        -3.827137e+02 2.208652e+02 3.389248e+03 -3.848050e+02 2.140125e+02 3.477256e+03 2.091322e+00 6.852652e+00 -8.800783e+01
5.10032        -3.827225e+02 2.208118e+02 3.389750e+03 -3.848135e+02 2.139593e+02 3.477754e+03 2.091037e+00 6.852482e+00 -8.800332e+01
5.10033        -3.826782e+02 2.207316e+02 3.389576e+03 -3.847690e+02 2.138793e+02 3.477575e+03 2.090757e+00 6.852310e+00 -8.799889e+01
5.10034        -3.827247e+02 2.207284e+02 3.390285e+03 -3.848152e+02 2.138763e+02 3.478279e+03 2.090485e+00 6.852138e+00 -8.799453e+01
5.10035        -3.825474e+02 2.205771e+02 3.388714e+03 -3.846376e+02 2.137252e+02 3.476704e+03 2.090219e+00 6.851965e+00 -8.799023e+01
5.10036        -3.823821e+02 2.204323e+02 3.387216e+03 -3.844721e+02 2.135805e+02 3.475202e+03 2.089959e+00 6.851791e+00 -8.798601e+01
5.10037        -3.823852e+02 2.204117e+02 3.387335e+03 -3.844749e+02 2.135601e+02 3.475317e+03 2.089704e+00 6.851617e+00 -8.798184e+01
5.10038        -3.823056e+02 2.203367e+02 3.386651e+03 -3.843950e+02 2.134852e+02 3.474629e+03 2.089456e+00 6.851442e+00 -8.797774e+01
5.10039        -3.821517e+02 2.202221e+02 3.385165e+03 -3.842410e+02 2.133708e+02 3.473139e+03 2.089213e+00 6.851266e+00 -8.797369e+01
5.1004         -3.820742e+02 2.201505e+02 3.384371e+03 -3.841632e+02 2.132994e+02 3.472341e+03 2.088974e+00 6.851090e+00 -8.796970e+01
5.10041        -3.819736e+02 2.200767e+02 3.383253e+03 -3.840623e+02 2.132257e+02 3.471219e+03 2.088741e+00 6.850913e+00 -8.796576e+01
5.10042        -3.818442e+02 2.199848e+02 3.381925e+03 -3.839327e+02 2.131340e+02 3.469887e+03 2.088513e+00 6.850736e+00 -8.796187e+01
5.10043        -3.817378e+02 2.199126e+02 3.380756e+03 -3.838261e+02 2.130620e+02 3.468714e+03 2.088290e+00 6.850559e+00 -8.795804e+01
5.10044        -3.816687e+02 2.198608e+02 3.380003e+03 -3.837567e+02 2.130104e+02 3.467957e+03 2.088071e+00 6.850381e+00 -8.795425e+01
5.10045        -3.817873e+02 2.199023e+02 3.381405e+03 -3.838752e+02 2.130521e+02 3.469356e+03 2.087856e+00 6.850202e+00 -8.795051e+01
5.10046        -3.813676e+02 2.196729e+02 3.376774e+03 -3.834552e+02 2.128229e+02 3.464720e+03 2.087646e+00 6.850023e+00 -8.794682e+01
5.10047        -3.811772e+02 2.195515e+02 3.374538e+03 -3.832647e+02 2.127017e+02 3.462481e+03 2.087439e+00 6.849844e+00 -8.794317e+01
5.10048        -3.809714e+02 2.194325e+02 3.372444e+03 -3.830587e+02 2.125829e+02 3.460384e+03 2.087237e+00 6.849664e+00 -8.793955e+01
5.10049        -3.811679e+02 2.195381e+02 3.374516e+03 -3.832550e+02 2.126886e+02 3.462452e+03 2.087038e+00 6.849484e+00 -8.793598e+01
5.1005         -3.809957e+02 2.194355e+02 3.372545e+03 -3.830826e+02 2.125862e+02 3.460477e+03 2.086843e+00 6.849303e+00 -8.793245e+01
5.10051        -3.810120e+02 2.194510e+02 3.372836e+03 -3.830986e+02 2.126019e+02 3.460765e+03 2.086651e+00 6.849122e+00 -8.792895e+01
5.10052        -3.807607e+02 2.193065e+02 3.369985e+03 -3.828472e+02 2.124575e+02 3.457910e+03 2.086463e+00 6.848941e+00 -8.792549e+01
5.10053        -3.807802e+02 2.193170e+02 3.370177e+03 -3.828665e+02 2.124683e+02 3.458099e+03 2.086278e+00 6.848760e+00 -8.792206e+01
5.10054        -3.806763e+02 2.192644e+02 3.368818e+03 -3.827624e+02 2.124158e+02 3.456737e+03 2.086096e+00 6.848578e+00 -8.791867e+01
5.10055        -3.805332e+02 2.191848e+02 3.367060e+03 -3.826191e+02 2.123364e+02 3.454976e+03 2.085917e+00 6.848395e+00 -8.791531e+01
5.10056        -3.805333e+02 2.191828e+02 3.367142e+03 -3.826191e+02 2.123346e+02 3.455054e+03 2.085741e+00 6.848213e+00 -8.791198e+01
5.10057        -3.803885e+02 2.191097e+02 3.365451e+03 -3.824741e+02 2.122617e+02 3.453360e+03 2.085567e+00 6.848030e+00 -8.790867e+01
5.10058        -3.803829e+02 2.191036e+02 3.365273e+03 -3.824683e+02 2.122558e+02 3.453179e+03 2.085397e+00 6.847846e+00 -8.790540e+01
5.10059        -3.802359e+02 2.190204e+02 3.363659e+03 -3.823212e+02 2.121727e+02 3.451561e+03 2.085229e+00 6.847663e+00 -8.790215e+01
5.1006         -3.801048e+02 2.189594e+02 3.362100e+03 -3.821898e+02 2.121119e+02 3.449999e+03 2.085064e+00 6.847479e+00 -8.789893e+01
5.10061        -3.798782e+02 2.188485e+02 3.359586e+03 -3.819631e+02 2.120012e+02 3.447482e+03 2.084901e+00 6.847295e+00 -8.789573e+01
5.10062        -3.799141e+02 2.188648e+02 3.359902e+03 -3.819989e+02 2.120177e+02 3.447795e+03 2.084740e+00 6.847110e+00 -8.789256e+01
5.10063        -3.798726e+02 2.188440e+02 3.359346e+03 -3.819572e+02 2.119970e+02 3.447235e+03 2.084582e+00 6.846925e+00 -8.788941e+01
5.10064        -3.797240e+02 2.187713e+02 3.357618e+03 -3.818085e+02 2.119246e+02 3.445504e+03 2.084426e+00 6.846740e+00 -8.788628e+01
5.10065        -3.796564e+02 2.187372e+02 3.356843e+03 -3.817407e+02 2.118907e+02 3.444726e+03 2.084272e+00 6.846555e+00 -8.788318e+01
5.10066        -3.795861e+02 2.187028e+02 3.355950e+03 -3.816702e+02 2.118564e+02 3.443830e+03 2.084120e+00 6.846369e+00 -8.788009e+01
5.10067        -3.794761e+02 2.186597e+02 3.354535e+03 -3.815601e+02 2.118135e+02 3.442412e+03 2.083970e+00 6.846183e+00 -8.787703e+01
5.10068        -3.794563e+02 2.186397e+02 3.354313e+03 -3.815401e+02 2.117937e+02 3.442187e+03 2.083822e+00 6.845997e+00 -8.787398e+01
5.10069        -3.793643e+02 2.185833e+02 3.353322e+03 -3.814480e+02 2.117375e+02 3.441193e+03 2.083676e+00 6.845810e+00 -8.787096e+01
5.1007         -3.792706e+02 2.185468e+02 3.352211e+03 -3.813541e+02 2.117012e+02 3.440079e+03 2.083532e+00 6.845624e+00 -8.786795e+01
5.10071        -3.792473e+02 2.185429e+02 3.351753e+03 -3.813306e+02 2.116975e+02 3.439618e+03 2.083389e+00 6.845437e+00 -8.786495e+01
5.10072        -3.791682e+02 2.185035e+02 3.350892e+03 -3.812514e+02 2.116583e+02 3.438754e+03 2.083249e+00 6.845249e+00 -8.786198e+01
5.10073        -3.790592e+02 2.184497e+02 3.349587e+03 -3.811423e+02 2.116046e+02 3.437446e+03 2.083109e+00 6.845062e+00 -8.785902e+01
5.10074        -3.790192e+02 2.184221e+02 3.349126e+03 -3.811021e+02 2.115773e+02 3.436982e+03 2.082972e+00 6.844874e+00 -8.785608e+01
5.10075        -3.789327e+02 2.183697e+02 3.347953e+03 -3.810155e+02 2.115250e+02 3.435806e+03 2.082836e+00 6.844686e+00 -8.785315e+01
5.10076        -3.789442e+02 2.183779e+02 3.348145e+03 -3.810269e+02 2.115334e+02 3.435995e+03 2.082701e+00 6.844498e+00 -8.785023e+01
5.10077        -3.788920e+02 2.183590e+02 3.347552e+03 -3.809745e+02 2.115147e+02 3.435400e+03 2.082568e+00 6.844310e+00 -8.784732e+01
5.10078        -3.787942e+02 2.183066e+02 3.346479e+03 -3.808767e+02 2.114625e+02 3.434324e+03 2.082436e+00 6.844121e+00 -8.784444e+01
5.10079        -3.788235e+02 2.183295e+02 3.346721e+03 -3.809058e+02 2.114855e+02 3.434563e+03 2.082306e+00 6.843932e+00 -8.784156e+01
5.1008         -3.787419e+02 2.182932e+02 3.345695e+03 -3.808240e+02 2.114495e+02 3.433533e+03 2.082177e+00 6.843743e+00 -8.783870e+01
5.10081        -3.786088e+02 2.182140e+02 3.344218e+03 -3.806908e+02 2.113705e+02 3.432054e+03 2.082049e+00 6.843554e+00 -8.783584e+01
5.10082        -3.786240e+02 2.182282e+02 3.344417e+03 -3.807059e+02 2.113848e+02 3.432250e+03 2.081923e+00 6.843365e+00 -8.783301e+01
5.10083        -3.786298e+02 2.182395e+02 3.344174e+03 -3.807116e+02 2.113964e+02 3.432005e+03 2.081797e+00 6.843175e+00 -8.783018e+01
5.10084        -3.785391e+02 2.181962e+02 3.343016e+03 -3.806208e+02 2.113532e+02 3.430843e+03 2.081673e+00 6.842985e+00 -8.782736e+01
5.10085        -3.784895e+02 2.181660e+02 3.342657e+03 -3.805710e+02 2.113232e+02 3.430482e+03 2.081550e+00 6.842795e+00 -8.782455e+01
5.10086        -3.784810e+02 2.181767e+02 3.342558e+03 -3.805624e+02 2.113341e+02 3.430380e+03 2.081428e+00 6.842605e+00 -8.782175e+01
5.10087        -3.784521e+02 2.181599e+02 3.342143e+03 -3.805334e+02 2.113175e+02 3.429962e+03 2.081307e+00 6.842415e+00 -8.781897e+01
5.10088        -3.784326e+02 2.181512e+02 3.341859e+03 -3.805138e+02 2.113090e+02 3.429675e+03 2.081188e+00 6.842225e+00 -8.781619e+01
5.10089        -3.783437e+02 2.181043e+02 3.340821e+03 -3.804248e+02 2.112622e+02 3.428635e+03 2.081069e+00 6.842034e+00 -8.781342e+01
5.1009         -3.783220e+02 2.180956e+02 3.340510e+03 -3.804030e+02 2.112538e+02 3.428320e+03 2.080951e+00 6.841843e+00 -8.781067e+01
5.10091        -3.782770e+02 2.180751e+02 3.339898e+03 -3.803579e+02 2.112335e+02 3.427706e+03 2.080834e+00 6.841653e+00 -8.780792e+01
5.10092        -3.782266e+02 2.180469e+02 3.339380e+03 -3.803073e+02 2.112055e+02 3.427185e+03 2.080719e+00 6.841462e+00 -8.780517e+01
5.10093        -3.782137e+02 2.180426e+02 3.339156e+03 -3.802943e+02 2.112013e+02 3.426958e+03 2.080604e+00 6.841270e+00 -8.780244e+01
5.10094        -3.781706e+02 2.180213e+02 3.338636e+03 -3.802511e+02 2.111803e+02 3.426436e+03 2.080490e+00 6.841079e+00 -8.779971e+01
5.10095        -3.781319e+02 2.180021e+02 3.338202e+03 -3.802123e+02 2.111612e+02 3.425999e+03 2.080376e+00 6.840888e+00 -8.779699e+01
5.10096        -3.780678e+02 2.179679e+02 3.337419e+03 -3.801480e+02 2.111272e+02 3.425214e+03 2.080264e+00 6.840696e+00 -8.779428e+01
5.10097        -3.780544e+02 2.179655e+02 3.337228e+03 -3.801346e+02 2.111250e+02 3.425020e+03 2.080152e+00 6.840505e+00 -8.779157e+01
5.10098        -3.780180e+02 2.179453e+02 3.336780e+03 -3.800981e+02 2.111050e+02 3.424569e+03 2.080041e+00 6.840313e+00 -8.778888e+01
5.10099        -3.779829e+02 2.179259e+02 3.336349e+03 -3.800628e+02 2.110857e+02 3.424135e+03 2.079931e+00 6.840121e+00 -8.778618e+01
5.101          -3.779858e+02 2.179318e+02 3.336351e+03 -3.800657e+02 2.110919e+02 3.424135e+03 2.079822e+00 6.839929e+00 -8.778350e+01
5.10101        -3.779585e+02 2.179099e+02 3.336002e+03 -3.800382e+02 2.110702e+02 3.423783e+03 2.079713e+00 6.839737e+00 -8.778081e+01
5.10102        -3.778815e+02 2.178793e+02 3.335158e+03 -3.799611e+02 2.110398e+02 3.422936e+03 2.079605e+00 6.839544e+00 -8.777814e+01
5.10103        -3.778869e+02 2.178792e+02 3.335164e+03 -3.799664e+02 2.110398e+02 3.422940e+03 2.079498e+00 6.839352e+00 -8.777547e+01
5.10104        -3.778711e+02 2.178728e+02 3.334895e+03 -3.799505e+02 2.110337e+02 3.422667e+03 2.079391e+00 6.839159e+00 -8.777280e+01
5.10105        -3.778486e+02 2.178639e+02 3.334646e+03 -3.799278e+02 2.110250e+02 3.422416e+03 2.079285e+00 6.838967e+00 -8.777014e+01
5.10106        -3.778354e+02 2.178586e+02 3.334468e+03 -3.799146e+02 2.110199e+02 3.422236e+03 2.079180e+00 6.838774e+00 -8.776749e+01
5.10107        -3.778179e+02 2.178465e+02 3.334200e+03 -3.798969e+02 2.110080e+02 3.421965e+03 2.079075e+00 6.838581e+00 -8.776484e+01
5.10108        -3.778527e+02 2.178715e+02 3.334454e+03 -3.799317e+02 2.110331e+02 3.422216e+03 2.078971e+00 6.838388e+00 -8.776219e+01
5.10109        -3.778358e+02 2.178617e+02 3.334299e+03 -3.799147e+02 2.110235e+02 3.422059e+03 2.078867e+00 6.838195e+00 -8.775955e+01
5.1011         -3.777896e+02 2.178253e+02 3.333816e+03 -3.798683e+02 2.109873e+02 3.421573e+03 2.078764e+00 6.838002e+00 -8.775691e+01
5.10111        -3.778153e+02 2.178509e+02 3.333981e+03 -3.798940e+02 2.110131e+02 3.421736e+03 2.078662e+00 6.837808e+00 -8.775428e+01
5.10112        -3.777357e+02 2.177955e+02 3.333226e+03 -3.798142e+02 2.109578e+02 3.420977e+03 2.078560e+00 6.837615e+00 -8.775165e+01
5.10113        -3.777051e+02 2.177832e+02 3.332822e+03 -3.797835e+02 2.109458e+02 3.420571e+03 2.078458e+00 6.837421e+00 -8.774902e+01
5.10114        -3.776664e+02 2.177640e+02 3.332354e+03 -3.797448e+02 2.109268e+02 3.420100e+03 2.078357e+00 6.837228e+00 -8.774639e+01
5.10115        -3.776618e+02 2.177601e+02 3.332284e+03 -3.797400e+02 2.109231e+02 3.420028e+03 2.078257e+00 6.837034e+00 -8.774377e+01
5.10116        -3.776618e+02 2.177453e+02 3.332299e+03 -3.797399e+02 2.109084e+02 3.420040e+03 2.078157e+00 6.836840e+00 -8.774116e+01
5.10117        -3.776120e+02 2.177312e+02 3.331632e+03 -3.796900e+02 2.108945e+02 3.419371e+03 2.078057e+00 6.836646e+00 -8.773854e+01
5.10118        -3.776249e+02 2.177386e+02 3.331920e+03 -3.797029e+02 2.109021e+02 3.419656e+03 2.077958e+00 6.836452e+00 -8.773593e+01
5.10119        -3.777097e+02 2.177919e+02 3.332654e+03 -3.797875e+02 2.109556e+02 3.420387e+03 2.077859e+00 6.836258e+00 -8.773332e+01
5.1012         -3.775761e+02 2.177120e+02 3.331263e+03 -3.796538e+02 2.108760e+02 3.418994e+03 2.077761e+00 6.836064e+00 -8.773071e+01
5.10121        -3.775263e+02 2.176798e+02 3.330794e+03 -3.796040e+02 2.108439e+02 3.418522e+03 2.077663e+00 6.835869e+00 -8.772811e+01
5.10122        -3.776499e+02 2.177400e+02 3.331969e+03 -3.797274e+02 2.109043e+02 3.419694e+03 2.077565e+00 6.835675e+00 -8.772551e+01
5.10123        -3.776326e+02 2.177309e+02 3.331805e+03 -3.797101e+02 2.108954e+02 3.419528e+03 2.077468e+00 6.835480e+00 -8.772291e+01
5.10124        -3.776255e+02 2.177335e+02 3.331689e+03 -3.797029e+02 2.108982e+02 3.419409e+03 2.077372e+00 6.835286e+00 -8.772031e+01
5.10125        -3.775165e+02 2.176663e+02 3.330465e+03 -3.795938e+02 2.108312e+02 3.418183e+03 2.077275e+00 6.835091e+00 -8.771771e+01
5.10126        -3.775816e+02 2.176996e+02 3.331264e+03 -3.796588e+02 2.108648e+02 3.418980e+03 2.077179e+00 6.834896e+00 -8.771512e+01
5.10127        -3.775299e+02 2.176727e+02 3.330609e+03 -3.796070e+02 2.108380e+02 3.418322e+03 2.077083e+00 6.834701e+00 -8.771253e+01
5.10128        -3.775728e+02 2.176973e+02 3.331047e+03 -3.796498e+02 2.108628e+02 3.418757e+03 2.076988e+00 6.834506e+00 -8.770994e+01
5.10129        -3.775619e+02 2.176936e+02 3.330861e+03 -3.796388e+02 2.108592e+02 3.418568e+03 2.076893e+00 6.834311e+00 -8.770735e+01
5.1013         -3.775459e+02 2.176798e+02 3.330754e+03 -3.796227e+02 2.108457e+02 3.418459e+03 2.076798e+00 6.834116e+00 -8.770476e+01
5.10131        -3.775328e+02 2.176748e+02 3.330563e+03 -3.796095e+02 2.108409e+02 3.418265e+03 2.076704e+00 6.833921e+00 -8.770218e+01
5.10132        -3.775327e+02 2.176709e+02 3.330538e+03 -3.796093e+02 2.108372e+02 3.418237e+03 2.076610e+00 6.833725e+00 -8.769959e+01
5.10133        -3.775172e+02 2.176619e+02 3.330318e+03 -3.795937e+02 2.108284e+02 3.418015e+03 2.076516e+00 6.833530e+00 -8.769701e+01
5.10134        -3.774257e+02 2.176157e+02 3.329249e+03 -3.795021e+02 2.107823e+02 3.416943e+03 2.076422e+00 6.833335e+00 -8.769443e+01
5.10135        -3.774383e+02 2.176292e+02 3.329209e+03 -3.795146e+02 2.107960e+02 3.416900e+03 2.076329e+00 6.833139e+00 -8.769185e+01
5.10136        -3.774875e+02 2.176455e+02 3.329878e+03 -3.795638e+02 2.108126e+02 3.417568e+03 2.076236e+00 6.832943e+00 -8.768927e+01
5.10137        -3.775100e+02 2.176561e+02 3.330159e+03 -3.795861e+02 2.108233e+02 3.417846e+03 2.076144e+00 6.832748e+00 -8.768669e+01
5.10138        -3.775098e+02 2.176528e+02 3.330131e+03 -3.795859e+02 2.108202e+02 3.417815e+03 2.076051e+00 6.832552e+00 -8.768411e+01
5.10139        -3.775066e+02 2.176528e+02 3.330094e+03 -3.795826e+02 2.108205e+02 3.417776e+03 2.075959e+00 6.832356e+00 -8.768154e+01
5.1014         -3.774640e+02 2.176210e+02 3.329662e+03 -3.795399e+02 2.107888e+02 3.417341e+03 2.075867e+00 6.832160e+00 -8.767896e+01
5.10141        -3.774652e+02 2.176279e+02 3.329603e+03 -3.795410e+02 2.107960e+02 3.417279e+03 2.075776e+00 6.831964e+00 -8.767639e+01
5.10142        -3.774694e+02 2.176280e+02 3.329668e+03 -3.795451e+02 2.107962e+02 3.417342e+03 2.075684e+00 6.831768e+00 -8.767382e+01
5.10143        -3.774319e+02 2.175999e+02 3.329250e+03 -3.795075e+02 2.107684e+02 3.416922e+03 2.075593e+00 6.831572e+00 -8.767124e+01
5.10144        -3.774896e+02 2.176358e+02 3.329871e+03 -3.795651e+02 2.108045e+02 3.417539e+03 2.075502e+00 6.831376e+00 -8.766867e+01
5.10145        -3.774922e+02 2.176424e+02 3.329805e+03 -3.795676e+02 2.108112e+02 3.417471e+03 2.075411e+00 6.831180e+00 -8.766610e+01
5.10146        -3.774576e+02 2.176177e+02 3.329466e+03 -3.795329e+02 2.107867e+02 3.417129e+03 2.075321e+00 6.830984e+00 -8.766353e+01
5.10147        -3.774924e+02 2.176359e+02 3.329744e+03 -3.795676e+02 2.108051e+02 3.417405e+03 2.075231e+00 6.830787e+00 -8.766096e+01
5.10148        -3.776195e+02 2.176992e+02 3.331183e+03 -3.796946e+02 2.108686e+02 3.418841e+03 2.075141e+00 6.830591e+00 -8.765839e+01
5.10149        -3.774676e+02 2.176202e+02 3.329523e+03 -3.795427e+02 2.107898e+02 3.417179e+03 2.075051e+00 6.830395e+00 -8.765583e+01
5.1015         -3.774577e+02 2.176123e+02 3.329394e+03 -3.795327e+02 2.107821e+02 3.417047e+03 2.074961e+00 6.830198e+00 -8.765326e+01
5.10151        -3.774789e+02 2.176304e+02 3.329535e+03 -3.795537e+02 2.108004e+02 3.417186e+03 2.074872e+00 6.830002e+00 -8.765069e+01
5.10152        -3.774580e+02 2.176100e+02 3.329396e+03 -3.795328e+02 2.107801e+02 3.417044e+03 2.074782e+00 6.829805e+00 -8.764812e+01
5.10153        -3.774352e+02 2.175936e+02 3.329209e+03 -3.795099e+02 2.107640e+02 3.416854e+03 2.074693e+00 6.829609e+00 -8.764556e+01
5.10154        -3.774462e+02 2.176025e+02 3.329248e+03 -3.795208e+02 2.107731e+02 3.416891e+03 2.074604e+00 6.829412e+00 -8.764299e+01
5.10155        -3.774281e+02 2.175980e+02 3.329008e+03 -3.795027e+02 2.107688e+02 3.416649e+03 2.074515e+00 6.829215e+00 -8.764042e+01
5.10156        -3.774467e+02 2.175950e+02 3.329314e+03 -3.795211e+02 2.107660e+02 3.416952e+03 2.074427e+00 6.829018e+00 -8.763786e+01
5.10157        -3.774596e+02 2.176046e+02 3.329416e+03 -3.795340e+02 2.107758e+02 3.417051e+03 2.074338e+00 6.828821e+00 -8.763529e+01
5.10158        -3.774437e+02 2.175934e+02 3.329227e+03 -3.795179e+02 2.107648e+02 3.416859e+03 2.074250e+00 6.828625e+00 -8.763272e+01
5.10159        -3.774624e+02 2.176040e+02 3.329396e+03 -3.795365e+02 2.107756e+02 3.417026e+03 2.074162e+00 6.828428e+00 -8.763016e+01
5.1016         -3.774784e+02 2.176121e+02 3.329556e+03 -3.795524e+02 2.107838e+02 3.417184e+03 2.074074e+00 6.828231e+00 -8.762759e+01
5.10161        -3.774466e+02 2.175912e+02 3.329270e+03 -3.795205e+02 2.107631e+02 3.416895e+03 2.073986e+00 6.828034e+00 -8.762502e+01
5.10162        -3.774460e+02 2.175892e+02 3.329244e+03 -3.795199e+02 2.107614e+02 3.416867e+03 2.073898e+00 6.827836e+00 -8.762246e+01
5.10163        -3.774291e+02 2.175764e+02 3.329072e+03 -3.795029e+02 2.107487e+02 3.416691e+03 2.073811e+00 6.827639e+00 -8.761989e+01
5.10164        -3.774374e+02 2.175791e+02 3.329219e+03 -3.795111e+02 2.107516e+02 3.416836e+03 2.073723e+00 6.827442e+00 -8.761732e+01
5.10165        -3.773991e+02 2.175585e+02 3.328738e+03 -3.794728e+02 2.107312e+02 3.416353e+03 2.073636e+00 6.827245e+00 -8.761475e+01
5.10166        -3.774886e+02 2.176077e+02 3.329687e+03 -3.795621e+02 2.107807e+02 3.417299e+03 2.073548e+00 6.827048e+00 -8.761219e+01
5.10167        -3.774599e+02 2.175891e+02 3.329331e+03 -3.795334e+02 2.107622e+02 3.416940e+03 2.073461e+00 6.826850e+00 -8.760962e+01
5.10168        -3.774615e+02 2.175897e+02 3.329366e+03 -3.795349e+02 2.107630e+02 3.416973e+03 2.073374e+00 6.826653e+00 -8.760705e+01
5.10169        -3.774460e+02 2.175812e+02 3.329230e+03 -3.795193e+02 2.107547e+02 3.416835e+03 2.073288e+00 6.826455e+00 -8.760448e+01
5.1017         -3.774521e+02 2.175822e+02 3.329310e+03 -3.795253e+02 2.107560e+02 3.416912e+03 2.073201e+00 6.826258e+00 -8.760191e+01
5.10171        -3.773871e+02 2.175403e+02 3.328619e+03 -3.794602e+02 2.107143e+02 3.416219e+03 2.073114e+00 6.826061e+00 -8.759935e+01
5.10172        -3.774865e+02 2.176008e+02 3.329683e+03 -3.795595e+02 2.107749e+02 3.417280e+03 2.073028e+00 6.825863e+00 -8.759678e+01
5.10173        -3.775286e+02 2.176212e+02 3.330150e+03 -3.796016e+02 2.107956e+02 3.417744e+03 2.072941e+00 6.825665e+00 -8.759421e+01
5.10174        -3.774113e+02 2.175518e+02 3.328975e+03 -3.794842e+02 2.107263e+02 3.416566e+03 2.072855e+00 6.825468e+00 -8.759164e+01
5.10175        -3.774063e+02 2.175514e+02 3.328833e+03 -3.794791e+02 2.107262e+02 3.416422e+03 2.072769e+00 6.825270e+00 -8.758907e+01
5.10176        -3.774596e+02 2.175801e+02 3.329379e+03 -3.795323e+02 2.107550e+02 3.416965e+03 2.072682e+00 6.825073e+00 -8.758650e+01
5.10177        -3.774441e+02 2.175757e+02 3.329180e+03 -3.795167e+02 2.107508e+02 3.416764e+03 2.072596e+00 6.824875e+00 -8.758393e+01
5.10178        -3.773849e+02 2.175466e+02 3.328459e+03 -3.794574e+02 2.107219e+02 3.416040e+03 2.072510e+00 6.824677e+00 -8.758135e+01
5.10179        -3.774518e+02 2.175763e+02 3.329242e+03 -3.795243e+02 2.107518e+02 3.416821e+03 2.072425e+00 6.824479e+00 -8.757878e+01
5.1018         -3.774174e+02 2.175549e+02 3.328911e+03 -3.794897e+02 2.107306e+02 3.416487e+03 2.072339e+00 6.824282e+00 -8.757621e+01
5.10181        -3.774585e+02 2.175793e+02 3.329338e+03 -3.795307e+02 2.107552e+02 3.416912e+03 2.072253e+00 6.824084e+00 -8.757364e+01
5.10182        -3.774638e+02 2.175818e+02 3.329395e+03 -3.795360e+02 2.107579e+02 3.416966e+03 2.072167e+00 6.823886e+00 -8.757107e+01
5.10183        -3.774284e+02 2.175641e+02 3.328991e+03 -3.795005e+02 2.107404e+02 3.416560e+03 2.072082e+00 6.823688e+00 -8.756849e+01
5.10184        -3.774451e+02 2.175726e+02 3.329158e+03 -3.795171e+02 2.107491e+02 3.416724e+03 2.071997e+00 6.823491e+00 -8.756592e+01
5.10185        -3.774558e+02 2.175830e+02 3.329232e+03 -3.795277e+02 2.107597e+02 3.416795e+03 2.071911e+00 6.823293e+00 -8.756335e+01
5.10186        -3.774210e+02 2.175651e+02 3.328917e+03 -3.794928e+02 2.107420e+02 3.416478e+03 2.071826e+00 6.823095e+00 -8.756077e+01
5.10187        -3.774466e+02 2.175631e+02 3.329125e+03 -3.795183e+02 2.107402e+02 3.416684e+03 2.071741e+00 6.822897e+00 -8.755820e+01
5.10188        -3.774576e+02 2.175545e+02 3.329114e+03 -3.795293e+02 2.107318e+02 3.416669e+03 2.071655e+00 6.822699e+00 -8.755562e+01
5.10189        -3.774681e+02 2.175595e+02 3.329263e+03 -3.795397e+02 2.107370e+02 3.416816e+03 2.071570e+00 6.822501e+00 -8.755304e+01
5.1019         -3.774322e+02 2.175422e+02 3.328962e+03 -3.795037e+02 2.107199e+02 3.416513e+03 2.071485e+00 6.822302e+00 -8.755046e+01
5.10191        -3.774294e+02 2.175438e+02 3.328902e+03 -3.795008e+02 2.107217e+02 3.416450e+03 2.071400e+00 6.822104e+00 -8.754788e+01
5.10192        -3.774302e+02 2.175468e+02 3.328844e+03 -3.795015e+02 2.107249e+02 3.416389e+03 2.071315e+00 6.821906e+00 -8.754530e+01
5.10193        -3.774471e+02 2.175565e+02 3.329047e+03 -3.795184e+02 2.107348e+02 3.416590e+03 2.071230e+00 6.821708e+00 -8.754272e+01
5.10194        -3.774533e+02 2.175564e+02 3.329098e+03 -3.795245e+02 2.107349e+02 3.416638e+03 2.071145e+00 6.821510e+00 -8.754014e+01
5.10195        -3.774652e+02 2.175548e+02 3.329258e+03 -3.795363e+02 2.107335e+02 3.416795e+03 2.071061e+00 6.821311e+00 -8.753756e+01
5.10196        -3.773908e+02 2.175260e+02 3.328451e+03 -3.794618e+02 2.107049e+02 3.415986e+03 2.070976e+00 6.821113e+00 -8.753497e+01
5.10197        -3.774739e+02 2.175763e+02 3.329305e+03 -3.795448e+02 2.107554e+02 3.416838e+03 2.070891e+00 6.820915e+00 -8.753239e+01
5.10198        -3.774625e+02 2.175633e+02 3.329187e+03 -3.795333e+02 2.107426e+02 3.416717e+03 2.070807e+00 6.820717e+00 -8.752981e+01
5.10199        -3.774171e+02 2.175430e+02 3.328649e+03 -3.794878e+02 2.107225e+02 3.416176e+03 2.070722e+00 6.820518e+00 -8.752723e+01
5.102          -3.774189e+02 2.175449e+02 3.328637e+03 -3.794896e+02 2.107246e+02 3.416162e+03 2.070638e+00 6.820320e+00 -8.752464e+01
5.10201        -3.774012e+02 2.175358e+02 3.328427e+03 -3.794718e+02 2.107157e+02 3.415949e+03 2.070553e+00 6.820122e+00 -8.752206e+01
5.10202        -3.773938e+02 2.175318e+02 3.328332e+03 -3.794642e+02 2.107119e+02 3.415852e+03 2.070469e+00 6.819924e+00 -8.751947e+01
5.10203        -3.774061e+02 2.175393e+02 3.328475e+03 -3.794764e+02 2.107195e+02 3.415991e+03 2.070384e+00 6.819725e+00 -8.751689e+01
5.10204        -3.773062e+02 2.174894e+02 3.327234e+03 -3.793765e+02 2.106699e+02 3.414749e+03 2.070300e+00 6.819527e+00 -8.751430e+01
5.10205        -3.773744e+02 2.175241e+02 3.328081e+03 -3.794446e+02 2.107047e+02 3.415593e+03 2.070216e+00 6.819329e+00 -8.751172e+01
5.10206        -3.773297e+02 2.174943e+02 3.327611e+03 -3.793999e+02 2.106752e+02 3.415120e+03 2.070132e+00 6.819130e+00 -8.750913e+01
5.10207        -3.773754e+02 2.175213e+02 3.328111e+03 -3.794454e+02 2.107023e+02 3.415618e+03 2.070048e+00 6.818932e+00 -8.750654e+01
5.10208        -3.773038e+02 2.174881e+02 3.327328e+03 -3.793737e+02 2.106694e+02 3.414832e+03 2.069963e+00 6.818734e+00 -8.750396e+01
5.10209        -3.773776e+02 2.175298e+02 3.328092e+03 -3.794475e+02 2.107113e+02 3.415594e+03 2.069879e+00 6.818536e+00 -8.750137e+01
5.1021         -3.774008e+02 2.175355e+02 3.328306e+03 -3.794706e+02 2.107172e+02 3.415805e+03 2.069795e+00 6.818337e+00 -8.749878e+01
5.10211        -3.773925e+02 2.175209e+02 3.328205e+03 -3.794622e+02 2.107028e+02 3.415701e+03 2.069711e+00 6.818139e+00 -8.749619e+01
5.10212        -3.774631e+02 2.175706e+02 3.328907e+03 -3.795327e+02 2.107526e+02 3.416401e+03 2.069627e+00 6.817940e+00 -8.749360e+01
5.10213        -3.773473e+02 2.175041e+02 3.327657e+03 -3.794168e+02 2.106864e+02 3.415148e+03 2.069543e+00 6.817742e+00 -8.749101e+01
5.10214        -3.774112e+02 2.175352e+02 3.328417e+03 -3.794807e+02 2.107177e+02 3.415905e+03 2.069460e+00 6.817544e+00 -8.748841e+01
5.10215        -3.773831e+02 2.175258e+02 3.328016e+03 -3.794525e+02 2.107085e+02 3.415501e+03 2.069376e+00 6.817345e+00 -8.748582e+01
5.10216        -3.773528e+02 2.175164e+02 3.327586e+03 -3.794221e+02 2.106993e+02 3.415069e+03 2.069292e+00 6.817147e+00 -8.748323e+01
5.10217        -3.773195e+02 2.174858e+02 3.327442e+03 -3.793887e+02 2.106689e+02 3.414922e+03 2.069208e+00 6.816948e+00 -8.748064e+01
5.10218        -3.773394e+02 2.175031e+02 3.327531e+03 -3.794085e+02 2.106863e+02 3.415009e+03 2.069124e+00 6.816750e+00 -8.747804e+01
5.10219        -3.773501e+02 2.175091e+02 3.327625e+03 -3.794192e+02 2.106925e+02 3.415101e+03 2.069041e+00 6.816551e+00 -8.747545e+01
5.1022         -3.773485e+02 2.175115e+02 3.327561e+03 -3.794175e+02 2.106952e+02 3.415034e+03 2.068957e+00 6.816353e+00 -8.747285e+01