/*--------------------------------*- C++ -*----------------------------------*\
| =========                 |                                                 |
| \\      /  F ield         | OpenFOAM: The Open Source CFD Toolbox           |
|  \\    /   O peration     | Version:  2306                                  |
|   \\  /    A nd           | Website:  www.openfoam.com                      |
|    \\/     M anipulation  |                                                 |
\*---------------------------------------------------------------------------*/
FoamFile
{
    version     2.0;
    format      ascii;
    arch        "LSB;label=32;scalar=64";
    class       volVectorField;
    location    "4.7";
    object      U;
}
// * * * * * * * * * * * * * * * * * * * * * * * * * * * * * * * * * * * * * //

dimensions      [0 1 -1 0 0 0 0];

internalField   nonuniform List<vector> 
13486
(
(1.41301 -0.194948 6.07335e-19)
(1.66678 0.293549 2.82457e-19)
(2.38339 0.032367 0)
(0.55487 -0.281156 -2.69437e-20)
(2.28619 -0.545816 2.08799e-19)
(2.43878 0.118716 2.17507e-20)
(2.5052 -0.456903 4.20353e-21)
(1.94969 -0.723743 -3.26793e-19)
(1.89939 -0.388398 0)
(2.02485 0.75624 0)
(-0.911732 -0.463683 -1.99753e-18)
(2.55637 -0.0497942 0)
(1.26107 -0.406385 -6.00944e-19)
(2.4968 0.694717 4.17351e-20)
(2.39962 -0.39029 1.11974e-19)
(1.97829 0.752813 -1.63846e-19)
(0.127945 0.115894 9.47996e-19)
(1.39937 -0.441114 3.83191e-20)
(2.27103 0.00133735 2.98493e-21)
(1.60619 -0.0127568 -6.13902e-19)
(1.00249 -0.557891 -1.22647e-20)
(1.2804 -0.420575 7.75214e-19)
(1.69182 0.292076 -2.25776e-19)
(2.56058 -0.921667 0)
(2.0646 0.614458 5.36218e-20)
(2.52205 -0.849801 -1.34763e-19)
(-2.31694 1.4195 1.39794e-18)
(2.49458 -0.122841 3.8522e-19)
(2.04095 0.0248505 0)
(2.25915 -0.340672 -2.17356e-19)
(1.10848 -0.626389 -9.04114e-21)
(2.49542 -0.286433 -1.41854e-19)
(2.89062 -0.365975 3.70284e-19)
(2.03468 -0.0649904 0)
(1.95677 -0.697933 0)
(1.85078 -0.0092457 -2.6755e-21)
(1.94512 0.110398 1.16495e-20)
(1.44292 -0.682328 3.09653e-19)
(1.75044 0.0469054 -5.13783e-21)
(1.92647 -0.22694 3.11331e-19)
(2.30603 -0.798718 0)
(0.847666 -0.421533 -6.96405e-19)
(2.00302 -0.00307656 0)
(2.07854 0.505367 -2.5897e-19)
(2.10111 0.504308 1.06433e-19)
(2.55285 -0.0486497 9.04321e-20)
(0.262459 2.11387 1.89403e-18)
(2.03292 0.0266711 -8.53808e-22)
(1.95017 0.103239 -8.74911e-21)
(2.63162 -0.0377189 1.89808e-19)
(1.99681 0.0325356 3.45511e-19)
(1.81868 0.0256622 0)
(2.62657 -0.146877 -1.1658e-19)
(1.60622 -0.603667 -4.52312e-19)
(1.40997 -0.491436 0)
(2.25728 -0.551425 -1.38974e-19)
(2.09354 0.130794 -1.31672e-20)
(1.8033 0.026858 -2.60571e-20)
(2.86796 -0.352455 4.25214e-19)
(1.96013 0.161872 0)
(-0.466227 -1.36581 -1.91848e-18)
(1.95888 0.16048 0)
(3.77414 0.113569 -5.56775e-19)
(1.03724 -0.56671 -1.29645e-22)
(1.66147 -1.05109 0)
(1.95265 0.119356 6.43865e-21)
(0.559013 -0.303997 -2.81956e-20)
(1.39536 0.093932 2.04235e-19)
(1.90034 -0.41317 -1.79771e-19)
(1.85134 0.0078817 1.01309e-21)
(0.440577 -0.225085 3.2329e-20)
(1.42366 -0.470188 7.10972e-22)
(1.9524 -0.0972116 2.2961e-19)
(-0.836803 -0.652439 -7.20732e-19)
(1.97123 0.132852 1.70768e-21)
(2.0954 0.12676 3.07227e-21)
(1.97555 0.12779 -5.43104e-21)
(2.40346 -0.409761 -4.56641e-20)
(0.447332 2.10821 -1.30333e-18)
(1.68269 -0.30535 0)
(2.02549 0.00465233 1.53183e-21)
(1.61361 0.39676 -1.7919e-20)
(4.03808 0.0229616 2.64461e-20)
(2.46242 0.0659121 -1.12535e-20)
(1.4048 -0.209399 -1.18903e-18)
(1.37408 1.75797 0)
(0.996369 -0.427607 -1.07497e-19)
(2.00117 0.0480581 -5.17468e-19)
(1.8622 0.225673 -2.28666e-19)
(1.89082 1.03519 -1.69881e-19)
(2.58002 -0.269438 -7.63853e-20)
(2.07105 -0.627404 -1.72206e-19)
(1.4722 -0.307349 1.57035e-19)
(1.65276 0.104387 1.58874e-20)
(1.81064 -0.573434 7.29317e-20)
(2.03315 0.0229524 3.56433e-22)
(-2.68789 1.59587 0)
(0.612853 -0.501165 2.2036e-20)
(1.94221 -0.224478 -5.94162e-19)
(-0.752936 1.14781 2.24266e-21)
(2.01983 0.00302738 0)
(2.463 0.691108 1.19829e-20)
(0.603777 -0.557667 4.84222e-21)
(1.81226 0.0308211 3.02099e-20)
(1.34437 1.70885 0)
(-1.08338 1.59972 5.00533e-21)
(1.96708 0.0730349 9.80384e-22)
(1.724 0.0351856 -1.18803e-20)
(0.315543 2.23326 1.48505e-18)
(1.70898 -0.781251 0)
(1.21055 -0.584354 0)
(2.50935 -0.351567 -1.33254e-19)
(1.61374 -0.584485 3.23184e-21)
(2.10203 0.0801171 1.00954e-21)
(1.04254 -0.0222202 0)
(1.15985 -0.576316 -2.74516e-19)
(2.06064 0.623943 0)
(2.11607 -0.0579924 0)
(1.94127 -0.0960239 0)
(1.95763 0.0794224 5.80473e-21)
(1.41733 -0.435985 -1.26826e-20)
(-0.692492 -1.17526 0)
(1.7832 -0.516957 0)
(1.74153 0.0401799 1.74167e-20)
(1.85404 -0.666099 0)
(1.82323 0.0281415 0)
(2.1751 -0.284539 6.89794e-21)
(2.20488 0.0663806 9.00947e-20)
(1.90092 -0.023856 -3.263e-20)
(1.72074 -0.904644 -6.15749e-20)
(1.82627 0.0281364 -2.8071e-21)
(0.398946 1.88391 -4.80621e-19)
(0.379526 -0.00163121 1.07817e-18)
(-0.449296 0.109975 9.49949e-19)
(1.99801 0.0189899 -5.67274e-20)
(1.9152 0.424203 -2.5282e-19)
(0.615365 0.79901 -1.64983e-19)
(1.7368 -0.781072 0)
(1.95928 0.0752033 -1.74376e-21)
(1.97148 -0.585569 -1.1644e-19)
(2.81562 -0.148876 -3.90615e-19)
(2.61638 -0.165748 9.74251e-20)
(2.51454 -0.207044 0)
(1.6811 -0.292713 0)
(2.10266 0.00699181 3.93789e-21)
(3.93184 -0.679449 -1.10731e-18)
(2.92939 0.367736 4.76424e-20)
(0.25168 1.79905 0)
(2.6557 -0.0494094 0)
(2.04246 0.0225629 0)
(2.01203 0.0237641 5.04675e-21)
(2.40265 -0.472148 0)
(2.03 0.00406684 -1.60805e-21)
(1.59356 0.399584 -1.52131e-19)
(2.20672 0.299964 0)
(2.40039 0.0571282 0)
(1.50776 -0.692329 0)
(0.134975 -0.149987 -2.27766e-20)
(1.71195 -0.693239 6.48222e-19)
(2.05617 0.357928 2.02299e-20)
(2.52248 -0.00589949 1.15245e-19)
(1.71948 -0.673061 -9.84623e-19)
(2.34058 -0.321491 4.28338e-20)
(0.751945 -0.359339 3.06029e-19)
(1.81582 0.0281547 0)
(2.59703 0.671732 -9.46831e-20)
(2.40588 0.63526 -2.33779e-20)
(0.403833 -0.10245 -7.28488e-19)
(2.95798 0.425914 -1.32921e-19)
(-0.450464 0.047913 2.54019e-19)
(-0.182025 -0.155963 1.13293e-20)
(2.19811 0.273725 7.79392e-20)
(2.00073 0.0941404 -4.11751e-19)
(2.31956 -0.229846 1.05128e-20)
(2.02109 0.0129525 9.35138e-22)
(0.469886 -1.58246 0)
(2.54538 1.0533 1.25488e-19)
(2.95012 -0.164553 5.49892e-19)
(1.97133 0.0648701 -5.70998e-19)
(2.51183 -0.189713 0)
(1.98466 -0.293344 6.31409e-19)
(2.10345 0.0742667 2.06596e-21)
(2.39872 -0.216227 -4.83031e-21)
(-1.62929 0.639163 0)
(2.53909 0.162216 2.38491e-20)
(2.4038 -0.110099 -1.75859e-19)
(2.05417 0.0188606 -2.03631e-22)
(2.26669 -0.20614 -6.84572e-20)
(2.35833 -0.790203 0)
(1.0383 -0.502739 -3.51512e-19)
(1.95668 0.0947229 0)
(2.20423 0.018564 0)
(1.78515 -0.00129742 0)
(1.29683 0.901145 -3.11517e-19)
(1.78763 -0.0263288 0)
(-1.02591 -0.273637 -4.99719e-19)
(1.68268 -0.953783 1.46167e-19)
(2.42498 -0.0167683 6.3516e-20)
(1.05709 -0.52432 -1.33844e-19)
(2.56475 0.630857 -4.45413e-20)
(1.10569 -0.652118 1.1473e-20)
(2.21802 0.0859221 -2.64107e-21)
(1.31816 -0.640013 -3.57832e-19)
(1.57968 -0.694898 6.2358e-20)
(2.05147 0.334945 -2.4553e-20)
(1.80328 -0.0262117 -2.92599e-20)
(1.32756 -0.489762 1.41018e-20)
(1.87291 -0.0230457 4.66487e-19)
(1.78016 0.00370843 0)
(2.51161 0.149116 0)
(2.43178 -0.121776 2.52065e-19)
(2.19858 -0.903281 1.90067e-19)
(1.62751 0.000854095 5.61802e-19)
(1.95572 0.0710842 8.99171e-22)
(2.44487 0.156894 -2.50594e-20)
(1.85998 -0.425246 2.14559e-20)
(2.31203 -0.314092 0)
(1.88376 1.01929 4.49248e-19)
(1.55336 -0.335965 0)
(3.21193 0.572442 0)
(-0.354347 0.682401 -1.80901e-18)
(2.68291 -0.0278107 0)
(1.9548 -0.579176 2.71087e-19)
(2.53187 0.010818 0)
(2.71003 -0.165664 -1.55636e-20)
(1.23668 -0.586286 2.16821e-19)
(2.57984 0.266955 -6.43048e-21)
(1.00436 -0.878675 1.57633e-20)
(1.85363 -0.270779 2.89466e-21)
(0.973163 -0.233141 1.78437e-20)
(1.99219 -0.28258 -2.02717e-19)
(1.12598 -0.243146 1.50605e-20)
(2.83267 -0.202842 4.90577e-19)
(0.872121 -0.423285 2.38156e-19)
(0.816008 -0.659055 0)
(1.03173 -0.50468 2.56782e-20)
(2.18488 -0.151179 1.13233e-19)
(2.21781 0.0157713 -7.55046e-21)
(0.898016 -0.436123 6.94382e-19)
(2.39477 -0.134259 0)
(2.8642 -0.42585 0)
(2.0063 0.0642526 6.28477e-19)
(2.12596 0.0538502 0)
(0.902131 -0.449792 2.32256e-19)
(1.68818 0.102869 -8.27462e-21)
(1.80671 0.0934241 0)
(2.31328 -0.0104075 -4.43454e-20)
(2.38511 -0.61667 4.12694e-19)
(0.258769 -0.492322 1.6373e-18)
(2.03723 0.478612 0)
(-0.208087 -0.678738 -3.05612e-20)
(1.00544 0.00867362 8.70118e-20)
(0.971014 -0.477923 3.48022e-19)
(1.71815 0.0256263 0)
(1.77666 -0.244872 2.34766e-20)
(0.336389 -1.83267 5.21383e-20)
(2.50183 -0.283974 1.13772e-19)
(1.83919 -0.430596 -2.71385e-20)
(0.0568876 -0.118136 2.38752e-20)
(2.82747 -0.415681 2.76577e-19)
(1.78637 0.249591 0)
(1.70254 0.113545 -3.75605e-22)
(2.40372 -0.398538 -2.62574e-19)
(0.38822 -1.74144 -6.54364e-20)
(2.18045 -0.74009 -2.15844e-19)
(-1.665 0.606577 0)
(1.86671 -0.266677 -5.63355e-20)
(1.05838 -0.64376 -1.4599e-20)
(2.05582 -0.0165282 -2.66146e-19)
(1.52361 -0.402909 0)
(1.55908 0.965922 2.15845e-19)
(1.97045 0.0746864 -1.54401e-19)
(2.32739 -0.327277 0)
(2.61662 -0.0718582 6.83013e-20)
(1.16012 -0.561967 2.87374e-19)
(2.3581 -0.575815 -2.29916e-19)
(1.78021 -0.224761 0)
(1.50438 -0.612246 0)
(1.70472 -0.00165105 -1.53015e-20)
(2.93876 0.191601 -8.22651e-20)
(1.51933 -0.634304 4.64672e-20)
(2.09113 -0.202981 -2.29611e-19)
(1.93773 0.0923269 3.36613e-19)
(3.05736 -1.23857 -4.10355e-19)
(-1.2104 -0.904342 2.02602e-18)
(-2.08589 1.89847 2.24001e-18)
(2.8447 -0.0996058 4.3356e-19)
(1.85435 -0.0397566 4.27952e-20)
(2.73496 -0.163545 1.94001e-20)
(2.04297 -0.0167239 0)
(0.851921 -0.628481 0)
(1.84812 0.233263 -5.18566e-21)
(1.19517 -0.578851 2.6819e-19)
(1.99882 0.0249009 -5.58785e-20)
(2.1723 -0.142201 1.04951e-19)
(2.22668 -0.183132 0)
(2.0104 -0.0376463 -1.46689e-19)
(2.62069 -0.0389976 -5.01104e-20)
(1.92434 0.077573 -3.09399e-19)
(2.48477 -0.580715 8.46083e-20)
(1.93829 -0.291883 -5.37741e-20)
(1.34084 -0.486598 1.8783e-21)
(2.99318 0.237591 7.09867e-20)
(2.4811 -0.288556 1.34423e-19)
(1.94402 0.0799749 -1.6813e-21)
(1.28938 -0.593605 0)
(0.375091 -0.110688 0)
(2.29679 -0.0286717 9.08751e-20)
(1.15104 -0.257433 7.24186e-20)
(1.95354 0.0999163 0)
(2.19924 1.43488 -1.725e-18)
(0.456791 -0.233595 0)
(2.43431 1.03874 -2.52416e-20)
(2.51634 -0.34783 -1.34256e-19)
(3.09333 -2.24383 0)
(1.90701 0.41254 -1.54691e-19)
(1.86477 0.250935 7.95478e-21)
(1.85955 0.213408 -1.95865e-20)
(1.87102 -0.0164219 -5.12409e-19)
(1.91004 -0.274222 0)
(1.95361 0.113556 -1.17505e-20)
(1.82437 0.189917 5.17385e-22)
(1.98486 0.0599708 7.19808e-20)
(1.63314 0.147173 -2.96501e-19)
(0.723168 0.772266 3.07993e-19)
(2.5611 -0.274587 1.41399e-19)
(2.21066 -0.39806 -6.51676e-19)
(2.1058 -0.201298 0)
(2.65621 0.0585308 3.99525e-21)
(2.24667 -0.408362 -1.19724e-19)
(2.00131 0.0332514 7.50419e-19)
(2.09687 -0.631845 0)
(2.5803 -0.291257 -3.12766e-20)
(1.44473 0.425562 0)
(2.50616 -0.466354 -2.08204e-19)
(1.87442 -0.540138 -1.99639e-19)
(0.669039 -0.312641 2.82886e-19)
(2.38209 -0.487341 -1.80027e-19)
(2.02568 0.194676 0)
(1.69395 0.138856 -9.19642e-21)
(1.88742 -0.276993 6.1196e-20)
(1.64553 0.154127 2.79971e-19)
(2.26189 -0.414887 4.66077e-19)
(2.39134 -0.221868 2.14653e-19)
(-1.69968 -0.0717195 -6.29569e-19)
(2.03273 0.0247748 1.63889e-24)
(2.22161 -0.214465 0)
(1.00007 -0.343717 6.8399e-19)
(3.22076 0.551664 0)
(1.82749 0.239716 -3.58645e-22)
(2.24478 -0.11585 3.79342e-19)
(2.65973 -0.00308297 -4.16889e-20)
(2.62287 -0.0687386 4.91078e-20)
(-2.67674 1.50993 -1.52981e-18)
(1.93516 0.0741712 3.86627e-19)
(2.01595 0.0101128 0)
(-0.915063 -0.66307 -6.32881e-19)
(2.18701 -0.288141 -1.35615e-19)
(1.13892 -0.14548 -2.61888e-20)
(2.20171 -0.831536 1.76725e-19)
(2.50199 -0.00475388 0)
(2.64292 -0.262706 8.50507e-20)
(1.7829 0.173259 5.94899e-19)
(1.9667 0.0854901 4.68774e-19)
(2.27987 -0.352094 0)
(2.03478 -0.00281123 -1.886e-22)
(2.21276 -0.174829 -1.06352e-19)
(0.354121 1.64975 2.15347e-19)
(1.57718 -0.00860541 7.81184e-20)
(2.1859 -0.249707 1.28915e-19)
(2.04063 -0.00200268 -2.03824e-21)
(2.2143 -0.202472 0)
(2.72398 -0.169983 -4.31151e-20)
(-0.477463 -0.668565 5.68277e-20)
(2.44081 0.344954 3.96519e-20)
(1.99735 0.0339712 2.91987e-19)
(1.36904 0.0292572 0)
(1.77308 0.203109 -5.56537e-22)
(3.45347 -2.21109 0)
(3.52921 0.975803 -3.46313e-19)
(2.05729 -0.0218584 0)
(2.08664 -0.717132 -5.99756e-21)
(1.31707 -0.0885909 -1.66939e-19)
(1.54544 0.894214 5.2501e-19)
(0.305367 1.83631 -8.89933e-19)
(1.80811 -0.223553 0)
(2.36638 0.0525946 -3.72865e-20)
(2.03249 0.204319 -1.6035e-19)
(0.567755 -0.227083 -5.68957e-19)
(1.14226 -0.57022 2.96137e-22)
(1.6536 -0.0162803 -8.47658e-19)
(2.38988 -0.30008 1.15255e-19)
(2.10005 0.190193 1.07596e-19)
(1.44406 -0.445083 0)
(1.3698 0.365549 3.17553e-19)
(1.97028 0.0738693 5.95074e-21)
(0.515968 -0.267605 1.57848e-20)
(-0.424426 -0.580524 -1.68909e-19)
(0.490689 -0.26666 -1.09682e-18)
(2.85501 -0.108507 0)
(0.569957 -0.248333 0)
(2.08485 1.19075 0)
(2.06777 -0.0850426 0)
(0.629154 -0.165519 -1.75908e-20)
(2.49292 -0.437274 0)
(1.92477 -0.943998 0)
(1.67311 0.120052 1.15461e-19)
(2.9206 -0.164703 -5.69338e-19)
(2.18837 -0.193557 -3.10589e-19)
(1.70743 0.3399 9.56689e-19)
(2.00706 0.023301 -8.28862e-20)
(2.48977 1.74997 0)
(2.4748 -0.271793 0)
(1.91007 0.0860462 3.30399e-19)
(2.02377 0.0506104 5.84074e-20)
(1.31215 0.956825 0)
(-1.4141 0.529105 4.88081e-19)
(2.16394 -0.75343 2.42918e-19)
(-0.637717 -0.520491 0)
(2.38366 -0.136859 2.09792e-19)
(1.97172 0.0658312 -3.81995e-19)
(0.738785 -0.179582 -4.95857e-20)
(0.993781 -0.32658 0)
(2.01591 0.216723 3.0381e-19)
(2.57839 0.129375 0)
(2.24667 -0.204022 0)
(2.22836 0.184193 -1.19685e-20)
(1.92886 0.100284 1.76328e-19)
(-2.53602 1.54989 -1.83214e-18)
(2.36625 0.632389 9.24002e-21)
(1.32903 -0.329743 -2.97739e-19)
(2.06677 -0.072692 3.95459e-20)
(2.10308 0.181648 8.29672e-20)
(2.78972 -0.163464 9.17353e-20)
(2.25173 -0.737763 0)
(2.4904 -0.566762 2.26418e-19)
(1.32495 -0.0241232 0)
(1.81969 0.222839 -3.37058e-21)
(2.3002 -0.235295 0)
(1.41776 0.111222 4.31412e-19)
(-0.600802 1.96749 -1.51487e-18)
(2.362 -0.290132 0)
(-0.195041 0.26553 4.42544e-20)
(2.46985 -0.297991 -2.68332e-19)
(1.34768 0.688935 -1.03133e-19)
(1.75677 -0.251885 8.16259e-19)
(1.43538 0.886263 -3.31722e-19)
(1.32086 -0.317911 -8.4569e-19)
(3.59056 0.939072 0)
(1.95467 0.0869041 -4.89113e-21)
(-1.69456 -0.26021 -1.65163e-18)
(2.02279 0.221399 0)
(1.83753 0.241459 2.13263e-20)
(2.67212 -0.0466991 -3.97488e-20)
(2.86259 1.07131 0)
(2.00418 0.0191658 0)
(-0.206449 -0.0339266 0)
(0.588828 -1.63682 1.81651e-19)
(3.00533 -1.41576 4.95021e-19)
(3.69401 -0.797996 6.98111e-20)
(2.3911 0.993795 0)
(1.69665 -0.145075 5.52426e-19)
(2.01212 0.0140738 -1.66671e-21)
(2.35293 0.58124 -8.58755e-21)
(0.911978 -0.472601 2.26265e-20)
(1.91532 0.17662 0)
(2.03453 0.0248298 0)
(0.719708 -0.0865708 -4.61789e-19)
(1.4181 -0.435742 -2.0861e-19)
(1.9381 -0.175539 0)
(1.24216 -0.605701 -2.64478e-19)
(2.06236 0.0186795 2.7127e-21)
(2.03213 0.0224067 -4.44655e-22)
(0.755692 -0.350038 0)
(1.8691 -0.0114336 3.91726e-20)
(1.96142 0.0690297 -5.11836e-21)
(2.58146 0.109942 1.29668e-19)
(1.86139 -0.558405 0)
(-2.14982 2.12493 -3.47843e-18)
(2.63723 -0.0340885 5.46499e-20)
(2.0019 0.097237 6.54886e-20)
(1.988 0.0120512 -1.84326e-21)
(2.66114 0.648895 0)
(1.67986 0.332468 -2.54677e-19)
(3.14591 0.317441 -2.53179e-19)
(0.431984 -0.221713 2.41127e-19)
(2.00877 0.0563023 0)
(1.12065 -0.578302 -3.01744e-22)
(0.450728 -0.0674975 0)
(2.00257 0.0538755 -2.51709e-19)
(1.99041 0.0758941 1.1465e-19)
(1.86776 0.0572406 -6.47042e-20)
(0.37538 -1.64867 0)
(2.25132 0.0281506 -2.12762e-20)
(1.08737 0.521391 8.67119e-19)
(2.22483 -0.732918 0)
(1.64021 0.105404 3.61459e-19)
(2.46078 -0.588521 -9.63491e-20)
(2.18452 -0.0194034 0)
(1.04197 -0.671251 9.01681e-21)
(1.67903 -0.268609 -4.45132e-20)
(2.0487 0.00736505 0)
(-1.49436 2.13435 1.96364e-18)
(1.82746 0.233306 0)
(1.66613 -0.76567 2.65673e-19)
(-0.208116 -0.754382 9.57362e-20)
(2.05962 0.0190113 2.39357e-22)
(2.45771 0.124784 -6.25825e-20)
(1.36006 0.34891 1.68804e-19)
(1.75012 -0.281552 -3.01125e-19)
(1.81099 -0.199984 -2.50409e-20)
(1.71143 -0.776368 2.61911e-21)
(2.16706 -0.2534 1.24836e-19)
(2.648 0.654455 1.95384e-19)
(1.76971 -0.793768 0)
(1.99614 0.0277944 -2.58898e-19)
(-0.689084 -0.407715 -5.61107e-19)
(1.34951 -0.0351851 0)
(1.99091 0.0879331 2.48154e-21)
(1.81008 0.00793185 0)
(1.21053 -0.343032 7.29745e-19)
(2.05887 -0.778986 0)
(1.93563 -0.00885346 2.56051e-21)
(2.25313 -0.109035 -2.15992e-19)
(1.04193 -0.726444 1.9348e-20)
(0.0197724 -0.152817 7.47327e-20)
(2.38451 -0.0262054 -1.84154e-21)
(1.26351 -0.600481 2.43643e-19)
(1.76967 -0.511213 2.91257e-19)
(1.46742 -0.316115 0)
(-2.20886 0.989177 -6.49607e-19)
(2.27374 -0.683192 -5.04224e-20)
(-2.36751 1.06152 -8.08805e-19)
(2.03218 0.0251432 1.93302e-22)
(1.44061 -0.568953 0)
(2.22478 -0.0264798 -1.12522e-21)
(-1.49557 0.49364 0)
(0.555109 -0.600675 5.22812e-21)
(0.903603 -0.253689 6.4388e-20)
(-0.00222323 -0.0925045 0)
(2.03447 -0.5486 8.66899e-20)
(1.63275 -1.00622 0)
(2.87181 0.97866 0)
(1.43172 -0.680186 -3.50318e-19)
(1.47444 0.390527 2.56663e-19)
(1.60598 -0.394658 0)
(1.78923 0.207079 -1.62381e-19)
(3.9445 -0.668013 1.28765e-18)
(-0.704607 -0.7577 3.85837e-19)
(2.89247 1.37409 0)
(2.17713 -0.0465955 0)
(-1.82674 -0.180424 -8.52035e-19)
(1.86267 -0.0840734 0)
(2.52314 0.0737968 0)
(-0.193777 -1.70602 -7.18353e-20)
(2.0356 -0.40034 -4.12429e-19)
(1.7317 -0.418941 2.50966e-19)
(2.79526 -0.496244 3.93289e-20)
(-2.19109 0.865257 1.29877e-18)
(1.99041 0.0659677 1.31352e-19)
(1.50355 -0.349239 0)
(2.20236 0.464855 -3.75861e-20)
(1.39973 -0.175053 0)
(2.29219 0.0277731 0)
(2.00138 0.116593 0)
(2.21361 0.16609 -9.87454e-21)
(1.85276 -0.0150947 2.38267e-19)
(2.11987 0.0376183 -6.06391e-21)
(1.54627 -0.356091 0)
(-2.43666 1.3381 -1.24713e-18)
(2.11509 1.13242 3.89215e-20)
(1.85216 -0.680482 2.7953e-20)
(1.94579 -0.0403063 -6.77656e-20)
(2.328 -0.55992 3.65517e-19)
(2.03984 0.0687332 -2.19958e-19)
(-0.398804 1.62272 0)
(2.61704 -0.0487862 0)
(1.45219 0.903482 0)
(1.20398 -0.547638 -5.2463e-19)
(1.3021 -0.824363 -4.38622e-20)
(0.230681 -0.0659853 0)
(2.22691 0.473646 0)
(2.64155 -0.182773 6.59878e-20)
(1.95993 -0.0320384 -6.24371e-20)
(1.92361 0.642237 2.49027e-19)
(1.56966 -0.6836 0)
(-2.51923 1.01121 -5.68987e-19)
(2.39339 0.0656893 4.3359e-22)
(1.38703 -0.398501 -4.98451e-19)
(2.25588 0.0599814 -4.89312e-20)
(2.34722 0.583982 4.73653e-20)
(2.17828 -1.32126 1.7825e-19)
(1.20259 -0.550985 9.16413e-19)
(1.81736 -0.616622 9.77206e-20)
(2.1135 0.0750668 2.26294e-21)
(2.00125 0.0147429 -6.60896e-20)
(1.12305 -0.527929 -8.40762e-20)
(1.67671 -0.253077 1.97637e-20)
(1.70798 2.20281 4.64629e-20)
(1.26277 -0.60646 1.35404e-19)
(2.63827 0.101214 0)
(1.12129 -0.544749 6.84171e-20)
(2.20654 -0.0475925 -2.06037e-19)
(3.00338 0.65568 1.41306e-19)
(1.35736 -0.362748 -4.54223e-19)
(1.83701 -0.652305 -3.02731e-19)
(1.99007 -0.0092093 6.05433e-19)
(2.3998 -0.0555487 -3.45599e-19)
(1.73461 -0.344897 -5.75412e-23)
(2.85684 -0.0782314 -2.23043e-19)
(1.13033 -0.132861 -9.86927e-19)
(2.12021 -0.0296348 -1.54278e-19)
(1.11341 -0.202289 0)
(1.01052 -0.830408 -6.35895e-20)
(1.93468 0.0158792 5.51052e-19)
(1.72491 -0.0100213 -2.08469e-21)
(-0.852842 -0.713964 0)
(1.48227 -0.683878 0)
(2.04632 0.43845 2.16155e-19)
(0.99289 -0.12568 6.12207e-19)
(1.58229 -1.32124 -1.94198e-19)
(2.10921 -0.713332 -1.52377e-19)
(2.22708 -0.412205 3.55664e-19)
(3.26835 0.50386 0)
(2.05844 0.488149 1.14451e-19)
(1.36121 -0.458114 -3.04389e-21)
(2.60213 1.04946 1.45391e-19)
(1.9638 -0.26088 -3.58561e-19)
(-2.15105 0.893438 -2.02801e-18)
(2.30635 -0.526593 -3.55209e-19)
(2.48611 -0.602992 1.23861e-19)
(2.35647 1.22829 0)
(1.99984 -0.271641 -4.512e-20)
(1.88009 0.0521332 5.95694e-20)
(2.02194 0.00556824 1.09263e-21)
(0.78366 -0.379653 8.39396e-19)
(1.93771 -0.254599 5.36853e-19)
(2.00974 0.321214 -9.71549e-21)
(-0.67953 -0.610671 -2.00858e-19)
(2.19875 -0.110021 -1.2526e-19)
(2.26607 -0.0299919 1.3715e-19)
(-1.46561 -0.666287 -2.64863e-19)
(2.50156 1.0055 -1.41046e-19)
(-1.51538 2.02462 -2.12216e-18)
(0.928952 -0.455776 -2.7874e-19)
(2.02366 0.00632759 0)
(2.09831 0.11628 -1.17671e-20)
(-0.522279 -1.90912 -3.73049e-19)
(1.30904 -0.118552 8.98948e-19)
(2.07593 0.0177273 0)
(1.97555 -0.293109 4.26578e-20)
(1.16714 -0.486693 2.07588e-19)
(1.98989 0.0462951 -5.62207e-19)
(-1.19501 0.048313 -3.44839e-19)
(1.59794 -0.389451 -1.28336e-20)
(2.19578 -0.205672 2.11374e-19)
(2.34203 0.049892 5.03251e-20)
(1.68408 -0.77465 -3.69206e-19)
(2.12478 0.0470102 8.54247e-21)
(1.30617 -0.911623 -1.3149e-19)
(2.11832 -0.0434217 1.93274e-19)
(2.0585 -0.0587889 -1.70967e-19)
(2.16275 0.0919956 -6.45836e-21)
(2.12685 -0.0314641 -3.74535e-19)
(1.10523 -0.494122 -4.00953e-19)
(2.10146 0.0688925 0)
(0.640666 -1.18294 7.68993e-20)
(2.10888 0.0718187 4.24367e-20)
(0.716169 -0.0846253 -7.34196e-20)
(2.39922 0.0103786 -4.26701e-20)
(2.17202 -0.425659 -2.18039e-19)
(2.00126 0.0184467 -4.31311e-19)
(2.11485 0.317755 6.28883e-20)
(-1.29781 0.350089 -5.03477e-19)
(2.50869 0.0693967 0)
(1.76431 0.177975 4.62376e-22)
(2.67681 0.0145303 4.26666e-20)
(1.44786 -0.552561 0)
(2.15556 0.074399 1.08625e-19)
(2.66648 0.0865957 4.21228e-20)
(2.46528 0.062649 5.54635e-24)
(2.33534 -0.788498 -2.50921e-20)
(1.81836 -0.0346915 0)
(1.79148 0.374154 4.58654e-19)
(2.06384 0.260048 1.38958e-20)
(1.23819 -0.600642 2.95742e-19)
(2.00895 -0.174782 0)
(1.46816 0.351448 -7.43437e-19)
(1.43829 -0.404921 -1.59744e-20)
(2.64142 1.51803 -3.63478e-19)
(1.14079 -0.158912 9.59443e-19)
(2.08541 -0.00315952 8.2506e-21)
(-0.122059 -0.135875 7.72057e-20)
(1.93143 -0.0725782 -3.72267e-19)
(2.55393 -0.501914 -3.31638e-19)
(1.76346 0.167676 -3.43585e-19)
(1.99347 -0.00109693 0)
(1.99987 0.0353027 -2.5013e-19)
(0.104182 -0.111414 8.40658e-20)
(-0.78473 -0.257888 0)
(2.34754 -0.908335 0)
(2.02116 0.00724103 0)
(0.347979 -0.149681 0)
(2.06645 0.325914 0)
(1.06743 -0.124519 0)
(1.90938 -0.429895 -3.11378e-21)
(3.49601 -0.853771 -5.60585e-19)
(2.61021 0.290007 0)
(1.76991 0.373896 6.92507e-19)
(1.57806 -0.424857 -1.6315e-20)
(2.09315 0.195377 6.57306e-21)
(-0.425431 -1.93484 -2.86554e-19)
(1.08372 0.126019 -2.81142e-21)
(-1.25507 0.337085 3.38881e-19)
(1.90752 0.00568528 -1.41348e-19)
(2.63581 -0.0592645 2.63963e-20)
(2.03923 0.310217 -1.51215e-19)
(1.87108 0.202213 -4.57412e-19)
(2.03987 1.05564 -1.39703e-19)
(3.47325 0.964988 0)
(1.06751 -0.557575 2.44735e-21)
(1.23045 -0.357091 -7.99665e-19)
(2.01052 0.0275527 -7.74234e-19)
(2.28586 -0.690943 -2.92179e-19)
(2.01248 -0.0225876 5.88756e-20)
(2.5594 -0.652266 3.67232e-20)
(2.11459 -0.325783 -4.69819e-20)
(2.05052 -0.538779 -3.00215e-19)
(2.03472 0.17709 1.66946e-19)
(2.241 1.34111 0)
(1.80053 -0.164873 -2.27201e-20)
(1.68461 0.106163 -1.05811e-19)
(2.51247 -0.410907 0)
(1.73657 0.00185777 0)
(1.73112 -0.797559 -3.49609e-21)
(0.0497805 -0.24766 6.99139e-20)
(1.88524 -0.441383 -1.09445e-19)
(1.84332 0.0510436 0)
(1.89816 -0.0278005 -4.87481e-19)
(1.80336 0.247696 -8.89015e-20)
(0.76618 -0.962688 3.57099e-20)
(2.56294 0.135615 2.65374e-20)
(-1.02907 0.208011 0)
(1.02911 -0.549407 3.97186e-21)
(2.62328 0.105011 0)
(1.97776 -0.281227 4.7395e-20)
(2.601 -0.263258 -6.99837e-20)
(2.00039 0.0325903 -2.39344e-22)
(2.42631 0.647656 4.24369e-20)
(2.85433 1.24397 -3.89141e-20)
(1.72366 -0.488367 6.041e-19)
(1.19414 -0.55831 0)
(1.61355 -0.852658 -1.22766e-19)
(1.55904 -0.491113 0)
(2.66487 0.275769 -6.03554e-20)
(0.72677 -0.923261 5.16054e-20)
(2.29207 -0.893388 2.38721e-19)
(1.74686 0.148224 -2.40226e-21)
(0.307997 -2.04161 -4.7548e-19)
(1.06249 -0.524432 -3.41504e-19)
(1.27507 -0.365754 -4.64133e-19)
(1.96314 0.0719279 -2.14682e-21)
(1.65224 -0.829174 1.00682e-19)
(1.148 -0.509561 3.29681e-19)
(1.33538 -0.392546 5.09663e-19)
(1.29519 -0.792907 4.84033e-20)
(1.76909 -0.926784 -7.32121e-20)
(1.82755 -0.5762 3.01322e-19)
(-0.149668 1.71273 9.76947e-19)
(2.13875 0.011964 5.30558e-21)
(1.50174 -0.432283 1.63993e-20)
(2.36397 0.392156 -1.73559e-20)
(2.2305 -0.572678 0)
(0.440289 -0.210706 -2.18027e-18)
(2.10791 -0.0381075 -2.57549e-19)
(1.99913 0.129337 0)
(2.63309 0.256123 0)
(1.52346 -0.679513 -5.99059e-20)
(2.74922 -0.685202 -3.7816e-19)
(2.44223 0.176188 7.84966e-20)
(2.03087 -0.388228 5.40726e-19)
(2.01573 1.01097 1.34563e-19)
(1.48158 -0.0122454 3.89867e-19)
(0.634345 -1.02868 -9.57616e-21)
(1.81021 0.666005 0)
(1.3674 -0.425528 4.88242e-19)
(0.454865 1.03162 5.54389e-19)
(0.328217 -1.95248 3.42792e-19)
(1.70944 -0.657887 9.9999e-20)
(1.38298 -0.627806 -7.31566e-20)
(1.81395 -0.000769162 2.00938e-19)
(1.73832 0.0650144 4.58781e-21)
(2.24079 -0.320325 2.31244e-19)
(0.55368 -1.05026 -4.61057e-20)
(2.42361 0.174672 -5.57465e-20)
(1.94057 0.0695277 1.93022e-19)
(1.10865 -0.189767 -3.94106e-19)
(1.86504 -0.0573861 3.04517e-19)
(1.73963 -0.34648 0)
(2.44357 0.339564 -5.72874e-20)
(1.98066 0.063363 4.30946e-20)
(1.45494 -0.280999 -1.56455e-19)
(1.96139 1.96717 9.81759e-20)
(1.79874 -0.561897 2.2391e-19)
(2.06018 0.00902888 8.29191e-20)
(1.36219 0.196867 -5.82939e-19)
(2.49564 -0.420682 0)
(1.77831 0.146742 -3.18236e-21)
(2.26699 0.0748679 6.65377e-20)
(1.96424 -0.055323 0)
(1.38338 0.0808682 3.3441e-19)
(2.56743 0.133383 0)
(1.8509 1.97332 -5.52984e-20)
(2.35714 -0.0317132 0)
(1.80148 -0.186201 0)
(2.56098 -0.0215438 4.65004e-20)
(2.41243 0.140842 -2.3874e-20)
(2.93584 0.0892785 -3.94118e-19)
(1.9189 0.164476 -2.08004e-19)
(1.62441 1.28528 -1.24891e-19)
(2.00361 0.104564 -7.91021e-20)
(2.10124 0.327439 0)
(2.79073 0.550673 -2.02931e-19)
(2.50193 0.104466 8.62628e-20)
(1.95846 -0.264777 -9.7441e-20)
(2.22973 -0.567514 0)
(3.03312 0.644904 2.12386e-19)
(2.3256 1.75926 2.43845e-20)
(2.13266 0.0108406 2.0906e-20)
(1.68443 -2.21479 0)
(0.125726 -1.82845 1.38247e-18)
(2.05044 0.173609 0)
(2.27108 -0.282149 -1.16786e-19)
(0.296256 -0.398038 0)
(3.7155 0.319463 0)
(1.79607 -0.65074 0)
(2.01767 -0.772657 0)
(-1.50649 0.381801 -3.37876e-19)
(0.668257 -1.52402 -3.55076e-20)
(1.84314 -0.00985442 -3.57347e-19)
(1.01109 -0.742743 -2.45708e-20)
(1.2322 -0.539115 0)
(1.05923 -0.890123 -3.02601e-20)
(0.0748883 -0.522587 -1.62171e-18)
(1.46027 -0.689632 0)
(1.44688 -0.511212 -5.22697e-19)
(1.97452 0.137755 2.19824e-21)
(2.34634 0.379674 3.37711e-20)
(2.36298 -0.812439 7.59191e-20)
(1.86368 0.188952 0)
(2.17651 -0.713127 0)
(3.40547 0.103594 2.14982e-19)
(1.67445 -0.212964 4.85548e-21)
(1.93986 0.0853115 3.46437e-21)
(1.52311 -0.673872 -7.33511e-22)
(1.99688 0.0115765 1.85844e-20)
(2.09598 0.115647 6.79206e-22)
(2.03209 0.184494 2.40672e-19)
(1.80955 0.19087 -7.15569e-22)
(1.87112 -0.518202 0)
(-2.63442 1.66005 0)
(2.11918 0.0443344 0)
(1.93598 0.00680564 0)
(1.71923 -0.298582 2.21598e-19)
(2.70955 -0.108956 0)
(-0.729605 -0.841391 3.62413e-18)
(2.05125 -1.34497 -2.10052e-20)
(1.30109 -0.409357 -7.65387e-19)
(1.54412 -0.419231 4.53947e-21)
(0.7372 -1.22184 -4.2912e-20)
(0.435261 -0.752962 -2.10191e-18)
(1.90733 0.0251307 6.62575e-20)
(0.292264 -1.18976 -7.39335e-20)
(1.83333 0.205124 -4.16507e-21)
(2.56958 -0.00633306 0)
(2.33649 -0.395605 0)
(1.60938 -0.520334 0)
(2.16977 -0.442856 1.15419e-19)
(1.72328 -0.991239 0)
(1.84522 0.670043 0)
(2.00179 0.0122307 0)
(1.75245 -0.423243 2.34034e-19)
(2.09226 0.195681 -2.1589e-19)
(1.86536 0.0201011 0)
(1.95967 -0.434937 -1.08021e-19)
(1.97984 0.193824 -2.39921e-19)
(2.60477 0.94376 -3.04016e-19)
(1.50302 -0.705752 3.13033e-19)
(1.92298 0.716248 -1.4409e-22)
(1.68287 -0.327613 -3.7447e-21)
(1.70447 0.0151462 1.50964e-20)
(1.81691 -0.260722 -4.72726e-20)
(2.40248 0.149229 3.64149e-20)
(1.94698 0.0791549 7.64126e-21)
(1.81358 0.0966426 -3.36146e-19)
(2.12 -0.0418261 0)
(0.781744 -0.121118 5.57396e-20)
(1.95807 0.0761701 3.46245e-19)
(1.39409 -0.465265 -1.60912e-20)
(2.11225 -0.309932 -1.36937e-19)
(1.02391 -0.148182 -6.6745e-19)
(2.40427 0.125111 -6.9271e-21)
(3.17139 0.323076 3.63804e-19)
(2.00139 0.0952998 0)
(1.89898 -0.993273 1.3691e-19)
(1.828 0.0595705 -3.73794e-21)
(1.8258 -0.270333 9.35012e-20)
(0.947694 -0.509494 -2.58872e-20)
(2.04541 0.0265535 1.80553e-19)
(2.11465 0.069454 -2.58006e-21)
(2.06993 0.00316288 -6.18032e-21)
(2.1109 0.0394999 0)
(1.47339 -0.347718 0)
(1.32084 -0.63692 3.81664e-19)
(-1.05613 0.105916 3.72324e-19)
(2.04161 0.00401023 4.06488e-22)
(1.95505 0.0756534 6.93409e-19)
(1.93666 -1.12463 -3.52925e-19)
(1.43607 0.339168 0)
(1.80008 0.119543 0)
(1.57905 -0.338451 -3.05905e-21)
(2.50994 0.00240121 7.37541e-20)
(1.97203 0.686947 3.25781e-19)
(2.50167 -0.180141 0)
(2.0508 -0.00039621 0)
(2.06804 -0.60686 4.16744e-19)
(1.98156 -0.15913 2.87564e-19)
(0.0769477 -0.0805449 -5.67207e-21)
(1.80878 -0.0248271 0)
(3.76248 0.350764 3.08205e-19)
(2.07653 -0.561772 -4.49443e-20)
(-0.484775 -1.70698 -5.04376e-19)
(2.00933 -0.00442339 -3.8806e-19)
(3.45639 -0.644449 0)
(2.80874 -0.683568 2.99172e-19)
(1.86379 -2.00596 -4.33045e-19)
(-0.00545461 -0.03549 0)
(1.9651 0.0101753 6.125e-21)
(1.91534 0.127969 -2.25303e-19)
(1.95395 0.0117151 1.10409e-23)
(2.62181 -0.292235 4.12515e-20)
(1.54786 1.29258 5.40849e-19)
(1.87373 0.0419477 0)
(1.01649 -0.367305 -4.2771e-21)
(2.03302 -1.04844 2.73906e-19)
(3.17422 -2.3608 -1.61843e-18)
(2.05467 0.312409 1.79462e-19)
(1.20786 -0.546267 -7.26565e-21)
(2.00378 0.00976874 -8.40277e-19)
(2.01406 0.343477 5.48243e-21)
(1.69461 0.07879 9.10185e-21)
(1.71687 -0.382661 0)
(1.83034 0.0232495 -2.89664e-20)
(1.07383 -0.497697 2.63442e-19)
(2.22508 -0.111358 -4.17923e-19)
(1.98328 0.0647767 -3.1355e-19)
(2.25699 -0.260569 1.07783e-19)
(1.65574 -0.131117 8.0899e-19)
(2.12648 0.00648916 -5.87138e-21)
(1.78219 0.122453 1.95425e-19)
(1.98522 0.0887377 8.83396e-21)
(2.81852 -0.500025 -4.50684e-19)
(2.53857 1.07473 -2.17562e-19)
(1.62466 -1.38413 1.5057e-19)
(1.92529 -0.0217681 0)
(1.43726 -0.517741 0)
(0.934819 -0.210326 0)
(1.30093 -0.373 5.92387e-19)
(2.14597 0.0699471 -5.0993e-19)
(1.79304 0.266322 0)
(1.49506 -0.299319 -4.65156e-19)
(1.77873 0.2361 0)
(1.72831 -0.270015 -3.6398e-19)
(1.9356 -0.278098 -1.01269e-19)
(1.84701 -0.48672 -3.30977e-19)
(1.95222 0.0457832 0)
(1.94394 0.0596712 0)
(1.97994 -0.0603197 5.90151e-20)
(2.56762 0.228956 6.41513e-21)
(2.59908 -0.105918 1.84932e-19)
(2.53654 1.84853 -5.35272e-21)
(2.53251 -0.24382 0)