/*--------------------------------*- C++ -*----------------------------------*\
| =========                 |                                                 |
| \\      /  F ield         | OpenFOAM: The Open Source CFD Toolbox           |
|  \\    /   O peration     | Version:  2306                                  |
|   \\  /    A nd           | Website:  www.openfoam.com                      |
|    \\/     M anipulation  |                                                 |
\*---------------------------------------------------------------------------*/
FoamFile
{
    version     2.0;
    format      ascii;
    arch        "LSB;label=32;scalar=64";
    class       volVectorField;
    location    "8.4";
    object      U;
}
// * * * * * * * * * * * * * * * * * * * * * * * * * * * * * * * * * * * * * //

dimensions      [0 1 -1 0 0 0 0];

internalField   nonuniform List<vector> 
13486
(
(1.45296 -0.232129 5.09955e-19)
(1.67029 0.261054 2.69021e-19)
(2.7057 0.0338284 0)
(-2.15434 1.06615 -1.61158e-18)
(2.40657 -0.387569 -5.52471e-20)
(2.47008 0.177547 -6.78952e-21)
(2.47095 -0.0533837 -1.40076e-20)
(2.04353 -0.707736 -1.16998e-19)
(1.96632 -0.368151 0)
(1.96031 0.733269 0)
(-0.757944 2.49372 -7.63776e-19)
(2.48165 -0.0763141 0)
(1.29742 -0.43041 -4.98644e-19)
(2.39861 0.773165 -1.91835e-20)
(2.38121 -0.149654 -8.11581e-21)
(1.92055 0.722396 -2.02721e-19)
(1.19869 -0.366427 6.34346e-19)
(0.368817 -0.711664 2.47584e-19)
(2.16084 -0.0112193 2.08055e-21)
(1.63018 -0.062292 -5.2413e-19)
(-2.38822 0.666874 -6.9826e-19)
(1.31803 -0.447087 6.43426e-19)
(1.6906 0.255489 -2.1502e-19)
(4.24263 -0.4903 0)
(2.01944 0.591933 6.96877e-20)
(4.12831 -0.489603 -3.84627e-19)
(0.321447 -0.21834 7.20908e-19)
(3.08537 -0.208214 5.65303e-19)
(2.01965 0.138466 0)
(2.9531 -0.467236 -4.8771e-19)
(-2.11173 -0.009359 -4.72839e-19)
(2.31244 -0.134599 -7.50274e-20)
(3.34941 0.0826116 4.14142e-19)
(2.32612 -0.172685 0)
(2.05239 -0.679101 0)
(1.682 0.014765 2.34721e-21)
(1.55783 0.0493995 -6.56213e-20)
(1.49231 -0.698664 2.09104e-19)
(1.82278 -0.197505 -1.57036e-20)
(1.98924 -0.22508 2.12164e-19)
(2.70703 -0.713686 0)
(0.879751 -0.436134 -5.88015e-19)
(1.98312 -0.00482842 0)
(2.03904 0.494165 -3.27263e-19)
(2.05582 0.494196 1.34915e-19)
(2.48198 -0.0773775 7.13482e-20)
(-0.985526 -0.514155 1.23342e-18)
(1.99284 0.135218 -7.434e-24)
(1.56975 0.0641239 4.94344e-20)
(2.84868 0.0321534 1.74856e-19)
(1.99948 0.0219238 3.30019e-19)
(1.88565 -0.0508938 0)
(2.47305 -0.18714 -1.29415e-19)
(1.65729 -0.604487 -3.14576e-19)
(0.344001 -1.0321 0)
(2.3678 -0.400078 1.23046e-20)
(2.66072 0.666504 8.62454e-20)
(1.88638 -0.102031 -7.34617e-20)
(3.34025 0.115558 5.09795e-19)
(1.35691 -0.130217 0)
(-0.893304 2.68324 -1.02412e-18)
(1.33374 -0.0887105 0)
(3.56341 0.645121 -3.05493e-19)
(-2.34128 0.670755 -7.57844e-21)
(2.1421 -2.22598 0)
(1.5162 0.0516461 -3.56482e-20)
(-2.40609 1.16979 -1.59735e-18)
(1.4348 0.0281545 1.82825e-19)
(1.96615 -0.390056 -1.09275e-19)
(1.5644 0.0122026 1.9075e-20)
(-2.17445 1.0905 1.82665e-18)
(0.375175 -0.94433 9.51265e-21)
(2.00534 -0.111243 1.69029e-19)
(-0.674658 0.173066 -4.05163e-19)
(1.41096 0.103133 -9.78561e-21)
(2.72019 0.604597 -1.69436e-20)
(1.41478 0.132603 2.90373e-20)
(2.39138 -0.151305 6.02229e-21)
(-0.767957 -0.206599 -6.57231e-19)
(1.89109 -0.675867 0)
(1.95032 0.0337384 3.90009e-22)
(1.61158 0.355743 -1.7318e-20)
(3.26414 0.555817 -2.85309e-20)
(2.77986 0.0196141 -2.29826e-21)
(1.44503 -0.243017 -9.97195e-19)
(1.30159 1.55739 0)
(1.57717 -0.340113 6.48426e-21)
(2.00163 0.0352951 -5.06568e-19)
(1.87269 0.194829 -2.18635e-19)
(1.79796 0.975661 -2.41463e-19)
(2.32414 -0.205087 -7.65979e-20)
(2.18428 -0.569405 -4.15129e-20)
(1.51493 -0.331614 1.26806e-19)
(1.6647 0.0663449 1.41568e-20)
(1.87227 -0.567641 4.31955e-20)
(1.97574 0.110601 -7.39069e-23)
(0.378022 -0.264381 0)
(-2.64156 1.30412 9.46234e-19)
(2.00372 -0.221006 -4.05437e-19)
(1.3518 -0.319353 9.2079e-21)
(1.84632 0.0247749 0)
(2.36974 0.768242 -1.05003e-20)
(-2.70384 1.24174 4.66482e-20)
(1.87947 -0.0865079 8.60945e-20)
(1.26593 1.50056 0)
(1.23359 -0.274479 9.40327e-21)
(1.98327 0.0550845 -1.55025e-22)
(1.83441 -0.226786 -3.42879e-20)
(-0.768689 -0.19597 8.5468e-19)
(1.87771 -0.83161 0)
(1.30797 -0.625154 0)
(2.26999 -0.0644668 -4.52985e-20)
(1.66681 -0.584533 3.92883e-21)
(2.46338 0.398226 -1.37522e-21)
(1.08015 -0.0784265 0)
(1.24752 -0.614479 -1.41352e-19)
(2.01353 0.608634 0)
(2.44646 -0.143229 0)
(1.99563 -0.111519 0)
(1.64189 0.101673 -2.69902e-20)
(0.513751 -0.668615 -1.1061e-19)
(-1.06775 2.65091 0)
(1.84296 -0.509322 0)
(1.83134 -0.201695 5.07719e-20)
(1.93067 -0.666552 0)
(1.8773 -0.0478237 0)
(2.21648 -0.214507 3.41978e-21)
(2.19531 0.074372 1.39518e-19)
(1.92504 -0.080323 -6.73421e-20)
(2.63701 -2.58018 -7.80689e-19)
(1.85297 -0.0332775 -9.11636e-21)
(-1.19874 -0.589473 -3.12241e-19)
(0.428069 0.461111 7.64544e-19)
(-0.23425 0.175349 5.27909e-19)
(1.99974 0.0107225 -5.32863e-20)
(1.88993 0.398414 -2.68121e-19)
(0.659892 0.670244 -1.65272e-19)
(1.89443 -0.817832 0)
(1.6554 0.104209 7.48074e-21)
(2.06144 -0.550655 -5.20016e-20)
(3.1407 0.141154 -4.19575e-19)
(2.46025 -0.197101 1.10277e-19)
(2.36844 -0.142784 0)
(1.92413 -0.641208 0)
(2.09355 0.00308824 -2.51643e-21)
(3.31236 0.699265 -5.58068e-19)
(2.14318 -0.0828392 -8.41745e-21)
(0.310019 1.53917 0)
(2.86203 0.0637625 0)
(2.0277 0.130393 0)
(2.00974 0.0166685 5.65818e-21)
(2.45159 -0.21607 0)
(1.93716 0.0224339 -4.09375e-22)
(1.58679 0.354523 -1.48498e-19)
(2.18068 0.32069 0)
(2.90146 0.0451525 0)
(1.73129 -0.765317 0)
(-0.159434 0.755669 4.21028e-19)
(1.76935 -0.703027 3.93654e-19)
(1.82265 -0.336173 -6.22985e-20)
(2.73324 0.0311811 8.41662e-20)
(1.77861 -0.680174 -5.94103e-19)
(2.25519 -0.276637 9.28521e-20)
(0.784258 -0.372995 2.56493e-19)
(1.90357 -0.0647342 0)
(2.50344 0.77138 -1.72033e-20)
(2.32614 0.699377 1.02679e-19)
(0.468853 -0.149668 -6.81246e-19)
(2.12324 -0.0663912 2.22485e-20)
(-0.245318 0.193773 1.42097e-19)
(0.331025 0.416835 1.36381e-20)
(2.17545 0.293658 1.15007e-19)
(1.9976 0.0746145 -4.34665e-19)
(2.305 -0.137347 4.58186e-21)
(1.93871 0.0640204 -5.25307e-22)
(-2.30598 1.55301 0)
(2.35803 1.07627 -1.85815e-20)
(3.21251 0.240561 5.43794e-19)
(1.99137 0.0525116 -5.03651e-19)
(2.37887 -0.138529 0)
(2.04061 -0.267868 3.90696e-19)
(2.44601 0.361145 -1.90987e-21)
(2.33634 -0.118267 -5.8822e-22)
(-0.152691 0.208803 0)
(2.6456 -0.0564935 1.50581e-20)
(2.83023 -0.188123 -2.53179e-19)
(2.10453 0.125634 -1.8519e-22)
(2.85481 -0.35536 -1.3435e-19)
(2.70715 -0.684038 0)
(1.12119 -0.539374 -1.96749e-19)
(1.59397 0.0989276 0)
(2.55449 0.0604547 0)
(1.93432 -0.152775 0)
(1.28121 0.787589 -3.21638e-19)
(1.98781 -0.188882 0)
(-0.91573 2.40531 -2.1359e-19)
(2.25874 -2.60252 1.70356e-18)
(2.65259 0.00621427 5.09875e-20)
(1.10768 -0.546116 -9.85291e-20)
(2.48526 0.733759 6.43003e-21)
(-2.05238 -0.113332 4.98912e-19)
(2.20651 0.0948107 -4.27182e-21)
(1.37389 -0.661574 -2.41697e-19)
(1.87893 -0.779872 -7.82338e-20)
(1.87746 -0.3819 7.70139e-20)
(2.01387 -0.176418 -6.66586e-20)
(-0.212442 -0.830187 4.55645e-20)
(1.9241 -0.0495372 3.74346e-19)
(1.91824 -0.15852 0)
(2.66594 -0.0419154 0)
(3.11445 -0.249505 4.30215e-19)
(4.16498 -1.16628 9.21706e-19)
(1.64799 -0.0484418 4.79617e-19)
(1.97653 0.0540056 -3.47853e-23)
(2.46615 0.218285 7.82058e-21)
(2.34428 -0.98485 6.43145e-20)
(2.9785 -0.396282 0)
(1.79739 0.959922 5.83507e-19)
(1.60387 -0.353382 0)
(3.07012 0.861198 0)
(1.25526 -0.388733 -1.20787e-18)
(2.89515 0.103481 0)
(2.03895 -0.546417 1.16141e-19)
(2.69247 0.044005 0)
(2.52578 -0.229922 -2.37936e-20)
(1.26458 -0.595456 1.70991e-19)
(2.58137 0.389651 -2.00459e-21)
(-2.04975 -0.296713 4.42648e-19)
(2.23104 -0.622398 1.06966e-20)
(1.62828 -0.340767 -2.99184e-21)
(2.04954 -0.259137 -1.26367e-19)
(2.16 0.00510478 7.84783e-19)
(3.18104 0.140572 5.24763e-19)
(0.902896 -0.438603 2.03156e-19)
(-2.66938 0.889351 0)
(1.07652 -0.523681 1.94978e-20)
(2.71754 -0.313674 2.33749e-19)
(2.57055 0.0445556 4.52418e-21)
(0.944081 -0.455737 5.33373e-19)
(2.35365 -0.0730391 0)
(3.4304 0.105576 0)
(2.0026 0.0537779 6.64297e-19)
(2.50965 0.213383 0)
(0.951559 -0.471696 1.70354e-19)
(1.77674 -0.244293 -2.85247e-20)
(1.82278 0.0641125 0)
(2.2124 -0.00674567 -2.7467e-20)
(3.4682 -0.574319 1.05163e-18)
(-0.283362 -0.0046285 8.4597e-19)
(2.00656 0.468439 0)
(-2.56001 1.75348 -4.12717e-19)
(1.04534 -0.0497077 7.9138e-20)
(1.06517 -0.521456 1.69199e-19)
(1.84447 -0.230945 0)
(2.07939 -0.573234 4.86396e-20)
(-2.05125 1.88564 3.48234e-19)
(2.30927 -0.141619 7.6135e-20)
(2.29966 -1.02149 -8.14587e-20)
(0.495857 0.759954 -4.34586e-19)
(3.43455 0.0690341 3.88898e-19)
(1.78378 0.209678 0)
(1.76557 -0.239265 -1.23957e-21)
(2.36461 -0.149516 1.11306e-20)
(-2.2308 1.75755 -4.29096e-19)
(2.33365 -0.664532 5.45559e-20)
(-0.207762 0.298044 0)
(2.25766 -0.59798 -1.29221e-19)
(-2.37023 0.201034 -7.47556e-19)
(2.16098 -0.00347592 -1.98463e-19)
(1.0541 -0.51069 0)
(1.51702 0.868535 2.38619e-19)
(1.98113 0.0568038 -1.39678e-19)
(3.00734 -0.419397 0)
(2.50308 -0.124107 6.39973e-20)
(1.19257 -0.574073 2.25271e-19)
(3.34978 -0.629425 -5.88559e-19)
(2.08919 -0.522432 0)
(0.813754 -2.0361 0)
(1.86379 -0.260703 -3.75333e-20)
(2.25105 -0.099877 1.62503e-20)
(0.812289 -2.16812 3.69368e-19)
(2.14827 -0.169737 -1.3958e-19)
(1.9527 0.0727009 3.00956e-19)
(3.67265 0.466904 -6.8161e-19)
(-1.23873 2.54671 1.22079e-18)
(0.88692 -0.106951 1.21695e-18)
(3.0929 0.23437 4.03022e-19)
(1.87454 -0.107599 8.83018e-20)
(2.61508 -0.230343 3.51713e-20)
(2.12671 0.00582333 0)
(-2.69621 0.938558 0)
(1.65395 -0.260759 3.3198e-20)
(1.28021 -0.614636 1.50772e-19)
(1.99828 0.0170109 -5.22668e-20)
(2.78144 -0.307079 2.17912e-19)
(2.79141 -0.340621 0)
(2.16194 -0.0284014 -1.14415e-19)
(2.52467 -0.107212 -4.97062e-20)
(1.94547 0.0590622 -2.74032e-19)
(2.68684 -0.222952 -2.30783e-19)
(1.96751 -0.257082 -1.11106e-19)
(-0.104714 -0.868408 2.185e-20)
(2.30345 -0.0828495 -1.39779e-20)
(2.31684 -0.131026 7.50452e-20)
(1.63595 0.0574026 1.06067e-20)
(1.56316 -0.700705 0)
(1.37876 0.0620192 0)
(2.19063 -0.0230587 5.57672e-20)
(1.62916 -0.371566 -2.50771e-21)
(1.57928 0.0879496 0)
(1.76362 1.23189 -9.86063e-19)
(-2.11011 1.07181 0)
(2.26609 1.04616 4.3133e-20)
(2.26288 -0.0769898 -7.13867e-20)
(0.898272 2.12399 0)
(1.8787 0.391225 -1.67218e-19)
(1.63933 -0.275436 -4.94802e-20)
(1.86741 0.184471 -1.87552e-20)
(1.9168 -0.0437879 -4.173e-19)
(2.35036 -0.615094 0)
(1.52139 0.0713219 6.52597e-20)
(1.66904 -0.211262 1.98259e-22)
(1.9985 0.0505044 6.38375e-20)
(1.64765 0.111275 -2.68013e-19)
(0.755768 0.644227 3.03067e-19)
(2.32077 -0.18921 1.58121e-19)
(2.26494 -0.284023 -1.89943e-19)
(2.16269 -0.17095 0)
(2.59239 -0.0935217 9.6229e-22)
(2.29837 -0.276936 -1.27254e-20)
(2.00092 0.0225425 7.33871e-19)
(2.21692 -0.565231 0)
(2.2944 -0.234125 -4.5879e-20)
(1.44785 0.349735 0)
(2.51172 -0.039731 3.25813e-19)
(1.94379 -0.522256 -1.07536e-19)
(0.70865 -0.334487 2.5187e-19)
(2.44352 -0.243669 6.87771e-20)
(2.01498 0.177408 0)
(1.75468 -0.242871 -4.39939e-20)
(2.30089 -0.618179 1.41653e-19)
(1.65625 0.117855 2.53081e-19)
(2.31818 -0.275236 8.93593e-20)
(2.33195 -0.118983 1.05134e-19)
(-1.72011 1.85001 -8.36959e-19)
(1.99239 0.125733 1.26741e-22)
(2.24598 -0.148162 0)
(1.03693 -0.370348 5.98852e-19)
(3.08432 0.838723 0)
(1.66726 -0.251537 -2.30076e-22)
(2.28335 -0.0835178 2.22063e-19)
(2.56446 -0.111061 -4.89166e-20)
(2.51382 -0.12219 5.01169e-20)
(0.409897 -0.250382 -8.39301e-19)
(1.9539 0.0588365 3.41359e-19)
(1.85582 0.0286017 0)
(-0.489451 0.330335 -3.79828e-19)
(2.22054 -0.21318 -6.73288e-20)
(1.65896 -0.352629 -1.73828e-21)
(3.78872 -1.31378 7.02419e-19)
(2.37544 -0.0160493 0)
(2.38173 -0.231705 1.16416e-19)
(1.8063 0.14118 5.45581e-19)
(1.97734 0.0637353 4.25607e-19)
(2.98251 -0.490063 0)
(1.93626 0.0109075 -2.45698e-22)
(2.83548 -0.332606 -2.19552e-19)
(-1.41692 -0.908264 1.80056e-19)
(1.61125 -0.0649631 6.6693e-20)
(2.22316 -0.186423 6.40098e-20)
(2.03181 0.00692842 -1.18816e-22)
(2.24234 -0.148576 0)
(2.53844 -0.233109 -8.08727e-20)
(-2.47107 1.88804 3.86851e-19)
(2.42487 0.430292 -3.108e-20)
(1.99815 0.021746 2.77175e-19)
(1.38954 0.0281991 0)
(1.70358 -0.232187 -5.31042e-20)
(0.990794 2.12546 0)
(3.15849 1.29267 -2.21157e-19)
(2.17241 -0.0221664 0)
(2.21121 -0.666319 -8.38481e-21)
(1.34805 -0.133936 -1.4544e-19)
(1.5059 0.802613 5.62181e-19)
(-1.33417 -0.729866 -6.99913e-19)
(2.13005 -0.521569 0)
(2.37883 0.0642248 -1.03159e-19)
(2.02082 0.185611 -1.79538e-19)
(0.88033 -0.575704 -3.15539e-19)
(-1.97501 0.317973 6.6284e-20)
(1.67479 -0.061465 -7.19285e-19)
(3.04227 -0.353548 2.22329e-19)
(2.08703 0.189446 1.33497e-19)
(1.48642 -0.463675 0)
(1.37868 0.281702 3.00983e-19)
(1.67408 0.142054 -2.07622e-20)
(-2.289 1.13959 9.46916e-19)
(-2.49902 1.7923 -1.32958e-18)
(1.11455 -0.595973 -6.90566e-19)
(3.13054 0.206531 0)
(0.920603 -0.612814 0)
(1.95448 1.14268 0)
(2.1413 -0.0761216 0)
(1.39558 -0.112725 -3.85913e-19)
(2.442 -0.0211489 0)
(1.44178 -0.285425 0)
(1.68686 0.0838369 1.02913e-19)
(3.21943 0.260787 -5.64365e-19)
(2.22375 -0.144448 -1.73362e-19)
(1.70934 0.3019 9.23149e-19)
(2.00539 0.0177528 -9.16838e-20)
(2.22602 1.65281 0)
(3.06776 -0.250689 0)
(1.9372 0.0620039 2.92979e-19)
(2.02709 0.0498741 5.23917e-20)
(1.29861 0.836566 0)
(-0.295361 0.244097 8.90756e-19)
(2.31608 -0.688008 -6.14268e-20)
(-0.162019 0.122924 0)
(2.35033 -0.0746227 1.18435e-19)
(1.98651 0.0512162 -3.38689e-19)
(0.563737 0.287939 -1.17375e-19)
(1.0308 -0.357084 0)
(2.00591 0.191187 3.30393e-19)
(2.64583 0.237889 0)
(2.8579 -0.351833 0)
(2.21308 0.202497 -2.00341e-20)
(1.94573 0.076801 1.59368e-19)
(0.332207 -0.235723 -9.33436e-19)
(2.28704 0.68673 4.39326e-20)
(1.36617 -0.355509 -2.46274e-19)
(2.15059 -0.0662273 2.756e-20)
(2.09046 0.185063 1.05366e-19)
(2.66042 -0.235249 1.96646e-19)
(2.43279 -0.640326 0)
(3.45642 -0.423223 4.8723e-19)
(1.35546 -0.0742075 0)
(1.673 -0.245047 2.9473e-20)
(2.29215 -0.146956 0)
(1.45876 0.0424752 3.87317e-19)
(-0.639771 -0.656239 -1.06534e-18)
(3.00151 -0.341057 0)
(-0.190979 0.116409 2.39187e-20)
(3.08752 -0.277883 -4.66785e-19)
(1.70757 -0.255195 -7.52464e-21)
(1.81036 -0.262842 6.07485e-19)
(1.40201 0.783615 -3.55478e-19)
(1.35612 -0.345636 -7.10518e-19)
(3.28954 1.27935 0)
(1.62846 0.0876441 2.59124e-20)
(-1.75198 2.03385 -2.10326e-18)
(2.00999 0.19822 0)
(1.85024 0.207219 2.04208e-20)
(2.9892 -0.00412039 -3.73128e-20)
(2.62929 1.15809 0)
(2.00382 0.0156567 0)
(-1.6503 1.04684 0)
(-2.12234 1.32864 1.71327e-18)
(3.17614 0.519314 8.17676e-19)
(3.17541 0.742145 5.6893e-22)
(2.2361 1.00234 0)
(1.74254 -0.174659 4.41203e-19)
(1.92873 0.0615492 9.89441e-22)
(2.28649 0.633255 -9.64105e-20)
(-2.30627 0.908668 1.30423e-18)
(1.91546 0.146831 0)
(2.00411 0.135346 0)
(0.769322 -0.137993 -4.23356e-19)
(1.4583 -0.455703 -1.66739e-19)
(1.99077 -0.168601 0)
(1.37604 -0.658328 -7.15358e-20)
(1.8659 0.0239034 -3.68516e-22)
(1.97988 0.0989823 1.23699e-22)
(0.793659 -0.372082 0)
(1.97247 -0.0564931 9.02506e-20)
(1.66955 0.110827 2.00399e-20)
(2.64397 0.214024 6.44329e-20)
(1.92765 -0.543777 0)
(1.03794 -0.091844 -1.83841e-18)
(2.53708 -0.113958 5.42069e-20)
(2.00079 0.078399 6.78832e-20)
(1.80379 0.0363483 8.53762e-21)
(2.57163 0.764749 0)
(1.6851 0.298032 -2.45797e-19)
(3.08404 0.622134 -1.74959e-19)
(1.23985 -0.551619 1.46579e-19)
(2.00697 0.0433505 0)
(-1.99712 0.293957 -6.82377e-20)
(0.514685 -0.118363 0)
(2.00392 0.0415648 -2.66186e-19)
(1.99241 0.0562943 1.10066e-19)
(1.89956 0.0382577 -5.70045e-20)
(-2.18697 1.55529 0)
(2.2942 0.0246267 -1.40897e-20)
(1.109 0.416552 8.33963e-19)
(2.39085 -0.63745 0)
(1.65723 0.0722103 3.19762e-19)
(2.64837 -0.268174 2.6316e-19)
(2.20725 -0.0168433 0)
(-2.3183 0.0793913 3.84307e-19)
(1.91329 -0.608385 -7.54917e-20)
(2.04778 2.33633e-05 0)
(1.11683 -0.10977 1.22545e-18)
(1.83945 0.19725 0)
(1.73819 -0.784402 1.33418e-19)
(-2.60786 1.7568 8.19587e-19)
(2.1001 0.139838 1.97909e-22)
(2.49337 0.178251 -5.30312e-21)
(1.37294 0.262506 1.58261e-19)
(1.80059 -0.287952 -2.22815e-19)
(2.13503 -0.471504 -5.38914e-20)
(1.77626 -0.789844 3.69862e-21)
(2.20423 -0.192121 6.7357e-20)
(2.55684 0.770511 4.59323e-20)
(1.974 -0.849423 0)
(1.99751 0.0178725 -2.45824e-19)
(0.0363553 0.191874 -4.00304e-19)
(1.38287 -0.0860882 0)
(1.63635 0.247964 -7.07938e-21)
(1.52202 0.00966732 0)
(1.24621 -0.371775 6.18636e-19)
(2.1807 -0.749167 0)
(1.72039 0.00353147 -6.65669e-21)
(2.29987 -0.0856773 -1.27019e-19)
(-2.20215 -0.126687 7.18374e-19)
(-2.02371 1.21785 1.25786e-18)
(2.27762 -0.0145434 -1.14219e-21)
(1.44912 -0.67802 -2.32157e-20)
(1.82639 -0.503862 1.88379e-19)
(1.51082 -0.335837 0)
(0.319202 -0.157914 -5.00425e-19)
(2.44923 -0.553427 1.03318e-20)
(0.336199 -0.151592 -5.81911e-19)
(1.98113 0.115195 -1.2579e-22)
(1.47584 -0.575429 0)
(2.22657 -0.0217886 -1.59816e-21)
(-0.343971 0.351987 0)
(-2.71519 1.30619 4.85622e-20)
(0.290128 0.326811 1.41638e-19)
(0.851112 0.68441 0)
(2.12581 -0.495277 3.37734e-20)
(2.03986 -2.29491 0)
(2.64677 1.07694 0)
(1.51267 -0.710027 -1.76809e-19)
(1.47707 0.32218 2.4441e-19)
(1.66905 -0.79117 0)
(1.81214 0.165921 -1.51444e-19)
(2.96605 0.67202 5.45069e-19)
(-2.36342 1.96981 1.70637e-18)
(2.60607 1.4046 0)
(2.17865 -0.0465773 0)
(-1.60265 2.03353 -9.06848e-19)
(1.9156 -0.108893 0)
(2.70088 0.00741467 0)
(-1.04624 2.72564 -1.17853e-20)
(2.11033 -0.34748 -2.08354e-19)
(1.78518 -0.417072 1.7384e-19)
(3.52215 0.0182064 5.75814e-20)
(0.307793 -0.133491 1.06789e-18)
(1.99288 0.0477978 1.25067e-19)
(1.54793 -0.366704 0)
(2.15504 0.479914 -5.60206e-20)
(1.43808 -0.214563 0)
(2.41547 0.0346941 0)
(1.99831 0.10055 0)
(2.20265 0.182534 -1.63803e-20)
(1.90049 -0.0423261 1.94953e-19)
(2.46722 0.152023 2.5197e-21)
(1.59498 -0.369353 0)
(0.360389 -0.226302 -6.81528e-19)
(1.99029 1.08507 1.02331e-19)
(1.92865 -0.679198 1.33679e-20)
(2.0928 -0.138413 -1.45244e-19)
(3.32099 -0.638293 9.56057e-19)
(2.04728 0.0673961 -1.93967e-19)
(-0.635432 -0.685058 0)
(2.5175 -0.110662 0)
(1.42212 0.801166 0)
(1.22844 -0.55607 -4.30438e-19)
(-0.763822 -1.6745 -9.4142e-19)
(1.36947 0.649615 0)
(2.17953 0.49421 0)
(2.5058 -0.244525 9.99076e-20)
(1.94925 -0.030089 -4.36426e-20)
(1.87872 0.611633 2.89663e-19)
(1.90637 -0.775625 0)
(0.0186903 0.425864 -2.65863e-19)
(2.41846 0.0737239 4.53112e-20)
(1.4251 -0.420409 -4.03859e-19)
(2.24784 0.0672123 -9.57045e-20)
(2.27781 0.639587 1.46018e-19)
(3.78784 -0.527216 1.1208e-18)
(1.22524 -0.561593 7.53824e-19)
(2.45092 -1.63232 4.55546e-19)
(2.49006 0.337886 -2.66139e-21)
(2.0005 0.0107514 -6.07471e-20)
(1.25882 -0.578764 -1.70286e-20)
(1.93013 -0.569921 3.16963e-20)
(1.54746 1.96384 -4.75915e-20)
(1.38507 -0.653926 4.39538e-20)
(2.59182 -0.0793589 0)
(1.57137 -0.284279 -3.49729e-21)
(2.20871 -0.0450158 -2.64905e-19)
(2.85888 0.847576 8.38595e-20)
(1.39434 -0.386049 -3.733e-19)
(1.90991 -0.652948 -1.61307e-19)
(1.94659 -0.012614 3.83591e-19)
(2.3853 -0.0549144 -2.18987e-19)
(1.34737 -0.258755 -6.97854e-20)
(3.07296 0.243457 -2.15208e-19)
(1.16804 -0.176443 -8.71151e-19)
(2.13797 -0.0289444 -2.12313e-19)
(1.15253 -0.241213 0)
(-2.25739 -0.0204844 -1.83092e-18)
(1.90199 0.0368183 4.37137e-19)
(1.51544 -0.000242401 -2.86193e-22)
(-0.71557 0.0933324 0)
(1.68329 -0.752245 0)
(2.01624 0.432653 2.56665e-19)
(1.03319 -0.173554 5.47469e-19)
(1.78213 -1.28906 -2.32909e-18)
(2.23812 -0.65791 -1.17185e-20)
(2.28348 -0.292724 9.99915e-20)
(3.14559 0.817463 0)
(2.02379 0.473634 1.42005e-19)
(0.126883 -0.718608 -1.14512e-20)
(2.41067 1.08111 7.50094e-21)
(2.0208 -0.246161 -2.35635e-19)
(0.251414 -0.0717227 -1.74023e-18)
(3.23428 -0.660832 -8.98971e-19)
(3.53135 -0.460236 2.5925e-19)
(2.18756 1.19947 0)
(2.51818 -0.571331 -1.09295e-19)
(1.91103 0.0354137 5.13717e-20)
(1.94087 0.0428242 -3.07349e-22)
(0.815596 -0.394926 7.10771e-19)
(1.99976 -0.245232 3.54207e-19)
(1.90304 -0.4606 3.72922e-20)
(-2.4172 1.889 -9.8678e-19)
(2.59294 -0.244046 -2.13567e-19)
(2.2672 -0.0257299 1.89484e-19)
(-1.11693 2.46984 -1.49201e-19)
(2.32701 1.02568 7.95495e-20)
(1.2825 -0.193461 -1.32771e-18)
(0.975302 -0.475795 -2.11276e-19)
(1.95879 0.0356559 0)
(2.65841 0.598833 4.82188e-20)
(-1.68296 2.59435 -7.26323e-19)
(1.34207 -0.160621 7.79167e-19)
(2.16675 0.106056 0)
(2.07359 -0.293487 1.11165e-19)
(1.19359 -0.502635 1.74877e-19)
(1.99516 0.0338634 -5.3723e-19)
(-1.53467 1.32093 -9.1617e-19)
(1.67762 -0.763742 -1.22432e-20)
(2.2286 -0.150946 1.16996e-19)
(2.33242 0.0676783 1.51124e-19)
(1.76231 -0.793982 -1.67789e-19)
(2.48371 0.213445 -5.50189e-21)
(-0.515877 -1.69965 -2.68795e-18)
(2.11927 -0.044003 2.48538e-19)
(2.14785 -0.0564959 -1.20257e-19)
(2.15252 0.0976388 -5.58532e-21)
(2.13037 -0.0334799 -2.52131e-19)
(1.13088 -0.5083 -3.38146e-19)
(2.46905 0.313237 0)
(-2.53473 1.03521 1.31644e-18)
(2.1149 0.0723465 3.75241e-20)
(1.31983 0.130318 -1.36441e-19)
(2.45112 0.0416234 5.58766e-21)
(2.23905 -0.327332 -7.46266e-20)
(2.00029 0.0144617 -4.38795e-19)
(2.09031 0.319575 7.98572e-20)
(-0.427238 0.347498 -9.1782e-19)
(2.73077 0.0115136 0)
(1.70913 -0.223751 2.76707e-20)
(2.57818 -0.115874 5.00677e-20)
(1.48588 -0.560646 0)
(2.14441 0.0747089 1.54757e-19)
(2.59611 -0.0932163 5.40731e-20)
(2.69869 0.0193923 2.02022e-24)
(2.77464 -0.709514 2.50108e-19)
(2.06495 -0.170438 0)
(1.77916 0.337854 4.56642e-19)
(2.08089 -0.735498 -9.95512e-20)
(1.34294 -0.643948 1.32662e-19)
(2.05936 -0.162735 0)
(1.47372 0.280154 -7.05183e-19)
(0.652757 -0.531552 -1.21223e-19)
(2.38198 1.47841 -1.38147e-19)
(1.1782 -0.201271 8.4508e-19)
(2.15585 0.00631292 6.52706e-23)
(-1.95536 1.22326 9.74725e-19)
(1.97544 -0.0938881 -2.84268e-19)
(3.40525 -0.296497 -6.42804e-19)
(1.79465 0.13875 -3.16074e-19)
(1.95333 0.00994667 0)
(2.0018 0.0267644 -2.28546e-19)
(0.495543 -0.0131453 1.81435e-18)
(-0.367039 0.364259 0)
(4.18242 -0.940792 0)
(1.93946 0.0431848 0)
(1.28766 -0.495057 0)
(2.04387 0.314553 0)
(1.10503 -0.170014 0)
(2.47257 -0.96153 -1.04553e-20)
(3.42724 0.724234 -3.84728e-19)
(2.60834 0.420594 0)
(1.75902 0.337981 6.88446e-19)
(1.09022 -0.605433 1.67716e-19)
(2.07757 0.194332 5.25695e-21)
(-1.47537 2.65678 -3.04878e-19)
(1.11473 0.0572456 -2.79156e-22)
(-0.605437 0.567884 8.0355e-19)
(1.74453 0.00348431 -8.63749e-20)
(2.88509 0.0227516 2.62993e-20)
(2.02106 0.295214 -1.75355e-19)
(1.87479 0.174515 -4.32654e-19)
(1.93213 1.00519 -2.2515e-19)
(3.16272 1.24969 0)
(-2.22316 0.588793 2.20048e-19)
(1.26938 -0.38786 -6.7757e-19)
(2.01092 0.0255646 -7.03104e-19)
(2.45913 -0.561304 1.9832e-19)
(1.98351 -0.0246617 4.09514e-20)
(2.88227 -0.306677 -3.78905e-19)
(2.16874 -0.260592 -2.29685e-20)
(2.13836 -0.482087 -1.1542e-19)
(2.02255 0.166135 1.86926e-19)
(1.69661 1.11118 0)
(2.1097 -0.413444 -4.81298e-20)
(1.70627 0.0631285 -9.61884e-20)
(2.40959 -0.0101891 0)
(1.8813 -0.229691 0)
(1.83647 -0.824022 -5.17467e-21)
(-2.40612 1.41869 1.07077e-18)
(2.41971 -1.0138 -3.45689e-19)
(1.78282 -0.039264 0)
(1.94048 -0.0510708 -3.90368e-19)
(1.81084 0.205917 -8.387e-20)
(-2.61814 0.640118 7.40174e-19)
(2.62921 -0.0538651 1.90305e-20)
(-0.898552 0.726952 0)
(-2.27222 0.630634 2.676e-19)
(2.62306 -0.0789972 0)
(2.49035 -0.607681 1.15539e-19)
(2.34382 -0.229103 -8.48088e-20)
(2.00124 0.0233049 2.73693e-23)
(2.3397 0.712841 -1.82092e-19)
(2.59947 1.29441 -2.84486e-20)
(1.77847 -0.483709 4.02775e-19)
(-1.47697 -0.36735 0)
(1.72256 -2.62273 -1.5013e-18)
(1.23359 -1.17282 0)
(2.67094 0.418392 -3.11763e-20)
(-2.69081 0.900334 1.38945e-18)
(4.28469 -0.90544 9.23319e-19)
(1.73192 -0.217714 -2.77435e-20)
(-1.8283 2.11605 -2.13727e-18)
(1.16024 -0.569348 -1.5322e-19)
(1.31262 -0.394249 -3.87204e-19)
(1.65823 0.134555 7.52085e-21)
(2.17764 -2.64512 1.23724e-18)
(1.17259 -0.52361 2.78582e-19)
(1.37143 -0.417864 4.18894e-19)
(-0.678328 -1.44916 1.11687e-18)
(2.7913 -2.37823 -7.72014e-19)
(1.89079 -0.569029 1.70829e-19)
(-1.30275 -0.815311 7.53881e-19)
(2.40355 0.0308509 -4.53071e-21)
(1.0773 -0.660156 -1.40993e-19)
(2.32922 0.450269 -6.14991e-20)
(2.35354 -0.429136 0)
(1.14094 -0.516516 -1.41492e-18)
(2.10646 -0.0411225 -3.13435e-19)
(1.99547 0.10904 0)
(2.64248 0.391054 0)
(0.985176 -2.53001 -6.23909e-19)
(3.70802 -0.0992599 -6.2686e-19)
(2.45266 0.246951 -4.98936e-20)
(2.10583 -0.338778 2.7181e-19)
(1.91634 0.96916 2.01704e-19)
(1.40596 -0.0188231 2.39572e-19)
(-2.73544 1.13614 -8.29377e-20)
(1.77125 0.619935 0)
(1.40386 -0.448466 3.95912e-19)
(-0.446128 1.34477 1.80826e-19)
(-1.96374 1.98736 1.64269e-18)
(1.76943 -0.664006 6.11902e-20)
(1.68662 -0.742676 9.17975e-20)
(1.64295 -0.0119524 1.3005e-19)
(1.80522 -0.198359 1.67103e-20)
(2.90555 -0.490212 5.0563e-19)
(-2.64477 1.08186 -9.48709e-19)
(2.4334 0.238268 3.94309e-20)
(1.96208 0.0545795 1.69011e-19)
(1.14581 -0.23052 -3.46717e-19)
(1.92308 -0.0851375 2.39241e-19)
(1.21741 -0.261575 0)
(2.4243 0.423897 6.08423e-20)
(1.99518 0.0534743 3.79469e-20)
(1.49571 -0.306283 -1.2858e-19)
(1.77153 1.78296 -1.07674e-20)
(1.85845 -0.556002 1.36903e-19)
(2.09809 0.0328673 6.8772e-20)
(1.38088 0.11926 -5.32458e-19)
(2.4264 -0.0459636 0)
(1.71755 -0.199561 -5.3791e-20)
(2.26209 0.0897937 1.29896e-19)
(2.27355 -0.155539 0)
(1.41183 0.0149294 2.99616e-19)
(2.63763 -0.0535798 0)
(1.6747 1.77892 2.2302e-19)
(2.3287 -0.032043 0)
(2.10577 -0.458262 0)
(2.50541 -0.0460674 3.5297e-20)
(2.42609 0.18699 4.32489e-20)
(3.01851 0.376124 -2.9584e-19)
(1.92238 0.134617 -1.98062e-19)
(1.53798 1.15746 -1.5403e-19)
(1.99948 0.0855918 -8.35404e-20)
(2.07119 0.322511 0)
(-0.667897 0.121073 -4.20719e-20)
(2.54548 0.173613 1.90915e-20)
(2.43328 -0.590016 -2.33477e-19)
(2.34366 -0.423932 0)
(2.8929 0.836157 1.31738e-19)
(2.09664 1.64184 1.56063e-21)
(2.36823 0.0180067 -1.42907e-20)
(0.967038 1.29581 0)
(-0.806171 2.7209 9.20213e-19)
(2.04202 0.163863 0)
(2.90348 -0.415018 -2.46345e-19)
(-0.260372 0.0322157 0)
(1.70334 0.121027 0)
(2.45852 -1.82261 0)
(2.12708 -0.749024 0)
(-0.665208 1.88381 -1.20631e-19)
(-2.09529 1.11061 -3.79543e-19)
(1.88948 -0.0359799 -2.92921e-19)
(-2.3572 0.00417165 -9.1437e-19)
(1.25576 -0.550739 0)
(-2.02415 -0.352747 -7.97302e-19)
(-0.39566 -0.0115211 -8.34895e-19)
(1.5149 -0.70819 0)
(1.48753 -0.523483 -4.04923e-19)
(1.36452 0.112645 -1.31484e-20)
(2.31684 0.433456 1.53262e-19)
(2.65812 -0.72082 -1.91548e-19)
(1.86476 0.161965 0)
(2.32428 -0.635306 0)
(3.30612 0.584157 1.37949e-19)
(1.92769 -0.506812 8.14167e-21)
(1.62692 0.0495132 -2.07586e-20)
(0.932411 -2.36254 5.6128e-20)
(1.99887 0.00672752 1.70258e-20)
(2.63757 0.599239 -9.99811e-21)
(2.02203 0.168021 2.68311e-19)
(1.68335 -0.218132 2.81908e-20)
(1.94083 -0.500612 0)
(0.453063 -0.310756 0)
(2.49403 0.184056 0)
(1.73334 0.0232571 0)
(1.76916 -0.309659 1.65013e-19)
(3.02311 0.0728817 0)
(-0.920464 2.5977 1.6483e-18)
(3.13875 -1.00144 2.91899e-20)
(1.33847 -0.43413 -6.31744e-19)
(1.03658 -0.567909 -8.50604e-20)
(-2.41316 0.726508 -7.11268e-19)
(-0.630991 2.54539 -7.43666e-19)
(1.85769 0.0546245 5.4852e-20)
(-2.6469 1.51998 -8.8356e-19)
(1.66284 -0.226553 4.54758e-20)
(2.54603 -0.0315648 0)
(2.35369 -0.205728 0)
(1.39063 -0.476762 0)
(2.24076 -0.343783 3.64593e-20)
(2.56956 -2.25818 0)
(1.79975 0.626861 0)
(2.00219 0.0095559 0)
(1.80671 -0.422248 1.62108e-19)
(2.07722 0.195407 -2.67403e-19)
(1.59474 0.0288312 0)
(2.59082 -0.9306 -3.23071e-19)
(1.97591 0.16878 -2.4712e-19)
(2.42178 0.994844 -1.83696e-20)
(1.55231 -0.721515 2.07797e-19)
(1.87288 0.676725 1.37168e-21)
(1.89871 -0.718268 -6.14905e-21)
(1.84852 -0.253144 3.70292e-20)
(2.15115 -0.601352 -1.03143e-19)
(2.40707 0.192761 -5.50551e-20)
(1.64577 0.0691576 -4.2906e-20)
(1.83378 0.0673015 -2.97708e-19)
(2.12105 -0.0421519 0)
(1.27885 0.170034 1.02595e-19)
(1.97664 0.0591425 3.12021e-19)
(0.317824 -0.813641 -1.13828e-19)
(2.16158 -0.248808 -7.05858e-20)
(1.0632 -0.193827 -5.97023e-19)
(2.42486 0.169739 8.66455e-21)
(3.09806 0.643956 2.51159e-19)
(1.99756 0.0729612 0)
(1.48683 -0.265725 -1.43049e-20)
(1.77186 -0.0781928 -1.68658e-20)
(2.18554 -0.615495 2.14658e-19)
(-2.32709 0.858784 -1.46279e-18)
(2.0825 0.0373047 1.46992e-19)
(2.50281 0.287155 2.5837e-21)
(2.19927 0.0139579 1.26355e-23)
(2.44027 0.160953 0)
(0.875044 -0.354399 0)
(1.36954 -0.654658 2.71598e-19)
(-1.45594 1.16028 9.90824e-19)
(1.95596 0.0217891 2.7708e-22)
(1.97559 0.059368 6.20667e-19)
(1.48218 -0.271367 4.61498e-20)
(1.44333 0.264548 0)
(1.80827 0.0880113 0)
(1.6291 -0.355523 -5.91883e-21)
(2.42276 -0.00981853 5.52326e-20)
(1.91924 0.661387 3.96419e-19)
(2.37665 -0.124591 0)
(2.1357 0.0120508 0)
(2.17339 -0.543705 9.9048e-20)
(2.03425 -0.150681 2.02295e-19)
(-0.496795 0.471836 -2.09298e-19)
(1.71846 -0.0749287 0)
(1.17741 0.00163491 1.18325e-19)
(2.97558 -1.03787 -1.51535e-19)
(-1.7676 2.44332 -8.25633e-19)
(2.05377 -0.0212435 -3.02874e-19)
(3.80933 0.551978 0)
(3.7256 -0.0229678 5.06472e-19)
(1.46565 1.03262 -2.11091e-18)
(-0.208836 0.256183 0)
(1.76525 0.0345749 -2.67311e-20)
(1.92501 0.102515 -2.06329e-19)
(1.72439 0.0156536 -1.03789e-23)
(2.32572 -0.21157 4.95497e-20)
(1.21059 1.04241 3.12626e-19)
(1.85956 0.0463965 0)
(1.05202 -0.393484 -5.4781e-21)
(1.44692 -0.277036 -4.37169e-20)
(1.31735 1.91066 -1.29439e-18)
(2.03297 0.297045 2.08106e-19)
(-1.28451 -0.407748 2.59074e-19)
(2.03346 0.0266706 -6.68652e-19)
(1.79899 -0.415648 -1.89445e-20)
(1.7881 -0.243164 3.13681e-20)
(1.76653 -0.385376 0)
(1.73938 0.016596 -8.68712e-20)
(1.09941 -0.511279 2.2236e-19)
(2.26868 -0.0877435 -2.52592e-19)
(1.99841 0.0530406 -2.79828e-19)
(2.87945 -0.416734 2.20234e-19)
(1.69264 -0.165838 6.60209e-19)
(2.31275 0.0209353 6.34994e-21)
(1.79497 0.0916872 1.76748e-19)
(1.61075 0.239344 -2.92821e-20)
(3.51574 0.0574153 -6.35871e-19)
(2.34673 1.10103 6.469e-21)
(1.9249 -1.20135 1.82178e-18)
(1.8817 -0.0198616 0)
(1.50277 -0.431229 0)
(2.17729 0.108752 0)
(1.33707 -0.400835 4.93233e-19)
(2.15519 0.0702868 -4.56623e-19)
(1.79432 0.221692 0)
(1.5401 -0.321213 -3.73644e-19)
(1.78893 0.191039 0)
(1.77896 -0.282372 -2.70427e-19)
(2.40742 -0.620273 -2.51327e-19)
(1.9137 -0.471735 -1.93746e-19)
(1.93966 0.0463326 0)
(1.96915 0.0477735 0)
(2.30521 -0.167697 1.29209e-19)
(2.58246 0.35348 1.99991e-21)
(2.94847 -0.0683555 2.1044e-19)
(2.26009 1.73011 -6.2926e-21)
(2.33882 -0.161118 0)
(1.77927 -0.644297 -1.01065e-19)
(-0.262941 0.414456 0)
(0.841413 0.912585 -3.06731e-19)