/*--------------------------------*- C++ -*----------------------------------*\
| =========                 |                                                 |
| \\      /  F ield         | OpenFOAM: The Open Source CFD Toolbox           |
|  \\    /   O peration     | Version:  2306                                  |
|   \\  /    A nd           | Website:  www.openfoam.com                      |
|    \\/     M anipulation  |                                                 |
\*---------------------------------------------------------------------------*/
FoamFile
{
    version     2.0;
    format      ascii;
    arch        "LSB;label=32;scalar=64";
    class       volVectorField;
    location    "5.5";
    object      U;
}
// * * * * * * * * * * * * * * * * * * * * * * * * * * * * * * * * * * * * * //

dimensions      [0 1 -1 0 0 0 0];

internalField   nonuniform List<vector> 
5098
(
(2.62311 0.967739 0)
(2.14879 0.0777917 -3.37046e-20)
(2.58041 0.0466877 -2.54531e-21)
(1.50334 -0.666939 8.37936e-19)
(2.16473 -0.750161 0)
(0.868083 -0.418467 0)
(2.42134 -0.00672113 -2.18877e-21)
(2.52313 -0.270366 1.65816e-21)
(2.67631 0.0358069 -5.22204e-20)
(2.05859 -0.234804 1.3023e-19)
(-0.307971 -0.957293 0)
(2.18585 -0.0572067 1.91253e-19)
(2.48109 -0.44273 -1.34804e-20)
(0.916027 -0.447594 0)
(2.08448 -0.286888 1.01753e-19)
(1.95148 0.0385361 3.85521e-22)
(-0.254594 -0.294801 -8.22051e-20)
(-1.1127 -0.452737 0)
(-0.332938 0.346756 4.57923e-19)
(-0.335943 -0.186284 9.33285e-20)
(1.82986 0.58591 -8.13744e-20)
(1.90383 0.0296649 1.23172e-21)
(2.07677 -0.804465 0)
(0.726675 0.0883789 3.10502e-20)
(-2.20213 1.01999 0)
(1.45365 -0.580787 0)
(1.97464 0.0290314 1.35333e-19)
(1.82566 -0.775028 2.28596e-19)
(-0.181111 0.552711 -1.37998e-18)
(1.6615 -0.730543 0)
(2.4074 -0.208422 -1.27754e-19)
(0.705247 -0.342834 0)
(2.06709 0.00271988 -1.50305e-19)
(0.501611 -0.872963 0)
(2.56284 0.321744 -4.63621e-20)
(3.47192 0.251492 1.4918e-18)
(1.86825 -0.446105 1.6367e-19)
(1.96294 -0.00399133 -3.21159e-21)
(1.3062 -0.423526 6.02307e-19)
(1.36225 -0.633585 0)
(1.51066 -0.681786 -3.95942e-19)
(1.29804 -1.15706 -2.24529e-18)
(1.46754 -0.584093 0)
(2.56347 -0.187328 6.60163e-20)
(2.40643 0.620446 3.9709e-20)
(2.06675 0.099061 7.31641e-21)
(-0.481161 -0.292522 5.3244e-20)
(1.0495 -0.343297 0)
(2.39603 -0.235881 0)
(1.51106 -0.633805 8.92304e-20)
(2.25006 0.132601 5.36626e-20)
(1.64061 0.476647 -4.97447e-19)
(-0.980286 0.763981 1.93276e-21)
(2.05994 -0.0705189 1.93252e-19)
(0.931762 -0.465402 -3.68954e-19)
(1.55743 0.126625 0)
(1.85943 0.272427 -2.69318e-19)
(1.61529 -0.65509 0)
(0.835128 -0.411894 0)
(1.91055 -0.00150167 -2.91477e-20)
(1.52737 -0.34437 4.76824e-20)
(-0.841062 0.266337 -2.5856e-19)
(2.51552 0.362017 0)
(2.43852 -0.421301 0)
(-1.11695 0.980348 2.40244e-18)
(0.791989 -0.398299 4.57402e-19)
(2.18291 0.0267886 6.48364e-21)
(2.31683 0.188485 7.45435e-21)
(2.09536 -0.251584 2.01506e-19)
(1.6568 -0.691081 2.64344e-19)
(1.90884 0.221383 1.7037e-20)
(1.36132 -0.420203 -7.09524e-21)
(1.89665 -0.789558 0)
(1.0169 -0.61215 0)
(1.6641 -0.0843995 2.95508e-20)
(1.10069 -0.536979 -4.27246e-19)
(1.56392 0.169833 0)
(1.48533 0.217275 4.61397e-19)
(2.51914 -0.239862 7.74608e-20)
(1.5943 0.175991 0)
(1.71079 -0.0203199 0)
(3.53589 -0.392497 1.03143e-18)
(1.67592 -0.259659 5.69011e-19)
(0.47645 -0.936922 -4.69488e-21)
(-1.19295 -0.603422 3.22485e-19)
(1.50268 -0.663406 2.88338e-19)
(0.0101889 0.3418 -2.77511e-19)
(1.55743 0.176326 -6.07136e-22)
(2.6666 -0.192137 6.19197e-20)
(1.49651 -0.38688 5.02969e-20)
(2.26649 -0.273156 -9.12017e-21)
(0.431544 -0.270539 8.57061e-19)
(2.44322 -0.0819321 -2.44211e-19)
(1.52631 -0.653073 -4.46854e-19)
(1.2929 -0.454715 1.06215e-19)
(1.38155 -0.395075 -9.90458e-21)
(1.03132 -0.517905 -3.64448e-19)
(1.49091 0.282125 3.40978e-19)
(1.60551 -0.0724585 1.63606e-20)
(2.01628 -0.486159 -1.3904e-19)
(1.7848 -1.51608 -1.44145e-19)
(0.984756 -0.484831 -4.39347e-19)
(-0.0192488 -0.0841269 4.93946e-20)
(2.38957 0.389821 -7.2137e-21)
(1.495 0.197976 -5.24481e-19)
(2.43381 1.08141 0)
(1.94493 0.259962 2.85208e-19)
(2.30633 0.0882111 1.7521e-21)
(0.997402 -0.397776 8.15249e-20)
(-0.439031 -0.872824 0)
(1.03368 -0.496747 -9.696e-19)
(1.30336 0.61719 6.71478e-19)
(1.86096 0.00274156 -2.83342e-19)
(-0.0137241 0.350826 1.9017e-19)
(1.75037 0.667733 1.16096e-19)
(0.239083 -0.385504 0)
(3.67697 -0.747382 2.16342e-18)
(2.74558 1.46913 0)
(1.88592 0.324497 2.66601e-21)
(0.755263 0.0347619 -4.78091e-19)
(1.71344 0.459273 4.08452e-19)
(1.63366 2.09858 -7.31621e-20)
(2.08383 -0.241901 -8.2452e-20)
(-0.018556 0.644478 -1.55732e-18)
(0.329893 -0.0240506 -1.11418e-18)
(-0.400019 0.0702593 2.15392e-21)
(2.11951 -0.0623264 1.61658e-19)
(2.06639 -0.771604 -2.90559e-19)
(1.33972 -0.140631 -1.25758e-19)
(0.0444152 0.282628 -3.62429e-19)
(-1.91587 0.297546 -1.33734e-18)
(1.08935 -0.484342 -6.02152e-19)
(1.11892 -0.483956 5.04354e-19)
(2.62769 1.50118 -1.23426e-19)
(1.27167 -1.33306 -3.09045e-19)
(2.85395 -0.766766 4.14032e-19)
(2.06284 2.62103 6.69406e-19)
(1.92409 0.264903 1.94663e-19)
(0.846708 -0.415845 0)
(2.09667 -0.0625877 -6.23944e-19)
(1.59732 0.585762 -3.29057e-19)
(1.24317 -0.296499 -1.46559e-20)
(1.72418 -0.785727 4.43626e-19)
(2.51717 0.00430237 -1.42082e-20)
(2.07497 0.0727696 -4.82551e-20)
(2.28048 0.350441 0)
(2.08016 -0.253808 2.07251e-19)
(1.93892 -0.870769 0)
(2.66289 -0.072766 4.14456e-19)
(1.60925 -0.739171 1.72607e-19)
(3.10352 -2.10595 -9.25283e-19)
(2.3767 0.468433 0)
(1.96841 -0.883757 1.00996e-19)
(2.04555 0.0491388 0)
(-0.0113992 0.224479 -3.53356e-19)
(0.780704 -0.287927 -1.99064e-19)
(1.62123 -0.645883 -4.72293e-19)
(1.67328 -1.49845 -8.67365e-20)
(1.45658 -0.676612 -3.23622e-19)
(-0.38887 0.334891 1.44205e-18)
(1.94482 -0.438823 -4.50212e-19)
(2.10773 -0.306129 -1.34935e-19)
(0.578327 0.31603 -5.3353e-19)
(1.82861 -0.168232 -3.52131e-19)
(-1.715 0.222189 -3.81308e-19)
(2.44863 -0.193455 -1.28363e-19)
(2.11632 -0.870352 -3.57876e-19)
(2.32079 -0.584698 0)
(-2.23565 0.875885 6.15409e-19)
(1.6738 -0.525283 -5.14193e-19)
(1.4889 -0.350007 7.13807e-21)
(1.52412 -0.611595 -3.03712e-19)
(2.2496 0.618345 1.14975e-19)
(1.82617 -0.748345 4.09501e-19)
(2.61561 -0.0621561 0)
(1.96077 0.00745955 0)
(1.69225 -0.24162 -2.21173e-19)
(3.53071 0.3012 -3.45476e-20)
(1.77493 -0.131475 4.84293e-19)
(0.198533 0.156 0)
(1.77794 2.28079 0)
(4.07255 -1.15307 -1.37728e-18)
(1.74095 -0.523083 6.35594e-19)
(-1.72698 0.196321 0)
(1.83126 -0.161728 0)
(2.71868 0.809735 5.16737e-19)
(1.52348 0.327753 0)
(1.88809 -0.430869 5.65009e-19)
(0.969033 -0.472278 8.31304e-19)
(-1.22797 2.22682 -4.77713e-19)
(1.3619 0.752031 0)
(1.47952 -0.2575 1.39998e-19)
(1.92038 -0.806601 0)
(1.66608 -0.12653 3.31681e-20)
(2.44895 -0.200328 1.43147e-20)
(0.400038 -0.256443 -8.9901e-19)
(4.215 -0.134014 6.74047e-19)
(3.01142 -0.823727 0)
(2.00197 0.00957064 -7.69465e-21)
(1.69818 -0.504396 -9.3759e-20)
(-2.35639 0.903424 -2.34288e-18)
(1.67778 0.386423 6.22987e-21)
(2.45973 0.619615 1.84134e-21)
(2.27197 0.00125453 4.90398e-21)
(1.48762 -0.0309187 2.26592e-19)
(0.756981 -0.300412 -1.42454e-19)
(2.57348 0.0600668 -1.98409e-20)
(1.14943 -0.530667 0)
(2.31631 -0.0765949 0)
(1.24285 -0.604622 -4.68458e-19)
(1.94956 -0.137107 -1.80363e-19)
(1.71833 0.352675 3.32196e-19)
(1.5985 -0.27966 -1.40479e-19)
(2.07871 0.0920808 -1.74238e-19)
(2.11591 -0.074646 -2.49274e-19)
(0.307931 0.403224 -3.97884e-19)
(1.73738 -0.118962 0)
(-0.603241 -0.890021 -3.62359e-19)
(0.46769 -0.224918 1.62115e-19)
(2.01393 0.0614101 1.3022e-19)
(2.3069 -0.29527 -3.43252e-20)
(1.55797 -0.307751 0)
(2.17902 0.0128544 1.33533e-20)
(2.3125 -0.342136 1.76281e-19)
(0.0673105 0.0982541 2.45089e-19)
(2.01716 -0.148661 0)
(0.336715 -0.0588082 0)
(1.93587 0.042301 0)
(1.97495 -0.487548 0)
(1.67984 -0.672334 1.02804e-20)
(1.85239 0.477892 0)
(0.562936 -0.22233 -5.19492e-19)
(4.15362 -0.578366 -9.22447e-19)
(2.03761 0.031207 -4.27401e-21)
(2.67563 -0.0166803 -6.89466e-20)
(2.4113 -0.0166689 0)
(1.46042 1.55281 -1.71293e-19)
(-1.43664 1.70237 -2.82349e-18)
(3.17719 -0.129285 0)
(1.90164 -0.0319005 3.45699e-19)
(3.13105 -0.379871 -3.54979e-18)
(2.26541 0.597419 0)
(2.45592 0.136005 0)
(0.994835 -0.200683 8.78631e-19)
(1.84184 0.536303 -4.2339e-19)
(2.29118 -0.137196 -2.21105e-19)
(1.02836 -0.491184 9.78819e-20)
(-0.65054 -0.606017 -2.11903e-19)
(-0.287938 -0.36112 0)
(2.39448 -0.111064 6.15298e-20)
(2.20391 0.775538 -7.40566e-20)
(1.83166 -0.771553 4.2588e-19)
(0.325279 -0.389535 6.69868e-19)
(-1.97551 1.36545 1.38692e-18)
(1.94265 0.0283245 -2.57202e-19)
(-1.50742 1.84441 2.60257e-18)
(1.35484 -1.10625 2.65204e-19)
(1.04166 -0.362826 -8.13411e-20)
(1.08111 -0.366381 -3.69386e-19)
(1.84071 0.0256947 7.22053e-21)
(2.69141 0.812233 7.79696e-20)
(-0.837288 0.813965 1.07124e-18)
(-2.30957 1.12955 1.01882e-18)
(1.84393 -0.798974 0)
(1.9984 0.0264191 -1.81802e-21)
(-1.17276 0.248223 1.3213e-19)
(-0.388934 0.255932 -1.67961e-18)
(-0.306337 -1.0719 0)
(1.37272 -0.351363 0)
(1.82065 -0.0049421 -3.20103e-20)
(-1.19955 2.12693 5.80792e-19)
(1.85349 0.0909107 2.12088e-21)
(-0.13793 0.24898 -7.51667e-19)
(1.40422 -0.292208 0)
(1.09414 -0.435664 2.47958e-21)
(0.132496 -0.148202 6.78968e-20)
(1.26059 -1.89415 -2.06526e-18)
(3.45992 -2.2234 0)
(2.2181 -0.71927 0)
(1.97269 -0.0993779 0)
(-2.1052 0.733319 -7.9509e-19)
(2.4714 -0.189108 1.74559e-19)
(-0.0761281 0.296641 -1.03001e-18)
(2.46234 -0.158237 -1.93954e-19)
(1.92867 -0.520204 1.37443e-20)
(0.402334 -0.433383 0)
(1.95045 0.0310727 0)
(2.37032 0.368718 -2.25592e-20)
(2.47784 -0.163515 1.03234e-19)
(1.76398 -0.00951238 -2.97219e-19)
(0.109656 0.520575 0)
(-0.559525 0.192459 6.01818e-19)
(1.04375 0.0153388 -2.56771e-19)
(2.42547 0.473572 3.33858e-20)
(1.94575 -0.615749 4.41598e-19)
(0.967413 -0.131822 -6.09729e-20)
(2.52755 0.105533 0)
(2.41556 -0.201913 -1.1517e-19)
(2.0143 0.0761532 0)
(2.08491 0.0420313 -1.57698e-19)
(2.30622 0.381619 1.83575e-20)
(2.61814 0.0560069 1.27386e-19)
(1.56487 -0.40562 5.88936e-19)
(1.88242 0.470193 2.35163e-19)
(-1.13095 0.318499 -2.13874e-19)
(1.76014 -0.716304 -2.55748e-19)
(2.61297 1.92371 -1.48746e-19)
(2.09348 -0.0183932 0)
(1.81261 -0.413699 0)
(-0.521351 -0.301759 0)
(2.26061 -0.277279 4.39031e-20)
(0.0642339 -0.377364 6.71252e-20)
(0.801323 -0.398693 4.8666e-19)
(1.85348 0.000455328 -6.15174e-20)
(2.52517 -0.440823 -5.71878e-20)
(0.0894226 0.134489 6.92288e-19)
(1.99279 2.40444 -6.23895e-20)
(2.24357 0.0271551 -1.14317e-20)
(2.22337 -0.148587 6.01121e-19)
(0.836316 -0.345336 0)
(2.70196 -0.227571 -9.27494e-20)
(-0.575194 0.170482 -1.37507e-18)
(3.02493 -0.0647924 -5.75444e-19)
(0.683591 -0.186461 -8.14177e-22)
(1.60761 -0.0533261 1.29572e-20)
(1.28822 -0.392396 4.04292e-19)
(2.20794 0.813441 0)
(1.96407 0.0963921 -9.79968e-20)
(1.00965 -0.40615 -8.61851e-19)
(1.89823 0.272005 -2.81729e-21)
(1.24283 -0.603324 0)
(2.2703 -0.132662 -1.74634e-19)
(0.990996 -0.478865 2.72356e-19)
(2.25743 -0.715499 -1.50642e-19)
(1.68129 -0.69938 -3.58802e-19)
(2.35988 0.08402 -4.41467e-20)
(2.3728 -0.363261 1.02585e-20)
(0.92496 -0.456844 5.40711e-19)
(2.14252 -0.0862314 2.48835e-19)
(1.82294 -0.358495 0)
(1.74612 -0.797628 -4.19855e-19)
(1.63552 -0.690629 -1.08144e-18)
(2.58976 -0.23918 2.91909e-20)
(1.97133 0.0616442 4.15866e-20)
(1.84615 1.18548 0)
(1.54929 0.00771866 0)
(2.02523 -0.0446271 -1.9732e-19)
(0.498214 0.334205 3.31955e-19)
(2.77218 1.40536 0)
(2.28309 -0.0986117 1.76269e-19)
(1.48383 -0.660836 -4.18227e-21)
(0.867405 0.411475 -6.2416e-19)
(0.831943 -0.352959 -4.60125e-19)
(-2.27571 0.764546 8.31873e-19)
(1.81653 -0.0194454 3.64696e-20)
(-2.1349 0.554152 2.60091e-18)
(2.81403 -0.732159 -3.78612e-19)
(2.24279 0.0102632 0)
(1.37053 -0.1021 -1.08255e-19)
(1.49943 -0.427351 0)
(1.95718 0.11328 -4.77788e-19)
(1.97875 -0.45321 0)
(2.11907 -0.0141167 -1.70705e-19)
(1.62202 0.265238 1.29726e-20)
(2.79443 -0.138034 -5.22196e-20)
(1.0698 -0.409294 4.87359e-19)
(1.94727 0.101222 -3.84309e-19)
(1.99312 0.145299 -4.14347e-19)
(1.93295 -0.833029 0)
(-1.00833 1.89637 0)
(1.14586 -0.452346 -4.81186e-19)
(2.74092 -0.185876 0)
(3.44954 0.541443 -8.61763e-19)
(1.40305 -0.280956 0)
(1.51596 -0.441737 9.49721e-21)
(-0.859324 0.204131 2.26832e-19)
(1.72187 -0.542385 7.54863e-19)
(0.592048 -0.288328 -3.6236e-20)
(2.30806 -0.556828 0)
(1.61992 0.297254 -9.30808e-21)
(1.7988 0.0174417 -2.52335e-19)
(-0.348049 -0.00209113 -1.2917e-20)
(1.9282 0.0299556 -2.19804e-19)
(2.64346 -0.0159211 -8.29529e-20)
(2.68215 -0.0403252 -3.64897e-20)
(3.18051 1.02697 3.44042e-19)
(2.50077 0.450549 -6.28502e-20)
(-1.66912 1.71874 -6.34217e-19)
(1.65193 -0.466984 0)
(-0.0176679 -0.088466 -6.38541e-20)
(1.97893 0.13308 -1.69653e-19)
(2.51374 -0.257357 0)
(1.95071 0.072712 1.44819e-19)
(1.10472 -0.531908 -3.64291e-19)
(1.63203 1.32578 1.53889e-19)
(3.79103 0.335891 0)
(1.33232 -0.62795 1.30998e-19)
(0.925373 0.984177 0)
(2.15922 0.0445622 3.85378e-20)
(2.27697 -0.223549 -1.43667e-19)
(-0.183822 -0.0338648 1.20915e-18)
(1.00457 -0.0146934 0)
(1.5651 0.30421 2.35103e-19)
(2.00302 0.0720308 1.54943e-19)
(0.305266 -0.306321 0)
(1.70043 0.0134098 0)
(1.991 -0.165489 0)
(-0.693543 0.326166 5.49024e-19)
(0.279497 -0.147122 -3.92564e-20)
(2.66918 -0.0545732 0)
(2.0285 -0.00928336 0)
(1.45498 -0.673392 7.31648e-20)
(-1.87759 1.74759 0)
(2.40873 0.477709 7.37214e-21)
(2.90826 1.30913 1.88976e-19)
(2.04933 0.226462 7.2953e-21)
(1.84833 0.421291 -4.91624e-21)
(0.866447 0.485775 7.17927e-19)
(2.94571 1.47404 -1.99768e-19)
(2.3774 -0.261344 8.02579e-21)
(2.01151 -0.0528795 1.68283e-19)
(1.54054 -0.136673 -2.63729e-19)
(1.72249 -0.315832 4.328e-21)
(2.00313 0.018929 0)
(-2.15425 0.470255 -2.48345e-18)
(0.456259 -0.263137 0)
(1.12243 -0.58129 6.30122e-20)
(1.85312 -0.76141 0)
(2.22378 -0.189971 0)
(1.24429 -0.595739 -3.08547e-19)
(2.05943 0.0303215 -9.48869e-21)
(-0.30181 0.46845 -1.51627e-18)
(2.04235 0.00998926 9.8657e-21)
(1.7709 -0.691146 4.12437e-19)
(3.04694 1.23501 2.18794e-19)
(0.72463 -0.17873 1.3468e-18)
(2.37362 0.137186 1.93704e-20)
(2.03432 -0.814198 1.6948e-19)
(1.96185 0.060402 -2.63132e-19)
(2.57245 0.538742 0)
(1.79378 -0.0933078 -5.03667e-19)
(1.7932 -0.447231 4.20166e-19)
(2.00434 0.129342 -5.93122e-19)
(-0.132229 -0.17795 -3.47713e-20)
(1.55488 1.33241 -1.45154e-19)
(2.88882 1.35466 2.86457e-19)
(3.25479 -0.444225 0)
(2.06563 -0.268524 0)
(0.465326 0.441497 -5.92353e-19)
(2.12253 -0.10155 1.04766e-19)
(-0.391574 -0.440805 0)
(2.26461 -0.138747 -1.52446e-19)
(1.98529 0.0215741 -3.2018e-19)
(-0.0673268 -0.38737 -2.3573e-20)
(-0.206785 -0.742683 2.07752e-19)
(2.65342 -0.0897619 -5.42363e-21)
(0.832327 -1.19019 4.373e-20)
(2.34859 -0.369421 -3.5536e-19)
(1.92146 -0.455035 2.96204e-19)
(3.38956 1.06388 7.90832e-19)
(1.48231 -0.602106 3.83902e-19)
(1.89331 0.240335 -4.32759e-22)
(0.968134 0.332018 5.24775e-19)
(2.11058 2.08102 0)
(1.65959 -0.444241 2.41287e-19)
(-0.945303 -0.566514 0)
(-0.436567 0.760442 -2.58819e-18)
(2.72137 -1.12539 0)
(-1.02164 0.341993 -7.29033e-19)
(1.57709 -0.666119 -5.44284e-19)
(1.67453 0.759708 -3.18106e-19)
(2.00179 -0.826011 0)
(0.974891 -0.994855 0)
(3.12564 -0.221286 0)
(1.98667 0.0931944 1.23784e-19)
(1.8281 0.868565 -1.42175e-18)
(-0.014291 0.302005 1.207e-18)
(1.54346 -0.285189 -7.83725e-21)
(3.48259 1.08512 -8.95746e-19)
(2.00948 0.298028 0)
(1.17463 2.11417 2.27986e-19)
(2.52776 1.37299 1.16743e-19)
(0.52636 1.11094 -2.44028e-19)
(1.49051 -0.696836 3.59087e-19)
(2.56416 -0.198321 5.14554e-21)
(1.11932 -0.545159 6.18179e-19)
(2.30716 0.519132 0)
(2.26637 -0.246369 1.36586e-19)
(1.03579 -0.309613 9.20472e-20)
(1.84659 -0.022991 3.00898e-20)
(3.46657 0.716985 -4.66364e-19)
(1.87626 -0.778949 0)
(2.52844 0.769069 0)
(3.10638 0.392465 0)
(0.484173 -0.254427 0)
(1.8889 0.0178388 0)
(1.36957 -0.512319 1.63251e-19)
(3.75049 0.985041 6.60816e-19)
(1.40184 -0.579276 4.54416e-19)
(2.06693 0.0345547 2.60653e-19)
(-1.22557 -0.295062 0)
(1.99855 -0.837156 3.0668e-21)
(-0.462373 0.142464 0)
(-0.875145 -0.920379 -5.27445e-19)
(-0.512116 0.305854 6.31447e-19)
(3.97336 0.495855 -3.53679e-19)
(1.96286 0.146699 2.96479e-19)
(2.03745 0.315429 -9.02304e-20)
(4.04343 0.136249 -5.17168e-19)
(2.48325 0.0150914 0)
(0.356697 -0.0525492 1.06057e-18)
(1.985 0.0442919 0)
(1.52468 0.942888 1.75412e-20)
(2.47859 -0.156626 0)
(2.06479 0.233292 -1.17173e-19)
(2.0616 -0.0894859 0)
(0.864341 -0.314266 -3.24785e-19)
(-2.40867 1.54201 2.16304e-18)
(2.34544 -0.190386 -1.44784e-19)
(1.36088 0.40308 4.71255e-19)
(-1.10531 0.511064 -1.1475e-18)
(2.09567 -0.785878 0)
(0.969668 -0.169669 -1.24335e-18)
(1.74979 0.354284 -1.38334e-21)
(3.53159 0.593751 -1.1415e-18)
(1.86829 0.0138496 5.28464e-21)
(4.2 -0.517383 2.28352e-18)
(3.10966 0.816675 0)
(1.71257 -0.771633 -8.9463e-20)
(1.4011 -0.639856 0)
(2.51168 -0.246718 1.54879e-20)
(0.391831 -0.0817262 7.90552e-20)
(-1.64858 -0.200552 0)
(2.40767 0.423596 0)
(1.41624 -1.49866 -2.16958e-19)
(2.50318 0.703417 0)
(1.73994 1.88922 7.79928e-20)
(2.96987 1.0172 -3.43509e-19)
(0.341294 -0.0724441 -8.3878e-19)
(-0.152762 -0.551947 -6.16755e-20)
(1.97928 0.0289518 -6.8307e-21)
(0.636654 -0.462308 1.4076e-20)
(-1.89754 1.19947 -1.3398e-18)
(1.89469 -0.00902407 5.37355e-19)
(-0.150426 -0.257397 2.68236e-20)
(-0.861236 0.267181 0)
(2.47264 0.143641 -9.52244e-20)
(1.22518 -1.54333 2.41666e-19)
(0.301157 0.308108 8.49072e-20)
(3.46163 0.657328 9.09158e-19)
(2.86525 1.72255 0)
(1.77982 -0.481617 -4.22018e-19)
(1.20074 -0.470748 -9.2243e-21)
(2.5096 0.790314 -9.96657e-20)
(2.62218 -0.0395461 -3.99897e-19)
(0.0343336 -1.10603 6.24715e-20)
(-1.89824 0.226883 1.77429e-18)
(1.42106 -0.568113 -1.09564e-19)
(-0.378857 -0.572193 2.6e-20)
(2.62163 -0.186928 -3.563e-19)
(-0.236645 -0.867754 -7.00429e-20)
(1.97123 -0.705773 0)
(1.86898 -0.138861 -4.93622e-19)
(-0.938516 -0.129736 0)
(0.589412 -0.647615 2.48607e-20)
(-0.508137 -0.76469 2.36045e-19)
(0.0347629 -0.27983 9.76666e-19)
(1.84177 0.371437 -3.4406e-22)
(-2.03809 0.871319 1.07156e-19)
(-0.425959 -0.409258 0)
(2.13784 -0.790757 4.62063e-19)
(2.10137 -0.830493 1.24414e-19)
(-0.775861 -0.311591 -8.29961e-19)
(1.76748 0.561338 0)
(1.68881 0.53152 0)
(0.124625 0.437018 0)
(1.30714 -0.726378 -4.41475e-20)
(1.9313 -0.0519307 -4.76755e-19)
(1.33062 0.192476 0)
(1.97518 -1.72747 0)
(2.29248 0.194047 -8.66271e-21)
(2.72818 -2.22848 -7.75345e-20)
(2.14291 0.301704 -3.43848e-19)
(1.56916 -0.362185 3.24777e-20)
(1.72334 0.0400495 4.30522e-20)
(1.90951 0.00435151 -4.25819e-20)
(1.72085 0.397177 9.95746e-21)
(1.93207 0.591041 -2.75554e-20)
(1.8798 1.26281 0)
(-1.88985 1.24539 -1.56007e-20)
(-0.0759868 0.353263 0)
(1.001 0.216654 0)
(2.93255 0.211015 -5.18085e-19)
(-1.47622 -0.224969 0)
(2.49094 0.381945 0)
(1.8774 -0.0897548 7.59168e-19)
(1.8149 -0.801529 0)
(2.03735 0.198788 4.24301e-19)
(3.33211 0.703769 4.63326e-19)
(3.27006 0.657373 1.61119e-19)
(1.91286 0.262854 3.54521e-22)
(1.06666 1.4512 2.67089e-19)
(2.14796 -0.827517 5.75868e-21)
(1.89766 -0.759411 -1.16678e-20)
(1.12152 -0.429852 4.69937e-19)
(0.389068 -0.475455 0)
(0.908931 -0.449726 0)
(-2.01018 0.59511 -1.36814e-18)
(-2.3354 1.50668 -2.96164e-18)
(0.930049 -0.880634 0)
(0.254006 -0.422628 -6.99398e-21)
(-1.20867 0.940531 0)
(0.468233 -0.103906 1.14546e-18)
(1.08033 -0.502777 -6.09848e-19)
(3.34824 0.483937 -2.1174e-20)
(3.23372 0.784848 3.68036e-19)
(1.17078 -0.386873 9.51542e-20)
(2.62131 -0.160531 1.81818e-19)
(2.36401 0.931952 0)
(2.45875 0.864919 0)
(1.05492 0.0810999 0)
(0.0421266 -0.401993 -6.13874e-19)
(1.36854 -0.518367 0)
(2.30206 0.680689 0)
(1.82545 0.0621262 0)
(2.42558 -0.401552 -7.87251e-20)
(-0.0159976 0.41491 3.60339e-19)
(1.98377 -0.762274 -2.36849e-19)
(1.29959 -0.717392 1.25277e-19)
(1.4328 -0.315186 0)
(-1.8427 -0.347622 0)
(1.94639 -0.583591 -4.02841e-19)
(1.5687 0.587736 7.02233e-19)
(-2.35941 0.989907 -9.1567e-19)
(2.44914 0.456317 1.0249e-21)
(1.70543 -0.424956 4.42687e-19)
(0.950642 0.497774 -1.12865e-18)
(-2.34041 1.67281 0)
(1.17628 1.40225 -6.16848e-19)
(0.302258 0.486369 -6.98511e-19)
(3.31273 0.508985 0)
(2.2386 -0.0589972 0)
(1.78146 -0.0845073 0)
(2.02197 0.0482926 -4.65823e-19)
(1.43627 0.306256 -4.83588e-19)
(1.64057 0.161559 0)
(2.81217 1.43391 1.57486e-18)
(1.74854 -0.783897 4.18716e-19)
(2.44038 -0.356768 8.92462e-20)
(-1.46731 0.405813 3.8341e-19)
(2.03413 -0.269778 0)
(2.48086 0.0580648 6.63668e-20)
(1.75896 -0.392834 0)
(1.12164 -1.61778 -2.41437e-19)
(1.69021 -0.768124 0)
(2.08996 -0.755932 5.36479e-19)
(1.42012 -0.299245 -1.5383e-23)
(2.06251 0.200401 -8.05434e-21)
(2.46825 -0.381595 0)
(1.77395 -0.759968 0)
(1.55488 -0.652577 -5.66503e-19)
(2.3587 0.437211 -8.14379e-21)
(-0.546849 -1.11933 2.24944e-19)
(0.833897 -0.401161 4.76648e-19)
(1.88591 -0.0591322 0)
(1.53401 0.254262 -7.36001e-19)
(2.34296 0.0137208 -4.35268e-20)
(1.3094 -0.826958 -5.65078e-20)
(2.06636 0.276452 -9.85783e-21)
(2.10542 0.348135 0)
(1.13696 -0.313971 6.68346e-19)
(0.936689 0.270205 -7.23834e-19)
(3.6693 0.74521 1.02171e-20)
(1.76698 0.259112 -8.36618e-19)
(-1.28985 0.283251 2.96004e-19)
(-0.549072 -0.366391 -1.89605e-18)
(1.49191 -0.294971 -1.04955e-19)
(2.05998 -0.0268005 -4.40278e-20)
(1.01764 0.420082 1.3545e-18)
(-0.436758 0.366625 5.75817e-21)
(-1.37452 0.120725 5.69559e-19)
(-0.895761 -0.859768 5.47936e-19)
(1.74906 -0.0297577 5.13882e-20)
(2.37719 -0.229764 0)
(1.91165 0.583352 1.5661e-18)
(1.12073 -0.546412 2.80382e-19)
(1.62237 -0.184153 2.62189e-19)
(-0.380164 0.27049 0)
(1.59487 -0.369945 -7.04776e-20)
(1.95301 0.0320283 5.62363e-22)
(2.09351 0.0722019 0)
(-1.78112 1.65146 9.00349e-19)
(0.488363 -2.06952 1.2619e-19)
(1.22106 -0.305991 0)
(1.00089 -0.366202 0)
(1.49101 -0.749203 -7.07832e-20)
(1.29175 -1.03505 -2.46828e-20)
(2.90375 0.253609 1.86112e-19)
(-0.0803198 -0.315121 0)
(1.97083 -0.0021122 -4.32788e-19)
(2.28225 -0.773635 -1.14841e-19)
(2.15549 -0.734903 3.21652e-20)
(1.17384 -0.452846 5.9171e-19)
(-1.47096 0.0147839 -5.88753e-19)
(-1.13639 -0.601933 4.58169e-19)
(3.69789 0.693556 -8.84985e-21)
(2.78548 -2.19402 0)
(2.21402 0.981282 -1.26768e-18)
(1.55266 -0.604024 2.82666e-19)
(2.07811 2.12661 1.86122e-19)
(0.775001 0.663426 0)
(1.11441 -0.200248 -5.88494e-19)
(1.17681 -0.499824 -7.18345e-19)
(-1.90087 0.391176 8.95009e-19)
(0.202045 0.130245 -1.14441e-18)
(2.30223 1.54106 0)
(-0.330334 0.0877731 -7.65224e-19)
(2.35257 0.585401 0)
(-0.477991 0.713591 -8.03976e-19)
(-0.288111 -0.0622046 1.47451e-18)
(-0.880173 1.94531 0)
(-1.67647 -0.0396853 2.98047e-19)
(1.55237 -0.0912085 -1.07738e-19)
(0.229991 -0.0803102 4.6553e-19)
(1.65175 -0.641444 5.17242e-19)
(-2.17956 0.803457 -2.43705e-18)
(1.14509 -0.52459 0)
(2.01454 0.0586322 1.48161e-19)
(0.416268 -0.141434 0)
(2.24692 0.220451 -2.96904e-21)
(-0.514019 -0.379926 -1.346e-18)
(0.517611 -0.183297 3.09528e-19)
(2.11292 0.377644 0)
(1.85821 -0.744387 -4.00883e-19)
(3.01486 -0.0876554 1.59927e-19)
(-1.44186 -0.37299 1.26527e-18)
(0.728236 -2.07343 0)
(-1.41621 -0.410294 -1.12561e-18)
(3.51106 0.578791 -1.0139e-18)
(1.57395 0.249517 9.42745e-19)
(2.02097 -0.580267 0)
(2.39808 -0.160667 3.63835e-19)
(-1.18671 -0.272071 1.0384e-18)
(-0.359633 0.754469 -1.72754e-19)
(2.16722 -0.577453 1.6472e-19)
(-1.09087 0.0724585 0)
(1.79937 -0.353999 -4.44125e-20)
(1.96328 0.165409 2.78952e-22)
(2.52938 -0.378156 1.42752e-19)
(2.30033 0.00221053 0)
(-1.64599 -0.242138 8.64364e-19)
(1.63457 -0.429865 -6.84008e-22)
(1.23037 -0.348624 7.35064e-20)
(1.80454 0.469337 0)
(2.01133 -0.779777 -1.88954e-19)
(-1.9931 0.472105 1.69572e-18)
(1.72862 -0.390611 -5.5336e-19)
(-0.157983 0.3167 0)
(1.50858 -0.248399 -5.41949e-20)
(2.03849 -0.758666 1.53152e-19)
(-1.48326 0.240606 -6.32781e-19)
(1.16193 -0.461693 0)
(0.437882 -0.249103 1.66148e-18)
(1.5098 -0.830732 0)
(-2.07399 0.61973 1.76748e-18)
(1.45137 -1.25148 0)
(1.86641 -0.0905763 -2.79391e-19)
(2.15814 -0.226764 -2.92277e-19)
(2.88524 1.38717 -7.86768e-19)
(1.45747 -0.615601 0)
(1.95519 -0.837814 -2.95495e-19)
(1.9911 0.0349885 0)
(2.3933 0.46362 0)
(2.03447 -0.841191 1.0084e-19)
(-1.85224 -0.192792 8.94249e-19)
(0.500558 0.0101511 1.94035e-19)
(2.09514 -0.551483 -9.6963e-20)
(1.65583 0.340426 3.07081e-19)
(0.65767 -0.522987 3.40788e-20)
(2.09663 0.398223 1.60094e-19)
(-2.25732 1.81043 -2.22266e-19)
(2.35472 -1.63927 0)
(2.48788 0.263552 0)
(-2.50824 1.60288 0)
(0.328426 -1.18113 1.85443e-19)
(1.13695 -0.385222 -4.15079e-19)
(1.46245 0.146802 0)
(-0.617582 -0.0201081 3.4867e-19)
(2.29265 -0.157606 -2.04817e-19)
(-0.993471 0.0856819 -2.16615e-19)
(1.35288 -0.485415 -1.3598e-19)
(2.12277 -0.847425 0)
(0.268912 0.0332943 1.43612e-18)
(-1.4085 1.32521 -1.94155e-18)
(-0.805508 2.16933 0)
(-0.667321 -0.142085 -9.59113e-19)
(1.85748 0.037016 -7.89674e-21)
(2.68142 -0.138409 9.0446e-20)
(1.93179 0.0581727 2.81541e-19)
(2.84238 1.12653 -3.66498e-19)
(2.4397 0.211182 8.23543e-21)
(-1.07071 0.120399 0)
(1.91472 -0.752966 0)
(-0.452724 0.0589117 2.58156e-19)
(-0.00308228 0.44217 0)
(1.59458 -0.32981 -7.12943e-20)
(2.12874 -0.763672 -2.91557e-19)
(0.955814 -0.450274 4.99717e-19)
(2.23892 -0.149204 -1.25938e-19)
(1.73899 0.377664 -3.04893e-19)
(1.50931 -0.592108 -2.77332e-19)
(1.60193 -0.622764 -5.17675e-19)
(1.27562 -0.899504 0)
(1.704 -0.656174 4.95401e-19)
(1.94528 -0.0611627 0)
(2.50894 -0.410898 -6.09706e-21)
(2.01211 1.33494 1.52695e-20)
(1.18888 -0.226643 6.47303e-20)
(2.22885 -0.399877 -2.57912e-19)
(0.491723 -0.136435 -9.57065e-19)
(-1.97896 1.45664 0)
(1.29334 -2.07628 -1.29048e-19)
(-0.0836083 -1.2885 -1.78684e-18)
(2.10683 0.59264 -1.74504e-19)
(1.80504 -0.727161 4.6553e-19)
(2.14543 0.0291948 -4.54729e-21)
(0.142397 0.213195 3.85805e-19)
(1.75876 -0.742437 -1.28775e-19)
(0.25303 0.192182 0)
(-0.913188 -0.040768 5.93324e-19)
(1.77038 -0.347122 2.92563e-19)
(1.99584 0.00971655 -1.84863e-22)
(1.14691 -0.502465 1.05383e-18)
(-0.289982 -0.197989 -1.05179e-20)
(1.72832 0.656414 0)
(0.282101 -1.02729 -5.96009e-20)
(-1.52252 -0.456052 -1.05462e-19)
(1.04785 -0.302634 -7.92125e-19)
(0.567735 -1.10919 5.18433e-20)
(2.69763 0.960098 -3.62865e-19)
(2.14067 0.547569 5.17184e-21)
(0.923657 -0.368585 3.58505e-19)
(1.78673 -0.332123 0)
(2.5998 0.0776785 -1.6332e-19)
(2.3907 -0.0529787 -5.6671e-21)
(3.06197 0.928017 -3.71849e-19)
(-0.475822 0.0940125 0)
(3.52542 1.01649 3.80741e-20)
(-0.263991 0.846414 7.69817e-19)
(1.58896 -0.677537 1.10015e-18)
(-0.254756 -0.551139 1.09397e-20)
(1.03544 1.11168 -6.65083e-19)
(0.0780458 0.24181 2.81583e-18)
(1.97031 -0.743431 4.77678e-19)
(2.12297 0.00400129 -4.6879e-21)
(0.507919 -0.379187 -6.61102e-21)
(2.74314 -0.0325888 4.50446e-20)
(-0.183254 0.0566514 0)
(1.99581 0.0261589 0)
(2.38607 0.471092 0)
(1.75247 -0.673735 -4.32894e-19)
(1.55143 -1.31385 2.16949e-19)
(-0.677812 -0.345056 0)
(1.19032 -0.345347 -1.7185e-19)
(-0.878011 1.88786 0)
(3.90358 0.00982064 0)
(-1.05944 -0.160098 0)
(2.03133 -0.016889 0)
(0.486598 -0.183397 -5.17557e-19)
(-2.11926 1.93814 0)
(3.94731 -1.09001 1.28296e-18)
(1.43833 -0.0122069 0)
(1.92453 0.149664 0)
(1.90521 0.246771 1.8083e-21)
(-2.2844 1.62352 0)
(2.72622 -1.91089 0)
(-0.29736 -0.434653 0)
(2.49826 0.0490041 2.17106e-20)
(2.4447 -0.523851 0)
(2.12157 -0.82929 -1.34962e-20)
(1.54224 -0.452678 3.07199e-21)
(-0.194458 0.27549 -5.06598e-19)
(1.9883 0.0657136 6.78281e-19)
(-0.156446 -0.0352414 1.22435e-20)
(1.05596 0.958541 -5.98266e-19)
(1.4665 0.744957 0)
(2.38432 -0.355449 9.22765e-21)
(1.62116 -0.147487 -2.55979e-19)
(1.56263 1.75961 1.46881e-19)
(1.88159 0.392724 4.27514e-19)
(0.740865 -0.244389 -7.52196e-19)
(1.48265 -0.640914 -4.29021e-19)
(3.28235 -1.50037 2.22196e-19)
(1.02683 -2.31973 0)
(2.27169 -0.502241 3.45232e-20)
(1.5068 -2.38124 1.52084e-19)
(2.67774 0.265268 -8.63351e-20)
(-2.30882 0.967389 0)
(1.83437 0.00657089 -3.14392e-19)
(3.02838 0.811697 -1.16161e-18)
(1.32304 -0.531785 5.48025e-19)
(1.19979 -0.54489 -6.60078e-19)
(1.63107 -0.754025 0)
(1.73869 -0.765675 0)
(3.51879 -1.65265 1.16608e-18)
(2.2807 -0.396985 -1.66004e-19)
(3.40548 0.312868 -6.19262e-19)
(1.77141 -0.00749239 3.0744e-20)
(1.1711 -0.312249 -1.5945e-19)
(1.67711 -0.471661 4.70558e-19)
(2.50205 0.285014 0)
(2.40215 0.312488 2.32265e-20)
(-1.02418 1.3177 -2.28629e-18)
(2.35059 -2.42023 1.07364e-18)
(1.00317 -0.202956 1.74246e-20)
(-0.61143 -0.446011 7.91059e-19)
(3.37991 0.347761 5.17164e-19)
(2.5406 0.750397 7.88102e-20)
(2.37987 0.580458 0)
(-0.298074 -1.25945 0)
(2.18605 -0.83362 -4.11495e-21)
(1.12285 -0.226269 0)
(1.84368 -0.36365 1.9681e-19)
(1.63465 0.299658 5.32088e-19)
(1.68759 0.499619 -1.55189e-19)
(1.56986 -0.626747 1.1216e-18)
(1.9632 0.196493 -1.92668e-22)
(1.56635 -0.00246916 0)
(1.8084 0.00387352 -7.12687e-21)
(-0.950247 -0.300966 -8.86626e-19)
(2.16207 0.265724 0)
(2.60883 -0.403107 0)
(1.88669 -0.761789 1.73794e-19)
(1.92573 0.597554 2.32487e-19)
(1.05968 -0.131402 0)
(2.89378 -1.06087 3.39154e-20)
(2.6409 -0.00705057 1.88476e-19)
(2.3387 0.345935 2.32621e-20)
(1.78531 0.484669 4.58488e-19)
(-0.160925 -0.649725 -1.12116e-19)
(1.48206 -0.497093 0)
(0.563372 -0.0883696 -2.40089e-18)
(0.494838 -0.207549 1.12291e-18)
(1.96207 0.0422446 1.75325e-20)
(0.109907 0.220254 -9.73682e-19)
(1.77641 -0.737284 3.28403e-20)
(2.66009 0.299878 2.29931e-19)
(2.29499 -1.72519 0)
(1.93566 0.195126 2.3015e-21)
(1.81782 -0.0132067 9.78517e-20)
(2.14137 -0.0170106 -1.76312e-19)
(2.19631 0.577997 -1.27397e-19)
(2.17589 -0.794132 0)
(-0.0852315 -0.480343 0)
(2.49647 0.0268998 0)
(2.3355 0.428094 -5.87345e-20)
(1.02526 -0.480692 7.84428e-19)
(2.45431 1.82733 -9.87987e-20)
(1.43933 -0.0878232 0)
(-2.5413 1.45365 -5.11978e-19)
(0.0650819 -1.2366 1.45101e-19)
(-1.92423 1.51661 0)
(1.93342 0.247581 -1.41013e-19)
(1.62056 0.300214 -1.77592e-19)
(3.00727 -0.285617 -9.63293e-20)
(2.05465 0.253884 -5.86026e-21)
(0.639742 -0.20337 0)
(2.18521 0.180265 -1.63948e-19)
(2.01026 -0.435817 0)
(2.04413 -0.264254 9.28303e-21)
(0.971214 0.133041 0)
(2.28532 0.819969 8.27223e-20)
(1.67191 -0.663044 -5.06176e-19)
(2.44197 0.774223 0)
(1.81847 -0.0468471 -4.85357e-19)
(2.07548 0.30651 9.29104e-21)
(1.79881 -0.433267 0)
(1.10242 -0.522028 0)
(0.459807 0.274896 -9.42463e-20)
(2.49813 -0.217758 -1.45705e-20)
(1.05873 -1.94872 -1.36573e-19)
(0.494161 -0.345077 -4.84318e-20)
(2.62741 -0.062917 1.48072e-21)
(1.67846 0.0351394 7.49765e-19)
(1.78667 0.419531 -1.97803e-21)
(2.04332 0.565328 0)