/*--------------------------------*- C++ -*----------------------------------*\
| =========                 |                                                 |
| \\      /  F ield         | OpenFOAM: The Open Source CFD Toolbox           |
|  \\    /   O peration     | Version:  2306                                  |
|   \\  /    A nd           | Website:  www.openfoam.com                      |
|    \\/     M anipulation  |                                                 |
\*---------------------------------------------------------------------------*/
FoamFile
{
    version     2.0;
    format      ascii;
    arch        "LSB;label=32;scalar=64";
    class       volScalarField;
    location    "9.9";
    object      p;
}
// * * * * * * * * * * * * * * * * * * * * * * * * * * * * * * * * * * * * * //

dimensions      [0 2 -2 0 0 0 0];

internalField   nonuniform List<scalar> 
5098
(
0.757793
1.04315
0.216582
0.807531
-4.36938
1.19949
0.754337
-1.07069
0.230479
0.690281
-9.24209
0.297874
-0.935661
1.68808
-1.01645
-0.0610876
-11.2027
-4.90083
-0.862002
-10.7618
1.73875
-0.0656445
-1.50571
2.6623
-2.93322
1.11406
1.35717
-0.282403
-0.867457
-2.57535
0.241353
1.96337
1.19451
-9.08427
0.554477
-0.819728
0.353762
0.976285
1.573
-1.12998
0.733792
-2.86222
1.05606
0.464502
0.812982
1.10225
-9.8205
2.05024
0.196571
0.887068
0.890586
1.89012
-2.19148
0.759785
1.21472
1.75634
1.54312
0.590208
1.97518
-0.39768
0.0756232
-7.55478
0.572066
-0.688732
-2.19662
1.73083
-0.03477
0.834469
0.208079
0.415036
1.5371
-0.555577
-0.688156
-0.81418
-0.126097
0.872481
-0.0652047
1.88177
0.622867
1.70724
-0.434714
-0.355414
1.05752
-8.5884
-4.87374
-2.83465
3.18046
-0.0812893
-0.844857
0.0690541
-0.0568496
-1.48505
0.285635
0.817143
1.57883
0.160939
0.3395
1.99442
-0.11117
-0.247755
-9.11777
1.10468
-6.52395
-0.0314201
1.84131
0.887556
1.49752
0.771807
2.10244
-9.02119
0.581224
-0.709647
0.949864
-2.04102
1.69455
-1.01289
-0.685096
0.479053
-0.108082
2.59922
1.83355
1.73465
0.691906
-2.08835
-1.51832
-10.1922
0.671273
-1.34809
1.83094
-1.96747
-2.32725
1.87087
1.82403
0.6243
-9.30593
-2.12385
1.02995
1.471
1.57243
0.717699
1.96327
-9.25827
-0.495618
0.225898
1.1031
-0.0952749
0.288764
-5.07392
-0.514886
-1.08583
-3.59882
-1.56671
-5.87787
1.20704
3.16138
2.42746
0.606604
-9.33362
0.738513
-0.924698
0.183777
-1.14727
-1.46206
0.994434
-3.75954
0.356852
-4.94719
-1.8902
-2.86992
0.669493
0.078024
0.902873
1.11904
-0.238367
0.321084
1.18094
1.01205
-0.699458
1.16403
3.0559
0.395295
-0.56302
0.496311
-3.62288
0.94867
0.450298
1.9609
0.324916
0.822078
-2.47343
-0.789936
-0.231712
-0.808458
-0.160942
0.323932
-1.74191
0.220244
-2.08061
-0.0180931
0.595711
-2.25045
1.81099
0.836408
1.03782
0.752713
2.41604
0.0439677
1.62416
0.338521
-0.870307
0.805663
1.76246
-0.459862
1.08053
-0.878638
-0.794515
-0.192337
-7.38369
-1.41718
1.19865
-0.0548588
1.2557
-0.0515265
-0.146181
-2.10504
0.640069
2.87964
1.36768
-0.0956438
-4.43529
1.72926
2.6365
0.264176
-0.0311523
0.31832
0.313141
2.00652
-2.10019
-0.882856
1.26921
-0.527856
1.11416
0.0416336
2.21321
1.63472
0.256299
1.61186
-8.11204
-11.3299
0.268885
1.24374
-0.409831
-1.0501
-2.01637
1.2068
-2.19601
-9.51274
0.448914
1.98582
-0.131863
0.411389
-2.18199
-2.70077
-0.659358
-0.0407537
-5.97262
-0.92589
-8.49674
0.542753
1.29917
-2.49022
0.691441
-0.922644
0.612522
1.92879
-5.20452
-3.2207
-3.87574
-2.06903
0.837397
-2.34833
-0.928857
-2.14738
-0.932055
-7.66217
-10.3145
1.2294
-0.046463
0.35263
0.303519
-2.06538
-1.78658
2.32054
0.827851
-0.321707
0.719365
0.446274
0.291035
1.35839
1.1608
-0.0682705
0.0688909
1.15008
1.60341
-6.08573
0.0612104
0.505483
1.19208
0.569531
-9.92325
-0.0143145
-1.14491
1.13736
-0.30922
-1.15153
3.09176
0.941397
-0.0524197
0.315339
2.31848
0.617092
-1.65007
-0.740064
-1.01815
-0.086802
1.63593
1.29958
1.35836
2.05625
-0.120818
0.344281
0.305495
1.57808
-2.42696
0.328594
0.846719
-0.395877
0.915566
0.497207
0.607995
-0.588932
0.471402
0.568988
1.35371
-0.842227
-0.0742341
0.652114
-0.993913
0.439612
0.284951
-3.505
2.64615
2.27434
-2.28915
-0.346365
-2.44646
-2.6366
0.326121
1.8051
-0.687633
1.3853
0.049727
0.357246
-0.07423
0.418161
1.97266
1.35745
1.29559
-2.44853
-2.20334
1.83386
0.519248
-0.883508
0.0300237
-0.672269
-7.51882
0.523745
-0.412144
-1.59189
-0.0906576
0.812531
-10.4531
1.29489
0.00446618
0.2751
-0.101859
0.642106
-2.05753
0.793348
-8.46013
1.36981
0.472359
1.35683
0.605431
1.86813
-0.396011
0.934932
-1.99621
1.02585
-1.20744
-1.69943
2.35205
1.89688
1.36677
-0.996351
1.00427
0.626166
-5.2813
-0.501579
-0.662509
1.35756
-3.89666
-2.19242
0.856338
0.264598
-0.408618
1.58496
2.66745
0.137084
0.0904763
0.737826
1.48614
0.364494
1.20835
-2.4825
-1.50736
-0.617167
-4.32068
0.485725
-0.254233
-0.0476576
-0.901516
-0.0324567
0.0946568
0.0505633
-1.012
0.0440038
-1.41001
1.34424
-0.228288
1.16342
0.501813
1.31248
-11.2886
2.02542
0.291773
-1.18831
-0.928793
-0.804172
0.639455
-10.6591
0.266767
1.35618
-11.8143
-10.8581
0.293937
-2.81284
-0.417952
0.209159
-0.466524
1.00447
-0.16005
2.56817
0.418826
0.832383
-6.26892
-2.14982
-2.18869
-6.50771
0.668876
-0.758351
-2.60193
-3.3715
-0.850752
1.35822
-1.27332
-0.828537
1.32594
-0.591508
1.25154
1.99598
0.817711
-2.21524
-0.839735
0.543448
0.205453
1.0476
-1.10553
0.528246
0.849886
-0.809007
-5.1931
0.728773
-0.114911
-1.21086
-0.0160615
1.37457
-1.1949
1.22145
1.25114
-5.27632
-1.54474
-0.899044
-5.37152
-0.914513
-1.74992
1.33078
1.27266
-0.476795
0.464273
-1.44142
1.35782
2.02046
0.377174
1.17681
0.603547
2.32459
-2.22009
-0.860763
2.19444
-5.03976
-3.70675
2.27616
-0.0958768
-1.49734
-0.0245671
-0.299827
-1.32917
-0.29699
-2.41749
0.454603
2.83907
-3.31871
0.827817
-9.46052
0.823489
1.62692
0.170161
-1.98351
-11.8585
1.37607
-5.56224
-2.22302
1.22268
-11.5458
-7.29339
0.543729
-8.36701
3.00968
-1.14417
0.284695
0.465522
0.0742572
-0.957517
-0.518096
-9.94194
-2.49001
1.19846
-10.4498
-0.939648
-10.1491
-3.22899
0.938702
-1.90475
-6.47839
-2.4618
-1.18231
-0.0903388
-3.07659
-1.23651
-1.9239
-2.98804
-1.52222
1.65693
1.90888
3.13526
-4.85745
1.17342
2.13462
-9.18701
0.858442
-4.11659
1.20544
-7.59744
0.92897
-0.521217
-0.0822294
1.48006
1.60633
-2.22434
-1.54973
2.47738
-0.0828916
-4.02445
0.670503
0.964523
-1.48019
1.29595
-0.721075
-0.524577
-0.145343
2.5077
-2.37871
-4.25195
1.88547
-10.3438
1.653
-3.18749
-2.22575
-3.67571
-11.2142
-2.22063
-1.2326
1.75493
-0.755572
-0.442653
1.84148
-0.66234
1.02566
0.949943
2.36686
-1.03665
1.36398
1.1109
-0.142972
-0.456481
-1.97106
-0.944509
-4.83349
0.0232749
-2.88831
-0.251468
2.02616
-2.68175
-0.0307275
0.769878
2.60184
-2.19972
2.28858
3.06158
-0.567189
0.305531
-0.828944
1.36671
2.08133
1.71366
-0.765425
-0.207311
-0.161325
-4.78305
0.314391
0.525496
0.742098
-8.03888
-0.0481315
-1.4095
-6.79809
-0.457931
-0.292235
-0.0777984
0.7563
0.929121
-6.50318
2.00884
1.04416
1.85673
0.881587
-6.21184
-0.211357
-0.126581
1.93766
2.5469
-1.11967
1.6016
-5.49597
-2.05427
-4.06149
0.856817
-0.80355
-0.915916
-4.94259
-6.09966
-0.52635
0.152476
-1.06794
0.0906182
1.21374
-0.886823
1.13428
-0.0787691
1.2314
-2.18792
-7.05673
0.0422078
2.1131
-4.82729
-8.65832
-0.0392662
-1.00145
0.705304
-3.87441
-1.71414
1.78624
-4.42822
-4.38137
-1.3783
-4.90733
-0.835174
0.851247
1.11293
2.73473
2.09051
1.72985
-3.21113
-1.72116
-0.816029
-0.883539
0.965242
-1.79094
-1.32361
-2.4201
-3.6627
1.46482
-1.78674
0.540482
-2.95033
1.67254
1.35715
-2.56856
0.91796
-1.083
2.68705
-0.0918813
-0.336623
-0.592332
-3.62258
-7.53892
-3.99171
-1.46555
1.7741
-2.53982
-0.9543
-1.64955
-2.1567
-0.99129
-6.44389
-1.01414
-0.240364
-0.0921288
0.965056
-2.80701
0.941823
1.77569
-1.91919
-1.11141
-3.09011
0.807594
-0.928948
0.76407
-1.17008
-4.63051
0.0632776
-1.80795
-6.02419
-2.20523
-9.91453
1.03121
0.230181
-0.739343
-2.90803
-1.41508
1.36864
0.809909
-2.92916
-2.63853
2.80776
-0.717193
1.7555
-4.47559
1.23881
-2.17598
-2.68899
0.597901
-2.22816
-8.551
1.88969
1.87735
-8.99361
0.220665
-6.97706
1.43354
-2.34117
-2.02394
-2.18772
-2.44731
-0.932107
-0.132271
0.382868
1.26978
0.394428
0.656758
-2.26408
-0.582191
-9.92097
-1.57587
1.17841
-1.6685
1.94179
-0.814295
1.72938
0.962088
0.70046
-7.14116
0.371308
-0.574177
-0.467362
1.47485
0.752112
-0.331405
-1.25111
-2.21345
-8.62384
-3.21773
1.32298
-0.109549
1.05372
-1.7935
-3.3941
3.02369
-7.46105
0.78478
-0.038459
1.77113
-1.37954
1.76641
-9.66856
-3.06029
2.08042
-7.13753
-0.841584
1.2839
2.1974
0.720501
0.386969
-0.627673
-0.0968009
-2.67999
-0.710684
-1.739
0.607599
-2.69813
-1.76035
-2.07129
-0.808666
-0.0192244
-1.00552
-0.493882
-1.5546
1.29976
0.924959
0.194774
-9.98185
-1.39678
1.84109
-2.29671
-0.347835
-1.78729
0.276308
-1.89909
-2.17335
-1.29517
-0.515715
-0.197447
1.44569
-2.20228
-6.06332
-1.15184
0.130709
0.0962128
-3.39718
0.350443
-2.15027
1.37465
-11.2199
2.56257
2.21062
-0.258696
1.28482
1.77189
1.57613
2.48804
0.933762
-1.9179
-7.71149
-3.8528
-8.06185
0.313042
-2.75189
1.34454
-1.14973
1.43077
1.57923
0.0266591
-0.0143512
-3.00604
-0.497385
-0.689591
-0.316414
1.89695
0.708067
0.615164
0.747919
-2.23696
-8.19256
-9.85419
-1.16906
-0.555148
0.66805
0.863828
-7.63235
-2.67318
2.0406
0.540826
1.79837
1.81073
0.773248
-0.266461
-0.542357
-0.740077
-1.878
1.1041
-0.211128
-0.503213
1.49042
2.22116
-3.89763
-0.162423
0.855623
1.67111
-11.5694
-1.29213
-1.11424
2.61742
1.26185
-1.38966
-0.0403927
0.399921
-3.2983
1.43621
1.36974
0.319216
1.19335
-2.15673
-12.0754
0.61785
0.95316
1.86326
0.711076
1.68607
-2.2875
-9.051
-2.03227
1.43043
1.75638
-1.18765
-0.2816
2.6001
1.05782
0.0282221
0.291796
2.46298
1.12958
0.446236
0.902416
1.16413
-0.161065
-1.14536
1.42469
2.933
0.400476
-8.19824
-3.19213
-0.589974
-2.1811
1.75108
1.35876
-0.640538
-0.141442
0.856485
-0.18418
0.410215
0.0976664
1.58837
1.48434
-1.81238
2.38018
0.778735
-1.74981
-0.00384265
0.559915
-0.0312895
0.215815
1.06279
1.10798
0.777516
0.385735
-5.05269
-5.93588
0.881697
0.409879
1.83605
-3.76076
0.871204
0.858807
-0.164992
0.973267
1.5423
0.0173339
0.0421364
0.0345695
1.36015
-1.4041
-0.814648
-0.36123
1.64349
0.47182
1.17083
2.26851
-3.10123
2.17333
2.56352
-1.61053
-1.03708
-4.902
2.92403
-0.834355
1.14176
2.40858
1.18191
-2.19402
1.3797
0.297481
2.65911
-0.743176
0.436927
2.74378
2.1177
0.0939134
2.67328
1.78498
0.219017
-8.03948
-2.83427
-0.010258
0.0100603
0.686571
1.708
-0.974092
-0.31126
1.44889
-0.168836
2.3653
-0.224181
2.63023
-1.4217
-2.0166
-0.485414
-0.329398
1.85864
0.265574
0.352724
-5.39729
1.73146
0.268118
1.44875
1.11916
-3.65121
0.626579
-0.257511
-1.53619
-0.213548
1.95595
0.534969
-0.0847186
-0.261488
-0.438334
-4.61314
1.68014
0.219806
1.09854
-0.973103
-3.60759
-4.40113
0.50841
-0.0279242
2.29707
-1.14324
0.402274
-4.85853
-8.88049
1.53873
2.48386
-3.37346
1.44571
1.25767
-4.13355
0.88675
-1.37958
2.87461
-2.66712
-0.308803
1.06615
-11.0861
2.11344
-2.23545
-1.70602
-0.0155037
-1.40323
-2.18586
-3.06488
0.60211
-0.318022
-2.21503
-0.00778561
1.11558
-0.397167
1.65647
2.01157
1.41972
1.57926
-11.8725
-11.5075
0.234051
0.503545
-2.43575
-0.00876587
-0.064791
-0.00626948
-0.0189398
1.88639
1.1195
1.20255
1.32945
-1.18197
0.0829479
-1.02873
0.260008
-1.45799
2.61421
1.44968
1.15799
-11.3818
-0.487375
1.38126
-0.245369
-5.86925
-1.05989
-0.687843
-0.784739
0.640631
-2.40403
-0.173875
0.665665
-2.19315
0.839073
1.98926
-0.459512
-0.459419
-0.260414
1.49335
-6.31233
0.433623
-8.26888
0.0335744
-10.6678
-8.26803
0.966485
-2.83924
-0.825252
-0.276618
-3.14948
-5.32309
-4.42363
1.46636
0.375192
-6.51456
1.91889
-2.38909
1.18017
0.673771
-1.31566
0.136371
-2.42218
-2.3396
0.110705
1.34787
0.999973
0.700585
-2.0469
1.71752
-4.40694
-0.38268
-0.00773196
-2.66569
-0.125047
0.103144
1.53499
-2.32046
-0.951291
-8.59417
1.32897
1.54186
-2.58468
0.395251
0.000517392
0.149997
0.303299
0.332139
-0.143256
-4.40362
-2.9109
2.17756
0.558983
-0.0705138
-0.4379
-0.00863177
1.4914
-2.54176
-0.721765
-9.46702
1.33564
-0.142885
0.00709896
0.325538
-0.00674301
0.822785
0.7226
1.07806
-0.369406
-2.44815
0.279067
1.61571
-0.10047
1.21178
1.21982
1.50369
1.27748
0.758441
0.811659
2.47644
0.418848
-0.487413
-0.600906
-2.23143
-0.0334766
-0.876629
1.14204
0.939326
2.40284
-0.0379089
0.328681
-9.59965
0.0685515
-11.5591
-0.415118
-2.03516
0.561562
-11.1665
0.692709
1.26613
1.42403
-2.0881
1.49566
-2.27031
0.7792
1.41855
1.09049
-7.53494
-0.986371
-9.30398
0.623705
-3.35725
-0.942831
0.918756
-0.731541
-0.0612676
1.04555
2.12542
-0.525546
1.98695
0.521851
-3.07802
-1.22267
-0.353817
-0.0918971
-0.587854
-2.79099
2.14838
-0.00518331
1.18173
-4.14714
-7.331
1.81029
1.63105
-0.0109806
-0.162794
1.45316
-1.30182
-0.244648
1.30813
-0.572364
-0.647965
-1.12307
-1.28792
2.21194
-1.8417
1.34057
-0.162272
0.344914
2.77338
0.524901
-0.0351724
1.32913
-9.13443
0.952638
1.14969
0.129867
1.35957
-0.0711078
1.32975
1.46632
0.291412
1.54724
-4.02614
-1.90178
-0.000624258
-1.04346
2.24706
-2.20484
-1.25457
0.732067
-0.372115
-0.881728
-2.11756
0.688775
0.156513
1.20046
0.908548
-0.698348
-3.67221
0.170959
-6.77403
1.61895
-1.51059
-2.16876
-1.32974
-11.8039
1.27171
-2.21389
-2.35044
1.43148
-2.26818
0.837843
1.46021
-2.14566
-2.11162
1.26343
2.17551
-2.85422
1.34667
-1.6759
-0.887318
-2.56361
0.412664
-0.701969
-2.26279
2.50092
-1.97615
-1.70857
-0.0248588
-0.830915
1.50667
-0.603224
-1.7241
-2.3312
-5.02088
-7.8274
-1.98833
-0.939103
1.76494
0.480093
-3.45708
-0.0201405
-2.24204
2.55412
2.53933
-2.24828
-0.54728
0.173882
-2.31456
0.30961
2.19844
-0.569107
-2.44374
1.34195
1.34308
1.32945
-0.789921
-0.351577
-0.00428662
-1.25354
-0.209187
-0.646165
1.19671
-0.598225
0.472367
0.0634471
1.37463
1.26021
-0.176709
1.26975
1.29272
1.34362
-0.104399
2.2249
-0.449957
2.06641
-0.1147
1.93322
2.86808
0.0444421
0.18911
1.00034
1.39571
-0.842883
1.17528
-0.242189
-0.183951
0.299331
1.4429
0.422665
0.519265
1.6347
-1.03391
-2.15022
2.68004
-2.22785
0.194651
-5.62273
-0.234468
-2.09931
1.22321
0.566636
1.25428
0.71908
-0.233944
-0.194121
0.862246
-0.167304
-2.08513
-3.93916
0.815073
-4.95759
0.390749
1.13957
2.52306
1.36172
1.12242
0.980826
0.403553
2.32555
1.28444
1.35112
0.935013
-7.16991
-1.7767
0.19114
-0.742031
2.71155
-3.0407
0.285783
-0.000150728
-0.282204
2.4801
1.25431
0.377725
-3.11015
-0.507086
-0.513659
-0.184246
1.26761
1.82539
-0.311374
1.68617
0.250421
2.36543
-1.28446
-0.290059
1.01934
0.638176
0.0193193
1.71367
0.775835
-0.581847
1.25636
-0.0781979
-9.25932
1.56549
1.78557
-0.527305
-2.86132
-2.22134
-0.999671
-0.763472
-2.36009
0.350669
1.3649
-0.0744342
-0.782521
0.453575
-3.42314
-0.816281
0.148383
-1.80958
-3.42588
0.331434
-2.22196
-2.43648
0.89222
1.37025
1.10939
-10.3586
1.13786
-1.75227
1.44873
2.23533
-1.5125
-0.051706
-0.124965
1.92888
0.457571
-8.55587
-0.368514
-1.01442
-0.190284
0.127724
2.31157
-0.117774
-0.00360208
1.15519
-0.560899
-0.016122
1.34341
0.339055
-0.479927
-0.742752
-2.47586
0.718109
-2.15926
-0.187201
-1.46021
-2.63825
1.30501
1.32216
2.51309
0.298264
2.49489
0.516537
1.6966
-7.52481
-2.84869
-8.02137
1.63173
1.36963
0.159516
0.554358
-2.34642
-6.06989
-0.0148559
-0.774145
-0.151561
-0.684398
-0.270966
0.186009
1.29307
1.4207
-1.14341
0.0992178
0.192562
-0.478135
-0.603667
1.22509
-0.583061
1.24494
-1.82754
-0.132215
1.32848
-1.78975
-0.573377
-0.00082591
-0.63119
-3.41223
1.21134
-1.20483
-0.0980416
-0.187795
-2.14475
-1.9688
-0.202984
1.86248
1.6951
-0.00829282
-0.784322
-4.98284
1.14349
-0.019512
-0.763759
-0.00767145
0.325958
0.114375
-0.140373
-1.74496
-0.00416921
1.14259
0.0363315
0.231771
-3.51587
-1.95575
1.47557
1.10837
0.0992701
0.317299
0.939701
1.04281
-0.546428
-0.677773
-0.24626
-8.55637
-0.116924
1.02042
-2.55629
0.524201
0.0999629
-0.0195584
0.363993
-0.628292
-0.151558
-0.100045
1.44548
1.29773
-0.995889
-0.100306
-2.77313
-9.57714
1.12089
-0.191019
1.96392
-1.74239
1.34942
0.966805
-2.23105
-0.978701
-9.66896
-0.914945
-11.0569
1.22636
-0.196791
-0.0721021
-2.16535
0.902594
-0.842134
1.49953
0.0156474
0.0510174
1.67632
-0.0710734
-0.0529302
-0.57594
1.34983
-0.124028
1.41043
1.22854
-6.90142
-0.144213
1.43395
-1.08846
1.26537
-6.78391
1.16573
-3.42514
-0.115837
0.0689036
1.08681
1.06209
-0.419658
1.36264
1.1357
-0.204889
1.57595
1.09711
-2.91568
1.36325
-0.120523
-0.0157237
-1.61983
-3.37341
-0.109626
-2.25125
-0.00128883
1.3558
1.46144
-0.220309
-0.441949
1.16673
-0.0215157
1.36032
-6.33861
-0.0181746
-0.33627
-2.81575
-0.176979
-9.99312
-0.217016
-3.88667
-0.124386
-1.09728
0.309115
-0.213529
-9.54466
-0.220475
0.366543
1.82349
-3.31301
-0.0105632
-0.94729
0.603773
-0.4443
-4.75131
-0.870672
0.832623
-0.341225
0.979874
1.39665
-0.00524357
-0.127145
-0.355785
-0.130425
-0.450262
-3.26545
1.32616
-1.09353
-0.0164816
-1.87834
-9.16736
-0.00808105
-0.128671
-1.3356
-6.34982
0.158139
0.178689
-0.0727391
-0.114081
-0.0213561
-0.0114217
-3.65135
-1.99819
-8.4922
1.1211
-1.03481
-0.105311
1.16534
1.19897
-0.13661
-0.0296701
1.17719
0.589235
-0.0358303
-6.86372
0.000933567
0.961675
0.984814
-4.27962
-0.0248365
1.17759
0.104158
1.30782
1.25843
-0.092607
0.144129
1.24638
-0.245083
-5.19388
-0.126318
-0.4617
1.06528
1.36211
0.0194528
-0.0914101
-0.140502
-0.101967
-0.468331
-0.0985906
-6.84027
0.0222652
1.36968
0.206724
-0.129719
1.34424
-0.0904456
2.24972
-0.129625
0.185233
0.138724
-0.167253
1.29116
-0.12738
-0.500215
-8.33863
-0.374252
1.31166
1.09677
-0.131919
1.36741
-0.0773727
-0.0971329
1.12687
-1.68462
1.24854
-0.139569
0.110682
-0.409799
0.247877
-0.435248
-5.77805
-0.361389
1.06163
1.0699
-0.0272291
1.19922
-0.00868806
-0.573472
-0.158537
0.883479
-0.96665
-6.7462
-0.556905
-0.0101296
-0.751911
-0.173946
-0.68289
-2.70951
1.93397
-4.8652
-2.19022
1.93893
0.0430965
-0.727904
-0.141849
-0.829934
-0.0229937
-0.583375
-0.157417
-0.950574
-7.97502
1.04316
1.33859
-0.178512
-0.352453
0.708101
-0.00814583
-0.0206577
-0.134064
-0.13301
-0.260214
1.31615
-2.74012
-11.7029
1.14782
-0.204149
-1.00835
-0.0457396
-4.03583
-0.0831371
0.283793
-1.08165
1.35207
-0.272486
-0.235029
-2.0716
-0.203499
-0.605705
-0.161985
-3.41424
-11.9432
1.89784
-7.39804
0.525137
-0.00869874
-0.56884
-0.0702952
-0.101464
-2.28057
-0.00810182
-0.127654
-0.376646
-0.142884
-0.355182
1.66122
0.423588
-0.0399417
-0.0497201
-0.136115
-2.40228
-0.0936104
-1.14176
-0.108163
-0.360995
1.44575
0.150375
1.34626
-0.040264
-0.0298993
-0.0814615
-0.0034511
-0.0245268
-0.909152
-3.22427
-0.0870181
0.306963
0.137137
1.11725
-0.0941366
-0.109117
-0.0582966
1.21913
-0.14286
0.320268
0.274377
-0.00434053
-0.136945
-3.20461
-0.126819
-0.0113761
-0.144405
1.3397
-0.00208124
-0.295244
-0.0690537
0.598348
-0.423814
-1.22054
-0.0101108
-0.0779512
-2.2488
-0.146053
-0.132865
-0.519328
0.0219263
1.35086
-0.088842
-1.64597
-0.098767
-0.132091
0.466168
-0.251296
-0.131798
-2.15741
-2.21363
-0.128027
1.50973
1.56083
-0.0247187
-0.127346
-1.36746
-0.0595099
0.404734
-3.87851
-0.0566393
1.26296
0.414411
-0.0204803
-0.0915292
-1.75046
1.28086
-0.0421053
-0.0277072
-0.0723684
-1.7752
0.125363
-0.472379
-2.05703
1.16755
0.374276
-0.61109
0.612453
0.0217663
1.36338
-0.0485901
-0.0205893
-0.064931
-0.000934557
-8.90328
-0.157951
-0.213566
-0.0190019
-0.147707
-0.0395384
0.0208182
-0.040396
-0.079443
-0.545479
-0.0986978
-0.0976242
0.0207332
2.60916
-0.124339
0.0736297
-0.0254188
-0.0229654
-0.573361
-0.110086
0.0310353
0.487506
-0.245114
-0.13369
-0.0852154
-0.0551135
1.37138
-0.0328197
-0.118791
0.0514677
-0.0202406
-0.0222785
0.0881177
-0.128484
0.667638
-0.158567
-0.887864
0.543321
-0.0787545
-0.310439
-0.0755578
0.0300762
-2.46833
-5.84805
0.279086
-0.160994
0.0086362
-0.0218447
-1.70368
1.26737
0.895276
-0.116023
-0.1288
-0.125481
-0.0901912
1.36442
-0.0381536
-0.172764
1.53494
-0.141361
1.4873
-0.224409
-0.374584
-0.00890617
-0.0528433
-0.029776
1.59639
-0.115556
-0.00129033
-0.55508
-0.958916
0.452981
1.34252
-0.0138106
-0.759152
-0.596312
-0.0472063
7.21599e-05
0.110942
-2.14366
-0.000677109
-0.267981
-0.0728038
-0.125377
-0.124076
-0.210204
-0.0918859
-0.00202807
-0.0457078
0.134994
1.4505
-0.501945
-0.0942187
-0.131956
1.41903
1.77033
-0.0365035
-0.00222641
-2.36417
-2.11469
-0.0266118
-0.319883
-0.0460807
-0.336047
-0.00375847
-2.29445
-0.0359733
0.0531536
-0.235511
2.14314
-0.0510559
-0.125177
-0.51684
-10.082
-0.048534
0.93335
0.0560653
1.08604
0.0441715
-2.23766
-0.0692131
-0.165431
-0.562509
-0.201379
-0.124037
-0.0645369
-0.0743554
-0.113259
-0.0328636
-0.0567917
-0.127053
-0.0402516
-0.0406544
-0.127012
1.33623
-0.065481
-0.611034
1.15065
-0.0839692
-0.0812305
-1.17722
1.09442
-0.303696
-9.19215
-0.158537
-0.155988
-1.17087
0.0145494
-0.245373
0.350513
-0.235111
-0.0264224
-6.85709
-0.029358
-2.05784
-0.188066
-0.193145
-2.60128
-4.51735
-0.0322486
-0.108001
-0.262243
0.309031
-0.0561934
-0.0689783
0.959137
-0.0262975
-0.0521774
-0.0568573
-9.06297
-0.0638637
-0.00212771
-0.12784
-0.129449
-0.154177
-0.296753
-0.0254302
-9.11658
1.88734
-0.193234
-0.0694648
-0.140738
-10.4944
1.34424
-0.109685
0.171745
-0.0017136
1.41986
-0.0729354
0.323553
-0.0261456
-0.00513548
-0.0784934
-0.0293008
-0.913325
-0.106253
0.365406
-0.320354
-0.173175
-0.0323462
-0.138458
0.537149
-0.420202
-0.0326355
-0.0446939
-0.14052
1.65763
-0.104895
-0.0577876
-0.0396719
-0.180928
-0.103547
-0.0919436
1.70859
0.998063
2.30144
-0.000300973
-8.55697
-0.523247
2.97134
-0.962022
-0.131265
-0.128081
-0.157327
-0.497707
1.4206
-0.473917
-0.282438
-0.0716899
-2.1288
-0.221278
-0.101752
-0.0943195
3.0932
1.28014
1.96059
-0.320019
1.31123
-0.0406908
-5.36669
-2.16962
1.02145
-2.30972
-2.23573
-0.0832289
-0.740963
-0.245409
-0.146094
-3.18263
-0.326394
-0.488802
0.425271
-10.7508
-0.116055
1.16136
-0.122164
-2.18975
-0.133431
-0.127151
-0.156588
1.64622
-0.217818
-4.08688
-0.0685286
-1.00789
-0.00227749
-0.462069
-0.722417
1.90027
-2.39613
-0.44039
-0.242459
-0.127368
-0.131588
1.30308
1.42073
-0.125756
-0.383175
-2.05684
-0.708457
-1.52788
2.4313
1.22539
0.295726
-0.078447
-0.162745
-0.183639
1.04324
-0.143443
-0.364572
-0.14305
1.21405
1.35466
0.444525
-2.12543
0.342986
-0.349743
0.0414822
-1.70409
-0.0569293
-0.629776
0.982244
-0.0337391
-2.25119
-0.0839949
1.82411
-1.81896
-0.39555
-0.122053
-0.819856
-0.0106402
-0.941606
2.39684
-0.065702
-7.77984
-2.35482
-0.201788
-0.0220239
0.829907
-0.61741
-0.310212
-0.652429
-2.21916
1.46032
-0.124789
0.0668232
-0.664606
-1.29243
-0.106527
-2.3004
-0.100022
-8.54489
2.52763
-0.114432
-2.3695
2.15969
0.00195725
-0.0430868
-0.116647
-0.012424
1.66025
-1.35946
1.36281
1.29702
-0.0401513
-0.133403
1.25608
1.30585
-0.0382219
-0.0619162
-2.81799
-10.9185
1.29116
-0.19941
-1.71781
-2.15317
-0.274239
-4.93532
-0.130678
-0.079499
1.4316
-0.102358
-0.235052
-2.70187
-0.120911
-0.122635
-0.0917894
-2.06666
-5.77827
0.0339877
-0.246121
0.0831526
-0.852481
-0.139081
2.38745
-0.107005
-1.88237
0.281397
-0.090177
0.242394
-0.155092
1.29746
-0.135505
0.785539
-2.01906
-0.0687082
1.50477
-4.71033
-10.9466
1.67005
0.508885
-0.135222
-0.150946
1.29532
0.369272
-0.112042
0.482816
2.32453
-1.07991
0.570614
-0.299032
-0.120155
1.69325
-1.45406
0.0454614
-0.0520337
1.42621
0.584862
0.655045
0.50219
0.801133
-5.77686
-0.122116
0.589045
-0.171317
0.00323078
-5.62435
-5.87778
-0.11577
-0.171205
-4.63837
-0.0543696
-0.534605
-2.6026
0.928893
1.20179
1.05276
-0.0247006
-0.841827
-0.803061
1.018
-0.0159084
-0.0354131
2.27309
-0.0628249
-0.0297157
0.151275
-2.04686
1.3844
-0.0175609
-0.76792
-2.40206
0.118304
0.215374
-1.59862
-2.43967
-0.57642
-0.0661755
0.0151634
1.22592
-2.30116
-7.37944
0.148938
0.338002
0.268534
-0.00842139
-0.120235
-0.0051004
-0.365188
1.2624
-0.0557676
2.80504
1.72258
-0.165467
-0.0687291
-2.83011
1.99171
-0.164269
-0.138089
2.78645
-0.0910373
0.0278153
1.11967
2.45032
0.33275
-1.23323
1.36549
-1.43157
-0.00277909
-0.148402
0.196848
-3.16851
2.24536
0.191403
-0.00156372
0.0435648
-3.49791
0.136874
2.56467
0.00371801
-0.0835632
-0.0821729
1.33552
-0.382815
0.0805516
1.33259
0.502423
-0.0661163
-0.262875
-8.37101
0.147321
0.331159
-0.193033
-0.0644757
2.12066
-0.0307715
-0.17038
1.39982
-0.0629479
-0.021407
0.0686983
0.475166
1.22091
-0.0703443
0.324758
-0.790281
-0.0840946
-0.291518
-6.77954
-0.164724
0.147679
-0.00428874
-0.0162733
-0.455514
-0.0341371
-0.0417676
-0.014752
0.507666
-0.164765
-0.562282
-2.00485
-0.0941166
-1.21228
0.54849
-0.0108048
0.399337
-0.130953
-2.17715
-0.0157486
1.38385
-0.527213
-0.49689
0.112805
-0.483943
1.48939
-0.0331684
-2.24505
0.297303
3.00987
2.4861
-0.0532588
0.709873
-0.996483
-0.00388023
1.41518
1.33022
0.823551
-0.0858327
-0.0386302
0.0893899
1.96671
0.179447
0.501848
0.378436
-5.92338
0.247189
0.0251266
1.46112
1.72329
-0.0812783
-10.7411
-0.309939
1.39708
1.65756
0.353742
0.02026
0.0713955
2.43764
-0.00977453
-0.0686468
-0.0528455
0.120393
-0.0489571
-0.0636625
1.33859
-0.0174218
-0.0152315
0.324125
-0.786936
-0.108488
-0.00650275
1.63069
1.22998
0.939444
-0.462696
-11.6923
2.74079
-0.112833
0.0978626
1.2768
-0.742815
0.427175
1.39946
1.1548
-0.00964231
-6.86957
-2.65575
1.33191
-0.904712
-0.0292874
-0.115414
1.03649
0.614604
-0.0825467
-0.0411221
0.989594
-0.455474
-0.0383078
0.094327
-0.0280754
-0.699543
-0.834842
1.37847
2.19146
-5.12415
2.00346
-0.186977
-0.457944
-0.0417688
-2.4746
0.164238
-10.3417
0.309354
0.226421
-0.136516
-0.123579
0.401636
2.89946
-0.0164677
1.48366
1.3323
-0.484562
-0.0739361
0.658188
-0.201716
-0.631151
-6.70367
-0.0505006
-0.096144
-0.176728
-0.524166
1.65644
0.424735
0.401413
0.296702
-0.745401
0.133027
-0.308604
0.324572
0.324711
0.145305
-1.42976
1.38472
0.923163
-2.35697
-0.395106
-0.0273424
1.19197
1.36896
1.44457
-2.07744
-11.0913
-0.795486
-0.265673
1.34419
-1.13792
1.39484
-0.0725515
0.0454673
-5.80951
-0.913845
1.36263
-0.665814
1.40215
0.956672
0.200246
0.117636
-1.38527
-11.3868
-0.530134
-1.38682
1.27975
0.217155
1.43565
1.39651
-0.0591895
1.42076
0.174879
-0.00187449
1.12642
1.31113
-1.94714
0.716001
1.25398
1.36546
0.317357
1.22031
0.594918
1.11596
-0.22161
-0.28192
0.108602
-2.41068
1.04151
0.57893
0.646681
-2.63868
1.48537
-0.00157912
-1.42988
-0.0908313
1.36915
0.531693
1.05357
-0.0747448
-2.24466
-0.808157
-0.0445719
-1.06812
1.25184
1.26955
-2.66539
-1.01219
0.280065
-0.494515
-1.06449
1.26362
1.84577
-0.123668
0.342171
0.764395
0.338001
0.247549
-0.0268861
0.705626
-7.9592
-0.0357528
-2.11804
-2.57172
-0.275802
1.58516
0.840749
-0.300627
-0.279789
-0.111727
1.33754
1.34463
0.700428
-2.68087
1.54739
1.49535
1.36552
0.191336
0.129949
0.287485
0.24877
0.734003
-3.99237
1.37031
-0.713603
0.232126
1.52127
-0.89067
-7.59558
1.89413
2.25906
0.235488
0.0162539
1.05271
1.28813
0.134336
0.120504
-0.181488
-0.234597
-2.79904
-0.436235
-2.16174
-1.73093
-0.345045
1.32949
2.285
0.178515
1.34265
0.203466
3.25151
-0.229392
1.22346
0.17444
-0.998151
-4.88117
3.1574
0.274036
-0.174871
3.05184
0.76962
-1.28191
0.713032
2.96003
0.296076
2.86433
1.25014
0.164152
-8.04864
2.69261
-0.262275
-0.2088
-0.976782
0.958392
-0.0154878
0.98861
2.44837
-0.0207522
0.297295
1.22203
0.503138
0.824184
1.40489
-0.116857
-10.2311
-1.00304
2.36786
0.227402
-9.74207
0.290787
0.219963
2.29812
-0.174409
-0.0704993
-9.12901
2.22197
-1.42176
-8.41677
2.14867
1.37123
-7.7086
-0.705383
-6.98946
1.17209
1.60179
-7.02093
2.03647
1.31899
0.385063
-6.40081
1.15712
1.239
0.296472
-1.50731
-2.38107
1.47009
1.31024
-11.4538
1.05443
0.720409
-0.430678
-2.05511
1.82479
-1.25122
1.39393
-3.28834
-4.80466
-4.38036
-4.00951
-3.69286
-3.42508
-3.19297
-1.86113
-2.98615
-2.56895
2.35515
1.75856
-0.773665
1.30729
0.324137
1.34352
-2.47253
1.70612
0.00123405
-2.38912
1.14932
-2.27295
-2.32176
-0.0181339
1.55755
1.36015
1.2657
1.29757
1.373
-0.478536
-2.27493
1.50252
-2.2469
0.164766
-3.20875
-2.18059
1.411
1.43454
-0.138849
1.2194
-0.00202394
1.39191
-2.23135
-1.20366
0.687877
1.36665
-0.841313
-0.932535
1.29846
-5.74902
-0.278495
-1.75891
-2.2107
1.23694
0.700522
0.346153
1.35904
0.420912
-0.119152
-0.108693
-2.1987
-2.68319
1.15684
0.285598
-0.0902806
1.43081
0.17113
-3.85181
-2.11419
-2.18778
1.10085
-5.2939
0.895036
-0.130213
-0.0269835
-2.18058
1.02612
1.56981
-2.16199
0.944726
-2.16553
-0.181102
-0.687334
-0.917017
-6.21219
0.883207
-2.1079
0.778318
-2.04784
-12.1357
1.32035
-0.0204617
1.26967
-0.106344
0.696303
-1.92337
-1.6379
2.43688
1.43937
-1.84618
-7.2851
0.625116
-10.5906
-5.11876
1.53988
-1.65706
1.32007
0.549718
-0.0948977
0.70991
0.629867
1.33568
1.35731
0.233747
-4.375
-1.48559
-0.918736
0.454021
0.15662
-0.192025
-0.961683
-2.15097
-1.13132
-4.609
1.2261
0.375284
1.95318
0.553039
2.06795
1.19814
-1.142
-1.35664
1.22919
-6.80506
1.25487
-0.0983786
0.0714204
1.25943
1.38786
-0.233028
-1.0166
-5.53645
0.206128
-3.71906
0.433758
1.02127
1.85481
1.29564
2.16522
-4.14615
1.02391
0.36236
-0.925878
0.394789
-0.527075
0.0944314
1.53578
1.36977
1.32969
-0.878443
-0.0199101
-0.148205
-0.245362
-0.389226
-0.51495
-0.673136
-0.82078
-0.113576
-0.818495
1.09508
-1.14507
-2.08032
2.49211
-0.871314
0.197839
-1.7991
1.34191
-0.997745
1.40949
-0.892326
0.336099
-0.936589
-2.46686
-0.970435
1.3466
0.0347015
-3.30834
-0.991111
-2.13099
-8.00659
1.35634
-0.754154
-0.990068
1.313
1.35528
-0.992795
-4.42485
1.43809
0.422438
-2.38073
0.606645
1.14541
1.99921
-1.09035
0.425435
-7.52864
1.61417
-10.9384
-0.51459
-4.37971
1.29441
1.13725
0.705612
-1.69236
1.17666
1.51123
-0.097077
-1.91887
1.12498
0.235141
0.364339
-0.549509
1.12452
-6.06748
-0.0159477
-0.00226397
1.18771
0.292667
1.53608
0.27528
-3.0031
0.541276
-0.960873
1.51844
1.34771
1.53508
1.55226
0.307649
0.298295
-2.87904
-0.416133
-2.1575
0.35636
0.504952
1.47384
-0.738255
-1.09737
2.44701
-0.00536955
1.23728
1.25709
-2.79373
-0.0147509
-0.379151
0.209661
1.18671
0.536491
1.281
1.24244
0.915114
0.527825
1.49784
-0.926714
0.00610373
-3.10263
-10.7991
0.272309
-3.46301
0.885311
-2.93713
1.0326
0.0561778
-2.08132
0.374679
-0.809687
-3.46793
-11.455
0.34175
1.41014
-0.887191
-1.03948
-0.00908744
1.17537
0.259029
-6.92267
-0.0254287
0.135116
0.650997
-5.02691
1.39483
0.786253
1.38913
-11.2156
0.404586
-0.00769254
0.0154
0.607942
-3.45154
0.7329
-0.0696916
-0.0234874
1.29551
1.60681
-0.507627
-2.29454
1.32126
-2.18243
1.46624
-0.0983052
-0.101262
0.121738
-2.18938
-0.01797
0.0244816
-3.11214
-2.20914
1.16055
-0.292772
0.759561
-1.42771
-0.0186023
1.86188