/*--------------------------------*- C++ -*----------------------------------*\
| =========                 |                                                 |
| \\      /  F ield         | OpenFOAM: The Open Source CFD Toolbox           |
|  \\    /   O peration     | Version:  2306                                  |
|   \\  /    A nd           | Website:  www.openfoam.com                      |
|    \\/     M anipulation  |                                                 |
\*---------------------------------------------------------------------------*/
FoamFile
{
    version     2.0;
    format      ascii;
    arch        "LSB;label=32;scalar=64";
    class       surfaceScalarField;
    location    "9.9";
    object      phi;
}
// * * * * * * * * * * * * * * * * * * * * * * * * * * * * * * * * * * * * * //

dimensions      [0 3 -1 0 0 0 0];

oriented        oriented;

internalField   nonuniform List<scalar> 
7520
(
-0.865267
0.681823
0.183444
-1.27447
-0.224383
1.49885
-0.116279
-1.7638
1.88008
0.280458
-0.0397404
-0.240717
-0.270642
2.91898
-2.64834
-0.114921
0.124052
-0.00913095
-0.304595
2.05439
-1.7498
-0.0690998
-2.32382
2.39292
-1.50697
1.3907
0.418601
0.12408
-0.542681
0.429004
0.159339
-0.588343
-0.21593
-1.42351
1.63944
0.403313
0.258373
-0.661686
-0.126052
0.173331
-0.0472785
-2.63095
1.09261
1.53834
0.0721631
1.40988
-1.48204
-0.109663
-0.014635
0.124298
-0.0317385
-0.265562
0.297301
0.0300252
0.0120874
-0.0421126
0.0725468
-0.18221
-0.475094
-0.177996
0.65309
-0.955979
1.02814
-0.0833967
-0.37474
0.458137
0.20741
-0.171501
-0.0359085
-0.0226322
0.0726552
-0.050023
0.299662
-0.291927
-0.00773544
0.913397
1.08931
-2.00271
-0.0583856
0.391477
-0.333092
-0.00104428
0.0310695
0.325176
-0.0682907
-0.256885
-0.925158
1.58709
-0.661933
-0.0618489
-0.0244981
0.086347
-1.87577
2.07962
-0.203857
1.04217
-0.855385
-0.186787
-0.299468
-1.17102
1.47049
-0.218178
0.853375
-0.635197
0.273319
-0.613346
0.340028
0.855975
-1.6511
0.795123
0.102425
-0.373872
0.271447
-0.0711803
-0.146629
0.21781
-0.0318268
0.312284
-0.0446049
-0.483657
0.528262
0.340293
-0.0406312
1.73412
-1.42752
-0.306592
-0.483355
-0.585841
1.0692
-1.47641
1.57497
-0.0985537
-0.0766066
0.0861572
-0.00955066
0.329995
-0.103527
-0.226468
-1.25195
0.326794
0.325908
-0.0907298
-0.235178
1.72919
0.158346
-1.88754
-0.693662
0.177555
0.516106
-0.0226388
0.0255171
-0.00287827
1.12676
0.50774
-1.6345
0.01755
-0.132471
-0.780016
0.0606742
0.719342
0.297129
-1.23965
0.942519
-0.0544283
-0.142884
0.197312
-0.150207
0.0883581
-2.44383
1.32123
1.1226
1.59891
-0.509072
-1.08984
-0.0527531
-0.0856723
0.138425
-1.20283
0.903365
0.775003
-0.37169
0.0245035
-0.0471423
0.00548009
-0.131532
1.27446
-2.7433
1.46884
0.150678
1.57851
-1.37287
1.0169
0.355972
0.375658
-0.278528
-0.0971293
-0.573239
0.870367
-0.707251
-0.138113
0.845364
0.410458
-0.102621
-0.307837
-0.0661847
0.535539
-0.469354
1.26442
-1.80459
0.540172
0.162448
-0.141767
-0.0206812
1.98485
-0.517676
-1.46718
0.50403
-0.816521
0.312491
1.24558
-0.901368
-0.344209
-0.916814
0.136798
-1.71424
-0.729589
0.367655
-0.549275
0.18162
0.274245
-0.711082
0.436837
0.428744
0.613429
-0.48472
0.452982
0.349492
-0.0243161
0.0549027
-0.0425898
-0.0123129
1.30437
0.68048
-1.92704
2.51563
-0.588593
0.595599
1.00331
-1.10991
1.11364
-0.0037316
-0.0369833
-0.0590704
0.0960537
1.39049
-1.60642
0.286167
0.231732
-0.129306
-0.243564
0.250275
-0.00671091
0.0075127
0.112525
-0.120038
-0.590421
0.3569
0.233521
1.63089
-0.366467
-0.856398
0.687151
0.169247
0.719854
-0.319432
-0.400422
-0.112233
0.141155
-0.0289214
0.639245
-0.101157
-0.538089
2.60378
-1.7451
-0.85868
0.564704
-0.387342
-0.477925
-1.35363
0.780391
-1.86873
1.56413
0.208622
-0.0945579
-0.114064
0.460278
-0.031274
-0.203206
0.201686
0.00151979
-0.0860018
0.0979293
-0.0119275
2.07015
-1.21417
-0.16402
0.0524033
0.111617
-0.756404
0.28131
0.036557
0.0159593
-0.0525163
0.592078
-0.224423
-0.645389
0.399721
0.245668
0.746298
-1.70923
0.96293
0.0870264
0.120383
-0.104212
-0.589449
-0.245864
0.0214207
0.224444
0.698692
-0.280091
0.535104
-0.512962
-0.0221411
0.0556721
-0.0873178
0.0316457
0.231463
-0.210141
-0.0213216
0.721394
-1.94941
1.22801
0.442027
-0.525424
-0.361814
-0.100744
0.462559
-0.0834739
-0.0805462
-0.213256
-0.0896471
0.302903
0.17802
0.038882
-0.216902
-0.0759659
0.253986
-0.503841
-0.141548
0.00196165
0.13767
-0.139631
-1.91545
2.62868
-0.713238
0.260704
-0.285833
0.025129
-1.09421
-0.259415
-0.0424538
-0.0648599
0.107314
1.48828
-0.361517
-0.613234
0.476079
0.137155
-0.239464
0.579116
-0.339652
0.357691
-0.0878787
-0.269812
0.254019
-2.01782
0.289587
-1.766
-2.3799
1.17821
1.20169
-0.878575
-0.494298
-2.41002
2.13297
0.277047
2.2119
0.108782
-2.32068
0.235874
-0.307055
0.923125
-0.688215
-0.234909
-0.263761
-0.0559115
0.319673
-0.0118803
-2.39814
-1.88977
0.0140027
0.0527832
0.00211953
0.0812021
-0.164233
0.0830307
0.333051
-0.387479
0.152784
0.56707
-0.187548
0.155721
-0.00775434
-0.00127667
0.00903102
0.862269
-0.445151
-0.417118
-0.5441
-2.08685
-0.111084
-0.152677
0.047223
-0.643013
0.59579
0.0994316
0.0458564
-0.145288
-1.38331
0.763625
0.619686
1.05888
-1.32952
-0.252255
0.639564
-0.387308
0.0330187
-0.055651
0.603316
-0.285742
-0.317574
0.224224
-0.467788
0.278372
-0.369102
0.864163
0.252587
-1.11675
0.347226
-0.405611
-0.324602
-1.3556
1.6802
1.2797
0.664742
0.787925
-0.51368
-1.18894
0.970762
-0.743722
1.00599
-0.262266
-0.04302
-0.0139783
0.0569983
0.212854
-0.247825
0.0349716
-0.0438465
0.635924
-0.304789
-0.189851
0.49464
0.108507
-0.00907504
-0.927459
0.974683
0.524757
-0.954201
0.429444
-0.480224
-0.110197
0.770165
-0.496846
0.17636
-0.0139114
0.0280992
-0.0138427
-0.0142565
0.0676124
-0.153614
-0.738344
0.221185
0.517159
0.144421
0.266037
-1.33968
-0.464916
-0.771597
-0.611714
-0.0184695
0.109799
-0.0913293
0.412226
0.0460576
-0.458284
-1.66511
-0.250336
-1.2554
2.31074
-1.05533
0.414663
0.188653
-0.0830719
0.11848
-0.035408
-0.738846
0.634634
0.542253
-1.02561
1.7125
-0.048674
-1.66383
-1.48878
1.96524
-0.47646
-0.034729
0.115931
0.325183
1.54268
-1.86786
0.0415649
-0.204015
0.16245
-0.17694
1.86006
-1.68312
-0.00436019
0.162525
-0.158165
-0.969085
1.33639
-0.367303
-0.0294785
-0.709368
-0.331927
-0.406417
0.300501
-0.265482
-2.15658
2.42206
0.0221759
-0.0100885
-2.04572
0.706039
-0.395022
-0.0592854
0.454307
0.0952982
-0.0396261
0.151518
1.56785
-1.71937
-0.389626
-0.692984
1.08261
-0.584918
0.471203
0.113715
3.066
-1.96721
-1.09879
0.589513
-0.979139
0.132435
-0.131585
-0.000850418
0.0732797
0.811582
-0.884862
0.0915385
-0.0916601
0.000121557
0.864801
0.784183
-1.64898
-0.320577
-0.535822
-0.142846
0.3355
-0.192653
-0.92529
0.635054
0.290236
-0.111806
0.0553557
0.05645
0.672673
-0.260447
0.975787
-1.78653
0.810747
-2.60793
1.11562
1.49231
-1.0912
-1.51673
-0.329973
0.353666
-0.0236928
0.00682669
0.0778592
-0.0846859
1.15497
-1.66163
0.506662
-0.00429912
1.14393
-1.13963
-0.0963726
-0.452903
1.04196
-0.177796
1.35918
1.25187
-2.61105
-0.241201
0.129716
0.111485
-0.0535718
-0.871719
1.82922
-0.379161
-1.45005
0.168647
-0.127083
0.0652565
0.0331888
-0.0478238
0.96574
0.863475
0.200802
0.579686
-0.780488
0.433462
-0.0419847
-0.0358321
-0.0465382
0.0823703
0.0200451
-0.000742947
-0.0193022
-1.88708
0.925259
0.961817
0.0984348
-0.0916081
0.304951
-0.302989
0.415979
-0.368384
-0.0475954
0.162583
0.167412
-1.59146
1.54609
0.0453644
1.05859
-0.533837
0.0226175
-0.0643249
0.0417074
-0.0033565
0.0595901
-0.0562336
0.158154
-0.260775
1.89146
-0.617002
0.0699707
-0.0614613
-0.00850942
0.000684237
-0.00843858
0.824384
-0.665044
0.34776
-0.0974846
-0.733152
0.728853
0.0584088
-0.0303096
2.05439
0.00392984
-0.0108883
0.00695848
0.106851
0.240908
-0.25028
0.164356
0.0859238
-0.0870405
0.726286
0.494017
-0.538622
0.587232
0.335892
0.578467
-0.418435
-0.160033
0.316994
-1.28608
-0.0242904
-0.188965
-2.29529
2.02981
0.0992536
0.0331815
-2.36439
0.270687
-0.510151
0.159252
-0.106294
-0.0529584
-0.657288
-1.22979
1.2696
1.33419
1.52996
-0.766336
-1.42351
0.034605
0.500499
0.248519
-0.191519
-0.0569995
0.18363
-0.307777
0.124148
-1.16286
0.577022
-0.276467
-0.278774
0.555241
0.386178
-0.262097
-0.097048
-1.9532
2.05025
0.815494
0.273617
-1.54527
1.27165
0.986464
1.09316
-1.11031
1.50879
-1.1836
-0.0570958
0.447285
-0.390189
-0.81775
0.773911
0.0438388
0.0869809
-0.0170101
-0.110725
0.390806
-0.280081
-0.21206
-0.190292
0.402353
-0.537879
1.81758
-0.339357
-0.405797
0.745154
-0.0879905
0.0113839
0.133316
-1.24323
-0.133284
0.097452
0.0118189
-2.0895
1.04846
1.04103
0.543207
-0.284833
0.00976315
-0.0421169
0.302821
1.30781
1.7582
1.65839
-0.463212
-1.19518
0.154166
-0.0524597
-0.101706
0.479869
0.765707
0.164379
0.0841403
0.33292
-2.04375
1.71083
-0.0475594
0.0203408
0.0272186
1.05305
0.577838
-0.263351
-0.110521
0.677537
-0.476735
-0.534096
1.44749
0.196625
0.011997
1.57283
-0.826536
0.180364
-0.172852
1.83709
-0.178701
0.126194
0.492427
0.08604
0.0254113
0.350246
-1.71038
-0.920535
0.862237
0.0582984
0.00781957
-0.149587
1.88656
0.00394749
-1.89051
-0.817958
0.4786
0.283802
0.0738891
-0.363537
0.0850082
-0.0190347
-0.882333
1.54283
-1.61428
0.0714496
0.00330005
-0.223337
0.220037
-0.577281
1.63033
-0.885326
1.60672
0.0220979
-0.0187978
0.645203
-0.245481
1.91036
-0.519873
-0.0112837
0.232835
-0.221551
-0.151646
-0.0255096
0.177156
0.151768
0.00239837
-0.107362
-0.768271
0.0105974
-0.0951018
0.0845044
1.51446
1.11422
-1.43661
1.112
0.163612
-0.525426
-1.35304
0.645793
-1.10948
1.35637
-0.246892
0.541692
-1.65401
1.47707
1.82948
-0.525112
1.28128
0.452832
-0.0876969
0.218321
1.32451
-1.33725
0.332018
1.00523
0.334037
-0.402327
0.0378918
0.060543
-0.260715
0.184749
-0.254411
-1.17311
0.298569
-1.11265
0.814079
-1.59142
1.19548
0.395945
0.447951
-0.586064
0.0721146
-0.124868
0.109874
-0.60234
0.408125
0.194215
-0.685956
0.4337
1.22051
0.608974
-1.48878
0.0893167
0.142146
1.68627
-1.45559
-0.230682
-0.336993
1.87967
-1.60948
2.30424
-0.69476
-0.60964
0.886611
-0.276971
0.0788814
-1.28172
0.0729571
0.00490216
-0.315416
0.489678
-0.174263
0.391581
-0.492737
1.36293
0.467395
-0.951767
0.484372
-0.0475557
-1.54064
1.58819
-0.066411
-0.136795
0.0584963
-0.417708
0.359212
-0.259276
0.707261
-0.447985
0.241973
-0.168031
-0.0739422
0.359959
-0.227466
-0.132492
-1.95561
1.73122
2.86633
-0.699928
-2.1664
0.0959658
0.0207151
-0.116681
-0.0326279
0.216257
0.189808
-0.670032
-0.817706
1.68251
0.043874
-0.00731705
1.7125
-1.06483
1.13811
-0.0837249
0.0837249
-0.381155
0.504784
-2.43182
2.24248
-0.920315
-1.32217
-1.30188
0.592455
0.709426
-0.0514271
0.115571
-0.0641435
0.969869
-1.11926
0.149391
-0.491474
-0.170296
0.66177
1.52318
-1.95211
0.428933
-0.000215132
-0.817534
-0.252491
0.100845
-0.153729
-0.48168
0.635409
0.588157
0.536633
-1.12479
-1.44167
-0.439555
0.755798
-0.316243
-0.862754
0.833961
0.0287939
1.46016
-1.30864
0.164081
-0.153483
0.0583148
0.345536
-0.411721
-2.05202
2.1955
-0.143483
-0.816917
1.42871
-0.611793
-0.025143
0.178651
-0.153508
-1.87655
-0.866741
-0.0177524
0.0167081
-1.73525
0.47985
-0.439292
0.328567
-0.138007
-0.471633
-0.0757234
0.028164
-0.749755
2.10894
0.0804389
-0.455179
-1.54306
0.166831
1.37623
-0.0681435
-0.0899997
0.158143
-0.958853
0.215131
0.265254
-0.654134
0.38888
1.61701
-0.190829
-1.42619
0.0260551
-0.164871
0.138816
-0.271477
0.165775
1.32873
-1.4945
-0.860945
1.95355
0.120105
0.735804
0.752474
-0.0548017
1.55792
0.279163
-1.42478
1.37722
-0.150354
0.0519985
0.0983551
0.311811
0.0394755
-0.351287
-1.79482
0.185345
0.0451038
-0.52876
-0.502266
-0.41827
0.325015
0.656714
-0.140883
-0.51583
0.22442
0.115873
-0.639282
1.55428
-0.914997
0.217143
-0.242653
-0.0539964
0.26685
0.28404
-0.599455
0.00442377
0.35799
-0.362414
-0.12249
-0.0410116
0.163502
0.214449
0.387658
-0.602107
-0.0150141
0.1079
-0.0928855
-0.341366
0.376947
-0.0355811
-0.0074914
-0.205443
0.212935
0.443013
-0.108976
-0.429695
-0.484962
0.914656
1.48789
-1.06613
-0.936575
-0.197878
0.253065
-0.0551865
0.0505984
-0.0606869
-0.32725
-0.257668
0.954889
-0.298175
0.0251497
-1.23684
1.21169
-0.264367
0.0185024
-0.0323748
-0.471467
0.191613
0.168346
0.221047
-0.225407
-1.07133
-0.0475628
-0.104971
0.152534
1.20263
-0.950045
1.48525
1.38108
0.0712873
0.344692
-0.154167
-1.76396
1.91813
0.77683
0.261938
-1.03877
0.0809573
-0.937289
0.60776
0.329529
-0.0530206
-0.0151229
-0.0279935
0.0723324
-0.044339
1.97235
-1.02384
-0.948515
0.157383
-0.356993
0.19961
0.703985
0.182686
-0.88667
0.0834227
0.119836
-0.203259
1.73808
0.0266887
-1.76477
-0.315154
0.049592
-0.31124
0.391679
0.0272267
0.0431188
-0.0703456
-0.566775
0.0820552
0.0190291
0.0148859
-0.0339149
-0.198112
-0.589528
0.78764
1.07781
0.539207
0.992682
-0.967532
0.643812
-0.903088
-1.83816
1.74111
-0.116523
0.0292056
0.306028
-0.558976
0.252948
0.672092
0.857869
1.13273
-1.28199
0.149261
1.29579
-0.559987
-0.173614
0.121154
-0.0113899
0.0644227
-0.0530328
-2.02219
-0.482834
2.50502
-0.370632
0.488645
-0.118013
-0.0119011
-0.0718238
0.6274
2.29158
-0.167031
-0.0741701
1.16564
-1.73698
0.571339
-0.530443
-0.373782
0.904226
1.39335
-0.417563
0.628827
0.486649
-0.542561
-0.324231
0.0124341
0.311797
0.0390299
-0.295915
-0.482992
0.950386
0.0327101
0.0588284
-0.244256
-0.101708
0.345964
0.0286872
0.941182
-0.222532
0.360202
-0.395037
-0.346057
0.367477
0.667277
-0.805284
0.146511
-0.0941077
0.0378636
-0.0856874
-1.94367
0.877531
0.881202
-0.696989
-0.184213
0.0391666
-0.0303941
-0.00877254
0.257894
0.886031
-0.118843
0.0331709
0.0440466
-1.5992
1.55515
-0.00487835
0.60926
-0.604381
-0.0910421
0.0904314
0.000610699
-0.767811
1.06638
-0.104164
-0.286161
0.390325
-0.308769
0.574023
-1.04519
1.39587
-0.350686
-0.325555
0.371404
-0.0458491
2.19574
0.0161559
0.548868
0.168997
-0.717865
-0.365205
0.275557
-0.208504
0.257009
1.57177
0.943869
0.244586
-2.56863
2.32404
-0.868355
-0.200858
1.06921
-0.126392
0.185822
-0.0594306
-0.861099
-0.012142
0.873241
-0.105586
0.0368508
0.0687351
-0.0567023
-0.0765818
-0.543584
0.0706029
0.00205232
-0.00809827
0.10555
-0.213762
0.512733
-0.298971
-0.299667
0.394629
-0.094962
-0.108694
0.151098
-0.0424031
0.720339
-0.435678
-0.00094494
-0.0416448
0.542414
-0.679675
0.137261
1.26784
-1.00995
-0.0653669
-0.338997
0.404364
0.0677132
-0.387145
-1.30941
1.46009
-0.214544
-0.473671
-1.2413
0.825668
0.415631
0.522667
-0.0291744
-0.493493
1.70106
-1.70106
-1.73251
0.0182649
-0.516473
-0.142656
-0.63685
0.779506
0.468511
-0.484138
0.0156263
0.0277767
0.0674469
-0.182224
0.114777
-0.0673044
0.26202
-0.194715
-0.308152
1.11643
-0.808279
0.244081
0.0456829
-0.289764
0.731492
-0.652611
-1.14258
0.274228
-0.0687635
-0.278631
0.347394
-0.0693423
-1.26791
-0.335818
-1.08822
0.752403
0.933552
-0.0670967
0.214561
-0.147464
-0.329556
0.454356
-0.124799
-0.386268
0.243422
-0.0963591
0.0142917
0.144961
0.0462483
0.0166099
-0.0014431
-0.0151668
0.0450209
0.0194017
0.383949
-0.813644
0.195512
-0.0950599
-0.100452
0.0161965
0.0105275
-0.026724
0.0532916
0.0688079
-0.1221
-0.0783982
0.207362
-0.128964
-0.410461
1.22454
0.375898
-0.989357
0.613459
-0.189306
-0.0889536
0.27826
0.0469812
-2.70053
2.65355
0.785354
-0.523258
-0.262096
0.398012
-0.11538
-0.192398
0.0798062
-0.0638468
-0.0659528
0.223335
0.288663
-0.857213
0.56855
-0.402285
-1.18917
-0.498053
0.647853
-0.1498
-0.0717544
-0.0117195
0.49241
-0.349789
-0.142621
0.335404
0.20701
-0.995821
0.39085
-0.369988
-0.0208617
-0.632331
0.355864
-0.0750531
0.551132
0.0522416
-0.0555981
-1.62489
-0.120212
-0.338517
0.622556
-0.0483233
-0.204168
-0.0721659
0.0191331
0.215725
-0.282822
-0.091987
-1.16278
0.752319
1.96794
-0.107871
-2.15658
2.25155
-1.10003
-1.15152
-0.177738
0.534638
-0.178467
-0.738347
0.38485
-0.317238
-0.293439
-0.0307918
-0.29597
-0.542157
0.838127
-0.034536
-0.00783448
0.0423705
0.0974319
-0.976007
-1.90916
-0.350026
-0.382032
0.732058
-0.59045
0.585572
-0.292242
-0.0523234
0.344565
0.595658
-0.15363
0.0994196
0.423247
2.19912
-0.675935
-0.794317
0.498347
-0.293548
-0.0703352
0.363883
-0.0551989
-0.0887838
-1.03048
0.562352
0.0929079
-0.65526
-0.107618
-0.0425894
0.970808
-1.26845
0.29764
-0.626712
-0.0487415
1.7498
-0.550769
-0.128906
0.686706
-2.01459
1.32789
-1.77648
0.917968
0.858507
0.193472
0.118253
-0.311725
0.149838
0.965922
0.111002
0.802598
-0.9136
-0.05483
-0.00663135
0.20839
-0.112424
0.413749
-0.607103
0.193354
1.33845
-1.49262
0.043107
0.0750036
-0.0326165
-0.0423871
-1.73857
0.00606325
-0.663795
-0.180248
-0.0176302
0.145379
0.00220405
-0.147583
-0.700918
0.352011
0.348907
-0.448215
0.391119
-0.966458
-0.424511
1.39097
-0.151687
-0.100348
0.0489212
-0.7829
1.02958
-0.246683
-0.272477
1.46795
-0.198085
-0.711391
-0.59049
0.557611
-0.25266
1.00573
-1.31388
0.0128341
-0.0421275
0.0292934
1.07991
-0.376951
-2.27139
-0.381896
-0.163867
0.545762
-0.0614927
0.246242
-0.00753685
-0.152956
0.160493
0.352294
0.100688
1.01318
-0.425947
-0.0853383
0.358273
-0.0799009
-0.335929
0.293812
-0.168133
0.00226996
0.165864
0.296443
-0.103517
-0.192926
-0.175588
-0.0481213
0.223709
0.0777901
0.0274816
-0.105272
0.112455
-0.0808095
-0.172476
-0.050861
-0.017568
1.11385
0.0278474
0.225784
-0.253631
0.0903693
-0.15396
0.0635907
0.00702545
-0.0169717
0.00994622
0.289937
0.306752
-0.746307
-0.0990156
0.424799
-0.0917483
0.0217601
0.0112586
-0.160084
-0.0439307
1.78842
-1.00424
-0.0456414
-0.17878
0.224421
-1.53307
0.223661
-0.0788659
-0.0240479
0.102914
-0.0549199
-0.0568857
-0.845809
-0.930667
0.43647
-0.0892449
-0.537724
-1.50603
-0.397977
0.153721
0.237697
-1.0206
0.669335
-0.80518
-2.04956
2.29414
-2.38883
0.366642
-0.0997306
-0.0455585
0.145289
-0.0108736
-0.310602
-0.378438
0.68904
0.0628267
-0.0713361
-0.161608
-1.63248
1.79409
-0.935274
-0.402314
1.33759
0.24788
0.527417
-0.775297
0.0114471
0.173424
0.217426
-0.302506
-0.296949
-0.212635
-0.112331
0.324966
-0.0296098
0.349283
0.306791
0.185619
0.0944001
-0.688543
-0.019142
0.0230718
-0.40099
0.489116
-0.0881262
-0.218633
0.0404676
-1.31767
0.123891
-0.0140918
-1.26216
0.292116
0.0107869
-0.495849
0.192859
-0.171775
-1.02366
-0.255074
1.27873
-0.0812289
0.466079
-0.694739
1.28719
-0.380004
-1.0223
-0.921365
-1.19974
1.34913
0.143346
-0.191781
0.055613
-0.121928
0.0663154
-0.760651
0.636909
0.123741
0.743302
-0.77278
0.283164
0.598038
-1.12511
-0.116188
0.0518173
-0.086581
0.0347636
-0.5543
0.768748
-1.37097
-0.164934
1.5359
-0.00835082
0.0533718
-0.291038
-0.674055
0.965093
-0.285665
0.48049
0.0842141
0.0596927
0.0660582
-0.125751
-1.25827
0.879105
0.00992579
0.0529009
-0.207603
-0.14939
-0.438532
0.0935109
0.0530001
-0.0777308
-0.00681722
-0.0248496
-0.045496
0.313645
1.23245
-0.455171
1.73646
1.02898
0.540081
-0.710377
0.0352901
-1.40626
-0.231978
-0.37521
0.46857
-0.0933606
-0.17402
-0.0361218
-0.0490766
0.0229878
-0.0681036
0.156462
-0.235162
2.14874
-1.91357
0.108961
-0.818329
-0.144682
-0.303074
-0.0844052
0.428705
-0.32767
0.422901
-0.0952312
-0.176057
-1.61246
1.78852
0.27695
0.19185
0.276662
-0.294138
-0.468612
1.00413
-0.535516
0.0824973
0.0203485
-0.0507426
0.32147
-0.674401
0.352931
-0.0318043
0.441187
-0.409383
-0.179278
-0.55345
0.732728
-0.320471
-0.08514
-2.00428
0.0407008
0.274606
-0.285889
0.0764531
0.0783949
-0.0684691
0.379007
-0.761039
2.49692
-1.03229
-1.46463
-0.165397
0.457059
-0.839186
0.548148
-0.185324
-0.184664
-0.219469
-0.0069988
1.06267
-0.633924
-0.11262
0.779602
-0.958881
0.175424
-0.114889
-0.0605348
-0.438951
-1.87026
1.07013
0.80013
-2.12959
2.17657
-1.00147
0.243629
0.75784
0.0145719
0.168073
-0.182645
0.66287
0.292018
-0.154376
0.234064
-0.0087906
0.0255987
0.0524994
-0.301621
-0.048168
1.27007
1.22685
-0.0637011
0.0171629
1.58707
-1.47829
-0.0528767
-1.3836
1.43648
1.13418
-0.0203282
-0.337728
-0.101565
-0.343065
0.142999
-0.301588
-0.0459757
0.0838675
0.749019
-1.28087
0.531849
0.143419
2.15115
-1.26648
-0.884667
0.0297829
0.0477024
0.0678681
-0.179047
0.814971
0.904491
-0.886226
0.574048
-1.50932
-1.20445
-0.0502952
1.25475
-1.00877
1.16538
-0.156604
0.117183
-0.011633
2.38557
0.0573205
-2.44289
-0.467042
1.22923
-0.762192
0.111662
0.282967
-0.716095
-0.14666
-0.0184376
0.117691
-1.36068
0.251201
-0.01632
0.0386209
-0.0223009
-0.171009
0.208269
-0.0372604
0.0601639
-0.414153
0.353989
0.638508
0.223729
-0.564371
-0.136547
0.00760902
0.869164
-0.869379
-0.081387
-0.0828459
-0.299188
0.0640105
0.872625
-0.533839
-0.338786
0.298468
-0.893951
0.595484
0.461553
-0.639821
0.178269
0.619938
-1.49411
0.78378
0.710331
-0.00340932
0.854479
0.314128
-1.16861
-0.171157
0.263192
-0.29038
0.0271883
0.204664
-0.0422139
-0.301534
0.00929213
-0.345872
-0.693578
1.02947
-0.567913
0.830456
-0.262543
-0.477421
-0.711519
1.82043
-0.771962
-0.108117
0.203936
-1.33595
0.0510328
-1.31957
1.26854
0.0692985
0.0881098
-0.157408
0.219175
0.310435
-0.52961
0.523255
0.0558614
0.0383173
-1.2981
0.820675
-0.55183
1.15959
0.109839
0.714545
0.359394
0.273551
0.0228928
0.925416
-0.446816
0.0819366
0.661365
-0.928877
0.339427
-1.4421
1.03978
1.05501
-1.23106
-1.93923
1.70406
0.0436887
-1.43203
0.236309
1.19572
0.168416
0.479436
0.0612609
-0.8571
0.714444
-0.172959
-0.125877
0.298835
-2.27788
1.38624
0.891636
0.431324
0.789469
-1.22079
0.0440512
-1.24379
0.819916
0.00255455
-0.82247
-0.313423
-0.657658
-0.695385
-0.00691544
-0.0196714
0.0750271
1.54121
-1.51452
-0.00732264
-0.903989
-0.590122
-0.0602827
0.0568754
-1.26133
1.18759
-0.333111
-1.47707
0.0535586
-0.23099
-0.88576
0.387933
-0.0336889
1.83816
0.216232
0.120618
-1.15109
0.169034
-0.130152
0.149496
-0.361556
0.336707
-0.618068
0.281361
-0.0465317
-0.0175058
0.0640375
-0.675031
0.844028
0.0610282
-0.0409831
-1.0775
1.17341
-0.0959151
-0.723243
0.809339
-2.09966
1.29032
-1.26541
-0.0728499
0.1293
-1.42193
0.107601
1.31433
-0.461337
1.00303
-0.699801
0.797232
0.14664
0.868349
0.514627
-0.909664
-0.860626
-0.224336
1.08496
-1.09662
-1.8114
1.64979
-0.150988
0.155136
-0.00414787
0.107153
-0.106542
0.736473
-1.21946
0.287674
0.656254
-0.943928
0.118952
0.563977
-0.682929
-1.01108
0.457633
0.0511262
0.0313091
-0.272026
0.428569
2.26355
0.122023
-0.769497
0.880498
-0.312152
0.104549
-1.0433
2.36682
-1.32351
-0.0905831
0.0786598
0.0976998
0.459683
-0.00154576
1.06693
1.24381
0.543324
-0.788806
0.299
-2.26621
-0.209064
0.161501
0.106246
-1.05629
-0.262454
-1.00599
-0.252601
0.0650535
0.884603
-0.456033
0.00440572
-0.91161
0.485663
0.221292
-1.73466
0.271781
1.46288
-0.0355475
0.516037
0.846687
-1.18259
-0.306185
0.843486
-0.365809
-0.477676
0.983436
-0.422196
-0.561241
-0.215624
0.0475932
0.720828
-0.690916
-0.0299123
-1.47069
0.971017
0.499671
0.440132
0.955742
0.00182014
0.143559
0.858411
-0.551659
-2.22945
1.18624
1.04321
-2.42206
1.93923
1.03906
0.556365
-1.59543
0.874062
-0.737264
1.46252
-0.531171
-0.931352
-1.12308
0.218472
-0.0973174
0.020317
-0.105909
0.235625
-0.0659455
0.160173
-0.0942273
0.582404
-0.0468654
-1.88091
-0.442903
0.662776
-0.249027
-0.0410872
-0.0505729
0.765809
-0.435196
-0.330613
0.878054
-0.526043
-0.179861
0.147233
-0.0865788
1.21931
0.125572
-0.0562734
-0.245153
-0.765929
-1.53978
0.516126
-0.0426451
-0.128856
0.166949
0.151902
0.155803
-0.10019
-0.54837
-0.31435
0.138795
-0.0986216
-0.0401738
0.216767
-0.916653
-0.16785
1.0845
0.0179312
0.0604637
0.00578133
1.35621
1.0322
-2.38841
-0.524435
0.772315
0.259216
-0.103494
0.594652
-0.843661
-1.05097
1.89463
-0.882003
-0.862923
0.320765
0.283987
-0.0919242
-0.192063
0.855899
-0.809841
-0.216457
2.01337
-1.20403
-0.226225
0.138346
-0.396696
-0.592661
-0.00866696
2.0191
-1.74111
-0.277987
-0.987379
-0.552404
-0.0874465
0.19812
0.0851737
-0.992009
-0.288199
1.28021
0.261846
-0.546859
0.515054
-1.56391
-1.25513
0.592196
0.662938
-0.239129
-0.00390917
0.243038
1.00337
-0.723036
-0.280331
0.130978
-0.199082
0.0953629
0.106323
0.673204
-1.63966
0.780267
0.20317
-0.477104
-0.317213
-0.0389525
0.031118
0.179778
0.0653236
-0.981977
0.0303533
0.416932
0.693746
-0.34821
-0.605009
0.671841
-0.0668317
0.832145
0.630378
0.420658
0.0432986
0.337314
0.232262
-0.569577
1.65401
-1.38223
-0.195343
0.386727
0.173845
0.0308185
0.112978
0.00419494
-0.0193618
0.00455162
-0.15554
0.548613
0.0152052
-1.75912
-0.0379361
-0.201193
-0.0865624
-0.035366
1.1115
-1.80624
0.709093
-0.327835
-0.381257
0.00533919
0.135816
-0.0204043
0.00408431
0.366192
0.0392752
0.124227
0.588411
-0.200753
-2.62241
1.26774
1.35466
-0.0775788
0.0185084
-0.0388785
0.142544
0.206949
-0.326261
-0.327872
0.881993
-1.72565
-0.0345461
-0.939841
2.29605
0.520021
-0.0924355
-0.427586
-0.474762
-0.383261
-0.100877
0.108928
-1.12779
0.3981
-0.678378
0.280279
0.48314
-0.345487
-0.137652
0.169717
0.962275
1.34196
-1.37828
1.38223
-2.86797
1.94141
0.926559
1.38729
-2.32713
2.66284
-1.35503
-1.08581
-1.1389
0.493702
-0.0855771
-0.109808
-0.3079
-1.48361
0.0515796
0.0186254
-1.30061
1.19501
-1.98008
0.785071
-0.0806927
0.316567
-0.334192
0.0553188
-0.101168
0.914243
1.23691
-2.32601
1.2827
-0.0899411
-0.792062
-1.33435
-0.571244
0.225757
2.12959
-2.11343
-0.0613897
-1.16372
0.0428358
1.11202
-0.946241
-2.04897
1.96453
0.0844415
0.309147
2.3444
0.391296
0.112212
-0.503508
1.43308
-0.859033
0.276703
0.0734247
0.605362
-0.637736
0.122683
0.150868
0.73598
0.637056
-1.37304
-0.410377
-0.224414
1.08502
-1.03906
-0.045961
0.691125
-0.598217
-1.49708
0.624441
0.872639
-0.370172
0.589347
-1.03056
0.161863
0.893808
-1.14647
0.321965
-0.624471
-0.0339948
0.0452533
-0.733499
0.422896
-0.946739
-1.45502
2.40176
-0.188229
0.215711
-0.513745
0.5958
1.28388
-1.87437
0.160534
1.29673
-1.7519
0.0719668
-0.0629474
0.247374
-1.25732
0.0753234
0.6065
0.535936
0.00610268
-0.487783
-2.56881
0.519253
-0.0911437
0.0265344
0.0646093
0.087685
-0.367766
1.15482
1.09673
1.32679
-1.02915
0.0674128
0.0231815
-0.0239245
0.500319
-0.436427
0.537115
-0.537579
-0.87088
2.25817
0.00182409
-0.00523341
-0.912952
-0.68574
1.59869
-1.22474
0.757698
-0.0804202
0.0394646
-0.0295184
-1.44735
-0.09571
-0.208408
0.606508
-1.46628
-1.15613
2.0191
0.578115
-1.18983
0.93629
-0.712561
-0.145551
0.466285
-0.248859
-0.299774
0.234408
-1.38049
0.397401
-0.866013
1.39239
-2.26327
-0.813261
-0.128482
0.404039
-0.245149
-1.80382
1.154
-0.961141
1.36184
0.644523
-1.73876
1.09424
1.48094
-0.50992
1.63944
-0.675858
-1.33812
2.01397
0.517365
1.33544
-1.0736
-0.645892
-0.609241
-1.81258
-1.05539
0.467484
-1.00366
1.58972
-0.586055
-0.163122
1.3703
-1.20718
-1.01836
-0.945807
1.96417
0.884647
0.20037
0.29404
0.404535
-0.288608
0.107948
0.18066
0.0744075
-0.31706
0.461031
-1.44841
-0.545778
-0.420463
-0.340188
-0.0616766
0.353793
0.390438
0.454925
-1.96018
1.01806
0.942119
-0.0508087
-1.61285
1.66366
0.0485545
-0.305032
0.110317
0.313692
-1.60226
1.60226
-0.49408
-0.0487164
0.542797
-0.460921
0.997554
-0.406583
-0.164661
-0.701519
-0.0798068
0.429089
-1.37828
0.209804
-1.35398
0.28915
1.21821
-1.28756
-1.25152
0.259513
-0.0393035
0.209118
-0.169815
0.176793
0.544035
-0.0619548
0.0154231
-1.03699
-1.2101
0.120542
1.08956
-1.37035
0.388613
-1.11122
-0.988442
-0.0724821
0.132175
0.192804
0.315721
-0.501045
-0.0491583
0.0243087
0.422116
-0.419826
-0.313672
-1.18851
1.57009
-0.381583
0.364374
0.192032
-0.218863
0.449927
-0.231063
-0.320526
0.130233
0.292944
-0.6572
0.364256
-0.939127
1.82173
-0.782661
-1.55498
-2.19238
0.579919
-2.18953
0.0613594
0.891681
1.08067
0.0993586
-0.985119
1.78657
0.408931
0.794367
-0.684529
0.629664
0.612717
0.261345
2.18357
-0.791177
-0.651813
-0.755781
1.40759
1.19055
-0.0878929
-1.10266
-0.053021
-0.100939
-0.243729
0.218586
0.177478
1.3555
-1.53297
-1.45891
1.23106
0.227851
1.45891
-1.70406
0.257804
-0.338497
-1.67008
1.01242
0.103583
-0.092789
0.0119795
-1.6626
0.117332
1.73057
-1.08605
-0.265203
-0.133451
0.135721
-0.49862
0.695833
0.296768
-0.097158
-0.0171371
0.370068
0.208016
-0.281958
-0.640156
-0.070926
0.614662
-2.07592
0.53528
-0.1135
0.521856
-0.408357
-1.05794
-0.922144
0.151498
0.63695
0.421645
-0.933055
0.163559
-0.433514
-0.206307
0.160712
-2.32824
1.24243
0.0557583
-0.0971163
-0.185706
0.0550649
-0.132796
-0.0676196
-1.35522
0.607467
-1.90251
1.29505
0.086008
0.29547
-0.381478
0.0639045
-0.255424
-1.09484
1.38399
0.281951
0.490364
1.29704
-1.18259
0.223324
0.0604772
1.66782
-1.90639
0.23857
0.483169
0.546414
-0.851379
0.0289085
0.403125
-0.566991
-0.0665913
0.0857243
-1.13976
-0.120945
0.126374
-0.00542981
-1.52654
0.223888
1.30265
-0.0857525
0.0774017
-0.00308554
-0.056079
0.0591645
1.21297
-1.15609
0.0610732
-0.078579
0.602119
0.177387
0.0911529
-0.0563892
-0.100766
0.089046
0.237049
0.680396
-0.917445
-0.435458
0.0213051
-0.917736
-1.02308
1.94082
0.168784
-0.0485527
0.272974
-0.824987
2.17657
-0.117687
0.106813
0.0787859
0.127328
0.104948
2.37385
-1.10378
-1.28561
0.902124
-0.504722
-1.30013
2.34334
-0.0967137
0.135989
0.0759401
-0.0878412
-0.010964
-0.242667
-0.339307
0.226976
-0.315106
0.592253
-0.276531
1.31852
0.149479
-0.0944144
0.208738
0.00582299
0.0464539
0.0750013
0.00886619
0.46985
-0.889676
0.246877
-0.287188
0.0403116
0.174073
-0.0859631
0.28476
0.641349
-0.926109
-0.294113
0.168237
0.399862
-0.481091
2.53429
-1.01982
1.02671
0.886509
0.0199927
0.436214
-1.29605
0.384234
-0.537864
-0.349032
0.742615
1.4565
-1.55521
1.55521
1.45659
-0.936894
1.07021
-0.0783305
1.55004
-1.47171
0.910777
1.03367
1.29328
-2.24002
0.0970265
-1.05591
-1.34906
-0.159057
-1.46202
1.62107
-0.450403
-0.181928
0.0912329
1.284
0.21667
-0.320187
-0.674371
1.65399
-0.979622
-0.192338
0.315021
0.0205904
-0.00944758
-0.0435731
2.54413
-1.0795
-1.46462
1.55825
-1.45065
1.09834
0.258033
0.0277586
-0.00566068
0.00213455
1.56571
0.467851
0.580652
0.973626
0.0286994
0.232378
-0.261077
-0.39972
0.25033
0.214369
-0.231683
0.0173142
0.191107
-0.260481
0.0693745
0.382447
-0.374838
0.370703
-0.589336
0.570863
-0.536258
0.0571811
0.0294811
-0.00170437
0.0473932
-0.255074
0.207681
0.113153
-0.111679
-0.00147343
2.11343
-1.68211
0.096565
-0.123676
0.0271107
-1.54121
-0.395341
0.303592
-0.998638
1.90941
0.295962
-0.380368
2.51822
-1.22494
0.282692
-0.362593
-0.192602
0.591809
-1.27552
-0.578037
1.35616
1.3721
-1.12472
-0.101245
0.188272
-0.138022
-1.47626
-0.33848
0.330744
0.2799
-0.424582
-0.423946
0.328715
-0.123733
-1.34206
1.28918
-1.44363
1.51508
-1.12317
-0.610779
0.450746
0.761826
0.435253
-0.483421
-0.0950938
0.187576
0.376489
-0.564065
-0.415072
1.38081
-0.764541
-1.19975
-2.13096
-0.108266
0.104019