/*--------------------------------*- C++ -*----------------------------------*\
| =========                 |                                                 |
| \\      /  F ield         | OpenFOAM: The Open Source CFD Toolbox           |
|  \\    /   O peration     | Version:  2306                                  |
|   \\  /    A nd           | Website:  www.openfoam.com                      |
|    \\/     M anipulation  |                                                 |
\*---------------------------------------------------------------------------*/
FoamFile
{
    version     2.0;
    format      ascii;
    arch        "LSB;label=32;scalar=64";
    class       volVectorField;
    location    "9.9";
    object      U;
}
// * * * * * * * * * * * * * * * * * * * * * * * * * * * * * * * * * * * * * //

dimensions      [0 1 -1 0 0 0 0];

internalField   nonuniform List<vector> 
5098
(
(2.21892 0.875725 0)
(2.04541 0.0486932 -9.08058e-20)
(2.4282 -0.0434627 -2.39809e-21)
(1.82377 -0.80464 3.16961e-19)
(4.04472 -0.82671 0)
(1.14306 -0.546767 0)
(2.45062 0.0199946 2.13167e-19)
(3.14228 -0.0525402 1.64984e-21)
(2.63477 -0.069321 -5.16398e-20)
(1.39763 0.203674 2.89888e-19)
(-2.73525 1.01593 0)
(1.90378 -0.00317969 5.95718e-20)
(2.35936 0.665502 2.81944e-20)
(1.17288 -0.573144 0)
(2.87254 -0.542792 2.09897e-19)
(1.77354 0.0673475 -2.23008e-21)
(0.52289 -0.234778 -1.81017e-18)
(-1.90109 0.465414 0)
(-0.202431 0.130249 8.68283e-20)
(1.10006 -0.579712 2.05016e-18)
(1.7826 0.353344 -9.64056e-20)
(1.70464 0.0597906 -9.14831e-21)
(2.73629 -0.770893 0)
(1.03071 -0.19221 2.57686e-20)
(0.505187 -0.325988 0)
(1.739 -0.700287 0)
(1.9892 -0.0199471 1.27673e-19)
(2.25444 -0.87116 -3.12141e-20)
(-0.306181 0.128444 -2.73233e-19)
(2.73742 -1.04859 0)
(2.211 0.0370627 -3.9375e-20)
(0.932566 -0.457718 0)
(2.1231 0.0405388 -1.03325e-19)
(-1.92463 2.93551 0)
(2.38423 0.383657 5.12827e-20)
(3.49998 0.71985 3.80446e-19)
(2.16826 -0.410726 4.1669e-20)
(2.14798 -0.0189133 -9.74841e-22)
(1.57975 -0.542173 3.65482e-19)
(2.0139 -0.864469 0)
(1.84637 -0.825655 -1.30862e-19)
(-0.422473 2.27149 -5.3368e-19)
(1.76677 -0.703424 0)
(2.25458 -0.410714 1.30569e-19)
(2.24459 0.577998 -1.22168e-19)
(2.01323 0.035626 1.21267e-20)
(-0.169812 -0.295803 5.55714e-19)
(1.33015 -0.492587 0)
(2.20654 0.0362842 0)
(1.81729 -0.765527 3.47664e-20)
(2.14288 0.108725 1.87365e-19)
(1.67801 0.257617 -4.80317e-19)
(0.297862 -0.11084 9.23429e-22)
(2.18215 -0.0515366 8.4673e-20)
(1.20254 -0.595689 -1.90151e-19)
(1.70664 -0.0316192 0)
(1.88991 0.142021 -2.54473e-19)
(1.93377 -0.756829 0)
(1.09028 -0.537494 0)
(2.1858 -0.0879334 -5.00901e-20)
(1.64198 -0.675959 -1.9781e-20)
(1.11752 -0.745287 -1.37681e-18)
(2.37145 0.376845 0)
(2.21593 0.671083 0)
(0.412243 -0.119209 8.38193e-19)
(1.04045 -0.522551 2.9261e-19)
(2.72601 0.0537499 -6.25585e-21)
(2.21128 0.15519 4.88612e-20)
(2.29572 -0.126844 2.4576e-20)
(1.99493 -0.80959 5.99514e-20)
(1.91477 0.0781159 5.36727e-21)
(0.690497 -1.3734 -5.68665e-20)
(2.39498 -0.865827 0)
(-0.44295 1.50656 0)
(1.953 -0.441727 2.71938e-20)
(1.41715 -0.687393 -1.70923e-19)
(1.75422 -0.293131 0)
(1.63635 0.0327073 3.73182e-19)
(1.87788 -0.195085 1.42451e-19)
(1.73204 0.0116259 0)
(1.85429 -0.152542 0)
(0.298233 1.29377 5.84005e-20)
(1.93101 -0.347138 2.93244e-19)
(-2.24265 3.4069 -3.3541e-19)
(-2.22372 0.887441 4.90463e-19)
(2.53736 -0.974246 -1.07559e-18)
(0.432078 -0.0134287 -2.64525e-19)
(1.77849 -0.283367 2.21686e-21)
(3.06666 0.109706 5.28719e-20)
(1.53506 -0.656361 -1.74968e-20)
(2.30211 0.0579698 3.79577e-22)
(0.770349 -0.547177 2.37199e-19)
(2.47923 -0.0172313 -7.93553e-20)
(1.83881 -0.783924 -1.68664e-19)
(1.56109 -0.566609 6.42436e-20)
(0.335827 -0.648679 -3.3992e-20)
(1.36975 -0.670846 -7.01211e-20)
(1.58475 0.100176 2.8621e-19)
(1.91403 -0.416685 1.0619e-20)
(2.38663 -0.354287 2.66567e-20)
(1.30958 1.04022 -8.85386e-19)
(1.27179 -0.624055 -2.09698e-19)
(2.6592 2.87671 -1.75283e-18)
(2.39287 -0.105384 6.62712e-22)
(1.6535 0.0164788 -4.24195e-19)
(2.12177 0.903088 0)
(1.93758 0.125942 2.75714e-19)
(2.29031 0.0940562 1.2971e-19)
(1.27315 -0.53623 5.80576e-20)
(-2.44922 0.873689 0)
(1.35208 -0.641731 -2.66984e-19)
(0.752336 0.266826 1.15056e-19)
(1.98759 -0.00662243 -1.63341e-19)
(0.925442 -0.592989 7.40477e-20)
(1.73952 0.420184 1.41978e-19)
(-0.444138 0.284014 0)
(0.776368 1.35655 2.81798e-19)
(2.20079 1.18863 0)
(1.56842 -0.194785 -2.33242e-20)
(1.07062 -0.230858 -3.8768e-19)
(1.7195 0.245164 3.94607e-19)
(1.30894 1.33722 -6.38685e-19)
(1.30365 0.106927 -1.89237e-19)
(-0.747725 1.81522 -2.89437e-19)
(0.170701 -0.645244 -3.20322e-19)
(1.64237 -0.868845 2.24622e-19)
(2.32774 -0.0384279 6.81829e-20)
(2.66701 -0.744875 3.41642e-19)
(1.55868 -0.277809 -8.69846e-20)
(0.832874 -0.553874 -1.28646e-19)
(-0.798576 1.33272 -3.85698e-19)
(1.37033 -0.615656 -4.03511e-19)
(1.39525 -0.611393 3.34948e-19)
(2.1256 1.18256 5.5467e-20)
(-0.057097 -0.125384 -3.40964e-18)
(3.56962 0.482183 4.03426e-19)
(1.52649 1.67869 -4.5108e-19)
(1.92225 0.124519 1.95563e-19)
(1.1022 -0.541617 0)
(2.18762 -0.0501783 -2.85767e-19)
(1.63906 0.315584 -3.26241e-19)
(4.50142 0.741471 1.23751e-18)
(2.21912 -0.946654 -1.54338e-19)
(2.392 -0.0372516 -1.13322e-20)
(2.04192 0.0422377 -8.62594e-20)
(2.42375 -0.086518 0)
(2.27356 -0.145252 4.62661e-20)
(3.36493 -1.35708 0)
(2.84163 0.0711831 1.71145e-19)
(2.2524 -0.958943 -1.49346e-19)
(0.599459 1.90147 -4.82486e-19)
(1.18278 0.875341 0)
(3.82843 -1.18299 5.45455e-19)
(2.08624 0.030582 0)
(0.442843 -0.0758325 -3.14626e-19)
(1.06713 -0.45715 -1.52957e-19)
(1.93426 -0.759025 -1.33482e-19)
(1.15023 0.27406 -7.14448e-19)
(1.80466 -0.828199 -1.14332e-19)
(-0.104094 0.0491833 2.98863e-19)
(2.23709 -0.384373 -6.29287e-20)
(2.89839 -0.604546 -2.55946e-19)
(0.462132 0.73945 -1.4005e-19)
(1.98971 -0.186791 -1.76801e-19)
(-0.906918 0.31206 -3.31863e-19)
(2.14534 -0.0264894 -7.60676e-20)
(4.10247 -0.928042 -1.88978e-18)
(2.92025 0.0892219 0)
(0.359129 -0.224744 3.282e-19)
(1.9729 -0.610117 -1.75568e-19)
(0.185527 -0.726 2.42612e-20)
(1.81835 -0.731639 -1.21717e-19)
(2.07653 0.462761 2.82147e-19)
(2.23476 -0.825333 -7.2965e-20)
(2.52401 -0.0312494 0)
(1.94423 0.00421393 0)
(1.95222 -0.333848 -1.0361e-19)
(3.00263 0.717234 -2.69712e-20)
(1.92988 -0.194657 2.80455e-19)
(0.586899 -0.173663 0)
(1.44871 1.76826 0)
(1.05009 1.20824 -1.01611e-19)
(2.05377 -0.575568 1.62727e-19)
(-0.764162 0.340792 0)
(2.02176 -0.197162 0)
(2.4223 0.762276 -2.58266e-19)
(1.61991 0.116893 0)
(2.18972 -0.408819 1.16586e-19)
(1.25825 -0.608584 3.08209e-19)
(0.13014 -0.126651 -1.80634e-19)
(0.853174 0.543409 0)
(1.56057 1.07114 -1.58739e-19)
(2.42948 -0.894619 0)
(1.98576 -0.475055 2.94338e-20)
(2.1722 -0.00443351 7.92267e-21)
(1.00286 -0.549522 -3.01755e-19)
(1.66241 0.44877 -1.3505e-23)
(3.9362 0.57061 0)
(2.14709 0.0406324 7.63914e-21)
(2.01323 -0.585377 -2.35321e-20)
(-0.268538 0.6623 -6.46919e-19)
(1.73789 0.200309 5.88907e-21)
(2.24392 0.591706 -8.69569e-20)
(2.33649 0.015904 1.00794e-20)
(1.57557 0.00403688 1.07478e-19)
(1.03401 -0.451932 -1.08212e-19)
(2.63184 0.144643 3.70115e-21)
(1.44597 -0.666872 0)
(2.42913 -0.023071 0)
(1.80922 -0.838572 2.83309e-19)
(2.10554 -0.132945 -8.40446e-20)
(1.77398 0.173218 3.0907e-19)
(1.70757 1.17041 1.56003e-19)
(2.04707 0.0453787 -3.2891e-19)
(2.59059 -0.0560867 -2.50864e-19)
(-0.119615 0.157702 -6.83029e-20)
(2.04998 -0.507038 0)
(-2.17432 0.447677 -1.4643e-18)
(0.357331 -0.561436 4.20731e-20)
(1.99689 0.0324729 1.92198e-19)
(2.27248 0.0879313 1.2298e-21)
(1.81437 -0.393814 0)
(2.68828 0.0553961 -7.91604e-21)
(2.3228 0.0241804 -3.22344e-20)
(1.00927 -0.370016 9.27858e-20)
(2.18256 -0.106781 0)
(0.687971 -0.270104 0)
(1.99313 0.0101181 0)
(2.33252 -0.395911 0)
(3.08766 -0.902998 -1.03256e-19)
(1.78585 0.27498 0)
(0.854038 -0.401451 -4.15095e-19)
(1.17118 0.557985 -1.05034e-20)
(1.83408 0.0478237 8.12454e-21)
(2.49949 -0.0718008 -5.62276e-20)
(2.21057 -0.0625769 0)
(1.34992 1.01465 -3.81844e-19)
(0.442082 0.255964 -7.14802e-19)
(3.03149 0.495921 0)
(1.94455 -0.0603078 2.33791e-19)
(0.0457841 1.36474 -2.39347e-19)
(2.09512 0.489517 0)
(2.72152 -0.0361936 0)
(1.28568 -0.395887 6.5843e-19)
(1.77918 0.302604 -4.62005e-19)
(2.27483 0.0141532 -5.57448e-20)
(1.30855 -0.623654 5.96616e-20)
(-2.31087 0.613004 -1.22283e-18)
(-0.10298 -0.07888 0)
(2.34127 0.00372875 1.86033e-20)
(2.00116 0.642099 -2.87058e-19)
(2.28241 -0.858524 -1.22717e-19)
(-0.66847 0.238643 1.3826e-19)
(0.116485 0.206435 3.3871e-19)
(2.03936 -0.00273619 -1.75133e-19)
(0.357444 0.348421 6.71198e-19)
(0.360713 -0.0108532 2.98809e-18)
(0.817624 0.736579 -1.2396e-19)
(1.36514 -0.510408 -2.56748e-19)
(1.66426 0.0246677 1.91016e-20)
(2.43045 0.759094 -5.15827e-20)
(0.607566 -0.155788 3.83665e-19)
(0.531868 -0.329948 4.62764e-19)
(2.34131 -0.914042 0)
(2.24906 0.0880731 2.34654e-21)
(0.243088 -0.507621 3.84805e-19)
(-0.0707745 0.0418388 -3.52079e-19)
(-3.1572 1.3248 0)
(0.289453 -0.325429 0)
(1.95221 -0.0525 -2.15403e-20)
(0.327375 -0.0685736 2.22474e-19)
(1.74179 0.0676282 -2.06554e-19)
(-0.182537 0.0713439 -1.57699e-19)
(0.451372 -0.40526 0)
(1.37277 -0.567632 2.82085e-21)
(2.46199 2.9698 -1.12523e-18)
(-0.647063 2.14824 -7.50898e-19)
(1.27026 1.93425 0)
(2.95117 -0.387382 0)
(2.10309 -0.111514 0)
(-0.756945 1.06985 -2.27075e-19)
(3.05908 -0.13259 1.70801e-19)
(1.1272 -0.337168 -4.00513e-19)
(2.93609 -0.0762299 -1.8977e-19)
(4.47953 0.484582 -1.16236e-18)
(0.445791 0.986015 0)
(2.02718 -0.00969945 0)
(2.63468 -0.0744472 2.22887e-20)
(2.21183 -0.047962 6.17035e-20)
(1.48987 0.00174875 -9.96424e-20)
(-0.501303 1.95431 0)
(-1.19385 -0.428377 2.53607e-19)
(1.28515 -0.227959 -1.99968e-19)
(2.26085 0.460306 -1.32252e-19)
(2.37349 -0.592912 -8.2026e-20)
(1.14212 0.154452 -1.42572e-19)
(2.43981 0.128177 0)
(2.19109 0.00398522 -4.86969e-20)
(2.04173 -0.0218836 0)
(2.1015 0.0114334 -1.04129e-19)
(2.26794 -0.152512 -1.87832e-20)
(2.68114 0.135316 -1.46682e-20)
(1.81808 -0.482199 3.06793e-19)
(1.84545 0.281157 2.66569e-19)
(0.366182 -0.596397 -6.15794e-19)
(2.13355 -0.80245 -8.3033e-21)
(2.01263 1.46624 4.15268e-20)
(2.06811 -0.00622296 0)
(2.08569 -0.41157 0)
(-0.241152 -0.319103 0)
(2.31453 -0.0103102 8.79958e-22)
(-0.834591 0.172794 1.5543e-20)
(1.06105 -0.523115 2.33071e-19)
(2.13412 -0.0792823 -1.00205e-19)
(2.43377 0.750621 1.74322e-19)
(0.487651 -0.162018 6.2428e-19)
(1.53337 1.6668 1.26863e-19)
(2.65743 0.0388684 8.89812e-21)
(2.28771 -0.022473 1.55436e-19)
(1.10913 -0.493646 0)
(1.93737 -0.221946 -1.82416e-19)
(-1.09713 -0.400534 -4.54565e-19)
(3.10074 0.367927 -2.30337e-19)
(-0.139397 -0.362067 -1.30289e-20)
(1.88483 -0.401203 9.31744e-21)
(1.5577 -0.513326 2.59501e-19)
(1.9831 0.705418 0)
(2.00009 0.0327156 -9.01068e-20)
(1.28645 -0.53789 -6.08108e-19)
(1.69386 -0.211649 2.29489e-20)
(1.6113 -0.762115 0)
(2.34243 -0.0377207 -4.7663e-20)
(1.27403 -0.613073 1.62759e-19)
(3.08959 -0.440245 4.69116e-19)
(2.03011 -0.805174 -6.13687e-20)
(2.23497 0.071798 -1.84011e-19)
(2.32144 0.22843 -2.14511e-20)
(1.20727 -0.595031 2.19333e-19)
(2.22443 -0.025627 8.59583e-20)
(2.1013 -0.368524 0)
(2.24033 -0.952818 1.5002e-19)
(1.97199 -0.809303 -2.56263e-19)
(1.92269 -0.119456 3.75918e-20)
(2.00857 0.00833034 3.42007e-20)
(1.4023 0.958395 0)
(1.83551 -0.34507 0)
(2.18714 -0.0157177 -8.44854e-20)
(0.342295 0.255726 6.98458e-20)
(2.25414 1.15473 0)
(2.22445 -0.00140961 5.86282e-20)
(2.74561 -1.12354 -1.69743e-20)
(1.10715 0.0959415 -5.55933e-19)
(1.10107 -0.490184 -3.43687e-19)
(-0.406475 0.819162 2.38929e-19)
(2.0212 -0.109522 6.27649e-20)
(-0.538374 0.799996 9.31896e-19)
(4.13033 0.372089 -6.20778e-19)
(1.86183 -0.0125338 0)
(1.58604 -0.238443 -7.71455e-20)
(0.915352 -1.62073 0)
(1.98184 0.0282589 -4.24892e-19)
(2.28245 -0.324446 0)
(1.96434 0.0121143 -5.34914e-20)
(1.74687 -0.22904 1.51822e-20)
(2.24924 -0.381835 -1.12055e-19)
(1.34954 -0.544739 3.38683e-19)
(1.994 0.00357635 -3.17445e-19)
(1.99127 0.137827 -5.41313e-19)
(2.87405 -1.03033 0)
(0.173333 0.43451 0)
(1.42383 -0.57947 -3.19745e-19)
(2.13955 -0.402897 0)
(3.05121 0.986325 -2.9798e-19)
(1.59466 -0.525369 0)
(0.299337 -1.17172 7.61775e-20)
(0.961238 -0.753085 1.21654e-18)
(2.03339 -0.615788 2.03708e-19)
(1.23239 1.32827 2.52696e-20)
(2.83747 0.0526762 0)
(1.71958 -0.234365 -1.76104e-20)
(1.79062 0.0198176 -1.33578e-19)
(1.84445 -0.862916 -2.49685e-19)
(2.00234 -0.0137611 -1.59794e-19)
(2.7204 0.134961 1.86744e-21)
(2.43932 -0.227961 -4.45316e-20)
(2.57007 1.0536 5.98311e-21)
(2.31889 0.419722 1.51776e-19)
(0.346601 0.199123 -1.44083e-19)
(1.94135 -0.546417 0)
(3.08905 3.04711 1.79162e-18)
(1.99401 0.0454638 -1.6183e-19)
(1.95591 -0.00630672 0)
(1.99999 -0.00213717 1.21049e-19)
(1.43444 -0.682066 -1.07458e-19)
(1.50263 0.893755 2.96906e-19)
(2.10573 0.372418 0)
(1.65622 -0.777308 5.78995e-20)
(-0.820811 -0.993012 0)
(2.14188 0.0399745 7.81654e-20)
(3.06352 -0.298356 -2.34159e-19)
(0.222781 0.835865 4.46787e-19)
(1.2558 -0.247065 0)
(1.64487 0.110862 2.05015e-19)
(1.9852 0.014071 1.34851e-19)
(-0.365446 0.230409 0)
(1.56351 0.0234813 0)
(2.15163 -0.111426 0)
(0.633073 -0.370923 1.07706e-18)
(1.31284 1.42318 4.75483e-20)
(2.94422 0.167464 0)
(1.99552 0.00824591 0)
(1.15991 -1.8308 1.04112e-18)
(0.905688 -0.0502251 0)
(2.23029 0.400225 1.08598e-19)
(2.37969 1.1186 -5.14325e-20)
(1.87849 -0.686766 -6.03656e-20)
(1.80607 0.246562 -6.23379e-21)
(1.09168 0.169302 6.38296e-19)
(2.34725 1.25164 5.06134e-21)
(2.23642 0.0501039 6.80979e-22)
(2.21066 -0.0356008 7.61533e-20)
(1.77141 -0.240624 -1.74108e-19)
(1.28263 -0.721919 5.29111e-21)
(2.01214 -0.00432504 0)
(-0.780228 0.914728 -9.01895e-19)
(0.633466 -0.573759 0)
(-0.548105 1.38485 -1.74817e-19)
(2.92315 -1.82121 0)
(1.68326 -0.490156 0)
(1.70347 -0.78854 4.62711e-20)
(2.4146 0.0985063 1.02534e-20)
(-0.23031 0.0494894 -3.09495e-19)
(2.17144 0.0120575 -9.79445e-21)
(2.13678 -0.769347 1.77962e-20)
(2.51525 1.08494 -3.06867e-20)
(-0.311402 -0.367812 2.81765e-19)
(2.65862 -0.0023793 9.78362e-21)
(2.65074 -0.863809 -2.2383e-19)
(1.96724 0.00787575 -2.85805e-19)
(-0.00658827 -0.570467 0)
(1.9599 -0.156649 -2.89473e-19)
(2.1003 -0.470889 1.07083e-19)
(1.99388 0.0602151 -6.74889e-19)
(1.55271 -0.49657 -1.57319e-18)
(1.44943 0.86921 -2.02979e-19)
(2.32071 1.15566 -4.7213e-20)
(3.23426 0.682969 0)
(2.75993 -0.553761 0)
(0.0654086 0.0716859 -1.01313e-19)
(2.21014 -0.0593572 4.57901e-20)
(-0.778169 -0.0765804 0)
(2.28888 -0.0041865 -3.88494e-20)
(2.00504 -0.0118445 -2.72793e-19)
(0.830328 -0.129532 -1.02656e-18)
(-1.77355 0.635011 3.86629e-18)
(2.38225 -0.262537 -2.10608e-21)
(-0.813374 2.15116 -1.91465e-20)
(2.37161 0.133731 1.94103e-19)
(2.22325 -0.381286 2.70763e-20)
(2.8033 1.16867 1.191e-19)
(1.77945 -0.72409 1.67984e-19)
(1.66632 -0.231976 3.81371e-21)
(1.18186 0.0567739 4.53529e-19)
(1.61056 1.69993 0)
(1.94175 -0.517066 1.00579e-19)
(-2.0625 0.360175 0)
(1.06364 -0.43727 -1.00856e-18)
(-0.0428936 2.14944 0)
(0.981511 -0.655709 -2.60331e-18)
(1.89987 -0.788793 -1.65319e-19)
(0.519152 0.402657 -4.5273e-20)
(2.9038 -0.982668 0)
(-1.77731 1.56633 0)
(3.11524 0.573926 0)
(1.99924 0.0581599 1.18911e-19)
(-0.0607509 -0.900709 -4.56132e-19)
(-0.0861035 0.321542 2.12046e-19)
(1.78777 -0.379314 -7.51141e-21)
(2.7334 1.2149 -1.83988e-19)
(2.02496 0.179296 0)
(1.1343 1.27812 5.74894e-19)
(2.07145 1.09712 -1.16279e-19)
(-0.690982 -1.0785 -1.6924e-19)
(2.08514 -0.916939 -2.19469e-19)
(2.013 -0.47511 1.41368e-20)
(1.49401 -0.706094 6.87236e-20)
(2.14122 0.415269 0)
(3.06105 -0.280206 2.2318e-19)
(0.695952 0.56037 1.84424e-19)
(2.04775 -0.0235801 8.57755e-21)
(3.00763 1.11058 -1.29305e-19)
(3.4884 -1.68784 0)
(2.28669 0.707887 0)
(-0.135831 -0.0238372 0)
(0.475977 -0.467268 0)
(1.70398 0.0437192 0)
(1.64397 -0.628062 9.24584e-20)
(3.0096 1.28357 2.39597e-19)
(1.69066 -0.702426 2.25785e-19)
(2.09361 0.0488351 1.94953e-19)
(-1.78751 0.361887 0)
(2.65332 -0.928135 1.31723e-21)
(-0.251906 0.367503 0)
(-2.48037 0.910897 -1.02187e-18)
(-0.194936 0.158785 1.28775e-19)
(2.77148 0.963717 -1.82396e-19)
(1.97628 0.0472035 3.39428e-19)
(1.99362 0.178938 -1.2768e-19)
(2.64172 0.480619 -6.26469e-20)
(2.49381 0.017809 0)
(-0.19732 -0.664538 3.07284e-19)
(2.00147 0.00358972 0)
(1.51539 0.572192 1.69584e-20)
(2.19652 -0.063634 0)
(2.03698 0.145715 -1.81728e-19)
(2.15553 -0.0451781 0)
(1.14464 -0.471843 -2.43645e-19)
(0.385321 -0.277928 7.0814e-19)
(2.82397 -0.223714 -1.60577e-19)
(1.47994 0.162537 4.18365e-19)
(0.817786 -0.491681 -2.17383e-18)
(3.98207 -0.902668 0)
(1.25506 -0.371906 -9.32693e-19)
(1.62318 -0.241164 -7.74404e-21)
(2.91699 0.64188 -4.87753e-19)
(1.61194 0.0306357 -1.00449e-20)
(1.44968 0.619607 8.49436e-20)
(1.65834 0.861249 0)
(2.16969 -0.913884 1.37371e-20)
(2.34492 -0.978903 0)
(2.03743 -0.0310307 1.55122e-20)
(0.74415 -0.309507 6.62282e-20)
(-1.51764 0.984772 0)
(2.26539 0.391499 0)
(-0.527656 0.828382 -1.76904e-18)
(2.24822 0.649211 0)
(1.45457 1.25856 5.76992e-19)
(2.47219 0.987095 1.80854e-20)
(1.06582 -0.45236 -3.15168e-19)
(-0.537911 0.229033 -1.72952e-18)
(1.98453 0.00434851 -1.70459e-21)
(1.1629 3.27234 -2.97034e-19)
(0.26602 -0.149464 -4.47148e-19)
(1.97203 -0.0437479 3.43465e-19)
(1.10386 -0.374865 1.16693e-18)
(1.31169 -0.750294 0)
(2.33259 0.200523 1.3402e-19)
(-1.64901 0.92497 2.28902e-18)
(0.694843 -0.0590066 7.51904e-20)
(3.03415 0.863701 3.16856e-19)
(2.20606 1.38909 0)
(2.08594 -0.521277 -1.09573e-19)
(1.62266 -0.397114 8.10198e-22)
(1.03366 0.655046 -1.94108e-20)
(2.93293 0.0658556 -1.93815e-19)
(-2.76979 1.68777 9.11282e-19)
(-1.1327 1.45265 5.13584e-19)
(1.70563 -0.686571 -5.57137e-20)
(-1.76167 0.597362 -9.53126e-20)
(3.06418 0.113725 -2.84515e-19)
(-2.71048 1.36806 -1.02522e-18)
(3.5093 -1.37779 0)
(2.0499 -0.161646 -2.52335e-19)
(-0.927567 0.0889758 0)
(-0.571011 3.54527 -1.65992e-18)
(-0.564899 0.326145 1.15814e-19)
(-0.839918 0.135244 2.47821e-19)
(1.78496 -0.255034 4.71758e-21)
(0.572266 -0.347134 6.96097e-20)
(-0.794625 0.390917 0)
(2.85459 -0.731525 -8.24566e-19)
(3.07021 -0.95112 -4.35394e-19)
(-0.913972 0.266505 -2.38684e-19)
(1.75588 0.343414 0)
(1.68657 0.29581 0)
(0.503843 0.0600562 0)
(0.0729069 -1.30356 -6.54753e-19)
(2.00044 -0.0756579 -3.04314e-19)
(1.46695 -0.0115535 0)
(1.60921 0.705259 0)
(2.19494 0.155233 -5.67941e-20)
(0.410063 2.01771 -7.08326e-21)
(2.04314 0.210279 -5.65873e-19)
(4.27081 1.39548 -1.8476e-18)
(1.58041 0.0267824 1.4518e-19)
(2.13987 -0.138479 -7.83486e-20)
(1.7439 -0.247094 2.27126e-20)
(1.89046 0.382361 -3.64336e-20)
(1.6735 0.904793 0)
(0.266701 -0.176939 -4.91468e-22)
(-0.733175 -0.770716 0)
(1.22503 -0.0586624 0)
(2.73726 0.501616 -3.5631e-20)
(-1.61009 0.552089 0)
(2.33708 0.406715 0)
(2.06041 -0.129445 3.93434e-19)
(2.503 -0.963848 0)
(1.99319 0.127122 5.48857e-19)
(2.99349 0.980138 1.29488e-19)
(2.81138 0.915864 3.62099e-20)
(1.62081 -0.210671 -2.96772e-21)
(1.15488 0.791922 3.29847e-19)
(2.95486 -0.843802 -1.68962e-20)
(3.40067 -0.912428 7.75189e-20)
(1.39743 -0.559813 3.19947e-19)
(0.350703 0.778775 0)
(1.18047 -0.583035 0)
(-0.107264 0.0992199 -8.88506e-19)
(0.377082 -0.299705 -9.4251e-19)
(-1.56228 2.49352 0)
(0.914027 0.604273 2.50086e-18)
(0.260655 -0.10838 0)
(-0.511373 -0.567498 2.91984e-19)
(1.35894 -0.632924 -3.95748e-19)
(3.13498 0.856051 -6.37398e-21)
(2.72949 0.996652 5.75031e-20)
(1.44377 -0.516931 6.31903e-20)
(2.99934 0.0568271 1.05205e-19)
(2.08615 0.791097 0)
(2.1503 0.794369 0)
(1.27359 -0.171042 0)
(-0.551379 0.342596 -1.39221e-19)
(1.64625 -0.62679 0)
(2.08594 0.585729 0)
(1.60411 0.0314149 0)
(1.98965 0.779102 7.45655e-20)
(0.590748 -0.574267 1.29433e-19)
(2.51421 -0.77336 1.83156e-19)
(-0.0793629 -1.03795 1.87777e-18)
(1.76907 -0.580127 0)
(-1.39532 1.30136 0)
(2.37584 -0.514746 7.52977e-20)
(1.6084 0.317565 6.94002e-19)
(0.488115 -0.28687 -4.07686e-19)
(2.47428 -0.0917208 1.68053e-21)
(1.97782 -0.488159 1.70506e-19)
(1.15025 0.20849 -1.03299e-18)
(0.447606 -0.279272 0)
(1.19115 0.897531 -7.95065e-19)
(0.650984 0.0323906 -6.40392e-19)
(2.86706 0.835894 0)
(2.22266 0.00571678 0)
(2.41338 -0.0186439 0)
(2.03838 0.0185764 -3.78215e-19)
(1.54279 0.0982422 -4.18816e-19)
(1.74465 -0.0025605 0)
(1.94404 1.1545 2.8562e-19)
(2.17483 -0.911693 -5.20058e-20)
(2.10449 0.366421 -2.28874e-20)
(0.0712037 -0.263452 6.00913e-19)
(2.25539 -0.177584 0)
(2.43997 0.111431 -1.24415e-19)
(2.01454 -0.431042 0)
(-1.85658 1.32499 -2.22977e-18)
(2.09544 -0.90289 0)
(2.68818 -0.673675 -6.265e-19)
(4.02867 1.39615 2.00659e-20)
(2.19642 -0.617483 6.34875e-20)
(2.17939 0.384247 0)
(2.1735 -0.861944 0)
(1.86691 -0.785496 -2.03693e-19)
(2.21851 0.37001 -1.19977e-19)
(-2.82138 1.08037 5.85954e-19)
(1.08014 -0.522256 3.3472e-19)
(2.04494 -0.0939533 0)
(1.66101 0.0555343 -6.13196e-19)
(2.36544 0.0118717 -1.46781e-19)
(0.702712 -1.62466 -8.42948e-19)
(2.02091 -0.53749 3.36664e-20)
(1.87561 -0.18598 0)
(1.41585 -0.471321 4.62263e-19)
(1.17721 -0.0272662 -6.12978e-19)
(2.87666 1.11873 3.77496e-21)
(1.8444 0.102364 -7.54127e-19)
(0.0109237 -0.400257 6.13313e-19)
(0.0493168 0.749767 -7.48212e-19)
(2.96455 1.85741 1.56092e-18)
(2.16903 -0.0252817 -2.30088e-20)
(0.237445 0.273673 2.19172e-19)
(-0.16263 0.0884768 -2.18765e-21)
(-0.604452 -0.101837 1.07582e-18)
(-2.61046 0.931903 1.07756e-18)
(1.96282 -0.227912 9.45718e-20)
(2.22293 0.0478593 0)
(0.218565 -0.542235 3.44645e-19)
(1.51171 -0.717495 1.5394e-20)
(1.87898 -0.286074 1.5009e-19)
(-0.204723 0.241317 0)
(1.84826 -0.441741 -3.63729e-20)
(1.67745 0.0828183 -3.06062e-21)
(2.12433 0.0209752 0)
(0.821475 -0.132998 3.07765e-19)
(-2.66138 1.92467 4.37086e-19)
(1.76781 -0.458195 0)
(1.27935 -0.510264 0)
(1.21582 -2.05344 -1.00757e-18)
(0.854582 -1.4135 -3.10092e-19)
(2.68929 0.478982 8.4184e-21)
(-0.356362 0.272054 0)
(1.98223 0.0108996 -2.01413e-19)
(4.15166 -0.499156 -3.82718e-19)
(2.81685 -0.537943 -6.00398e-20)
(1.44959 -0.578018 3.88112e-19)
(-1.15287 0.247211 -7.02291e-19)
(-2.17635 0.953596 4.68262e-19)
(3.2095 1.15396 -3.2688e-21)
(1.36448 1.68644 0)
(1.48718 0.749593 -2.23118e-19)
(1.8479 -0.717043 1.13212e-19)
(1.64691 1.45137 -5.31135e-20)
(1.02641 0.300452 0)
(1.37316 -0.375606 -4.33102e-19)
(1.45862 -0.624468 -4.63476e-19)
(-0.703843 0.396637 6.44221e-19)
(0.246078 -0.655875 -3.89892e-19)
(1.80753 1.28509 0)
(-0.124653 0.415353 -1.34381e-19)
(2.15942 0.472136 0)
(-1.18326 -0.836523 -2.89388e-19)
(-0.0544388 0.786463 3.66836e-19)
(-0.0506496 0.0950131 0)
(-1.3217 0.563738 2.60608e-19)
(1.80145 -0.180493 -7.1442e-20)
(0.874631 -0.576131 1.67475e-19)
(1.97066 -0.742481 1.44184e-19)
(0.198734 -0.0850835 -1.37673e-18)
(1.43212 -0.657043 0)
(2.00118 -0.00587462 1.35127e-19)
(0.562174 0.586269 0)
(2.17202 0.189051 -1.1006e-20)
(-0.570506 0.47781 -3.14888e-19)
(0.805389 -0.36531 2.50796e-19)
(1.71837 -0.0728623 0)
(2.28184 -0.801792 6.91151e-20)
(3.03293 0.550892 5.74608e-20)
(-1.82548 0.964676 1.01369e-18)
(-2.68826 1.70787 0)
(-1.87795 0.935791 -9.05103e-19)
(2.36822 1.04255 -3.55896e-19)
(1.71071 0.054076 7.87183e-19)
(3.32391 -1.25759 0)
(3.03323 -0.203383 4.06461e-19)
(-0.43264 0.601062 3.39929e-19)
(0.944457 -0.483115 -7.73582e-20)
(2.64585 -0.2758 -1.48005e-19)
(-0.0996644 -0.468949 0)
(2.48071 -1.10339 -1.3407e-19)
(1.44245 -0.304583 -2.9123e-21)
(2.00545 0.46821 -1.18179e-20)
(2.33979 0.0134657 0)
(-1.4022 1.4167 3.2917e-19)
(1.89891 -0.502866 4.12701e-21)
(1.49709 -0.477055 4.79647e-20)
(0.956051 0.669321 0)
(2.5634 -0.799677 2.02255e-19)
(-0.509765 0.348487 1.0143e-18)
(1.99294 -0.441342 -2.18546e-19)
(-0.205157 0.0733296 0)
(0.894434 -0.326305 -1.77956e-19)
(2.59986 -0.732877 -1.37187e-19)
(-0.372723 -0.130355 -1.00822e-18)
(1.61138 -0.507652 0)
(0.960649 -0.516277 5.62655e-19)
(1.50582 -1.68609 0)
(-0.772346 1.28614 4.36747e-19)
(1.08703 -0.470051 0)
(2.03406 -0.137062 -1.50725e-19)
(2.27617 -0.058558 -5.66821e-20)
(2.16619 1.1645 -1.42962e-19)
(1.06937 -1.96314 0)
(2.61285 -0.963722 3.6724e-19)
(2.00705 0.00433788 0)
(2.24231 0.387148 0)
(3.08792 -0.960499 -3.8117e-19)
(-1.14946 1.4054 3.20652e-19)
(0.851506 -0.265811 1.61632e-19)
(2.55522 -0.37311 6.13019e-20)
(1.75821 0.154018 2.77399e-19)
(0.889689 3.67975 -9.72404e-19)
(2.02842 0.22225 2.57174e-19)
(0.612118 -0.183496 -7.02192e-20)
(0.0299095 2.07514 0)
(2.36621 0.304489 0)
(0.397449 -0.360501 0)
(-3.04814 2.01849 3.81342e-18)
(1.41485 -0.521614 -2.83813e-19)
(1.61946 -0.0352639 0)
(1.12812 -0.781655 3.40788e-18)
(2.26586 0.0044997 -4.51178e-20)
(0.313288 -0.566047 -9.66219e-19)
(1.62711 -0.595072 -7.68379e-20)
(2.98914 -0.847992 0)
(1.13297 -0.502135 5.43884e-19)
(0.855318 -0.136935 -6.99065e-19)
(-0.0190348 -0.0945064 0)
(-0.276871 0.402015 -1.9824e-19)
(1.61664 0.0204646 -2.08878e-20)
(2.55737 -0.362288 1.73873e-19)
(2.01363 0.00765133 2.04674e-19)
(2.34518 1.01429 7.79971e-20)
(2.31843 0.230265 -2.57672e-20)
(-0.944945 -0.202435 0)
(2.37642 -0.786157 0)
(1.66224 -0.886983 3.75732e-18)
(-0.369475 -0.71572 0)
(1.84661 -0.41145 -3.76544e-20)
(2.79713 -0.685945 4.96849e-19)
(1.22394 -0.577752 3.43551e-19)
(2.72368 -0.2713 -1.52824e-19)
(1.79486 0.196422 -2.83691e-19)
(1.80441 -0.709629 -1.21379e-19)
(1.90715 -0.733053 -1.80444e-19)
(0.173407 -0.677183 0)
(2.03973 -0.743491 1.02815e-19)
(2.25373 -0.287433 0)
(2.1524 0.591078 -1.45076e-20)
(1.74468 0.962312 7.21634e-20)
(0.453931 -0.223504 2.12708e-19)
(2.40737 0.00812475 6.65202e-20)
(-0.166286 -0.548863 -2.24042e-19)
(0.362304 -0.17567 0)
(-1.15291 1.2249 -5.22069e-19)
(-1.05077 2.12315 -5.50084e-19)
(1.99481 0.399544 -2.9653e-19)
(2.19762 -0.798875 -2.58187e-20)
(2.1043 0.000409674 -9.34623e-21)
(0.422747 -0.673086 1.28527e-19)
(3.02977 -1.00473 6.44358e-19)
(0.659355 -0.115273 0)
(0.076152 -0.52872 3.00173e-18)
(2.02878 -0.387897 1.21284e-19)
(2.26956 0.0991242 1.29037e-22)
(1.4324 -0.632886 6.83376e-19)
(-1.02681 0.000458705 3.23293e-20)
(1.69821 0.387864 0)
(-2.66981 2.5238 -1.64413e-18)
(-1.53734 1.29035 -5.39577e-20)
(1.32873 -0.459582 -5.6875e-19)
(-2.61926 2.15992 1.70026e-18)
(1.73807 0.892772 -5.9191e-20)
(2.02342 0.393473 5.19179e-21)
(1.1983 -0.510321 2.61349e-19)
(2.05643 -0.379509 0)
(2.43416 0.226184 1.05674e-19)
(2.71149 -0.0142833 -3.52139e-21)
(2.6043 0.969941 -2.53661e-20)
(-0.866707 -0.468073 0)
(2.95893 1.23818 -7.89547e-21)
(-0.890342 -0.804312 2.77139e-19)
(1.91905 -0.812202 3.37068e-19)
(0.12585 0.314087 7.91887e-21)
(-0.707768 -1.12381 -2.433e-19)
(1.19967 -0.439488 1.0787e-18)
(2.47275 -0.741613 -2.64632e-19)
(2.44492 0.0563052 3.07412e-21)
(-0.576281 0.149108 -8.30029e-21)
(2.8694 0.140088 1.91586e-20)
(0.354309 0.808328 0)
(2.001 0.0178551 0)
(2.20555 0.435512 0)
(2.10873 -0.751022 -5.01551e-20)
(0.905419 0.659646 1.64773e-18)
(-0.840445 0.332308 0)
(1.46036 -0.482175 -1.16724e-19)
(0.027949 0.342082 0)
(2.96401 0.546797 0)
(-0.870723 0.17933 0)
(1.76067 -0.0243822 0)
(1.08779 -0.506186 -1.78491e-19)
(0.852237 -0.084831 0)
(1.55264 1.22833 3.56141e-19)
(1.11305 -0.0229219 0)
(1.56066 -0.254435 0)
(1.94439 0.104538 2.48045e-21)
(0.489141 -0.206053 0)
(2.3062 1.29266 0)
(-0.723755 0.391564 0)
(2.50722 -0.0221193 1.56619e-20)
(1.5897 -0.38309 0)
(3.29751 -0.803975 5.92423e-20)
(1.1491 -0.781961 8.32424e-21)
(0.912191 -0.273236 -1.95736e-19)
(1.98449 -0.00361444 6.0393e-19)
(0.0715098 -0.00156324 -1.61437e-18)
(1.15364 0.491236 -5.98523e-19)
(1.46877 0.444169 0)
(2.27664 0.184426 -1.80772e-20)
(1.86391 -0.238551 -1.46549e-19)
(1.45178 1.13048 2.28355e-19)
(1.81389 0.229112 4.53864e-19)
(1.02858 -0.421221 -5.88675e-19)
(1.7933 -0.777609 -1.77703e-19)
(0.870008 1.78488 4.39887e-20)
(-1.76944 1.58106 0)
(3.21119 1.2531 -5.49065e-19)
(-0.914626 1.4755 6.15858e-19)
(2.51546 0.39281 4.36075e-20)
(0.376302 -0.23653 0)
(1.95006 -0.0296744 -2.28504e-19)
(1.97006 1.01028 -2.95486e-19)
(1.61136 -0.651946 3.13632e-19)
(1.49431 -0.678765 -4.0063e-19)
(2.03968 -0.904269 0)
(2.13155 -0.886415 0)
(1.73287 1.70322 7.04994e-19)
(2.44793 0.0664762 1.00636e-19)
(3.13353 0.712144 -1.51125e-19)
(1.85438 -0.0244657 5.09232e-20)
(1.44102 -0.455087 -1.11371e-19)
(1.97825 -0.54495 1.59714e-19)
(2.36329 0.30249 0)
(2.29015 0.279951 -9.70867e-20)
(1.23177 -0.262448 -8.99395e-19)
(0.33506 1.8064 2.15403e-18)
(4.3578 0.672914 -1.38303e-18)
(-0.664364 0.513496 2.00071e-19)
(2.89812 0.763782 1.26174e-19)
(2.32465 0.685391 -1.23093e-19)
(2.21645 0.500006 0)
(-3.0403 1.21248 0)
(3.13346 -0.73578 4.47934e-20)
(1.39264 -0.39445 0)
(2.12486 -0.390851 5.22436e-20)
(1.71288 0.110008 4.6788e-19)
(1.71837 0.287139 -1.54786e-19)
(1.86897 -0.743701 3.9638e-19)
(1.46594 -0.399114 1.30877e-21)
(1.44826 -0.100849 0)
(2.21296 -0.109288 -8.27197e-21)
(-0.70848 0.4641 -3.83886e-19)
(2.07658 0.224204 0)
(1.93421 0.646471 0)
(2.33376 -0.832021 -6.4349e-20)
(1.88997 0.367654 3.00017e-19)
(1.30974 -0.337887 0)
(3.94356 0.770859 1.48514e-19)
(2.82258 0.0538776 3.6305e-20)
(2.24618 0.289593 1.39662e-19)
(1.79409 0.283179 4.5564e-19)
(-1.73777 1.08962 -2.16477e-18)
(0.925315 -1.76668 0)
(-0.465189 -0.432203 -5.19441e-19)
(0.747554 -0.351378 8.97075e-19)
(2.02941 0.0153035 1.28621e-20)
(-0.692557 -0.633861 -2.51097e-19)
(2.15933 -0.826925 1.23861e-22)
(2.45143 0.423938 -1.49875e-19)
(-0.0124316 2.11697 0)
(1.99168 0.0651216 2.53046e-21)
(1.9313 -0.0429934 6.86692e-20)
(1.91519 0.00764285 -5.53778e-20)
(2.06019 0.42446 -3.12763e-19)
(2.97495 -0.67214 0)
(-0.13095 0.491313 0)
(2.50886 0.023779 0)
(2.17901 0.371759 -2.30259e-19)
(1.30401 -0.613323 5.2673e-19)
(1.95176 1.37507 5.75155e-20)
(1.66251 -0.205019 0)
(0.435446 -0.35731 -1.70368e-19)
(-3.23288 1.7122 1.5126e-18)
(0.194286 0.152069 0)
(1.91122 0.161315 -1.4215e-19)
(1.73104 0.0945267 -1.50919e-19)
(3.25154 0.282993 -5.29172e-20)
(2.01257 -0.654905 2.83588e-20)
(0.93258 -0.388704 0)
(2.09608 0.149405 -3.31818e-19)
(2.29453 -0.310897 0)
(2.27725 -0.164093 1.33973e-20)
(1.21593 -0.129163 0)
(2.04798 0.68585 3.20475e-19)
(1.99754 -0.766785 -1.08466e-19)
(2.18907 0.705703 0)
(1.96784 -0.147445 -2.9259e-19)
(1.90519 -0.361399 -2.82386e-20)
(2.48917 -1.35447 0)
(1.40256 -0.660431 0)
(0.795798 -0.0675089 -8.34636e-20)
(2.04538 -0.023861 -9.5982e-21)
(-1.99994 1.61466 -8.50781e-19)
(1.63097 2.73463 4.52847e-19)
(2.8512 0.0439938 -1.23319e-20)
(0.700684 0.835555 3.14904e-19)
(1.78149 0.232522 -1.88392e-21)
(1.96972 0.404266 0)
(2.84178 1.11723 1.17678e-19)
(2.11159 -0.914739 0)