/*--------------------------------*- C++ -*----------------------------------*\
| =========                 |                                                 |
| \\      /  F ield         | OpenFOAM: The Open Source CFD Toolbox           |
|  \\    /   O peration     | Version:  2306                                  |
|   \\  /    A nd           | Website:  www.openfoam.com                      |
|    \\/     M anipulation  |                                                 |
\*---------------------------------------------------------------------------*/
FoamFile
{
    version     2.0;
    format      ascii;
    arch        "LSB;label=32;scalar=64";
    class       volScalarField;
    location    "3.7";
    object      p;
}
// * * * * * * * * * * * * * * * * * * * * * * * * * * * * * * * * * * * * * //

dimensions      [0 2 -2 0 0 0 0];

internalField   nonuniform List<scalar> 
13486
(
62.3687
51.2629
11.6102
-101.984
20.6049
0.705108
18.3273
33.3015
42.6912
27.4637
-175.788
19.1657
65.4321
-0.063962
23.4458
28.4654
-124.814
11.1977
22.4711
56.7943
-67.9447
64.8003
50.3174
-78.1838
24.5031
-69.4527
-113.478
-16.2213
0.71658
-20.7609
-39.1536
26.5272
-42.2027
-4.29691
33.4067
-4.29034
-79.9675
50.5124
-65.7383
43.3325
-5.87722
68.1763
6.67774
25.3785
24.8077
18.6073
-114.62
0.718945
-88.5403
-16.9304
38.7825
11.9323
16.1771
51.4376
2.95285
21.7231
14.566
-6.14135
-40.9024
-5.12907
-221.68
-6.83869
-53.9934
-64.2636
-111.649
-50.8798
-120.502
62.7865
42.3434
-13.8489
-121.743
5.19715
44.5296
-97.7105
-14.5836
14.6844
-12.8173
22.6684
-117.922
-37.4053
-2.13137
51.2572
-56.4261
11.9113
62.574
17.4039
-34.7402
37.0043
43.8185
30.7103
24.3775
29.1466
59.7333
54.4235
43.3563
0.0674524
-113.783
-151.193
43.2689
-128.638
-3.79705
1.76928
-155.364
13.5467
30.2294
-132.139
43.4696
-91.4109
-119.975
24.7627
39.9903
28.2178
51.387
11.7331
73.0311
40.7579
25.143
-0.72286
44.8194
-59.0194
10.4333
-212.269
45.6569
-52.4134
39.4428
19.9609
33.3496
15.1101
2.92723
-81.8398
25.829
-109.089
-107.569
-96.2516
40.2147
36.9119
66.9676
25.6382
-59.6707
35.2076
-30.9227
15.7664
23.5369
-30.3499
9.95749
-68.3292
-8.11908
60.4182
-18.5375
0.59096
27.2664
19.0044
-1.85
52.9103
16.7605
11.7406
17.8276
19.3817
45.4476
6.85533
-11.8047
45.4392
28.9411
67.5855
16.9847
-7.68157
5.98614
83.0816
-5.90076
-95.9813
-117.081
16.9182
31.8097
29.1184
-1.9414
-273.881
-5.76859
-37.1041
43.6542
23.4369
41.0979
11.5873
26.9937
-131.392
10.1986
-15.8647
0.184852
-12.2847
-5.79593
43.9842
-66.8085
11.8948
-7.35403
56.6714
-5.82484
-163.577
-88.5783
-11.2087
56.1375
-4.01204
-40.9241
14.6422
50.4907
12.32
6.50827
3.19585
12.37
47.269
-3.18274
10.6892
-13.3436
-74.1849
56.1119
43.4414
0.765857
-24.1562
-19.9642
31.2617
56.7433
-45.105
-127.324
-18.8838
36.112
-12.4065
11.4602
60.655
-5.8449
-137.877
-21.4317
-43.5231
40.7537
-54.2995
-33.129
69.6419
-125.511
58.2782
-6.69882
12.5651
58.8773
27.0454
-43.7766
31.4529
11.5415
55.5763
-152.267
49.1643
27.1581
-45.0505
-91.3851
27.91
-213.102
73.5607
38.5759
-80.384
-23.6899
-291.83
26.3959
-27.4047
25.3939
-43.6323
47.633
-148.138
24.0601
-283.089
18.9773
-135.439
-13.8674
-54.9845
42.498
1.78101
44.8033
42.6525
-20.6755
15.6258
60.8073
-41.3416
-14.2932
-26.7862
-82.9525
-3.58589
-29.6686
37.5237
44.117
-126.652
-207.976
-119.35
-30.2827
1.93801
11.0142
42.7233
-117.121
-20.5315
43.2861
40.1121
-5.51185
-9.73334
-11.6547
14.7753
44.9324
4.22455
28.7407
11.2997
-5.85013
26.3696
-133.594
9.79855
-71.8987
27.7028
-59.38
-65.0543
-75.0023
-96.5928
1.15899
28.5869
-174.642
37.413
-26.3924
43.883
47.4453
-8.52014
-59.0159
-50.6731
43.2394
54.7546
70.3089
24.7469
29.1435
37.0094
10.9573
27.7576
37.3612
27.6737
24.2919
58.5695
16.2292
41.0884
75.763
19.2077
29.2798
-136.962
-18.9546
54.1343
26.7101
27.2255
-181.111
0.472469
32.5689
72.9632
-45.3177
-40.1057
32.7342
12.147
15.0539
-111.017
44.6277
-27.5023
-99.8512
33.2746
-65.4779
-67.9592
23.2127
21.5578
48.1643
42.7894
-22.1628
-0.37044
-8.22236
-105.6
57.3545
33.6832
6.09756
32.9852
9.67154
-220.927
3.0065
38.8759
42.9603
-68.6771
-173.866
-69.6986
42.0237
25.3824
65.6386
46.5202
-101.256
-19.7863
9.00063
28.7345
-99.58
-20.0567
55.1734
-20.9412
21.9348
59.3469
62.1146
-26.3935
-108.937
-216.144
-111.426
-31.3434
-103.441
14.2057
40.1445
-54.0625
19.7745
-8.76488
53.9662
-35.0696
34.0255
49.0668
27.4913
-18.4846
-22.9254
45.0223
42.8565
52.1534
-138.774
19.6789
-124.919
27.4191
43.6261
37.0973
73.121
30.5427
-8.2655
-11.285
14.2702
44.0525
-113.09
7.80124
64.3748
40.1854
21.4583
9.6225
15.3375
-41.8332
65.3943
-39.5695
29.5531
61.8151
-127.829
-20.1951
-94.7031
-23.3392
-33.8001
50.0164
51.0319
64.5843
-70.7344
-84.2188
-184.955
30.0115
44.4848
-17.1313
-23.344
42.1016
-187.517
-275.447
-139.209
-76.0499
3.44724
53.1175
-2.27913
8.6737
-80.8952
42.1779
0.703599
78.9701
60.2526
43.9493
30.8857
-7.0557
-0.04379
75.3627
14.449
-43.8336
-8.95478
41.314
-120.739
13.9747
32.5142
-47.1589
-10.244
49.7682
-37.4202
-118.255
30.5343
-18.8359
82.3419
30.831
38.9925
47.0217
-280.113
13.0899
67.1334
16.3122
54.9768
5.26681
16.7705
-67.2211
-39.0263
7.11532
-134.801
45.0327
40.2272
-219.848
0.573087
-0.584864
62.64
50.1417
-12.2908
41.0666
34.1423
-9.60866
18.2363
39.1152
-123.655
64.6522
-3.99698
-9.34865
67.525
25.6096
-5.73527
33.0315
-82.4755
-183.722
24.9983
22.4704
46.1415
59.9916
-108.011
14.3809
-117.128
0.238857
58.0642
16.5845
-142.298
-163.938
41.1599
21.6065
33.1349
-110.671
-22.787
41.0878
58.0717
-26.3991
47.4867
-73.8126
-222.178
-34.9619
20.7555
-178.461
47.2955
12.2561
-235.323
36.4169
49.0917
-48.5287
-117.176
39.2185
58.2913
18.1838
62.8343
12.6609
31.0844
14.5813
47.5344
10.0983
56.8001
-111.549
15.6413
39.291
3.69776
-38.1678
43.0957
-123.726
15.8146
51.4376
64.725
-80.4587
34.066
16.8059
12.2008
40.3691
32.8516
5.48471
-114.703
6.82669
61.7769
12.5936
9.02704
-166.807
64.9582
-41.3335
11.6187
41.6211
29.2364
-37.3471
-8.33586
33.8007
10.3278
-18.9119
19.9437
-29.2715
63.1324
40.5022
33.9388
34.5902
2.32587
-30.2592
70.6983
17.8441
70.7913
-120.666
43.1186
-6.28037
-94.4872
22.0462
27.6799
73.8992
-199.073
24.5802
28.308
-47.8117
27.1929
13.8634
-7.93119
42.2145
-108.058
-33.7726
-45.6489
2.2263
-10.4202
46.7873
-2.55435
69.091
42.8182
7.18022
-216.947
-12.085
18.2448
-195.628
-1.94884
-133.209
57.889
-0.416453
14.5574
-279.387
65.9549
0.968842
27.4453
67.5858
38.899
-175.19
-31.0179
33.5708
9.60969
38.7282
11.1344
-106.814
19.7922
40.6639
17.2712
37.6429
68.5022
11.6114
-230.301
42.987
38.2866
-0.641092
30.3183
33.7191
22.6654
-148.623
12.3467
-77.2259
11.4935
57.9258
17.5858
10.2638
11.8845
-11.3247
6.97992
45.3395
13.3334
37.2212
41.5071
58.9937
11.067
-21.1723
70.2668
5.1626
-187.25
45.2313
-39.8128
48.816
10.1937
41.7523
-57.475
-97.1631
-75.4087
-1.83257
-121.897
26.3387
72.1698
-25.5619
-80.0662
-7.56662
45.7172
-2.79207
22.5577
-273.849
71.5444
-146.982
28.9006
-17.9821
27.9809
43.8881
20.7902
-63.3436
-46.518
66.8322
42.5161
13.7871
40.3575
-9.63144
34.8484
32.8208
28.4715
-89.3871
-14.386
53.2131
22.6837
-49.2696
32.6441
-187.564
-25.2804
-28.7754
46.4914
46.3551
-185.88
10.5538
-165.806
-56.0309
11.3363
-11.9063
21.401
41.6088
5.4199
-27.9558
48.5862
3.86761
-71.0515
-16.7144
-11.0591
-182.554
-74.6923
-95.8326
-305.247
38.6473
65.4933
-35.1605
-70.1438
67.6823
63.4627
-78.199
-78.949
42.6311
-115.628
11.0143
-4.19162
7.61532
21.8439
-118.632
22.0382
31.3345
-9.05419
-37.9295
-56.8538
1.53205
36.8194
22.9135
32.2209
-209.084
39.2663
61.8967
-123.363
-300.206
46.2306
6.77427
32.8273
-70.9674
-17.6426
-216.528
2.24455
44.6409
71.0545
47.1476
1.84662
2.59733
43.3721
60.4983
-5.74646
44.0553
43.6066
64.0968
21.6968
-80.894
11.9478
6.13737
63.0576
10.71
10.2095
33.5124
-15.5805
19.0049
3.19081
-28.8468
42.0313
40.9238
32.2599
24.2539
-57.9034
-2.97626
-6.23183
21.842
-31.2936
-14.2404
10.489
-282.98
-243.327
26.0269
-16.3023
-91.8758
-54.2809
-40.0872
28.246
-139.829
-268.18
47.9798
-90.9657
64.9901
-136.183
-91.689
48.8295
58.4557
-4.03689
8.60957
-0.947943
45.0508
20.9465
-49.7618
-43.6859
-131.712
-34.4756
41.6716
14.122
28.2033
-59.3722
41.5622
-111.287
11.128
-25.6494
51.0806
-24.8878
-189.01
-159.893
64.3904
0.336659
-234.131
-166.931
43.4789
-238.517
-48.2779
18.1297
24.5856
-13.8515
30.0038
-103.427
38.0171
41.9554
48.4131
23.0517
-20.1178
-25.7262
34.6797
-6.60767
49.6121
32.701
-33.1411
-119.484
-22.2651
4.05118
-93.6941
48.761
20.7188
39.1843
43.1846
8.99116
35.4126
73.2194
3.07036
-38.816
31.6247
-10.9161
-49.5816
-15.9097
-79.5822
43.6879
11.4336
5.49305
10.135
11.4809
53.3262
-173.655
-0.908134
43.316
-12.8402
59.9326
49.1309
55.7164
18.7626
31.4293
23.7812
12.4677
29.8451
42.6939
-55.2295
3.46628
-38.5154
-33.7779
-276.539
43.764
-68.5577
-62.0272
-272.512
-46.3273
-42.2781
43.8797
-15.1454
26.1289
-93.4761
42.9946
72.3819
-10.8783
-193.35
27.4895
7.07572
43.3697
5.87016
-154.574
50.0533
45.3621
68.6846
33.4778
43.0719
-15.2322
54.6232
11.2213
49.3834
-4.10938
-48.0759
-5.83669
-205.388
32.8905
-23.1453
-41.018
64.8442
42.8857
46.9787
59.0572
47.9138
51.0146
-12.516
43.1442
42.9077
44.728
5.8818
-6.23901
-18.9674
-22.6374
24.4552
46.1948
-98.7536
71.5551
-28.265
11.4246
70.488
59.8437
3.70432
-136.634
43.6039
25.9734
-10.5874
39.3346
-98.9531
-8.61783
42.9617
57.6151
-97.431
45.3446
54.1933
-0.905734
-10.7284
54.5862
26.4596
-83.5473
-126.823
11.7195
-27.7628
41.2603
34.2396
-49.2385
-7.26484
-29.3021
25.6528
14.0071
18.5877
61.2565
17.3869
78.061
43.9349
22.0714
48.2594
-181.392
-109.413
-227.358
43.6941
-115.039
-94.7494
-38.826
24.1909
28.4141
-113.494
26.3123
-118.113
24.9118
0.780467
-53.8377
36.6837
23.433
54.1727
44.4545
45.9202
41.9203
4.26515
-36.9358
-24.1862
12.0713
-98.2066
-6.12162
36.233
-68.2499
-6.32851
-26.4002
24.1756
-283.209
34.2145
24.0272
6.09119
-33.9269
27.7851
-17.787
-42.4568
12.9395
-26.5701
45.3027
33.8167
53.3077
-97.6867
39.5986
10.6788
58.3235
3.50269
25.9358
10.0207
1.18494
67.2099
69.5767
37.6668
18.3563
32.0565
38.5958
68.0412
28.1971
-37.5889
-271.681
16.5153
-26.2501
-67.1213
42.9384
42.8929
-14.7007
2.43083
32.2569
40.6227
73.9727
-78.3887
35.8483
-114.185
-25.7479
60.2762
13.045
35.1954
-51.4127
15.155
24.633
76.6762
-33.872
-19.2913
24.6305
13.7978
-175.457
-98.2911
12.7613
48.1124
-6.77974
20.2029
63.3462
58.5481
0.736974
-63.6003
-38.6946
12.5206
48.2099
42.1856
57.6431
31.2132
-164.31
60.6196
36.9658
-46.0786
31.4645
44.9478
52.0411
-185.441
-56.6621
0.349971
37.8551
66.7836
28.8874
22.0878
-28.4354
74.1555
-129.693
-29.8731
69.4085
38.8215
-4.09363
35.4582
-113.605
26.1557
-38.9515
-133.066
-97.7514
-249.189
7.94333
-26.0314
-123.593
-121.727
-40.7042
24.3191
-107.366
-211.739
36.6378
40.9943
17.3824
-117.592
26.7258
11.7761
2.34088
77.5088
26.7979
-20.5452
38.8065
-25.6431
-256.207
32.3025
31.572
42.8478
78.3632
1.29899
11.7715
-82.0317
10.2448
28.3463
39.5106
-8.18179
61.2572
32.3111
45.8714
-66.7178
-48.3948
11.5283
42.7291
43.5483
43.5642
43.6439
72.1937
71.3273
-25.1534
38.9575
54.029
-19.6507
57.6011
-25.6226
70.348
57.2059
7.79849
48.853
24.8102
31.5372
10.2997
44.6637
-34.5487
38.5723
20.0604
25.282
0.848195
43.0832
0.178984
23.7066
67.9856
67.7835
29.7809
-97.5496
18.6913
-13.625
4.05298
36.2914
60.7305
-98.9447
44.8374
40.5975
28.0352
42.605
-265.51
-50.3609
-32.2964
73.8787
24.4767
-21.5216
49.965
0.638028
14.18
24.2136
16.526
34.6645
9.73375
-14.1222
31.0683
32.7151
27.049
30.3943
71.5466
59.2767
51.3649
51.918
67.1586
24.9847
5.09707
8.38624
-33.3784
67.0586
-70.0981
43.2398
38.2275
-198.91
25.3847
47.5473
-134.279
28.1352
30.3339
79.2031
-111.241
26.5873
-4.33557
46.8004
11.766
-124.085
66.0424
56.1951
41.0214
43.5792
-33.1239
11.4752
-137.858
71.0861
5.14988
76.1841
-34.792
20.7538
-98.834
17.5304
-96.5916
23.163
-63.6256
18.9591
-33.3527
18.702
-147.734
-0.683079
-48.9283
-98.6672
-13.9279
-51.4507
-20.3898
23.4253
-68.4732
-217.678
41.6018
42.4939
55.512
42.2847
26.4416
24.6326
82.3287
42.4865
-114.385
-2.57981
2.56039
34.8653
38.8701
61.2512
-27.8594
-28.2903
31.4215
-0.848252
19.0445
53.5854
-97.3327
-196.359
-138.983
72.0079
-148.97
33.9068
53.6435
-34.7483
33.8056
-22.874
-116.017
-114.311
9.54257
31.5624
49.1197
52.8018
-51.9221
-98.8568
24.1336
-123.003
-25.6605
3.71854
23.7129
-45.3799
-81.9347
-166.312
-113.167
-66.0939
63.5209
-76.0855
69.4229
-192.766
-28.4693
26.4297
-2.35834
58.8605
39.5412
51.7721
-18.4682
-35.9623
-124.329
56.7083
-98.9903
33.6474
-70.8684
52.2013
58.9133
-74.5711
43.446
66.647
45.5765
46.2838
-66.9018
-10.8807
26.6737
-36.5892
-112.196
25.2265
26.7774
11.8332
-142.655
18.5448
14.3035
34.5833
28.5159
-13.6705
70.1032
10.72
0.354791
12.8805
42.0474
-75.3006
1.19251
45.4543
-13.6879
11.9273
-1.9278
42.7621
42.1891
40.7187
-100.977
41.4565
49.3474
47.3128
-23.5372
11.4621
14.8551
37.7294
-27.7784
-131.313
-219.993
-42.6812
-113.779
-2.41438
-52.8421
12.1631
-101.822
-18.8839
-288.687
13.1528
-50.1632
19.8901
-129.807
46.0897
83.1675
19.0699
-48.5501
23.2065
10.3643
18.6125
4.20838
-24.2397
-268.592
13.6483
54.9633
1.08631
65.5909
3.71868
40.5784
33.8232
27.0397
-103.641
20.4569
72.6335
-68.7954
42.1873
41.9033
61.0766
13.3375
56.0239
43.5985
-95.5898
46.7002
-111.293
-127.824
57.324
38.9242
-48.6173
8.54305
54.6984
-8.58664
-145.909
12.3078
10.7022
35.9089
26.484
44.3372
37.7838
38.306
-70.4238
-16.102
-27.1153
43.4558
76.3839
-27.4689
-116.709
-107.702
40.3981
12.3416
12.1274
14.0687
19.9986
33.6466
-44.3321
28.8603
63.3972
21.864
5.6888
-48.5344
-175.678
-45.9087
-119.779
-63.939
-205.927
51.046
26.0901
-20.9864
65.7016
-2.29743
-132.877
-48.8333
-130.179
45.1515
-89.2012
18.44
41.8885
-59.7886
-21.615
-24.4392
-113.2
-112.797
47.1925
-280.16
-98.4936
-137.055
41.9748
46.2703
-154.434
53.2698
49.2083
63.0239
65.0839
46.065
14.8204
72.9431
-140.903
39.78
10.4186
-243.1
51.9815
-200.921
63.808
24.3322
-34.6875
-126.978
-94.3128
46.4686
-220.374
-67.4439
-6.33275
-22.1326
7.16983
29.2108
13.7788
31.7031
71.9418
-96.4645
-66.6629
-14.1319
42.0829
35.1965
-55.4573
82.8185
-26.1894
14.2875
30.7606
-30.9978
41.3022
43.2718
48.3911
47.4816
8.00379
26.1386
41.7164
17.4596
-50.1288
-14.3363
44.8412
48.0494
57.0054
-52.9152
11.6292
15.4922
28.586
19.3431
-193.994
37.2524
-60.2087
38.7209
44.7885
-123.382
65.4852
-119.529
70.8392
47.5564
-302.478
1.63401
-35.4735
21.7445
45.8984
-313.05
56.243
41.7269
18.275
9.60671
17.2849
-2.41563
17.1384
-131.867
24.6898
-98.4538
42.4056
-140.227
5.67987
-27.2977
52.4918
59.1781
24.9063
-139.44
24.6065
-22.9662
10.5136
27.0754
-83.3132
-45.0332
69.4669
-13.2337
-14.7177
-33.0644
-126.246
-23.026
42.5962
-128.69
-6.30003
45.734
29.3095
46.4587
-190.963
27.0836
70.3518
-69.8628
42.7856
25.7679
-41.6523
18.8307
17.9615
-5.60759
71.4572
47.972
-14.8238
69.1203
54.1489
52.3589
-123.122
-143.473
23.6594
-38.5253
-7.89525
-59.9522
-34.414
-56.0933
35.074
24.4051
25.471
29.5986
-49.4432
28.9055
43.3183
-136.733
42.4339
29.4191
42.5163
-24.9731
-51.0973
-157.257
-123.685
-183.401
-8.53169
42.7046
-254.306
63.7625
-191.057
41.4503
22.9929
-13.8638
11.12
44.4232
23.9059
15.6514
38.7017
10.4299
10.1019
59.9709
50.9418
-63.1216
-105.11
2.33174
39.1661
6.95847
11.5469
-50.7883
6.81834
21.2636
-25.5599
38.5512
32.6875
17.8429
23.5727
5.86194
-123.452
-271.499
52.5617
-166.378
43.1808
0.552945
38.1296
45.5604
27.7035
40.0191
14.3617
-151.642
-21.6926
-91.4649
-211.842
-103.814
-2.71111
-61.8013
35.8218
4.39338
41.9252
-7.52802
17.5763
-52.3869
-33.648
45.1356
-114.901
42.3118
19.3334
-254.624
-29.3941
-177.968
34.1669
42.9327
-164.917
15.9981
-96.1092
48.003
30.2491
25.951
-184.291
52.8612
27.8746
-3.58441
46.0975
43.6256
50.7419
19.0721
52.7546
-70.0545
11.3264
-28.7067
38.5557
30.2646
19.8811
-2.28422
-144.485
-264.125
26.6691
12.4169
-296.651
68.5312
-74.395
49.6243
33.8502
-71.8337
47.9575
2.81757
-59.4071
10.561
13.3024
41.3329
-13.9586
43.3213
-53.8012
11.2884
-41.4878
27.6514
-161.154
51.2358
70.4283
47.0689
19.2201
-0.816365
31.1981
-114.487
23.5181
-106.859
-0.133184
-77.5853
-298.306
-178.801
-20.0307
38.4188
39.8092
-56.942
19.0581
48.3712
-17.0132
-44.6788
46.5209
3.78945
-191.69
9.30278
-1.73331
1.22096
67.505
-107.298
39.5134
-31.9433
-18.2399
-17.0172
41.7641
27.0865
34.606
-24.1478
-25.1875
4.2172
22.7437
49.361
38.8822
13.6239
-21.1432
-5.58303
73.049
-49.9136
47.7994
51.2426
4.11655
40.0475
27.0101
-110.236
-42.9069
38.7385
28.0843
42.0749
-234.925
47.1631
10.8237
59.6927
24.7443
39.6087
53.2951
37.2586
17.1601
-169.302
18.3448
-124.998
33.1861
23.4438
50.6228
10.1583
62.6548
15.1387
67.1367
-6.03271
51.9487
1.26391
34.6669
-121.366
41.6162
27.8569
22.4635
62.4545
43.23
20.1199
-14.5989
30.0702
40.8817
-43.5754
-114.009
34.5631
-6.8538
54.4634
-156.192
64.081
15.609
82.6919
64.9467
27.9812
23.8702
-141.584
9.03744
68.7839
-5.49035
4.52532
-13.8243
69.8176
25.1834
37.3402
57.8732
-19.5357
46.5249
-6.02201
49.3003
14.2397
46.1208
43.9762
57.3392
39.5355
-106.662
20.5061
-179.591
27.5723
-3.57322
-31.1576
55.0004
60.2818
5.89761
9.37398
5.20386
53.9104
37.2025
39.6242
29.1055
-26.1858
-117.214
-83.3029
44.4751
-54.2172
-2.73861
5.62368
31.2763
27.553
-16.4765
72.1919
-48.8421
63.7005
6.69573
66.4999
-25.7051
29.0332
-9.81907
11.6076
38.079
42.5227
5.61778
-3.19197
-5.78966
-4.16529
59.9011
-5.24256
6.81034
-87.5722
-2.96533
5.63001
50.3277
20.5266
9.03909
7.20275
43.001
76.4356
-184.787
4.31257
40.9001
25.0838
24.4996
-82.568
26.693
-3.81668
-115.498
2.97907
-61.3991
-26.0826
-6.97775
-71.1103
-163.111
6.24865
35.8179
45.6491
38.3856
74.6191
-211.308
67.9464
-102.925
66.1895
-318.537
-22.2153
72.2041
21.8962
-104.553
39.7937
44.6752
44.4877
-68.1167
-134.374
15.012
-18.1784
-33.2394
-1.84179
-15.3881
20.947
51.0919
-285.353
22.4039
-51.313
25.0089
-60.2837
-62.0893
32.0561
-31.4511
-42.0654
54.2928
-10.8657
60.4553
24.6183
-110.986
19.248
-26.9852
-7.89653
38.149
52.4112
74.047
34.4954
38.9855
21.0791
-94.9963
72.0241
76.8771
47.1175
-16.6633
-234.584
-123.52
39.9949
27.3565
26.382
37.42
-46.0048
-154.334
-142.461
62.0567
17.1376
10.877
-139.165
39.316
15.1359
81.3853
77.1457
39.7044
8.47312
24.6508
-86.5405
21.805
78.3164
23.864
-14.8222
30.4706
1.45911
16.4584
0.361861
-5.29616
17.481
13.3641
26.4243
-3.04077
18.262
57.9352
4.86998
45.4839
-155.07
-7.37365
69.8397
-99.6531
30.9621
3.66528
22.5489
12.4463
-159.758
0.188701
9.5281
17.7078
81.1755
-100.754
-60.6695
-124.924
-17.6731
35.5959
4.69648
-141.09
-61.9298
-1.77341
-55.4809
-23.8706
-34.3388
13.2528
5.8887
10.2206
80.904
10.0196
20.6355
-26.9916
14.2189
-96.5699
-9.09297
58.5205
43.591
20.7569
-4.81519
42.243
45.8232
26.4283
-295.958
-123.289
57.9728
-18.0972
40.3362
7.93282
63.6055
10.3211
-173.21
11.4735
46.8319
-11.9456
39.5233
-20.0788
78.106
-135.858
-2.82304
-152.215
23.7374
-171.806
-24.7785
-146.08
12.3862
13.0865
-257.066
-42.6621
27.3031
20.5494
-63.581
-23.7976
36.7235
-136.409
37.6782
-156.601
47.2882
71.741
38.1802
-100.113
41.6222
12.8187
30.0377
23.4783
-8.84459
-123.517
-14.1303
-28.7855
13.2215
6.34533
-18.5784
-24.2688
-125.466
28.2511
42.7783
-25.4235
-173.369
-6.48731
-19.4017
-7.75594
29.3781
-67.4235
-184.02
44.162
-11.1669
19.5987
-36.0146
-142.524
-129.167
-218.419
78.7427
26.3118
-26.4221
17.5222
68.4877
70.0479
-190.612
-3.59335
42.8186
-136.566
-17.4728
69.255
29.6389
34.5398
82.6331
-5.1703
6.61616
12.3396
62.2519
44.7946
42.2953
54.1522
32.9094
10.6144
12.172
23.7862
18.5375
-111.302
70.8914
-9.00261
-13.4206
-1.52079
-53.2604
27.6756
-141.745
-10.0714
20.1582
43.587
46.6565
47.003
-115.14
61.9447
69.186
-69.3004
31.9468
-34.2094
-27.4803
30.8903
28.1457
-48.3702
-17.5326
-33.5126
76.3445
-113.812
48.1327
43.8521
54.7456
30.596
36.1003
-5.57547
9.49052
20.1616
13.9437
-125.598
-47.3829
11.556
-120.447
51.6953
-246.258
-93.4468
14.0431
-94.8973
-164.354
-133.015
39.5695
-3.57382
-60.1142
22.0287
-151.762
26.1172
-54.0229
-36.5604
46.3819
-116.751
71.3803
-5.69843
74.0187
-1.59241
-93.6419
16.0058
38.8062
37.1197
-65.5286
-14.9053
-1.43475
14.7556
31.3446
83.1477
54.8203
23.6057
-16.4674
26.4659
3.29812
46.9792
-12.4542
28.4199
-91.5174
-140.043
-104.644
7.71872
10.412
-100.481
30.6778
32.2344
68.3908
73.0647
-121.315
-118.029
7.93872
-29.1294
71.579
34.3877
-8.83239
22.1946
33.3624
-87.3606
26.2978
9.09892
44.906
36.6789
-59.5303
7.22267
-10.2929
-20.3887
-58.7586
-3.571
-60.3433
-51.9811
45.8768
-205.24
-157.481
-22.7739
17.0548
77.2012
28.2597
40.9426
-39.416
28.3196
4.33457
24.6042
17.5405
-142.477
-140.991
71.4565
45.8081
5.75538
-88.8839
80.2291
-168.812
-132.435
-80.4362
22.602
-180.989
-79.6718
62.24
3.78764
39.0933
21.2295
-106.683
38.4777
-20.3233
27.7124
-64.8157
6.82178
18.6735
42.5244
-185.102
-109.382
14.7434
-24.5278
-33.445
-31.055
76.1696
30.8414
-299.261
21.3398
16.0817
66.7765
27.3592
-128.291
24.1943
53.6878
44.488
-21.6949
39.6708
-5.76345
70.9225
9.864
44.6466
-143.202
-19.1434
-12.2128
-113.326
22.5709
19.1804
-115.247
-196.394
49.6121
4.24516
3.25196
58.3764
35.6707
56.9063
40.2971
-26.5311
4.71596
7.4944
41.8979
0.181055
51.2592
30.483
69.952
-129.107
55.5394
15.5347
70.5354
-100.218
-18.3372
72.15
-136.454
29.0298
-111.924
62.5493
69.7194
46.5265
-50.8767
42.4254
53.9824
-58.0792
22.5485
-153.626
57.3363
-147.208
-33.3823
-127.301
-134.236
53.0511
17.1767
-136.301
28.8168
69.5885
-12.0224
0.553649
-140.222
-24.0292
32.8641
-28.6598
41.3993
40.704
-127.697
77.627
43.0923
60.378
58.7148
8.68328
-30.3077
37.4055
-44.9747
-20.9082
35.8279
32.4032
-7.89897
40.7564
-82.556
62.0979
46.9877
26.5477
-16.9782
45.3737
-33.996
29.6638
54.7116
17.7288
1.07664
53.1987
44.7401
-18.7363
-96.5458
29.9837
46.6761
70.488
-98.8683
74.4961
71.461
75.3299
-19.5645
52.2346
-165.404
43.2715
55.6262
55.3797
46.3358
60.8351
81.3826
39.1211
-106.181
-7.57896
-140.471
80.6902
29.3201
-6.1997
-166.704
42.2565
62.3364
42.1103
26.2796
-11.5048
61.3301
-56.1978
44.3734
-175.901
22.9121
-127.056
4.4556
32.2202
-170.576
-202.838
-33.1716
-23.2938
-15.0355
51.2842
-0.948397
11.541
40.6168
-116.739
22.8327
-20.2157
-109.855
-125.75
-120.605
58.2408
63.1134
-157.834
22.1632
54.2318
49.6833
6.16745
-261.685
45.8877
-102.49
57.8183
-97.4239
56.2728
30.4014
11.5325
53.1952
33.051
54.7901
26.2654
23.9157
-11.3425
-98.783
-129.968
-80.995
53.8372
-237.888
-110.994
-206.494
61.274
53.9781
20.2411
32.7812
60.6428
-49.9185
41.1619
-32.4564
-16.0607
41.0606
-170.677
-112.682
-28.3142
-129.179
-7.30967
-310.335
-46.0483
-128.237
-92.6868
36.2567
71.2026
77.5545
67.6844
-260.756
44.6606
-157.378
40.4742
60.896
11.8057
52.9875
-181.916
26.0555
-16.3911
3.52889
57.2017
-18.393
47.2274
-115.689
-3.52898
-136.991
49.1891
47.0081
42.6301
-112.417
41.0258
-71.9476
-141.608
-143.208
26.2018
71.7842
-61.8002
-37.3294
-187.244
42.9847
41.6709
33.4662
29.4171
-108.013
61.4676
57.943
-100.336
-1.47542
59.5028
-171.38
-235.158
6.37088
55.0431
61.1312
-139.501
27.4162
1.93513
70.0726
-123.32
-110.332
3.3856
65.7639
6.05375
-9.82509
-6.00925
56.5768
35.6125
56.4522
2.29286
-55.0419
46.5152
79.4099
-101.276
35.5622
5.26149
-111.872
5.61823
25.8183
-179.374
26.3712
-86.4259
30.6059
-49.8938
-38.8615
52.0707
61.5789
40.8569
-42.2666
-100.778
47.4953
-110.714
17.9825
-17.0019
28.1981
-121.397
46.8331
47.7728
4.78243
44.3681
69.289
-43.82
32.1751
48.6314
-142.786
29.5621
-9.00449
27.8648
11.7692
35.9083
0.995188
25.7593
7.07489
-60.811
57.9334
13.3834
31.8706
-187.18
-24.2767
44.8605
-120.215
75.1067
-116.424
-133.351
-25.0057
53.9211
47.3158
55.3844
-118.104
66.7538
-196.87
30.5781
6.78459
-79.5396
40.7649
27.4652
3.5734
30.6284
-127.825
36.6902
-127.183
-190.132
-1.85588
-85.0005
-93.7325
36.5144
68.286
-25.8425
-167.522
53.2515
-55.2118
62.0999
12.9395
7.29438
28.3135
43.8068
28.9891
-22.1907
16.4278
5.5684
16.2607
20.485
-93.6658
-195.241
14.4607
21.3394
4.23115
81.4532
44.6931
43.1953
62.8893
12.9423
47.9863
-141.024
-87.5305
-235.378
42.8164
80.2473
40.7242
-20.66
57.9407
37.5365
38.8589
-72.5567
5.00935
29.1323
75.6274
31.3981
-36.1152
49.424
59.2428
42.8449
42.9702
51.1302
34.1857
-62.3676
-288.64
46.0914
-100.529
-98.5283
43.2993
-260.187
-18.566
9.33797
44.3208
45.8929
47.5055
3.07565
55.2157
56.5638
29.5208
49.3888
43.8419
38.9733
35.8861
25.1846
28.4741
40.1157
53.6917
48.9295
7.70695
37.2606
2.66092
-55.0763
67.7282
51.0226
2.08044
-209.597
14.4641
52.6319
29.2162
15.4057
-106.789
12.4801
-86.8938
15.8268
-194.488
-0.260841
27.8079
-34.2776
-118.974
-114.158
64.2149
-176.915
-96.8229
-227.027
68.6839
-43.2845
24.1506
14.0541
-137.919
37.153
40.9688
25.6759
60.4287
36.4343
6.97853
-132.286
-216.894
5.73266
50.0157
12.9975
-141.702
-118.262
-55.491
-126.329
-219.744
-57.6179
8.07042
20.2227
42.4554
53.838
-51.6193
-29.0207
60.6048
47.4072
-137.882
1.87262
-134.498
28.6801
5.09882
29.5418
37.4648
7.54672
-48.8338
-68.2543
16.9285
-221.901
-118.802
10.3799
-243.749
-121.536
-136.692
-236.585
11.9004
-115.311
28.5771
-120.114
43.0219
39.1464
26.8928
54.4899
-311.288
68.8084
-32.1376
8.15309
-26.6849
43.071
31.0787
-96.5673
-102.401
44.2839
51.5706
71.2588
-204.633
-112.301
-315.552
14.7867
1.68588
-105.047
12.6056
-120.089
30.4604
-156.124
29.3873
8.86732
31.9409
62.7078
38.516
-19.0163
5.34693
-38.446
-102.321
55.8642
77.6083
-112.136
50.3381
41.6076
-0.112908
-67.7217
53.1993
51.6248
-55.0986
-35.1989
-246.83
-318.687
-24.4308
-109.422
-20.3488
31.7195
-12.7071
47.6395
-131.542
-135.417
41.115
-21.3626
-131.465
8.31181
36.1901
-137.914
-10.571
-127.593
-111.137
-122.383
72.5022
-94.3547
-0.366275
-182.049
46.6022
-141.515
-14.7806
-56.2298
-207.474
-12.4453
47.5041
-1.9754
-112.246
38.8746
-2.09064
-78.3872
-91.7639
-112.402
29.3205
34.9388
43.4351
-90.2784
62.0651
-66.4282
0.654612
7.77331
-54.0517
-292.56
-109.896
-128.214
23.2731
21.4805
-72.4793
-1.80777
-35.2546
39.5906
-253.837
42.8818
-144.94
29.4389
-12.539
-14.6473
3.56186
84.022
-34.103
-141.615
-52.203
-40.6316
42.6803
-122.779
5.20654
15.5881
-99.3231
-199.94
-95.6702
-114.073
44.4911
-129.884
11.9532
-117.257
4.45209
39.0749
10.3357
19.6839
-9.63861
54.1436
-129.568
-107.195
58.2374
26.5738
-136.532
-1.66866
-119.09
-34.1461
-4.61677
53.3346
-203.064
22.8005
-106.034
-111.736
-152.325
-125.89
-136.725
21.6668
-41.5666
43.4273
20.8935
-205.722
73.9687
-310.459
52.5674
61.1049
-140.4
8.99153
45.8811
41.8757
30.9654
-122.64
-105.002
-87.1499
42.9234
17.1889
-46.1479
-107.27
24.6103
51.0126
-0.297779
14.1997
8.23294
57.4125
-35.6904
-40.7975
-117.967
37.9906
9.834
0.400902
62.3424
52.6367
-105.973
-222.164
52.5679
25.2634
4.07875
36.5577
-34.3592
-116.828
-98.3141
-192.157
51.856
43.4867
21.4189
-17.6749
-6.58741
8.63017
45.4195
-249.271
29.5724
54.5755
58.721
-78.5546
43.7421
36.1421
45.0761
48.2455
1.99934
48.6217
-2.69445
43.5399
28.4027
46.6381
-178.685
52.977
50.4365
39.3246
31.4686
-97.5476
30.6761
12.194
-26.6962
55.9878
56.8646
-265.478
51.059
-155.475
-100.621
45.4985
46.364
-56.5884
3.1363
-114.59
-244.637
-24.0457
-166.54
-63.9131
-2.90129
39.6357
75.2432
52.0144
-59.2783
-104.287
44.0722
25.3817
-41.6196
-131.737
-102.197
-39.495
-97.3697
-87.9706
41.3771
-11.9096
22.8111
8.72858
7.93274
-3.2088
7.82737
22.4001
23.6161
32.4724
-29.2082
15.8172
-96.3354
-281.002
33.2347
26.723
34.1827
35.5494
31.9527
30.1518
21.7723
-19.1474
43.4917
37.4127
65.9227
43.3426
-130.365
-3.5003
-16.9209
-91.5812
-154.786
-76.7412
-31.358
-254.012
75.5927
11.6134
17.1682
61.1942
-188.324
-16.6055
-54.7787
-194.889
-121.819
8.60145
-29.4188
39.8462
-34.5039
-121.642
5.57694
-113.394
-24.6796
-29.634
-6.75211
35.8102
-143.349
-176.125
-32.599
26.0774
-39.6433
46.3991
63.0543
-95.3466
47.0556
27.9841
33.3851
69.2564
-192.712
29.2813
28.8487
22.2807
59.2695
-3.36694
15.2503
-26.0652
45.7057
63.1883
-201.038
-27.3334
-58.258
-37.0992
25.8674
-115.33
-48.5447
-115.833
21.8838
-99.0914
18.2147
25.9053
39.0718
15.3441
-104.837
-14.2688
-88.3925
-30.317
67.2793
75.1717
55.5749
77.7682
39.7668
43.7654
46.1356
39.209
41.4762
-67.9198
43.9424
-3.13699
-94.7076
61.4832
6.28886
-33.1127
71.7642
7.4234
-290.992
26.1965
23.0484
51.87
-53.5923
40.8422
67.0357
-188.283
-99.8379
-42.1438
33.8331
-133.242
53.0872
2.22129
52.1763
43.0162
-179.818
49.2409
-14.9368
-133.715
-122.261
-270.09
49.6686
-42.5224
42.6979
44.1478
-113.692
-2.00912
-7.66988
-28.648
-129.374
-124.729
50.7433
14.3667
-128.261
-8.75648
31.0725
19.7079
-276.101
24.9202
-161.289
24.8096
-140.677
29.2259
16.8858
21.6394
7.73155
41.9191
31.4922
17.9716
-131.949
78.3417
-23.7684
-136.781
42.1258
37.4098
-115.969
-31.6703
-155.353
26.1528
26.9296
-35.0751
3.03987
-1.79015
78.969
-9.29991
-200.899
-1.52729
-12.4342
28.201
-8.20186
40.3462
31.0046
-118.82
32.3458
-105.852
30.139
25.1012
42.3457
32.9876
0.980625
1.62133
26.0755
46.6827
29.9459
10.5332
-142.664
-12.3946
-10.6194
38.7196
-141.363
27.8756
-102.734
49.6417
-102.602
-1.86502
54.8926
49.9507
24.5977
-192.947
-129.226
47.4713
23.8759
52.5989
27.0352
8.8383
43.9181
25.5096
17.7917
16.8164
-16.8289
-62.7992
32.1577
-8.75067
56.3244
21.6613
78.8783
5.58687
17.1467
50.7581
11.9371
20.3249
46.073
34.9256
31.2739
-50.2663
-79.9314
41.5093
32.2718
24.0331
-261.614
-26.2488
-230.812
-110.912
-23.6674
39.8284
7.21555
36.6408
4.4564
68.0861
53.7563
20.9313
35.3656
20.1198
-138.392
41.8645
34.6372
9.0678
26.7585
52.0926
46.4044
-164.569
-211.096
-48.2742
37.989
25.47
9.12444
46.039
-315.367
38.0542
-57.744
42.6759
24.5212
-205.483
23.0617
48.534
9.88843
43.0714
53.6955
15.763
-31.0877
28.2664
13.0259
63.6075
-98.4433
57.7602
48.3549
-108.607
-90.9739
-5.49651
-17.5187
-169.675
-151.941
41.7086
58.9554
48.2024
59.2411
32.478
54.3702
22.7536
11.0663
24.1909
3.74569
10.8539
37.8211
15.4193
62.5166
22.4921
-97.2287
33.6492
60.8525
64.3482
-240.584
28.8173
-110.248
-93.3517
25.6076
33.4406
-177.845
26.3717
65.0235
-123.88
-96.4659
-194.466
23.1841
13.7421
13.145
40.4765
41.1854
-28.0805
-6.09071
-31.5117
-120.888
41.5581
40.9544
43.7783
25.3304
-0.610566
27.6919
12.5817
-83.7991
25.1296
37.9136
30.2936
29.0931
-14.4434
-8.86481
-118.353
43.5721
-116.037
19.9691
51.6521
33.986
-164.188
-124.13
-231.503
-38.1172
32.0542
16.8738
11.6245
43.6964
33.9374
-26.8446
-13.9869
44.3406
25.1534
-242.293
38.4485
29.4009
-24.8835
25.2414
-124.825
29.5883
-1.30535
22.0933
37.4902
38.87
48.2801
11.884
27.2127
-23.9062
43.2371
-31.3546
30.4382
44.475
-105.629