/*--------------------------------*- C++ -*----------------------------------*\
| =========                 |                                                 |
| \\      /  F ield         | OpenFOAM: The Open Source CFD Toolbox           |
|  \\    /   O peration     | Version:  2306                                  |
|   \\  /    A nd           | Website:  www.openfoam.com                      |
|    \\/     M anipulation  |                                                 |
\*---------------------------------------------------------------------------*/
FoamFile
{
    version     2.0;
    format      ascii;
    arch        "LSB;label=32;scalar=64";
    class       volVectorField;
    location    "3.7";
    object      U;
}
// * * * * * * * * * * * * * * * * * * * * * * * * * * * * * * * * * * * * * //

dimensions      [0 1 -1 0 0 0 0];

internalField   nonuniform List<vector> 
13486
(
(7.04209 -0.879122 3.09007e-20)
(8.26097 1.59009 1.45844e-20)
(12.3872 0.299341 0)
(-13.483 5.9401 -7.16089e-20)
(11.1818 -2.15101 1.03403e-20)
(12.1938 0.805089 -1.45109e-22)
(11.4812 -1.03494 -5.36721e-22)
(9.62085 -3.36669 -1.56243e-20)
(9.3288 -1.78194 0)
(9.91958 3.77203 0)
(-2.17498 16.27 -5.90153e-20)
(12.7254 -0.671462 0)
(6.27214 -1.85599 -3.07486e-20)
(12.2057 3.75866 2.74303e-22)
(11.1368 -1.45551 8.31314e-21)
(9.75707 3.98533 -9.8045e-21)
(8.70391 -3.39071 4.24582e-20)
(6.66257 -5.67664 1.13713e-20)
(11.6205 -0.192286 2.28769e-22)
(7.9032 -0.0947904 -3.12201e-20)
(-9.37085 0.744404 -2.44033e-20)
(6.35994 -1.91484 3.96139e-20)
(8.3392 1.54084 -1.16831e-20)
(17.1362 -5.04966 0)
(10.3086 3.08383 3.26237e-21)
(16.6258 -4.84997 -1.28112e-20)
(1.04774 -0.813913 4.3433e-20)
(12.4725 -1.03885 1.46034e-20)
(9.42249 -0.808041 0)
(12.2473 -3.16142 -1.22399e-20)
(-2.00481 -5.46911 -1.14066e-20)
(11.1808 -1.85964 -1.44998e-20)
(15.663 -0.878744 1.77362e-20)
(9.85473 -1.06786 0)
(9.67477 -3.21876 0)
(6.85131 0.367299 2.83168e-21)
(-0.557899 -4.46106 -7.09912e-20)
(7.65789 -3.53256 1.58624e-20)
(-0.760838 11.2464 -9.00273e-21)
(9.48607 -1.05493 1.60662e-20)
(12.5116 -3.61252 0)
(5.50315 -2.55002 -3.64233e-20)
(12.4582 -0.202373 0)
(10.2832 2.64169 -1.60353e-20)
(10.3382 2.6361 6.53751e-21)
(12.875 -0.670297 8.4637e-21)
(-4.29254 -2.87968 7.62e-20)
(9.40919 -0.706974 -1.88219e-22)
(2.5973 -6.89283 5.60511e-20)
(13.2074 0.0245058 7.1849e-21)
(9.92534 0.158142 1.83322e-20)
(5.54261 6.87418 0)
(12.9828 -1.5246 -1.25985e-20)
(7.87268 -2.80615 -2.30064e-20)
(6.69304 -6.37887 0)
(11.0562 -2.25665 -6.87101e-21)
(9.54558 0.121967 -5.53834e-21)
(5.98228 7.3087 2.02359e-21)
(15.7645 -0.793274 2.11069e-20)
(1.6147 3.11999 0)
(-1.82291 14.0106 -8.37134e-20)
(1.50787 1.59983 0)
(17.2441 2.04073 -1.68132e-20)
(-9.04516 0.999276 -2.45529e-22)
(12.127 -13.6662 0)
(-0.812133 -2.74391 -2.5409e-20)
(-14.7885 6.31851 -7.78209e-20)
(7.08549 0.468455 1.03382e-20)
(9.33521 -1.90331 -8.99049e-21)
(17.3579 -2.47158 2.83272e-21)
(-14.6832 6.77925 8.98544e-20)
(6.9993 -6.52443 2.29586e-22)
(9.52053 -0.480451 1.1999e-20)
(-1.99291 2.58599 -2.88292e-20)
(1.77262 -1.58294 -2.32551e-21)
(9.10757 0.165573 1.24959e-21)
(1.34623 -1.91717 3.23725e-21)
(11.1413 -1.45244 -3.22322e-21)
(-3.95797 -0.238771 -4.07065e-20)
(8.88082 -8.40952 0)
(8.48825 0.447776 -1.0078e-21)
(8.15176 2.16139 -9.35091e-22)
(16.9214 2.20172 -7.35297e-22)
(13.3171 0.603089 -1.81332e-21)
(7.01462 -0.916248 -6.01991e-20)
(7.4274 8.772 0)
(16.0073 -5.29395 -1.75321e-20)
(9.95519 0.267244 -2.80257e-20)
(9.29176 1.1548 -1.22321e-20)
(9.01449 5.28061 -1.09187e-20)
(12.1094 -2.74534 -9.74099e-21)
(10.2877 -2.81781 -8.19803e-21)
(7.28428 -1.4243 7.92416e-21)
(8.1621 0.598408 8.10753e-22)
(8.91238 -2.65796 3.62698e-21)
(9.5465 -0.551886 2.33671e-23)
(0.543347 -1.92941 0)
(-15.6384 5.94679 5.13109e-20)
(9.52403 -1.03524 -3.0704e-20)
(7.7127 -2.51352 1.24657e-21)
(7.47907 0.318308 0)
(12.0923 3.79179 -9.24949e-23)
(-14.0756 4.5097 3.37417e-21)
(2.42704 6.73304 -2.9005e-21)
(6.91863 8.54288 0)
(6.714 -2.1325 1.01907e-21)
(9.7818 0.289668 5.72991e-23)
(-2.10648 10.1462 -3.29383e-20)
(-3.66175 -0.118793 5.41501e-20)
(9.96292 -4.50648 0)
(8.3118 -3.90059 0)
(10.4652 -1.67172 -1.73217e-20)
(7.92989 -2.71046 1.96658e-22)
(10.4934 -0.680225 4.02285e-22)
(5.21497 -0.0786755 0)
(8.13076 -3.83779 -1.34085e-20)
(10.195 3.27073 0)
(10.3134 -1.05804 0)
(9.47461 -0.432981 0)
(7.07172 -10.0505 -2.80145e-20)
(7.04174 -5.66643 -4.03734e-21)
(-3.55232 14.23 0)
(8.76715 -2.39035 0)
(-1.28932 5.54194 2.58891e-20)
(9.10767 -3.13633 0)
(7.72782 7.06586 0)
(10.5059 -1.24834 3.75315e-22)
(10.7692 0.513262 6.81601e-21)
(8.5183 -0.356399 3.56579e-22)
(11.5016 -11.1591 -1.93493e-20)
(6.16592 7.56363 1.69046e-21)
(-6.16855 -2.78337 -1.87125e-20)
(3.99291 3.30664 5.17677e-20)
(-1.01905 0.697691 4.10897e-20)
(9.9801 0.071556 -2.99567e-21)
(9.41905 2.33744 -1.38712e-20)
(5.18545 3.86379 -8.53979e-21)
(9.71887 -4.25324 0)
(10.6383 -10.5828 7.68558e-21)
(9.7651 -2.689 -5.71044e-21)
(14.9676 -0.289113 -1.76526e-20)
(13.1664 -1.7333 1.05781e-20)
(11.985 -1.70736 0)
(9.10948 -8.35688 0)
(12.0452 -0.235032 1.38606e-21)
(21.9416 2.01191 -3.79524e-20)
(12.7019 -1.16921 1.80186e-21)
(-4.85127 8.17138 0)
(13.5499 0.0805494 0)
(9.38765 -0.833533 0)
(9.97809 0.047185 2.90065e-22)
(11.339 -1.59138 0)
(8.23464 0.366542 1.05475e-21)
(7.96959 2.03782 -7.92075e-21)
(10.9061 1.7234 0)
(13.1789 0.387419 0)
(9.92087 -4.31247 0)
(-1.56712 4.29889 -9.7545e-21)
(8.36769 -3.24995 3.26891e-20)
(10.7079 4.87393 4.27263e-21)
(13.298 0.135998 3.87833e-21)
(8.41536 -3.17035 -4.9102e-20)
(8.69854 -2.99734 8.97197e-21)
(5.00542 -2.45297 1.60375e-20)
(6.14169 6.18007 0)
(12.7871 3.77652 -2.62272e-21)
(11.7459 3.50094 3.40679e-21)
(1.95329 -0.391467 -3.8134e-20)
(12.5544 -0.488779 -4.50454e-21)
(-1.12406 0.906925 1.11058e-20)
(-2.58998 4.98109 3.44878e-21)
(10.8587 1.55997 5.46097e-21)
(9.90848 0.399311 -2.29556e-20)
(11.0794 -1.13139 6.71213e-22)
(9.17894 0.250064 -6.15092e-22)
(-4.79763 0.157462 0)
(12.1815 5.43918 2.80083e-21)
(15.3583 0.328178 2.44193e-20)
(9.75008 0.236135 -2.99211e-20)
(12.1217 -1.64288 0)
(9.69796 -1.29712 3.26425e-20)
(10.7392 -0.542653 8.17013e-22)
(11.4588 -1.24886 -1.05828e-22)
(-10.5356 7.7011 0)
(13.7475 0.636684 3.58153e-21)
(12.6189 -0.850849 -6.53845e-21)
(9.22569 -0.956501 -2.08048e-22)
(11.0889 -2.23773 -2.40798e-21)
(12.446 -3.34151 0)
(7.5134 -3.61798 -1.82229e-20)
(5.47489 -8.93655 0)
(11.8358 -0.0410832 0)
(1.07418 4.78066 0)
(7.82444 5.0189 -1.64557e-20)
(2.22805 1.46384 0)
(-4.24283 16.6872 -1.70252e-20)
(11.4886 -12.1886 4.16175e-20)
(13.1113 0.0778774 2.09617e-21)
(6.95321 -3.38084 -7.1479e-21)
(12.5616 3.48953 -4.97184e-22)
(-2.6831 -5.4348 1.11928e-20)
(10.8707 0.583528 -2.0871e-22)
(7.62643 -3.62733 -1.83815e-20)
(11.1599 -4.38717 1.78365e-21)
(10.509 4.81183 -5.12847e-21)
(2.24923 0.900632 1.60882e-21)
(5.85702 -6.51141 5.04108e-21)
(9.21712 -0.0752919 2.4238e-20)
(1.56321 3.97546 0)
(13.3951 0.724531 0)
(12.0814 -1.08867 8.5718e-21)
(15.6747 -7.22731 2.81828e-20)
(8.01102 0.051064 2.86724e-20)
(9.68477 0.314367 8.58848e-23)
(12.1689 1.02184 1.67343e-22)
(9.24294 -6.06663 3.20099e-21)
(12.6454 -2.86037 0)
(9.20664 4.89014 2.83978e-20)
(7.65951 -1.55505 0)
(15.6552 3.41911 0)
(7.17694 -3.00454 -7.96822e-20)
(13.7571 0.173519 0)
(9.68447 -2.68114 1.33328e-20)
(13.4532 0.184303 0)
(13.0894 -1.4392 -2.08745e-21)
(6.50858 -2.95387 1.13135e-20)
(12.8053 1.78444 -1.48515e-22)
(-2.80784 -9.35816 1.61016e-20)
(6.70667 -5.73583 -9.37224e-22)
(15.095 -4.73438 -4.85044e-21)
(9.72156 -1.27882 -1.04834e-20)
(14.9076 0.931714 2.73808e-20)
(14.9146 -0.179835 2.21147e-20)
(5.32753 -2.43948 1.24539e-20)
(-10.3474 0.72964 0)
(6.33745 -3.05668 1.33361e-21)
(10.2172 -1.82425 2.9245e-21)
(11.8917 -0.074179 -1.72849e-21)
(6.4972 -3.07895 3.66793e-20)
(11.5173 -0.853625 0)
(15.8168 -1.05575 0)
(10.0378 0.347381 3.53653e-20)
(11.1018 -0.453056 0)
(6.25119 -3.07558 1.21771e-20)
(-0.699906 11.2761 -5.23694e-20)
(8.90321 0.481047 0)
(12.039 -0.200831 -2.99662e-21)
(15.2837 -4.53321 3.48699e-20)
(-1.04512 -0.0521 6.36626e-20)
(10.0952 2.52728 0)
(-14.9379 7.59656 -2.75222e-20)
(5.07223 0.0493147 4.48377e-21)
(7.65497 -3.74176 1.70352e-20)
(-2.70733 5.64714 0)
(4.60535 -6.14823 4.90891e-21)
(-3.29795 0.350371 2.02208e-20)
(11.2679 -2.00289 1.26843e-20)
(9.25829 -6.43745 -4.04497e-21)
(5.61072 4.43451 1.02127e-20)
(15.7327 -1.39371 1.55331e-20)
(8.74069 1.28134 0)
(0.160776 16.2649 6.58898e-21)
(11.048 -1.45942 -1.90783e-20)
(-4.65629 1.93961 -2.5247e-20)
(10.9144 -3.31918 -8.8249e-21)
(-10.3316 9.89628 0)
(9.3404 -6.41805 -3.32232e-21)
(-4.75022 -4.46739 -2.06969e-20)
(9.88015 -0.00418696 -1.42439e-20)
(8.92598 -5.06963 0)
(7.3956 4.76333 1.2241e-20)
(9.79787 0.328934 -8.11709e-21)
(12.4173 -2.6376 0)
(13.0185 -1.00282 6.81679e-21)
(6.72903 -3.11878 1.51122e-20)
(13.9566 -4.30536 -1.95158e-20)
(7.02237 -6.08105 0)
(7.98044 -8.82192 0)
(-1.8522 2.63573 -3.53092e-20)
(12.2798 -2.48776 -2.22869e-21)
(7.89172 -8.96766 1.41018e-20)
(10.195 -0.920604 -1.22159e-20)
(9.6142 0.442526 1.77433e-20)
(22.2859 -2.65165 -3.53647e-20)
(-5.75017 14.3594 1.01329e-19)
(6.02476 1.11349 7.64319e-20)
(14.6743 0.298462 1.90312e-20)
(8.78029 -0.834686 -4.68887e-22)
(14.1581 -1.71878 2.68659e-21)
(9.8113 -0.0238004 0)
(-10.7847 1.21198 0)
(5.42807 10.1361 8.51435e-21)
(8.03282 -3.77126 1.3619e-20)
(9.98827 0.1071 -2.92526e-21)
(10.3065 -1.80037 2.00493e-21)
(10.6222 -2.19835 0)
(12.2327 -0.11672 -4.92471e-21)
(13.4299 -0.794535 -5.39223e-21)
(9.53209 0.394069 -1.62487e-20)
(12.4018 -1.35368 2.04201e-21)
(7.97907 -2.87505 -1.11094e-20)
(5.816 -6.32474 3.88098e-22)
(12.44 -2.08962 1.89931e-21)
(11.2425 -1.82876 1.3903e-20)
(9.92899 -12.3157 2.42782e-20)
(9.68827 -4.73124 0)
(10.1137 0.779178 0)
(10.9208 -0.223697 5.89114e-21)
(15.7984 -6.12798 1.93375e-20)
(1.95004 -7.02869 0)
(10.5363 7.29811 -6.51762e-20)
(-13.9381 6.22117 0)
(11.6397 5.38693 3.99249e-22)
(10.8858 -1.61131 -1.78123e-20)
(8.06463 5.92762 0)
(9.44966 2.04944 -8.45505e-21)
(5.41388 9.30566 -1.20335e-20)
(9.18568 1.12938 -1.04054e-21)
(9.21701 -0.0554323 -2.67165e-20)
(8.94654 -5.64479 0)
(0.817418 -3.76248 4.49051e-20)
(3.27697 12.5001 1.91315e-21)
(9.80371 0.254857 3.76873e-21)
(8.08963 0.844347 -1.52203e-20)
(2.81903 4.31261 1.56153e-20)
(11.7627 -2.48422 1.9184e-20)
(10.6905 -1.69267 -3.51052e-20)
(10.24 -0.909403 0)
(14.0037 -0.410391 2.97971e-22)
(10.7956 -1.6879 -6.57064e-21)
(9.92659 0.113582 4.05453e-20)
(10.4049 -2.81169 0)
(11.2299 -3.15729 -5.01913e-21)
(7.14415 2.13866 0)
(11.2149 -0.925427 -1.71489e-20)
(9.24954 -2.48123 -9.83253e-21)
(3.86577 -1.67922 1.50166e-20)
(11.3686 -1.63421 -1.0276e-20)
(10.1012 0.987896 0)
(2.82996 13.5886 -7.64856e-20)
(8.3891 -4.41471 5.13439e-21)
(8.18092 0.83699 1.43928e-20)
(10.877 -1.73771 2.55787e-20)
(11.3683 -1.25182 1.54959e-20)
(-12.1351 11.6905 -6.5245e-20)
(9.44366 -0.659689 5.27932e-23)
(10.7751 -1.00332 0)
(4.99684 -1.48726 3.55464e-20)
(15.6057 3.27761 0)
(5.82354 10.7593 -1.5603e-21)
(10.5023 -0.573023 2.23299e-20)
(13.6841 -0.737172 -5.30443e-21)
(13.2607 -1.04508 5.34189e-21)
(1.22837 -2.34621 -4.91192e-20)
(9.54475 0.371104 2.03046e-20)
(6.29805 1.09494 0)
(-2.36887 0.892834 -2.50222e-20)
(10.5329 -1.25899 -7.54681e-21)
(16.9191 -5.08817 -1.59732e-20)
(14.8253 -7.2144 2.23821e-20)
(12.875 -0.17125 0)
(12.8328 -2.77849 1.15887e-20)
(8.89598 0.899426 3.11341e-20)
(9.75608 0.369622 2.45882e-20)
(12.4144 -3.1329 0)
(8.14839 0.252074 1.76655e-22)
(10.8903 -1.92244 -2.74666e-21)
(-6.39956 -6.92325 1.1093e-20)
(7.80032 -0.0286484 3.9876e-21)
(10.5445 -1.11711 7.19819e-21)
(13.163 -0.197501 -8.67046e-22)
(10.6789 -0.944324 0)
(13.1263 -1.50665 -6.15709e-21)
(-14.4659 8.33699 2.74039e-20)
(11.9659 2.04662 -7.57552e-22)
(9.996 0.145811 1.53462e-20)
(8.29049 0.0124206 0)
(6.13825 13.919 -4.81439e-20)
(10.0241 6.25663 0)
(16.2636 5.55136 -1.54607e-20)
(9.92011 -0.0590112 0)
(10.4006 -3.22817 -3.33206e-22)
(6.60127 -0.33848 -8.5004e-21)
(7.46241 3.74798 2.9009e-20)
(-5.04771 -3.20954 -4.02328e-20)
(6.41807 -6.19913 0)
(11.1316 0.406493 -5.01696e-21)
(10.1157 1.08629 -9.33464e-21)
(4.0053 -3.95254 -2.13064e-20)
(-4.67746 -2.00426 9.63026e-22)
(8.12551 -0.0919187 -4.32475e-20)
(12.6001 -2.42813 5.91699e-21)
(10.4033 1.01471 6.60707e-21)
(7.11909 -2.06673 0)
(6.77069 1.68679 1.64128e-20)
(9.18793 -8.48449 -1.29206e-20)
(-14.4145 6.30502 4.23438e-20)
(-14.9419 8.03841 -9.54901e-20)
(5.55822 -3.7261 -4.57094e-20)
(15.2533 0.0912929 0)
(4.18181 -3.56869 0)
(10.4729 6.03621 0)
(10.2524 -0.370866 0)
(9.77491 -1.89949 -1.46675e-20)
(10.9895 -0.967629 0)
(12.3771 -3.06723 0)
(8.22045 0.69687 5.97422e-21)
(14.834 0.207816 -2.50911e-20)
(10.5925 -0.894763 -1.73684e-20)
(8.4194 1.75297 5.04301e-20)
(10.0278 0.195852 -4.66029e-21)
(11.8696 8.47291 0)
(13.1398 -1.88115 0)
(9.52719 0.427648 1.73309e-20)
(10.0748 0.0882537 2.99307e-21)
(6.32869 4.80077 0)
(-11.4742 7.52031 5.81606e-20)
(10.827 -3.31514 9.89926e-21)
(-2.5806 1.2302 0)
(11.5409 -0.878649 1.44546e-20)
(9.77232 0.306903 -1.9962e-20)
(1.55252 1.01221 -1.44716e-20)
(4.98895 -1.43443 0)
(10.0795 1.0845 1.73708e-20)
(12.931 0.992661 0)
(11.4163 -2.10704 0)
(10.9518 1.06045 -9.55979e-22)
(9.60331 0.474542 9.27936e-21)
(1.0797 -0.290691 -5.68862e-20)
(11.6254 3.42459 1.63457e-21)
(6.55951 -1.45376 -1.50781e-20)
(10.0297 -0.319324 2.12113e-21)
(10.411 1.10648 5.19088e-21)
(13.677 -1.64363 1.50617e-20)
(11.2326 -3.04039 0)
(14.4305 -3.53057 1.5893e-20)
(6.64746 -0.0321909 0)
(4.76576 12.4658 1.3858e-20)
(11.0152 -1.1413 0)
(7.18295 0.474491 2.20693e-20)
(-3.67722 -4.60566 -7.2077e-20)
(13.1926 -2.42088 0)
(0.165733 -0.16964 1.85766e-21)
(13.5409 -2.23061 -1.33548e-20)
(15.6466 2.15471 -2.14197e-20)
(8.66912 -1.15517 4.1371e-20)
(7.10175 3.84822 -1.78745e-20)
(6.53551 -1.42142 -4.29719e-20)
(17.82 5.19256 0)
(8.6207 -11.1034 3.6714e-20)
(-12.3803 12.4389 -1.66166e-19)
(10.0084 1.13595 0)
(9.17888 1.24719 1.13999e-21)
(13.8565 -0.0559449 -1.55272e-21)
(13.4794 5.48037 0)
(10.0014 0.0464269 0)
(-16.637 8.50572 0)
(-3.5758 -1.69355 8.99904e-20)
(22.8986 -3.74485 4.18909e-20)
(18.5679 2.35641 8.94042e-22)
(11.5954 5.1179 0)
(8.36608 -0.684336 2.80479e-20)
(9.21214 0.357364 1.18551e-21)
(11.5721 3.17693 -3.43785e-21)
(-12.1599 3.81874 5.01363e-20)
(9.52751 0.90835 0)
(9.37458 -0.743325 0)
(3.69417 -0.444839 -2.36513e-20)
(7.01015 -2.01661 -1.06474e-20)
(9.49845 -0.784125 0)
(9.11834 -4.23719 -1.23263e-20)
(7.21342 0.389284 -1.98908e-21)
(9.41901 -0.476028 2.11519e-23)
(4.16643 -1.75344 0)
(6.218 0.0605875 -4.38977e-21)
(9.69394 -9.90238 1.84633e-20)
(12.9944 0.962285 3.67398e-21)
(9.18436 -2.5968 0)
(6.88972 -0.484909 -1.16583e-19)
(13.1827 -0.786977 5.88886e-21)
(9.99344 0.510434 3.61916e-21)
(7.76716 -0.562073 1.28663e-20)
(13.0201 3.63552 0)
(8.47311 1.78978 -1.3407e-20)
(15.2294 2.24327 -9.83348e-21)
(6.66369 -3.62649 9.56408e-21)
(10.0478 0.276636 0)
(-3.76417 -1.24165 -9.88175e-22)
(2.33822 -0.154454 0)
(10.0892 0.248071 -1.40542e-20)
(9.95766 0.341327 6.10064e-21)
(9.29496 0.35649 -3.39654e-21)
(-6.00961 -0.161921 0)
(12.9939 0.413481 -3.15244e-21)
(5.54099 2.64714 4.38854e-20)
(11.1656 -3.2261 0)
(8.09182 0.637159 1.83494e-20)
(12.1627 -1.75837 -2.34116e-21)
(10.7275 0.136894 0)
(-4.55326 -5.44579 1.17635e-20)
(7.32751 -7.99466 -1.85644e-20)
(12.9732 -0.223168 0)
(5.82562 -0.661776 8.22885e-20)
(9.04083 1.15826 0)
(8.68745 -3.92655 1.31769e-20)
(-13.7006 6.69237 5.60607e-20)
(9.31578 -0.93141 2.1488e-22)
(12.1917 0.858786 -5.16923e-22)
(6.6759 1.6348 8.69905e-21)
(8.60331 -1.28687 -1.51781e-20)
(5.75702 -4.90864 -2.67188e-21)
(8.76034 -3.844 1.59175e-22)
(10.4742 -1.12547 6.88326e-21)
(13.0268 3.54123 5.56768e-21)
(10.5774 -4.63111 0)
(9.97698 0.0997047 -1.36043e-20)
(3.73584 1.78375 -2.84508e-20)
(6.78808 -0.0792806 0)
(6.19967 -5.44308 -4.93551e-22)
(20.2136 -3.32502 0)
(6.03817 -1.50295 3.75982e-20)
(10.2169 -3.59167 0)
(6.99482 0.20821 -5.09934e-21)
(10.9521 -0.523461 -1.27978e-20)
(-3.45668 -7.30778 2.17297e-20)
(-17.6088 8.99554 8.34602e-20)
(12.5074 -0.22862 -1.31946e-22)
(9.4344 -4.45878 1.05126e-20)
(8.7141 -2.39391 1.47696e-20)
(7.24343 -1.42649 0)
(-2.46164 1.86 -2.88079e-20)
(11.3575 -2.96273 -2.12359e-21)
(3.99243 -0.95457 -3.44943e-20)
(9.53055 -0.563126 4.55878e-23)
(7.09318 -2.62189 0)
(11.2178 0.108115 -8.03429e-23)
(-11.7156 9.73934 0)
(-13.7595 4.70754 2.77019e-21)
(1.85121 -0.105144 1.80992e-20)
(3.42563 4.17294 0)
(10.0464 -2.45794 4.24997e-21)
(11.9947 -13.6493 0)
(13.5152 5.19722 0)
(8.33573 -3.93814 -1.73065e-20)
(7.29419 1.81676 1.34206e-20)
(10.3775 -7.77779 0)
(8.97726 1.033 -8.53204e-21)
(18.3494 2.87041 4.08649e-20)
(-13.9587 8.95096 1.25637e-19)
(13.7899 7.02163 0)
(10.7733 0.000963346 0)
(-11.6704 13.3643 -7.21517e-20)
(9.17286 -0.41773 0)
(13.5825 0.528165 0)
(-2.11161 12.6151 -3.51267e-22)
(9.97272 -1.80254 -2.10068e-20)
(8.55853 -1.94317 1.26645e-20)
(16.0581 -1.90834 2.3188e-21)
(-0.126453 0.0363411 6.17121e-20)
(9.90773 0.262303 7.00672e-21)
(7.43133 -1.57438 0)
(10.8365 2.52556 -2.62522e-21)
(7.0094 -0.75354 0)
(12.3346 0.337212 0)
(10.0523 0.607913 0)
(10.9805 1.02753 -7.81097e-22)
(9.1742 -0.042367 1.23068e-20)
(11.7027 -0.66327 -2.37545e-21)
(7.61586 -1.64539 0)
(0.687994 -1.17196 -4.03155e-20)
(10.2387 5.71309 3.78648e-21)
(9.10311 -3.18092 1.37237e-21)
(7.92901 -0.829763 1.27738e-21)
(13.8005 -4.35375 2.94151e-20)
(9.89708 0.0925045 -1.15668e-20)
(-3.27002 -5.39407 0)
(12.939 -0.850593 0)
(6.65488 4.52242 0)
(6.10374 -2.59894 -2.75243e-20)
(5.16861 -14.8256 -2.27134e-20)
(3.2199 0.418218 0)
(10.9851 2.52783 0)
(14.4585 -1.87786 7.53323e-21)
(9.35168 -0.0660114 -3.35587e-21)
(9.56087 3.29743 1.42064e-20)
(11.62 -4.45769 0)
(-5.63577 12.0981 -1.58433e-20)
(11.3119 0.422761 2.07457e-21)
(6.84527 -1.83536 -2.53289e-20)
(10.9071 0.463239 -4.65461e-21)
(11.5599 3.19844 5.57047e-21)
(20.1146 -10.1322 3.7755e-20)
(6.0171 -2.56389 4.74559e-20)
(11.2414 -8.30704 1.80154e-20)
(10.8421 -0.61976 8.86288e-22)
(9.9801 0.052589 -3.42094e-21)
(8.30105 -4.01249 -3.60617e-21)
(9.44458 -9.46281 8.64444e-21)
(8.91434 11.76 -1.40785e-21)
(8.87342 -4.15976 6.54516e-21)
(14.817 -0.14764 0)
(13.8824 -2.84169 2.14556e-21)
(10.8964 0.024794 -1.27356e-20)
(14.3681 3.67699 5.26046e-21)
(6.69927 -1.63747 -2.31156e-20)
(9.05052 -3.08057 -1.48394e-20)
(10.1952 -0.111521 3.45113e-20)
(12.6641 -0.320566 -1.98328e-20)
(11.1127 -2.77536 -1.42494e-21)
(15.1971 0.359189 -9.88957e-21)
(5.65805 -0.558018 -5.05338e-20)
(10.7509 0.0731208 -1.06435e-20)
(5.59548 -0.874582 0)
(-2.49271 -7.42646 -6.87614e-20)
(10.6956 0.0905522 2.96602e-20)
(5.98853 0.220096 1.04525e-21)
(-1.6057 1.36126 0)
(9.61857 -4.29707 0)
(10.1325 2.34106 1.28016e-20)
(5.01027 -0.51348 3.13314e-20)
(13.4049 -13.8623 -7.62436e-20)
(10.5142 -3.26463 -6.77594e-21)
(10.7508 -1.70378 1.92228e-20)
(15.8997 3.18508 0)
(10.1573 2.52478 7.01516e-21)
(6.34502 -5.84633 -9.24552e-22)
(12.5022 5.18813 3.33073e-21)
(9.63645 -1.18181 -1.84306e-20)
(-1.82142 2.90522 -9.8815e-20)
(13.2614 -4.13902 -2.73153e-20)
(15.5727 -4.02341 9.10812e-21)
(11.2784 6.12653 0)
(9.85433 -4.57361 -2.41129e-21)
(9.30937 0.31353 3.1012e-21)
(8.74165 0.439744 -1.05006e-21)
(4.93741 -2.34857 4.41264e-20)
(9.51309 -1.2027 2.77588e-20)
(9.12816 5.28438 -1.78482e-21)
(-14.1313 8.43174 -7.1203e-20)
(11.4919 -1.1353 -4.50522e-21)
(10.9829 0.153437 9.53059e-21)
(-4.99128 15.1415 -1.24482e-20)
(12.0402 5.11441 -9.94375e-22)
(7.2929 -1.7908 -8.94106e-20)
(6.63854 -3.16948 -1.44471e-20)
(8.66276 0.263008 0)
(9.59981 -0.20102 -4.79344e-21)
(-6.10323 8.51941 -5.35203e-20)
(6.52141 -0.456703 4.54909e-20)
(9.76109 -1.39141 0)
(6.95841 -2.80396 9.3761e-21)
(5.79607 -2.1644 1.07633e-20)
(10.0009 0.196575 -2.98799e-20)
(-16.6907 11.656 -6.71339e-20)
(10.2013 -8.47386 -4.97003e-21)
(10.6437 -0.939667 1.19292e-20)
(11.4053 0.392971 7.38675e-21)
(8.8027 -3.98317 -1.80556e-20)
(11.4914 -0.550657 3.16462e-21)
(5.09346 -14.9479 -7.83636e-20)
(10.6071 0.051275 1.19476e-20)
(10.0079 -0.255316 -9.15407e-21)
(10.63 0.624878 -2.52915e-22)
(11.5731 -0.0874874 -2.0303e-20)
(5.58282 -2.25089 -2.07905e-20)
(10.7252 -0.47672 0)
(-5.82049 -2.47845 6.58878e-20)
(10.674 0.0954592 2.22685e-21)
(4.86297 -0.243467 -1.88996e-20)
(12.6013 0.253234 1.33908e-22)
(10.5409 -1.77975 -1.14258e-20)
(9.97899 0.108662 -2.35337e-20)
(10.4933 1.7787 3.92416e-21)
(-12.2416 9.51158 -5.97835e-20)
(13.4634 0.554402 0)
(3.20778 14.3208 2.56416e-20)
(13.8256 -0.665834 5.4367e-21)
(7.13516 -2.54477 0)
(10.6417 0.530457 7.57036e-21)
(14.4469 -0.305201 6.28717e-21)
(13.2975 0.538141 8.56318e-25)
(13.2473 -3.97439 3.55009e-21)
(3.68445 0.712195 0)
(8.89966 2.09575 2.47412e-20)
(9.32429 3.64291 5.10279e-21)
(8.64083 -4.03192 1.46516e-20)
(9.79381 -0.794523 0)
(7.16567 1.79991 -3.88546e-20)
(7.42543 -5.52534 -4.25255e-21)
(12.5753 7.56372 -1.2494e-20)
(5.71919 -0.623109 4.94173e-20)
(13.5466 -0.25142 3.71632e-21)
(-18.0296 9.30887 6.60984e-20)
(9.44554 -0.349067 -1.93142e-20)
(14.7682 -2.83028 -2.13843e-20)
(8.81426 0.922257 -1.78952e-20)
(11.6184 -0.221 0)
(9.96932 0.118077 -1.29522e-20)
(2.4079 -0.603785 6.76813e-20)
(-1.42036 0.266444 0)
(15.9158 -6.66131 0)
(8.76389 0.441321 0)
(7.20329 -3.49714 0)
(10.2677 1.69549 0)
(5.38312 -0.501066 0)
(9.45008 -6.00744 -1.01254e-22)
(19.7066 0.993841 -2.36143e-20)
(12.981 1.87882 0)
(8.20358 1.74726 3.67913e-20)
(9.06554 -5.38954 -2.64917e-21)
(10.3943 1.13726 2.98192e-22)
(-4.98711 10.1392 -2.45438e-20)
(5.40514 0.607413 -9.16426e-23)
(-13.3529 9.13903 5.28662e-20)
(10.3484 -0.0289149 -9.14167e-21)
(13.5174 -0.0179798 1.02534e-21)
(10.1357 1.64739 -8.89002e-21)
(9.32857 1.05075 -2.43495e-20)
(9.91715 5.36402 -9.5219e-21)
(17.4744 5.7441 0)
(-8.11215 0.653024 5.01633e-21)
(6.12854 -1.59552 -4.11658e-20)
(10.015 0.0403688 -3.90809e-20)
(11.5398 -2.86465 -1.09204e-20)
(11.3264 -0.0582378 3.17813e-21)
(13.5871 -1.77529 -4.34392e-21)
(10.2976 -1.44209 -2.48402e-21)
(10.0966 -2.41274 -1.48487e-20)
(10.0736 0.962858 9.67546e-21)
(11.0193 8.28314 0)
(5.26875 -4.77157 -2.50335e-21)
(8.36417 0.559085 -5.50348e-21)
(10.725 -1.06947 0)
(-1.7876 3.2242 0)
(9.2901 -4.15809 -1.44111e-22)
(-16.8433 7.87263 7.24163e-20)
(9.46376 -6.04382 -1.45115e-20)
(9.10876 13.1571 0)
(9.32665 -0.155153 -2.52502e-20)
(8.89233 1.22697 -4.69236e-21)
(-7.28711 -3.47132 3.65414e-20)
(13.7575 0.449415 3.7368e-21)
(-14.9954 9.9356 0)
(-8.90733 1.03025 7.62335e-21)
(12.751 -0.0440485 0)
(8.97309 -4.33373 2.26569e-21)
(12.4871 -2.9682 -9.19444e-21)
(10.0634 0.10814 -3.40566e-23)
(11.8078 3.5612 -5.97953e-21)
(13.5743 6.19983 -1.74786e-21)
(8.45733 -2.29692 3.06503e-20)
(1.09613 -7.71288 0)
(9.83086 -11.5426 -3.85059e-20)
(8.4113 -6.66542 0)
(13.2743 1.82891 -1.82804e-21)
(-7.97035 -1.88009 6.71944e-20)
(16.2134 -6.46378 3.02109e-20)
(1.97452 14.7747 -3.09234e-20)
(-3.6703 1.18613 -1.31989e-19)
(7.82518 -3.65877 -1.69222e-20)
(6.32666 -1.6272 -2.39329e-20)
(9.77407 -8.89395 4.94663e-21)
(10.5256 -10.803 3.14746e-20)
(5.66136 -2.31276 1.70461e-20)
(6.60002 -1.79571 2.59304e-20)
(4.77996 -13.088 2.90851e-20)
(12.0912 -11.0219 -1.89317e-20)
(8.98265 -2.69108 1.49486e-20)
(-5.50511 -4.9651 4.88707e-20)
(11.9489 -0.276109 1.77092e-21)
(9.03205 -5.63215 2.99609e-21)
(11.6667 2.30419 -2.44219e-21)
(11.051 -2.31212 0)
(7.02944 -4.05335 -9.41729e-20)
(10.5206 0.00537198 -1.4512e-20)
(9.99422 0.654794 0)
(13.0757 1.71336 0)
(8.11706 -9.5338 -1.91009e-20)
(16.2746 -2.71838 -2.53932e-20)
(12.1056 1.19235 -1.47483e-21)
(9.9435 -1.75464 2.75683e-20)
(9.70854 5.04909 9.03604e-21)
(9.15767 -0.0754475 2.3087e-20)
(-8.72628 -0.572465 -3.30032e-21)
(9.00815 3.44056 0)
(6.77449 -1.96866 2.4703e-20)
(-2.29376 11.2627 1.18263e-20)
(-5.43579 2.31573 1.00706e-19)
(8.35965 -3.10266 5.06043e-21)
(10.1245 -4.70403 -2.10118e-21)
(10.1422 -0.101043 1.17982e-20)
(-0.958286 9.36966 1.32254e-20)
(11.4575 -2.97561 1.21852e-20)
(-9.07876 -0.956543 -5.07163e-20)
(12.044 1.15007 1.19391e-21)
(9.57162 0.338899 1.01533e-20)
(5.55911 -0.84629 -2.03207e-20)
(9.20011 -0.294995 1.57109e-20)
(10.3535 -3.17934 0)
(12.1542 2.04688 1.74319e-21)
(9.78211 0.235621 2.25688e-21)
(7.22331 -1.26256 -7.94589e-21)
(9.77514 8.48058 2.71797e-21)
(8.8456 -2.62992 1.1169e-20)
(9.56108 0.0481404 4.42407e-21)
(6.70157 0.913611 -2.97274e-20)
(11.1241 -1.06534 0)
(2.22622 13.7674 -4.82875e-20)
(11.1049 0.508214 6.30689e-21)
(7.57376 -1.32208 0)
(6.99162 0.400909 1.70412e-20)
(13.5673 0.482783 0)
(8.52651 9.28864 7.91559e-21)
(12.197 -0.237079 0)
(6.08463 -6.43257 0)
(12.8742 -0.409256 4.24439e-21)
(11.9563 0.922826 1.77931e-21)
(14.9993 1.23423 -1.52259e-20)
(9.52854 0.819059 -1.10877e-20)
(7.38126 5.45285 -7.89628e-21)
(9.81463 0.469827 -4.42115e-21)
(10.3532 1.74775 0)
(-5.41428 1.24853 -1.75712e-21)
(12.3986 0.839056 1.15969e-21)
(9.29739 -4.74887 -4.43318e-21)
(11.0461 -2.32936 0)
(14.642 3.59462 8.14568e-21)
(10.945 8.49419 6.56779e-22)
(12.1089 -0.293077 7.70793e-21)
(10.9071 -4.13795 0)
(-0.515457 11.9867 7.41889e-20)
(10.2626 0.928178 0)
(12.0419 -2.70233 -5.65173e-21)
(-0.822758 -0.0296308 0)
(11.019 1.91066 0)
(10.7276 -8.02647 0)
(9.98477 -3.572 0)
(-4.45848 16.1607 -8.38347e-21)
(-1.91551 -3.02052 -1.96098e-20)
(9.11836 -0.0272845 -1.83986e-20)
(-4.4601 -5.96827 -3.05764e-20)
(6.12323 -2.45354 0)
(-0.906504 -9.85717 -2.76941e-20)
(-1.27017 0.0261842 -6.31416e-20)
(7.80866 -3.61762 0)
(7.13884 -2.34983 -2.65435e-20)
(1.80272 0.255661 -9.46875e-22)
(11.5811 2.19723 6.15665e-21)
(12.5901 -3.83726 2.28283e-22)
(9.2574 0.983418 0)
(10.8128 -3.0797 0)
(16.4406 1.81784 7.63227e-21)
(9.16351 -10.1249 3.03313e-21)
(3.97496 -9.60429 -4.37161e-20)
(7.97245 -9.39177 3.49441e-22)
(9.97106 0.0266561 9.58189e-22)
(9.26115 -0.200674 1.19492e-22)
(10.0763 0.930227 1.37769e-20)
(4.96544 12.5515 2.18202e-20)
(9.23574 -2.41552 0)
(2.7547 0.249833 0)
(11.227 -0.514079 0)
(5.72458 0.87906 0)
(8.46165 -1.41541 1.11681e-20)
(14.0867 -0.225999 0)
(-3.02628 15.1667 1.32555e-19)
(18.0745 -12.2415 -1.37049e-21)
(6.45212 -1.8491 -3.91355e-20)
(9.24627 -5.39057 3.30443e-22)
(-4.92403 -3.56471 -3.68454e-20)
(-0.782764 15.7671 -5.92687e-20)
(10.7453 0.148253 3.50096e-21)
(-9.47128 1.7627 -5.30116e-20)
(4.58744 11.1161 2.50362e-20)
(13.1875 -0.273923 0)
(11.0753 -1.58002 0)
(11.0056 -5.14954 0)
(10.5288 -1.87197 6.03456e-21)
(12.7109 -12.418 0)
(9.17125 3.31271 0)
(10.0324 0.0332629 0)
(8.63845 -1.93559 1.18887e-20)
(10.3358 1.02312 -1.32401e-20)
(21.8074 -0.136339 0)
(10.0794 -5.70052 -1.18076e-20)
(9.83461 1.07646 -1.32209e-20)
(12.4535 4.9282 -7.26773e-21)
(7.8948 -3.58199 1.59492e-20)
(9.42294 3.72483 1.04323e-22)
(9.70453 -7.98701 -1.35851e-21)
(-5.55294 6.21768 3.47008e-20)
(6.15583 -5.22079 -7.08426e-21)
(11.8665 0.975031 -2.23736e-21)
(7.43441 -11.4184 -6.60971e-20)
(8.94092 0.577062 -1.75416e-20)
(10.4868 0.0470553 0)
(5.59314 1.13196 1.42865e-20)
(9.72466 0.344582 1.81804e-20)
(6.63932 -5.93491 -4.86079e-21)
(10.2633 -1.36621 -7.28375e-21)
(5.15603 -0.63077 -3.4081e-20)
(11.9753 0.813581 3.43008e-22)
(15.4951 2.40729 1.42253e-20)
(10.0102 0.432891 0)
(13.0591 -2.76551 3.07712e-21)
(7.03736 14.754 -6.57392e-21)
(9.11117 -6.24997 1.20287e-20)
(-11.0412 2.7348 -5.71961e-20)
(9.8202 0.0857413 9.57529e-21)
(11.2916 -0.575765 -9.42211e-22)
(13.0256 -0.316481 -2.77191e-21)
(11.2401 -0.65639 0)
(8.0345 -4.76551 0)
(7.39059 -3.47437 1.98848e-20)
(-14.7236 9.85854 7.25202e-20)
(8.29806 0.364461 -1.84031e-22)
(9.72421 0.330818 3.62571e-20)
(12.9916 -2.8681 -9.23086e-21)
(7.11748 1.55448 0)
(8.90401 0.648066 0)
(7.81319 -1.53192 -1.52814e-22)
(12.5437 -0.172259 6.47512e-21)
(9.66808 3.40221 1.93007e-20)
(12.0114 -1.48961 0)
(11.0596 -0.173923 0)
(10.2685 -2.67584 2.00649e-20)
(9.65981 -0.694039 1.50082e-20)
(-3.6354 3.24801 -7.23427e-21)
(7.81868 -0.324808 0)
(10.3842 0.672438 5.62283e-21)
(12.1727 -6.16064 -4.55532e-21)
(-6.81917 8.64777 -6.56199e-20)
(9.70908 -0.0562914 -2.05526e-20)
(18.5771 0.525263 0)
(17.2854 -2.48042 2.026e-20)
(12.4891 -5.07387 -9.48762e-20)
(-2.73855 -0.0324741 0)
(7.13999 -0.038381 -3.91208e-20)
(9.50225 0.632098 -1.18757e-20)
(6.28318 0.475055 -1.8224e-23)
(12.0223 -2.84457 6.1665e-21)
(8.08703 8.69528 1.87464e-20)
(10.7663 0.0744607 0)
(5.08032 -1.59304 -2.1255e-22)
(13.0639 -3.19429 7.6767e-21)
(10.4962 4.36461 -9.20349e-20)
(10.2344 1.65383 1.05273e-20)
(1.50965 -5.72858 -2.57e-21)
(9.47627 0.0495604 -4.53351e-20)
(9.94535 5.29203 1.10384e-21)
(-0.541713 14.5716 5.76462e-20)
(8.49668 -1.76468 0)
(7.65856 2.56953 2.67801e-20)
(5.47068 -2.36181 1.37769e-20)
(10.6943 -0.510064 -2.42237e-20)
(9.81919 0.226216 -1.64183e-20)
(11.3303 -2.63535 4.64896e-21)
(8.13598 -0.584864 4.08195e-20)
(11.7572 -0.218245 -2.05655e-21)
(8.82431 0.723472 1.01035e-20)
(6.02544 -5.52745 -2.26885e-21)
(16.0748 -1.53246 -2.54966e-20)
(12.3237 5.49565 -5.64281e-21)
(13.1509 -13.0529 5.96495e-20)
(10.0445 -0.149453 0)
(12.4906 -5.50958 0)
(11.5443 1.4851 0)
(6.4353 -1.66347 3.01133e-20)
(9.69367 0.0660811 -2.61546e-20)
(8.91337 1.30541 0)
(7.38727 -1.37193 -2.35271e-20)
(8.86899 1.20893 0)
(8.50116 -1.22307 -1.84313e-20)
(8.3205 -4.70507 -7.66625e-21)
(9.1311 -2.23277 -1.64766e-20)
(10.9043 0.0718456 0)
(9.61476 0.285189 0)
(7.53428 -1.34739 -1.69398e-21)
(12.713 1.5943 1.47753e-22)
(13.4567 -0.413736 7.65223e-21)
(11.4884 8.80218 -1.05776e-21)
(11.6807 -2.02158 0)
(8.42304 -3.00117 -8.38153e-21)
(-1.9346 0.798347 0)
(3.0109 3.779 -1.63139e-20)
(13.769 6.19442 0)
(11.031 -0.51218 1.85346e-21)
(5.69516 -0.422546 1.31193e-20)
(7.43987 -0.403912 1.31387e-20)
(8.30153 -0.572001 1.56594e-21)
(17.8605 -12.6122 -1.35473e-19)
(9.55076 -0.82123 3.77898e-20)
(10.2883 1.71758 -3.18102e-22)
(13.1074 -1.29609 5.47653e-21)
(9.62505 -1.97967 -8.38272e-21)
(-2.31267 0.970078 2.98045e-20)
(13.0737 2.52129 0)
(9.84865 0.235416 4.76976e-23)
(7.50388 -1.6642 0)
(-1.0133 9.61102 -3.96956e-20)
(8.51796 -3.00322 -4.36227e-21)
(8.22634 -0.441832 -1.34014e-20)
(7.81049 0.253251 -1.96134e-22)
(12.9676 0.239272 -5.17348e-21)
(8.18212 0.0527907 2.76769e-20)
(11.8492 -0.706063 -1.01845e-20)
(4.10545 -9.38094 0)
(-7.2028 13.3137 0)
(13.1692 0.628958 2.39546e-21)
(14.571 1.22057 0)
(9.49454 0.961378 -6.04224e-21)
(8.63914 6.1042 -1.17428e-20)