/*--------------------------------*- C++ -*----------------------------------*\
| =========                 |                                                 |
| \\      /  F ield         | OpenFOAM: The Open Source CFD Toolbox           |
|  \\    /   O peration     | Version:  2306                                  |
|   \\  /    A nd           | Website:  www.openfoam.com                      |
|    \\/     M anipulation  |                                                 |
\*---------------------------------------------------------------------------*/
FoamFile
{
    version     2.0;
    format      ascii;
    arch        "LSB;label=32;scalar=64";
    class       surfaceScalarField;
    location    "5.3";
    object      phi;
}
// * * * * * * * * * * * * * * * * * * * * * * * * * * * * * * * * * * * * * //

dimensions      [0 3 -1 0 0 0 0];

oriented        oriented;

internalField   nonuniform List<scalar> 
7520
(
-0.999026
0.79544
0.203586
-1.33007
-0.209776
1.53984
0.01701
-1.91142
1.89441
0.231377
-0.0323115
-0.199066
0.118732
1.49608
-1.61481
-0.0881859
0.0948042
-0.00661834
-0.294253
2.09421
-1.79996
-0.195431
-1.78366
1.97909
-1.4751
1.49211
0.84311
-0.0573514
-0.785759
0.121768
-0.262699
0.140931
-0.292202
-1.65173
1.94393
0.712627
-0.111006
-0.601622
-0.0970856
0.134372
-0.0372859
-1.90952
0.896864
1.01266
0.116135
1.57364
-1.68978
0.0355268
-0.0722485
0.0367217
-0.220179
0.012186
0.207993
0.0163001
0.0558002
-0.0721003
0.0263411
0.00918572
-0.396706
-0.284726
0.681432
-1.07447
1.19061
-0.0297974
-0.312499
0.342297
0.130893
-0.141345
0.0104524
0.0317548
-0.226823
0.195069
0.251518
-0.243199
-0.00831912
0.855436
1.12512
-1.98055
-0.0352103
0.313691
-0.278481
-0.0659095
0.0822096
0.195422
-0.0307772
-0.164644
-1.14925
1.74683
-0.597582
-0.0470484
-0.0179605
0.0650088
-1.83866
2.03594
-0.19728
-0.300335
0.256705
0.0436304
-0.267548
-1.27578
1.54333
-0.445767
0.991615
-0.545848
0.274688
-0.544927
0.270238
0.775026
-1.52849
0.753463
0.088722
-0.310924
0.222202
-0.0441121
-0.100389
0.144501
-0.0273236
0.258701
0.359066
0.255975
-0.615041
0.284681
-0.0331629
2.12731
-1.60092
-0.526382
-0.539916
-0.614802
1.15472
-1.47174
1.61398
-0.142236
-0.0841403
0.0320387
0.0521016
0.259139
-0.0761925
-0.182946
-1.34203
0.192785
0.271732
-0.0762263
-0.195506
1.79787
0.179027
-1.9769
-0.727432
0.260115
0.467316
0.161911
-0.149148
-0.0127626
1.0672
0.479975
-1.54717
0.0140693
-0.102255
-0.754278
0.128769
0.625509
0.394369
-1.263
0.868632
-0.0418488
-0.121976
0.163825
-0.115226
0.0681772
-2.19426
1.1076
1.08667
1.40567
-0.647218
-0.758448
-0.0115624
0.058338
-0.0467755
-1.27131
1.00376
0.834438
-0.121811
0.0201563
0.141755
0.00393541
-0.101021
1.10461
-2.26491
1.16029
0.154166
1.6437
-1.2365
0.976014
0.260487
0.312934
-0.235887
-0.0770467
-0.506784
0.901153
0.230317
-0.909898
0.679581
0.337276
-0.0929473
-0.244329
0.381974
-0.435157
0.0531828
0.775787
-1.44562
0.669829
0.126174
-0.110209
-0.015965
1.92897
-0.821371
-1.1076
0.398876
-0.75037
0.351493
1.69055
-1.1911
-0.499449
-0.815705
0.0614269
-1.47724
-0.717027
1.31294
-0.20839
-1.10455
0.224927
-0.61289
0.387962
-0.16668
-0.133655
-0.236835
0.0166568
0.212218
-0.0167961
0.0108374
-0.0504741
0.0396367
0.958074
0.970899
-1.85342
2.10321
-0.249792
0.597303
0.808363
-0.95226
1.12075
-0.168489
-0.00862687
-0.0354681
0.044095
1.33309
-1.62529
0.239421
0.193298
-0.104576
0.453213
0.250607
-0.70382
0.00748879
0.0828078
-0.0902966
-0.548009
0.392936
0.155073
1.30729
-0.531505
-0.716962
0.620656
0.0963062
0.742701
-1.12521
0.382507
-0.0864316
0.109097
-0.0226653
0.0037108
-0.00945449
0.00574369
2.48064
-1.3758
-1.10485
0.527645
-0.429141
-0.569886
-1.34511
0.838329
-1.93447
1.64021
0.163837
-0.0770689
-0.0867684
-0.00239831
0.124167
-0.156823
0.155646
0.00117731
-0.150293
0.222009
-0.0717157
1.90567
-1.13065
0.0898708
-0.0353279
-0.054543
-0.757625
0.360919
-0.0196682
-0.0490624
0.0687306
0.100021
1.21292
-0.805792
0.495993
0.309799
1.32414
-1.98723
0.663092
0.0293958
0.101497
-0.187117
-0.540315
-0.387917
0.0999565
0.287961
1.06618
-0.223073
0.0636549
-0.082078
0.0184231
-0.0217711
0.0121333
0.00963787
-0.0225442
0.0144386
0.00810555
0.684375
-1.77983
1.09546
0.384891
-0.414689
-0.344935
-0.0525848
0.39752
0.0904153
-0.000544508
-0.015689
-0.345391
0.36108
0.14109
0.0311112
-0.172201
-0.0622769
0.203367
-0.618678
-0.187114
-0.139406
-0.571951
0.711357
-0.87161
1.90029
-1.02868
0.409855
-0.424749
0.0148934
-1.16447
-0.180643
-0.0329599
-0.0490177
0.0819777
1.42797
-0.36077
-0.643496
0.425397
0.2181
-0.000837072
0.114095
-0.113258
0.286305
-0.0740293
-0.212275
0.220113
-2.13153
0.330791
-1.80253
-2.26042
0.792863
1.46755
-0.835835
-0.400666
-1.26717
1.12649
0.140688
1.98368
0.211649
-2.19533
0.179427
-0.223539
-0.0819231
1.24426
-1.16234
-0.246932
-0.362887
0.60982
0.132687
-1.39986
-1.84013
0.00146503
-0.00407645
0.0149139
0.0623746
-0.117707
0.0553321
0.283686
-0.325535
0.971771
-0.22907
-0.152683
0.125359
-0.045714
0.0120448
0.0336692
0.754377
-0.427592
-0.326785
-0.444322
-1.4652
-0.0157864
-0.231146
0.0374233
-0.581946
0.544523
0.231435
-0.0517264
-0.179708
-1.56783
0.93703
0.630797
0.705153
-0.58642
-0.0517101
0.443201
-0.391491
-0.256012
0.287767
0.51502
-0.242413
-0.272607
0.990575
-0.537361
0.234574
-0.3108
0.928364
0.288953
-1.21732
0.297196
-0.332406
-0.364002
-1.45216
1.81616
1.26764
0.676807
0.684987
-0.46006
-1.34614
0.900378
-0.713104
0.924742
-0.211639
0.0129509
-0.0370373
0.0240864
0.276846
-0.321492
0.0446461
-1.49163
1.59166
-0.270951
-0.150802
0.421753
0.230815
0.00061909
-0.849428
0.886852
0.562585
-1.05869
0.496104
-0.514787
-0.0332224
0.675643
-0.400954
0.136777
-0.010603
-0.46164
0.265479
0.196161
0.0728058
-0.223099
-0.342949
-0.125527
0.468476
0.130754
0.206522
-0.835379
-0.610238
-0.748777
-0.81905
0.00427278
0.0374001
-0.0416729
1.62629
-0.534185
-1.0921
-1.28262
0.411014
-1.15894
2.13724
-0.978301
0.357195
0.157825
-0.386509
0.303397
0.0831117
-0.771094
0.583977
0.582508
-1.12242
1.7492
-0.0508703
-1.69833
-1.46264
1.92628
-0.463644
-0.0227538
0.0851284
0.406862
1.40714
-1.81401
0.0330665
-0.1626
0.129534
-0.135391
1.79235
-1.65696
0.00164331
0.107891
-0.109534
-0.900426
1.23548
-0.335058
-0.1183
-0.652794
0.0814212
-0.42437
0.283912
-0.160509
-1.67699
1.8375
0.00680875
0.0489915
-1.61503
0.779647
0.126695
-0.237914
0.111219
0.036628
-0.0583992
0.144365
1.56373
-1.7081
-0.580968
-0.55079
1.13176
-0.507346
0.402773
0.104573
2.51404
-1.6349
-0.879144
0.442637
-1.02361
-0.0295152
0.0367898
-0.00727463
0.104664
0.728139
-0.832803
0.0411185
-0.0449916
0.00387313
0.824397
0.815573
-1.63997
-0.222772
-0.49419
-0.0576857
0.164011
-0.106326
-0.934278
0.707526
0.226752
-0.0710089
0.0387531
0.0322558
1.65769
-0.0314038
1.08733
-2.03933
0.952
-2.83336
1.22587
1.6075
-1.20714
-1.62623
-0.374053
0.492643
-0.11859
0.442456
-0.390051
-0.0524045
0.746306
-1.62842
0.882112
0.0382999
1.08857
-1.12687
-0.915624
0.707234
1.12802
-0.199652
1.07439
1.22935
-2.30374
-0.174748
0.0801538
0.0945944
0.0466824
-0.980961
1.8767
-0.489492
-1.38721
0.132115
-0.0990481
0.124297
-0.050237
-0.0220114
1.06053
0.816167
0.215676
0.652693
-0.868369
0.355603
-0.0419121
-0.0190681
0.0661628
-0.0470947
0.380368
-0.421361
0.0409931
-1.81049
0.855201
0.955293
0.266126
0.176329
0.706247
-0.845654
0.441936
-0.0303313
-0.411605
0.131625
0.127514
-1.80536
1.76324
0.0421258
1.16342
-0.600832
0.0585304
0.099515
-0.158045
-0.0293958
-0.198692
0.228088
0.117352
-0.210299
1.66219
-0.557578
-0.00279397
0.110418
-0.107624
0.00179824
-0.0475123
-0.210708
-0.0519911
0.888682
-0.638075
-0.650055
0.688355
-0.387035
-0.074605
2.09421
0.025852
-0.0247711
-0.00108084
0.0113023
0.87738
-0.19865
0.129079
0.0695709
0.0332289
-0.0295181
-0.275815
0.634881
1.41662
-1.49854
0.410867
-0.366414
-0.044453
0.301097
-1.20152
0.196146
-0.211835
-1.83015
1.66964
-0.0823782
0.052863
-2.02558
0.217365
-0.218202
-0.0733665
-0.0250129
0.0983795
-0.60574
-1.20475
1.54921
0.931436
1.72367
-0.786636
-1.65173
0.112908
-0.0492532
0.0814315
0.0502501
-0.131682
0.177715
-0.238004
0.0602887
-1.23192
0.617118
-0.193863
-0.261031
0.454893
0.333829
-0.391181
-0.113016
-1.96229
2.0753
0.998051
0.199053
-1.48814
1.28909
0.92635
1.10959
-0.711209
1.54634
-1.13948
-0.0548613
0.385556
-0.330695
-0.884406
0.746238
0.138168
-0.0652888
0.0624948
-0.0821521
0.322955
-0.240803
-0.262318
-0.26186
0.524178
-0.53189
1.79953
-0.277028
-0.364177
0.641205
-0.0557918
-0.0283485
0.26167
-1.21393
0.0216036
-0.0406717
0.00837264
-1.84398
0.988817
0.855164
0.35838
-0.469385
0.0088744
-0.0190184
0.428874
1.07926
1.43479
1.64344
-0.529872
-1.11356
0.116822
-0.0433688
-0.0734531
0.735546
0.955007
0.0990028
-0.0175713
0.677235
-2.09913
1.4219
-0.0505062
0.0680964
-0.0175903
0.564712
0.74258
-0.212616
-0.0983086
0.75576
-0.540084
-0.5747
1.43014
0.153488
0.0103495
1.83892
-0.514785
0.142185
-0.134696
1.76805
-0.12461
0.0991546
0.396266
0.0146014
0.0171473
0.295787
-1.75544
-0.837822
0.975257
-0.137435
0.00575634
-0.115966
1.74506
0.0738985
-1.81895
-0.712897
0.435868
0.219903
0.0664017
-0.303826
0.0679386
0.0138954
-1.205
1.5476
-1.56292
0.0153146
0.0129121
-0.28741
0.274498
-0.701199
1.26591
-0.834765
1.51914
0.0392055
-0.0262934
0.791796
-0.295803
1.93403
-0.600943
0.00515941
0.117428
-0.122588
-0.0650327
-0.100275
0.165308
0.113903
0.00291867
-0.190363
-0.736385
-0.262826
-0.0835927
0.346418
0.605425
1.29486
-1.72579
1.36179
0.10891
-0.453845
-0.767306
0.997623
-1.14555
1.33408
-0.188538
0.531605
-1.77821
1.64282
1.87701
-0.918938
1.31126
0.816046
-0.0670249
0.270502
1.2771
-1.31585
0.282235
1.03361
0.247171
-0.277948
0.369549
-0.103423
-0.209599
0.147322
-0.0864471
-1.51448
0.498009
-1.2219
0.723895
-1.26268
0.776366
0.486309
-0.165004
-0.744895
-0.0653088
0.0537463
0.0862436
-0.00415613
0.165594
-0.161438
-0.535208
0.483498
0.881598
0.995415
-1.46264
-0.0201567
-0.00238753
1.61544
-1.42823
-0.187208
-0.414202
1.82135
-1.64205
2.53527
-0.893227
-0.756002
1.04407
-0.288067
0.104571
-1.37588
-0.0504744
-0.339577
-0.272346
0.419951
-0.147605
-0.0206432
0.0111887
1.32417
0.708482
-1.27699
0.568512
-0.000798153
-1.56347
1.56427
-0.0517663
-0.105057
-0.00302658
-0.472371
0.475398
-0.610256
1.5062
-0.895944
0.195253
-0.135273
-0.0599795
-0.375618
0.358779
0.0168393
-1.97946
1.76969
2.1004
-0.454287
-1.64611
-0.0991087
0.0647035
0.0344052
0.0123516
0.165364
0.103341
-0.618128
-0.856984
1.68138
-0.036031
0.0163628
1.7492
-0.961919
1.06658
0.0768119
-0.0768119
-0.129683
0.271595
-2.12502
2.25075
-0.927271
-1.32348
-0.749771
0.824404
-0.0746331
-0.0704291
-0.285301
0.35573
1.02052
-1.19198
0.171468
-0.58893
-0.219721
0.808651
0.824874
-2.00498
1.1801
-0.0866312
-0.797775
-0.207575
0.142543
-0.202866
-0.58875
0.791616
0.764039
0.418235
-1.18227
-1.29986
-0.416413
0.663373
-0.246961
-0.803619
1.19501
-0.391391
1.44271
-1.29834
-0.00948567
-0.25334
0.0280012
-0.0474345
0.429409
-1.18772
1.06225
0.125479
-1.30532
1.82614
-0.52082
-0.0165774
0.129081
-0.112503
-1.4958
-0.769105
-0.0612655
-0.00464398
-1.63451
0.475575
-0.365164
0.283012
-0.205943
-0.550059
0.0327937
-0.0832999
-0.775314
1.8497
0.0426087
-0.355108
-1.52697
0.131731
1.39524
0.870862
-0.760254
-0.110608
-0.881944
0.168841
0.214329
-0.562573
0.348245
1.58851
-0.133464
-1.45504
-0.032063
0.00415649
0.0279065
-0.37708
0.767994
0.698285
-1.46628
-0.550671
1.44753
0.228817
0.669913
0.758053
-0.106029
1.58263
0.185413
-1.39377
1.39297
-0.00465866
-0.0648051
0.0694637
0.0509874
-0.166266
0.115279
-2.03397
0.391927
-0.0799064
0.335881
-0.611549
-0.226272
0.248051
0.850821
-0.274841
-0.57598
0.187575
0.0971058
-1.17111
1.81404
-0.642932
0.147648
-0.247923
-0.0683314
0.345178
0.242187
-0.514534
-0.206677
0.207408
-0.000731585
0.17919
-0.0441908
-0.134999
0.783195
-1.04124
0.258046
-0.0294187
-0.0459102
0.0753289
-0.285255
0.316777
-0.0315213
0.0850728
-0.418605
0.333532
0.300686
-0.0535148
0.139604
0.315896
-0.4555
1.42354
-1.02946
-0.951087
-0.0136904
-0.409151
0.422841
0.0857116
-0.0367201
-0.275003
-0.232343
1.12537
-0.274552
-0.0907692
-1.21333
1.3041
-0.357522
-0.0303955
-0.0237614
-0.594916
-0.161434
-0.214184
0.166347
-0.164704
-1.39176
-0.0343321
-0.0784359
0.112768
1.29544
-1.00648
1.07741
1.02299
0.38634
0.0555962
-0.158683
-1.60482
1.7635
0.703921
0.494975
-1.1989
-0.0612389
-1.03546
0.677184
0.358277
0.931506
-0.0606444
0.00612432
0.0410987
-0.047223
2.18591
-1.18391
-1.002
0.133476
-0.298728
0.165251
0.693454
0.431229
-1.12468
0.068137
0.099819
-0.167956
1.72908
0.0255839
-1.75466
-0.10072
0.112907
-0.25005
0.292659
0.0539797
-0.0116254
-0.0423543
0.0421322
-0.278968
0.0492207
0.0181206
-0.0673413
-0.490018
-0.660896
1.15091
1.14362
0.444888
0.974984
-1.06575
0.710021
-1.32028
-1.85926
1.74625
0.0547049
-0.0425716
0.256122
-0.60295
0.346828
0.730789
0.992878
1.12625
-1.32809
0.201838
1.21999
-0.550078
-0.129431
0.0860619
0.0889458
-0.38246
0.293514
-1.61215
-0.385549
1.9977
-0.40718
0.448009
-0.0408284
-0.0058402
0.0826521
0.23194
1.26414
-0.134699
-0.0400488
0.889226
-1.95735
1.06812
-0.764985
-0.343112
1.1081
1.58831
-0.500979
0.166057
0.55414
-0.917028
-0.258584
0.00439694
0.254187
0.0189884
-0.183633
-0.476488
1.18497
0.00884849
0.03227
-0.266525
0.0946952
0.17183
0.0262033
0.994313
0.324306
-0.896257
-0.452953
-0.416535
0.516491
0.734771
-0.940714
0.000728171
-0.036056
-0.108277
0.0862655
-1.93822
0.908752
0.0187043
0.102503
-0.121207
-0.303138
0.234639
0.0684994
0.225885
0.862683
0.0623615
-0.00402352
-0.0225287
-1.65585
1.67838
0.224247
-0.767816
0.543569
-0.0104302
0.0588808
-0.0484507
-0.69841
1.19642
-0.134984
-0.367767
0.502751
-0.274531
0.488859
-0.709433
0.952938
-0.243505
-0.606929
0.528098
0.0788309
2.0503
-0.0666124
0.0253348
-0.236066
0.210731
-0.237558
-0.107833
-0.175062
-0.0550414
1.1413
0.961917
0.242958
-1.40483
1.16187
-0.805066
-0.176478
0.981544
-0.10138
0.176685
-0.0753048
0.0981605
0.159602
-0.257763
-0.0708207
-0.158091
0.228911
-0.0261769
0.0477805
-1.098
-0.237998
0.011175
-0.0850277
0.0443559
-0.121824
0.385617
-0.263793
-0.226021
0.260028
-0.0340066
-0.00989564
0.109069
-0.0991738
0.79292
-0.383381
-0.072119
0.0216449
-0.142921
-0.600434
0.743355
1.20667
-0.980789
0.0122574
-0.35489
0.342633
-0.68219
-0.443018
-1.35533
1.5095
1.18825
0.0560093
-1.29882
0.840299
0.458516
0.213201
-0.0914433
-0.121758
1.75158
-1.75158
-1.59065
0.113411
-1.07575
-0.246047
-0.608957
0.855004
0.582566
-0.545309
-0.037257
-0.214192
-0.113596
0.0964268
0.0171697
0.00815376
0.199601
-0.207755
-0.500235
1.26276
-0.762527
0.265984
-0.169756
-0.0962278
0.78953
-0.684959
-1.04349
0.238422
-0.0387382
-0.211032
0.24977
-0.00529005
-1.31056
-0.517983
-1.22585
0.707867
0.667814
0.0177504
0.228956
-0.246707
-0.26852
0.325519
-0.0569992
-0.223671
0.165985
-0.0805203
-0.100307
0.0269407
0.0353235
-0.0157246
0.209424
-0.193699
-0.289624
-0.0928362
-0.223494
0.363098
0.0403653
-0.0728412
0.0324759
-0.0461793
-0.0944701
0.140649
0.0357202
-0.0717634
0.0360432
-0.0628997
0.16423
-0.10133
-0.623426
1.34732
0.570464
-1.13937
0.56891
-0.148367
-0.0782754
0.226642
-0.0807436
-2.32189
2.40263
0.881666
-0.577779
-0.303887
0.452525
-0.0368961
-0.201108
-0.0446683
-0.00439405
-0.053431
0.186907
0.314112
-0.946307
0.632195
-0.465814
-1.33955
-0.198212
0.833534
-0.635322
0.0334411
0.0569743
0.401056
-0.269514
-0.131541
0.345568
-0.488488
-0.665372
0.102383
-0.275265
0.172882
-0.520839
0.326976
-0.151447
0.576843
-0.271717
0.242321
-1.69982
0.324021
-0.293423
0.535611
0.0299463
-0.237522
0.381705
-0.0881906
0.318197
-0.300446
-0.0825492
-1.31693
0.693501
1.98777
-0.195425
-1.67699
2.25217
-1.08127
-1.1709
-0.0953142
0.48825
-0.0736453
-0.742059
0.505543
-0.432738
-0.240974
-0.0176107
-0.591747
-0.406335
0.998082
-0.00821484
0.143233
-0.135019
0.0282009
-0.864036
-1.98482
-0.30704
-0.331894
0.638934
0.572206
-0.347959
-0.239803
-0.0370285
0.276832
0.46236
-0.0774691
0.159671
0.05353
1.99911
-1.17423
-0.911232
0.319485
-0.246941
-0.0491509
0.296092
-0.0458346
-0.108284
-1.0837
0.164544
-0.298198
0.133654
-0.0818309
-0.0333947
0.907374
-1.16586
0.258482
-0.647029
-0.0483772
1.79996
0.0109839
-0.611418
1.3181
-2.05222
0.734121
-2.01982
1.41495
0.60487
0.144731
0.101373
-0.246104
0.155802
1.18843
0.00435997
0.823663
-0.828023
-0.0405331
0.150951
-0.00940434
-0.0897043
-0.0298917
-0.263836
0.293728
1.23984
-1.39853
0.170784
0.173775
-0.107682
-0.0660929
-1.45474
-0.135905
-0.577992
-0.621124
0.607434
0.106477
0.00344727
-0.109924
-0.601119
0.276735
0.324384
-0.389364
0.334502
-1.07654
-0.560697
1.63724
-0.111051
0.206225
-0.276654
0.172769
-0.602602
0.429833
-0.220395
0.996761
-0.153261
-0.844632
0.0948603
0.775346
-0.0690991
0.909714
-1.40995
-0.0515741
0.0427155
0.00885855
1.09152
-0.48004
-1.13477
-0.340536
-0.0716463
0.412183
-0.0524537
0.199776
-0.111765
-0.112387
0.224152
0.26302
-0.246363
-0.206607
1.62323
-0.189788
0.301987
-0.0674134
-0.429426
0.410407
-0.175996
0.0732444
0.102751
0.239024
-0.106973
-0.132051
-0.140467
-0.0398218
0.180289
0.259177
-0.0853354
-0.173841
-0.0651705
0.0748084
-0.208877
-0.0785329
-0.0483455
1.18715
-0.198763
0.0717151
0.127048
-0.0489171
0.031996
0.0169211
0.0431265
-0.42128
0.378154
0.214257
0.228737
-0.64515
0.00372828
0.356973
-0.0732871
-0.277803
0.0217903
-0.126944
-0.0356568
1.80245
-0.986874
0.0880733
-0.243969
0.155896
-1.58562
0.230292
-0.0750281
0.0845598
-0.0095317
-0.0393543
-0.0316545
-0.595174
-1.42464
0.355219
-0.0580236
-0.830176
-1.26896
-0.0932638
-0.173261
-0.561103
0.733873
0.985369
-0.720674
-1.14607
1.38903
-1.91832
0.306163
-0.216718
0.110986
0.105732
0.124647
-0.175343
-0.393788
0.569131
-0.0562352
-0.0513888
-0.449309
-0.870829
1.32014
-0.799603
-1.07851
1.87812
0.607005
0.348706
-0.955711
-0.0023831
0.349923
-0.24754
-0.265688
-0.248846
-0.166333
-0.101665
0.267999
0.253374
0.356446
0.273207
0.127849
0.243452
-0.600464
-0.0104939
0.0363459
-0.656087
0.874731
-0.218643
-0.141482
0.16556
-0.929828
0.044552
-0.00715188
-0.833648
0.0243136
0.336766
-0.692883
-0.15277
-0.136114
-0.901072
-0.323
1.22407
-0.15412
0.659664
0.16154
0.662865
-0.288789
-1.00629
-0.931924
-1.25836
1.42983
0.0746649
0.112365
0.00887045
-0.0592809
0.0504104
-0.625157
0.571695
0.0534621
0.679806
-0.798106
0.198105
-0.179401
-1.14467
-0.154142
-0.318248
0.319071
-0.000823269
1.06383
-0.280634
-1.45022
-0.128938
1.57916
-0.0459494
-0.243675
0.205661
0.10666
-0.312321
-0.228887
0.387846
0.139799
-0.0532543
0.00686761
0.0463867
-1.30493
0.815439
-0.0971964
0.0409611
-0.170773
-0.127954
-0.322035
0.00761676
-0.00688859
0.264755
0.308606
0.0626709
-0.105025
0.3228
1.44044
-0.66123
1.97249
1.0097
0.62476
-0.844481
0.0195395
-1.46976
-0.172201
-0.322596
0.378755
-0.0561584
0.0330205
-0.0185819
-0.0588916
0.0134098
-0.0536733
0.121851
-0.0988894
1.639
-1.54011
0.199197
-0.851991
-0.123225
-0.256153
-0.0693819
0.163928
-0.279926
0.353335
-0.0734092
-0.00877992
-1.44098
1.44976
0.636226
0.269967
0.312599
-0.644785
-0.57549
0.95278
-0.377289
-0.00685144
-0.0634571
0.298096
-0.457221
0.912338
-0.455117
-0.125985
-0.205442
0.331428
-0.124116
-0.648231
0.772347
-0.273804
-0.0586023
-2.03033
-0.0317294
0.179279
-0.17412
0.0218436
-0.0412437
-0.0559527
0.334814
-0.666708
2.1841
-0.944065
-1.24003
-0.0360725
0.4228
0.257698
-0.0520372
-0.338403
0.0631382
-0.168996
-0.0139505
-0.368912
0.202231
-0.273397
0.855631
-0.979747
0.135402
-0.0914942
-0.0439082
-0.378082
-1.93717
1.01057
0.926605
-1.8565
1.77576
-1.1605
0.370146
0.790353
0.0728276
0.0109188
-0.0837464
0.628432
0.49694
-0.102336
0.194801
-0.0700173
-0.0503721
-0.036574
-0.258226
-0.0112887
1.04575
1.13835
0.0800632
-0.0139004
1.53063
-1.31898
-0.0405285
-1.38908
1.4296
1.20572
-0.0185639
-0.289378
-0.0757859
0.278888
0.0240418
-0.244609
0.0170313
0.352518
0.603677
-1.63352
1.02985
0.0775109
2.41725
-1.43251
-0.984742
0.00849595
-0.31449
0.0291888
1.46857
0.123083
1.29587
-1.18246
1.07486
-1.87446
-1.23725
0.00959243
1.22765
-1.17654
-0.0421289
1.21867
-0.0220485
0.0664044
2.29771
0.0187268
-2.31643
-0.985059
2.01624
-1.03118
0.0443917
0.215636
-1.03004
0.226417
-0.0067562
-0.075622
-1.34239
0.196842
-0.00532441
-0.00995511
0.0152795
-0.0908721
0.219432
-0.128559
0.138085
-0.48384
0.345755
0.525447
0.44981
-0.514407
-0.0867126
0.0761082
0.867419
-0.95405
-0.0652037
-0.0525031
-0.248419
0.0529124
-0.0350833
1.44297
-1.40789
-0.512736
0.915158
-0.402422
0.0510791
-0.407817
0.356738
-0.969957
-1.58241
0.752811
0.829604
0.0160501
0.819985
0.280085
-1.10007
-0.388929
0.216445
-0.239705
0.0232604
0.164117
-0.034583
-0.243567
0.00376371
-0.283969
-1.43349
-0.0650531
-0.393102
0.790627
-0.397525
-0.719487
-0.626657
1.7347
-0.745888
-0.0998783
0.177538
-1.40472
0.0495064
-1.40027
1.35077
-0.218362
0.0363482
0.182013
0.978494
-1.13103
0.15254
0.1334
-0.0193047
-0.0970765
-1.47589
0.756406
-0.592063
1.26925
-0.314968
0.10426
0.291513
0.20873
0.0302942
0.809225
-0.373357
-0.0140591
0.693865
-0.969569
0.429255
-1.86328
0.784766
1.19598
-1.20476
-1.45195
1.35306
-0.139207
-1.46416
0.201692
1.26247
0.596325
0.237209
0.032623
-0.927933
0.681886
-0.105273
-0.128532
0.233805
-1.60568
0.295201
1.31048
0.353352
0.770076
-1.12343
0.0626614
-1.32102
0.770372
0.113542
-0.883914
0.00700164
0.240269
-1.00757
-0.0389697
-0.0113889
0.050142
1.49572
-1.47014
0.0532129
-1.01871
-0.563705
0.788014
-0.0391742
-1.19807
1.10091
-0.280928
-1.64282
-0.00890881
-0.29753
-0.919788
0.328618
0.0214604
1.85926
0.234951
0.158346
-1.24205
0.132561
-0.101449
0.205064
-0.467382
0.320378
-0.537687
0.217309
0.28379
0.00457495
-0.288365
0.028846
-0.264912
0.0589174
0.321451
-1.12228
1.14247
-0.0201882
-0.734733
1.13115
-1.87614
0.744993
-0.686879
-0.0563855
0.0886412
-1.48538
0.14452
1.34086
-0.361774
0.893379
-0.659647
0.687848
0.162705
0.966805
0.555297
-1.00825
-0.829659
-0.163521
0.99318
-0.637271
-1.25813
0.80882
-0.119309
0.122384
-0.00307502
0.0418539
-0.0903046
0.976793
-1.45328
-0.468828
-0.354054
0.822882
-0.160675
0.128937
0.0317382
-1.07733
0.429097
0.0358582
0.0249814
-0.224047
0.408271
2.04677
0.250938
-0.793745
0.798105
-0.258515
0.0877419
-1.13943
1.85714
-0.717715
-0.0740986
0.0621496
0.0746277
0.363558
-0.0212617
0.964429
1.17281
0.651871
-0.947674
0.317994
-1.95289
-0.162448
0.128116
0.148933
-1.15542
-0.20481
-0.961046
-0.204269
0.0515863
0.781016
-0.372746
-1.38315
0.565208
1.05802
0.179288
-1.67358
0.308713
1.36486
-0.0841511
0.471997
0.668722
-1.16178
-0.300856
0.734523
-0.313203
-0.42132
0.854361
-0.282373
-0.571987
-0.172528
0.0372542
0.62627
-0.646004
0.0197342
-1.0449
0.199505
0.8454
0.589525
0.363412
0.000583241
0.105894
0.744022
-0.515284
-1.88053
0.677718
1.20281
-1.8375
1.45195
0.861561
0.769222
-1.63078
0.787532
-0.726105
1.80248
-0.603617
-1.19886
-1.03447
0.166326
-0.0802637
-0.0683788
-0.101754
0.181908
-0.0324478
0.110282
-0.077834
-0.252174
-0.182983
-1.61712
-0.16654
0.0607958
-0.0906876
-0.0313491
-0.0136426
1.01667
-0.491373
-0.525299
0.761149
-0.484413
-0.110118
0.12247
-0.159422
1.28567
-0.224146
0.00578433
-0.330237
-0.747091
-1.47459
0.57352
-0.0720297
-0.0693154
0.120529
0.0714781
0.0926018
-0.0837313
-0.502495
-0.121464
0.0888333
-0.0764352
-0.0123982
0.174188
-1.05899
-0.28168
1.34067
-0.0826081
0.0413644
0.00281035
1.069
1.01288
-2.08187
-0.386727
0.993732
0.208225
-0.0828652
0.627742
-0.848365
-0.675283
1.52365
-0.939194
-0.9786
0.572265
0.294526
-0.189534
-0.104992
0.735665
-1.26985
-0.14605
1.6418
-0.510653
-0.174379
0.10035
-0.405207
-0.734167
0.0757371
1.98396
-1.74625
-0.237716
-0.887629
-0.586963
-0.148215
0.159954
0.0639575
-1.02659
-0.196025
1.22262
0.245629
0.366955
-0.492941
-1.63631
-1.63665
0.704173
0.932474
-0.155363
-0.00477662
0.16014
0.949723
-0.557415
-0.392308
0.10263
-0.156304
0.0752309
0.080415
0.876873
-1.95342
0.759665
0.0946952
-0.320005
-0.591227
0.156257
-0.0130236
0.144632
0.104606
-1.16359
0.0309802
0.354576
-0.529494
0.482059
-0.0824131
-0.0105025
0.0929156
0.988914
0.813568
0.569959
0.0600903
0.685483
-0.530843
-0.15464
1.77821
-1.4695
-0.17848
-0.44351
0.139327
0.0247904
0.203654
0.00905432
-0.202753
0.00345435
-0.122763
0.558102
0.0444438
-1.80382
-0.0191502
-0.136213
-0.0687864
0.00950552
1.0274
-0.865858
0.886896
-0.45392
-0.432976
0.00384802
0.105249
-0.00888299
0.00355858
0.394207
0.0998772
-0.234876
-0.606529
-0.434712
-2.27736
0.890023
1.38734
-0.0453963
0.00992819
0.00458154
0.099455
0.112763
-0.274757
-0.287816
0.513223
-1.36159
0.251916
-0.958757
2.02775
0.631893
-0.0825507
-0.549342
-0.656941
-0.485996
-0.0593123
0.0864629
-1.11269
0.490704
-0.717181
0.226477
-0.165696
0.0653402
0.100355
-0.158694
1.24677
1.2885
-1.3956
1.4695
-1.72158
1.26644
0.455136
1.07251
-2.03127
2.1739
-1.09465
-1.04413
-1.01295
-0.0250421
0.190636
-0.0591564
-0.413215
-1.54323
0.0790693
-0.0542174
-1.27387
1.21026
-1.97382
0.763552
-0.0507551
0.230182
-0.425727
0.219486
-0.140655
1.01033
1.40692
-1.8922
0.752768
-0.170331
-0.768863
-1.3414
0.189383
-0.124043
1.8565
-1.92311
-0.136788
-1.1018
0.106688
1.23089
-0.462896
-1.54969
1.60996
-0.060271
0.475821
1.92681
0.431067
-0.0687478
-0.362319
1.84431
-0.769446
0.22718
-0.256498
0.744088
-0.767849
0.0825999
0.12613
0.538425
0.923504
-1.46193
-0.60906
-0.453153
1.03289
-1.06202
0.0291344
-0.177846
-0.120352
-1.73476
0.740791
0.99397
1.21327
-0.234781
-0.45538
0.00618439
0.835621
-0.90472
0.276022
-0.54171
-0.254468
0.276258
-0.625087
0.449744
-1.16877
-0.808639
1.97741
-0.308953
0.223617
-0.178913
-0.100055
1.03276
-0.937898
0.0631838
1.36356
-2.02479
-0.0947075
-0.404249
0.21286
-1.19365
0.0984052
0.697035
0.431434
0.0276955
-0.616445
-1.49838
0.352312
0.0992331
0.32809
-0.427323
0.0669484
-0.307751
1.16214
1.09003
1.25239
-0.993909
0.0539513
-0.18886
-0.232501
0.429288
-0.221512
-0.0248513
-0.680048
-0.9459
2.01841
-0.24723
0.26328
-0.613925
-1.13776
1.75168
-1.95781
0.972749
-0.065217
0.29343
0.0847235
-1.46415
-0.0628216
-0.141801
0.632506
-1.02887
-1.24849
1.98396
0.558118
-1.37717
1.00785
-0.558043
-0.212757
0.0780968
-0.325637
-0.241257
0.253515
-1.63517
0.208818
-0.784308
1.07621
-2.02211
-0.789765
-0.293528
0.185695
-0.0749657
-1.47473
0.849847
-1.00262
1.34199
0.77038
-1.49377
0.72339
1.3473
-1.14779
1.94393
-0.934005
-1.03291
1.96692
0.562655
1.28048
-1.03485
-0.657774
-0.978874
-0.858798
-0.862781
0.454231
-0.650417
1.4597
-0.809281
-0.132004
1.38153
-1.24953
-0.998258
-0.951428
1.94969
0.910981
0.121905
0.229615
0.356441
-0.437467
0.279286
0.15818
-0.00512182
-0.242801
0.489042
-1.37667
-0.782392
-0.383073
-0.242084
-0.280108
0.304422
-0.308759
0.98834
-1.98839
0.872239
1.11615
-0.0385246
-1.64333
1.68185
0.0369763
-0.243176
0.0354207
0.611355
-1.83903
1.83903
-0.0419562
-0.0131086
0.0550648
-0.639349
1.05758
0.126298
0.0630848
-0.773159
-0.324474
0.68092
-1.3956
-0.059942
-1.2596
0.297685
1.26754
-1.27283
-1.19028
0.163683
-0.286882
0.356895
-0.0700132
0.124254
0.502016
0.331606
-0.0478154
-0.958507
-1.18677
0.197045
0.98973
-1.40631
-0.262251
-0.65556
-1.22058
-0.0306117
-0.0226425
0.156458
-0.234317
-0.104086
-0.00797733
0.0706482
0.371784
-0.269843
-0.355244
-0.734281
1.275
-0.54072
0.301089
0.199607
-0.227223
0.394286
-0.167062
-0.433415
0.171555
0.417011
-0.526911
0.1099
-1.13554
1.82178
-0.960219
-1.26579
-1.68329
0.242315
-1.33884
0.0486339
1.01297
1.17293
0.157292
-1.07708
1.15084
-0.0885927
-0.264621
-0.0503472
0.656007
0.60615
0.181382
2.01161
-0.9354
-1.06049
-0.798155
1.85865
1.1206
0.00910633
-1.1297
0.108045
-0.076049
-0.187562
0.170984
0.129192
1.33475
-1.46394
-1.27809
1.20476
0.0733316
1.27809
-1.35306
0.208414
-0.259169
-0.81582
1.05609
0.0748314
0.181361
-0.106553
-1.6723
0.184164
1.5265
-0.756122
-0.315953
-0.0604098
0.133654
-0.425333
0.945031
0.249986
-0.084735
0.617369
-1.07249
0.171135
-0.231114
-0.561694
-0.051196
0.681815
-2.07914
0.515668
-0.0690348
0.425515
-0.35648
-1.03566
-0.938152
0.0585748
0.648294
0.515123
-0.885063
0.0913186
-0.0919111
-0.315905
0.0997656
-2.08456
1.04042
0.0398914
-0.0193335
-0.281113
0.104697
0.160059
-0.0522748
-1.42025
0.674027
-1.48238
0.808348
0.057192
0.240539
-0.297731
0.161282
-0.111032
-1.01822
1.3159
0.623324
0.370408
1.31071
-1.16178
0.18038
0.0395234
1.67775
-1.96734
0.289585
-0.0601547
-0.542448
-0.823966
-0.0599484
0.367558
-0.439204
0.336281
-0.424471
-1.21448
-0.0329673
-0.0568013
0.0897686
-1.47328
0.198752
1.27453
0.371527
-0.417477
0.0710775
0.278927
-0.350004
1.16158
-1.20075
-0.347817
0.352392
0.603912
0.251092
-0.356127
0.355304
0.23948
-0.182506
0.171786
0.647534
-0.81932
-0.425368
-0.0584718
-0.925441
-1.01252
1.93796
-0.0599665
-0.246857
0.402753
-1.00397
1.77576
0.315613
-0.190966
0.0450781
0.0457683
0.023698
2.05863
-1.01288
-1.23387
0.758399
-0.549581
-0.613125
1.81594
0.33038
-0.230502
-0.12622
0.12038
0.236198
-0.10915
-0.279379
0.177714
-0.258795
0.0112178
-0.245535
1.08033
-0.291819
0.396515
0.303644
-0.0746875
0.0361382
0.296266
0.0562518
0.48207
-0.751913
0.203106
-0.232217
0.0291116
-0.307305
0.343653
0.171456
0.895162
-1.06662
-0.234714
0.106182
0.474954
-0.629074
1.70365
-1.09822
1.019
0.908781
0.0987681
0.559678
-1.07168
0.34583
-0.423299
-0.364021
1.15434
0.844769
-1.49719
1.49719
1.72971
-0.828057
1.08973
-0.0140485
1.51562
-1.50157
0.927049
1.0174
0.863778
-2.03255
0.175801
-1.15555
-1.34409
-0.214015
-1.43239
1.64641
-0.399578
-0.12126
0.0699951
0.991603
0.151939
-0.258911
-0.902073
1.56781
-0.665741
-0.173203
0.255803
-0.0269325
-0.049724
0.98123
2.55916
-1.00505
-1.55411
1.61861
-1.47409
1.12496
0.209125
0.0370181
0.00218739
0.00830117
1.55543
0.572434
1.11297
0.70107
0.0202633
0.190721
-0.210985
-0.335029
0.207075
0.175555
-0.18728
0.0117243
0.156282
-0.210112
0.0538299
0.514249
-0.438141
0.329914
-0.471396
-0.150884
0.263792
0.0161666
-0.241674
0.0274814
-0.553552
0.515897
0.0376547
-0.130159
0.110288
0.0198716
1.92311
-1.56976
0.375972
-0.263832
-0.11214
-1.49572
-0.334154
0.260867
-0.993016
1.92007
0.252746
-0.322128
2.042
-1.17822
0.239821
-0.307235
-0.151703
-0.34471
-1.33761
-0.0581727
1.60759
1.2979
-1.08504
-0.1068
0.136196
-0.073243
-1.48967
-0.286202
0.277883
0.236293
-0.359518
-0.357395
0.283986
-0.0746091
-1.3431
1.30257
-1.46625
1.48156
-1.16268
-0.464959
0.420506
0.653014
0.378131
-0.38942
-0.0517525
0.0575345
0.341776
-0.39931
-0.353571
1.4141
-0.971475
-1.00922
-1.98287
-0.0767837