/*--------------------------------*- C++ -*----------------------------------*\
| =========                 |                                                 |
| \\      /  F ield         | OpenFOAM: The Open Source CFD Toolbox           |
|  \\    /   O peration     | Version:  2306                                  |
|   \\  /    A nd           | Website:  www.openfoam.com                      |
|    \\/     M anipulation  |                                                 |
\*---------------------------------------------------------------------------*/
FoamFile
{
    version     2.0;
    format      ascii;
    arch        "LSB;label=32;scalar=64";
    class       volVectorField;
    location    "5.3";
    object      U;
}
// * * * * * * * * * * * * * * * * * * * * * * * * * * * * * * * * * * * * * //

dimensions      [0 1 -1 0 0 0 0];

internalField   nonuniform List<vector> 
5098
(
(2.60094 1.02716 0)
(2.14938 0.0814508 -3.45263e-20)
(2.5601 0.0742125 -2.58711e-21)
(1.51038 -0.672134 8.35313e-19)
(2.12116 -0.749262 0)
(0.872746 -0.420482 0)
(2.40825 0.00624409 -2.66018e-21)
(2.48734 -0.279253 1.60707e-21)
(2.66071 0.0600197 -5.43833e-20)
(2.05763 -0.228686 1.36696e-19)
(-0.0680155 -0.986756 0)
(2.21048 -0.0529617 1.9031e-19)
(2.48985 -0.444154 -1.30269e-20)
(0.916092 -0.446712 0)
(2.06923 -0.284775 9.46396e-20)
(1.95332 0.0408194 3.35124e-22)
(-0.0370801 -0.355549 -5.78676e-20)
(-0.863885 -0.62875 0)
(-0.330238 0.366071 4.70775e-19)
(-0.113841 -0.253551 6.56472e-20)
(1.83024 0.580278 -8.06423e-20)
(1.90202 0.0367917 1.10134e-21)
(2.0807 -0.807335 0)
(0.727818 0.0870165 3.10512e-20)
(-2.09257 0.942633 0)
(1.46009 -0.579188 0)
(1.97219 0.0329292 1.35164e-19)
(1.83018 -0.774871 2.27159e-19)
(-0.173478 0.578675 -1.41832e-18)
(1.6659 -0.732596 0)
(2.40779 -0.206778 -1.26402e-19)
(0.703687 -0.341723 0)
(2.0869 0.0130192 -1.48666e-19)
(0.631536 -0.834761 0)
(2.55846 0.292057 -4.69833e-20)
(3.42603 0.24515 1.51328e-18)
(1.86295 -0.455685 1.62901e-19)
(1.95284 0.00765992 -2.56834e-21)
(1.31499 -0.427972 6.01313e-19)
(1.36633 -0.635456 0)
(1.51767 -0.68728 -3.94452e-19)
(1.36968 -1.47579 -2.09345e-18)
(1.47436 -0.583414 0)
(2.56882 -0.176361 6.44988e-20)
(2.40838 0.671168 3.80498e-20)
(2.05856 0.0887598 7.28131e-21)
(-0.249385 -0.364575 3.93259e-20)
(1.05432 -0.34833 0)
(2.39465 -0.228379 0)
(1.51703 -0.63712 8.89568e-20)
(2.25088 0.136614 5.37521e-20)
(1.63949 0.462547 -4.94271e-19)
(-1.21413 0.877553 -2.28563e-22)
(2.07678 -0.0612852 1.91719e-19)
(0.936206 -0.467214 -3.68388e-19)
(1.55297 0.127263 0)
(1.8489 0.272292 -2.6623e-19)
(1.61842 -0.661004 0)
(0.83334 -0.410653 0)
(1.90161 0.00433648 -2.65467e-20)
(1.46085 -0.337801 5.04579e-20)
(-0.616598 0.151726 -1.96923e-19)
(2.52818 0.343259 0)
(2.4466 -0.421302 0)
(-1.40089 1.11908 2.51129e-18)
(0.791668 -0.397707 4.56766e-19)
(2.17107 0.0280768 6.75284e-21)
(2.31154 0.165055 7.41763e-21)
(2.09153 -0.249743 1.99912e-19)
(1.65886 -0.696874 2.63045e-19)
(1.90071 0.229221 1.57578e-20)
(1.38142 -0.426762 -7.14108e-21)
(1.90212 -0.790401 0)
(1.0772 -0.581405 0)
(1.66443 -0.0651999 2.64572e-20)
(1.10587 -0.540131 -4.261e-19)
(1.5999 0.202684 0)
(1.50448 0.204274 4.59858e-19)
(2.53557 -0.23566 7.45286e-20)
(1.58956 0.178825 0)
(1.71828 -0.0217892 0)
(3.65355 -0.670759 1.0416e-18)
(1.69735 -0.273092 5.66495e-19)
(0.60577 -0.895474 -2.83022e-21)
(-0.958465 -0.709986 2.59859e-19)
(1.50677 -0.665253 2.83795e-19)
(0.0156538 0.34123 -2.77743e-19)
(1.60041 0.198749 4.18739e-22)
(2.64343 -0.224663 6.07318e-20)
(1.41632 -0.410107 6.16246e-20)
(2.27064 -0.277621 -9.02333e-21)
(0.390174 -0.243592 8.64444e-19)
(2.42659 -0.0917801 -2.40412e-19)
(1.53225 -0.657029 -4.45432e-19)
(1.30115 -0.458011 1.06054e-19)
(1.38712 -0.395401 -9.69946e-21)
(1.03269 -0.518939 -3.62572e-19)
(1.50314 0.276466 3.3981e-19)
(1.60519 -0.0539273 1.44717e-20)
(2.01621 -0.478425 -1.37989e-19)
(1.68443 -1.38403 -1.27838e-19)
(0.989989 -0.487308 -4.38565e-19)
(-0.020687 -0.0929857 4.50186e-20)
(2.34771 0.348558 -9.7984e-21)
(1.50887 0.195371 -5.2273e-19)
(2.40591 1.12658 0)
(1.93607 0.268896 2.82625e-19)
(2.30607 0.0874396 2.04845e-21)
(0.998872 -0.400376 8.14123e-20)
(-0.208755 -0.856145 0)
(1.03673 -0.498885 -9.65436e-19)
(1.33852 0.633201 6.90488e-19)
(1.86657 0.0132321 -2.8166e-19)
(-0.277683 0.619928 1.95504e-19)
(1.74414 0.664387 1.14819e-19)
(0.291714 -0.408541 0)
(3.74666 -1.01529 2.05896e-18)
(2.72897 1.48784 0)
(1.92127 0.287429 5.02001e-21)
(0.756101 0.0322111 -4.77895e-19)
(1.71244 0.447392 4.05852e-19)
(1.64322 2.11742 -5.75155e-20)
(2.07207 -0.249936 -8.68432e-20)
(0.144046 0.194487 -1.57248e-18)
(0.147127 0.198613 -1.11735e-18)
(-0.205671 -0.0086451 1.15116e-21)
(2.13886 -0.075216 1.61312e-19)
(2.06903 -0.774796 -2.8758e-19)
(1.34825 -0.137216 -1.25566e-19)
(-0.204798 0.537014 -3.67253e-19)
(-1.72642 0.058438 -1.26084e-18)
(1.08846 -0.483124 -6.01288e-19)
(1.11889 -0.483088 5.03637e-19)
(2.62386 1.52718 -1.28865e-19)
(1.32503 -1.19878 -2.72859e-19)
(2.78935 -0.745848 3.95492e-19)
(2.07578 2.64083 6.99682e-19)
(1.92438 0.271046 1.92632e-19)
(0.848185 -0.415874 0)
(2.10812 -0.0596827 -6.1907e-19)
(1.59598 0.572807 -3.27292e-19)
(1.24455 -0.297304 -1.27523e-20)
(1.72835 -0.78637 4.40638e-19)
(2.50998 0.0276371 -1.38875e-20)
(2.07865 0.0837784 -4.82222e-20)
(2.24833 0.310262 0)
(2.08514 -0.252184 2.054e-19)
(1.93232 -0.810065 0)
(2.63946 -0.0549381 3.99632e-19)
(1.61403 -0.741239 1.7119e-19)
(3.12864 -2.29668 -8.24862e-19)
(2.3915 0.459195 0)
(1.94813 -0.829844 9.54789e-20)
(2.04032 0.0224602 0)
(-0.00457597 0.222215 -3.53663e-19)
(0.784528 -0.293115 -1.98829e-19)
(1.62407 -0.652028 -4.70199e-19)
(1.6087 -1.37403 -7.97654e-20)
(1.46337 -0.681797 -3.22525e-19)
(-0.397232 0.361457 1.47637e-18)
(1.94643 -0.442402 -4.47242e-19)
(2.0804 -0.283869 -1.27237e-19)
(0.601521 0.29898 -5.20741e-19)
(1.82319 -0.165768 -3.50736e-19)
(-1.52592 0.0131684 -3.23402e-19)
(2.45607 -0.193364 -1.28219e-19)
(2.07097 -0.84316 -3.31371e-19)
(2.32065 -0.578175 0)
(-2.11717 0.78301 5.53338e-19)
(1.68391 -0.536251 -5.12077e-19)
(1.52152 -0.362516 6.99172e-21)
(1.52994 -0.613831 -3.02788e-19)
(2.23961 0.543852 1.10293e-19)
(1.83093 -0.7478 4.0686e-19)
(2.61408 -0.0555903 0)
(1.97242 0.00525455 0)
(1.70459 -0.25268 -2.20269e-19)
(3.52398 0.295322 -4.08578e-20)
(1.7773 -0.133936 4.81959e-19)
(0.207994 0.153595 0)
(1.79023 2.29616 0)
(4.02203 -1.32316 -1.31445e-18)
(1.74858 -0.539087 6.32363e-19)
(-1.54234 -0.0101053 0)
(1.83254 -0.16775 0)
(2.70991 0.80598 5.09924e-19)
(1.54047 0.310303 0)
(1.89049 -0.440327 5.61915e-19)
(0.973583 -0.474991 8.2877e-19)
(-1.24158 2.14891 -5.10923e-19)
(1.42439 0.761485 0)
(1.50803 -0.251978 1.27921e-19)
(1.92576 -0.807627 0)
(1.66403 -0.101137 3.14352e-20)
(2.43901 -0.208973 1.42227e-20)
(0.337449 -0.18711 -9.11247e-19)
(4.20516 -0.264081 6.68073e-19)
(2.9342 -0.809606 0)
(1.99952 0.0142785 -7.51614e-21)
(1.70876 -0.518801 -9.32501e-20)
(-2.26228 0.749497 -2.25136e-18)
(1.69055 0.376525 6.18729e-21)
(2.42509 0.665067 1.78569e-21)
(2.25614 0.00142827 4.89717e-21)
(1.50477 -0.0261764 2.24018e-19)
(0.759121 -0.303709 -1.42266e-19)
(2.57921 0.0462926 -1.90279e-20)
(1.14989 -0.529142 0)
(2.31431 -0.0860682 0)
(1.24639 -0.606168 -4.64996e-19)
(1.93888 -0.144084 -1.79715e-19)
(1.72664 0.342579 3.29887e-19)
(1.62746 -0.268949 -1.27968e-19)
(2.0906 0.0702625 -1.71744e-19)
(2.10563 -0.0704801 -2.39353e-19)
(0.357071 0.408599 -4.09293e-19)
(1.72621 -0.108216 0)
(-0.363701 -0.927467 -2.78382e-19)
(0.373356 -0.160641 1.62908e-19)
(2.00484 0.0300788 1.27991e-19)
(2.31037 -0.293 -3.3877e-20)
(1.56739 -0.317496 0)
(2.16449 0.0188758 1.30361e-20)
(2.3031 -0.342518 1.74519e-19)
(-0.175862 0.281324 2.55095e-19)
(2.00954 -0.156747 0)
(0.344951 -0.0632531 0)
(1.9267 0.0451825 0)
(1.97258 -0.480283 0)
(1.68462 -0.674091 1.00006e-20)
(1.8578 0.469927 0)
(0.566764 -0.226856 -5.1902e-19)
(4.16918 -0.755115 -8.87807e-19)
(2.03627 0.0302003 -4.62412e-21)
(2.67421 -0.0357607 -6.89704e-20)
(2.42681 -0.0180576 0)
(1.47133 1.56415 -1.65949e-19)
(-1.51014 1.49118 -2.94566e-18)
(3.15961 -0.198581 0)
(1.90079 -0.00826056 3.42501e-19)
(3.25145 -0.673914 -3.59647e-18)
(2.25986 0.536193 0)
(2.42994 0.120953 0)
(0.993695 -0.202218 8.77862e-19)
(1.83421 0.530974 -4.19481e-19)
(2.3048 -0.126937 -2.18644e-19)
(1.02911 -0.490284 9.7744e-20)
(-0.384725 -0.685692 -1.59042e-19)
(-0.0754333 -0.416311 0)
(2.39888 -0.10736 6.09347e-20)
(2.2099 0.738477 -7.06333e-20)
(1.83624 -0.771566 4.23047e-19)
(0.4005 -0.365674 6.80098e-19)
(-2.01176 1.16735 1.39766e-18)
(1.93302 0.0381657 -2.57073e-19)
(-1.58764 1.70389 2.72507e-18)
(1.3891 -1.02516 2.35022e-19)
(1.06563 -0.355395 -8.14925e-20)
(1.08601 -0.371831 -3.68906e-19)
(1.85464 0.0178085 6.09254e-21)
(2.67828 0.78919 7.74586e-20)
(-1.15277 0.991078 1.12379e-18)
(-2.2118 1.05096 9.43905e-19)
(1.84905 -0.799891 0)
(1.98508 0.0196499 -1.79465e-21)
(-0.930481 0.134744 1.04041e-19)
(-0.408045 0.280182 -1.71643e-18)
(-0.083529 -1.06794 0)
(1.38993 -0.367773 0)
(1.81344 0.01921 -3.1727e-20)
(-1.2514 2.05596 6.21273e-19)
(1.86066 0.102813 2.57768e-21)
(-0.135454 0.243845 -7.71221e-19)
(1.42326 -0.30372 0)
(1.09601 -0.437514 2.4455e-21)
(0.132816 -0.152213 6.17521e-20)
(1.32401 -2.1084 -1.85412e-18)
(3.32348 -2.24837 0)
(2.21759 -0.719189 0)
(1.97548 -0.0994764 0)
(-1.93338 0.546263 -7.54727e-19)
(2.44303 -0.178116 1.66103e-19)
(-0.377191 0.520841 -1.06933e-18)
(2.4506 -0.15099 -1.84591e-19)
(1.93317 -0.522642 1.19593e-20)
(0.528614 -0.453092 0)
(1.95654 0.028615 0)
(2.33601 0.341395 -3.08763e-20)
(2.4747 -0.155778 1.03189e-19)
(1.77767 -0.0264192 -2.9428e-19)
(0.143934 0.138311 0)
(-0.539144 0.446758 6.00708e-19)
(1.0402 0.00872122 -2.5663e-19)
(2.40716 0.476523 3.22296e-20)
(1.95222 -0.614504 4.38529e-19)
(0.981987 -0.123521 -6.33995e-20)
(2.5096 0.0948013 0)
(2.41892 -0.199625 -1.13009e-19)
(2.00738 0.0612844 0)
(2.06573 0.0730165 -1.57748e-19)
(2.27473 0.349338 2.51606e-20)
(2.61538 0.0417256 1.24515e-19)
(1.56726 -0.396877 5.87076e-19)
(1.87419 0.467362 2.32974e-19)
(-0.888182 0.199346 -1.68101e-19)
(1.76262 -0.717435 -2.54235e-19)
(2.6205 1.94068 -1.54803e-19)
(2.07035 -0.0174042 0)
(1.80791 -0.424043 0)
(-0.277783 -0.387359 0)
(2.26964 -0.281484 4.35604e-20)
(0.146703 -0.339169 6.8132e-20)
(0.805537 -0.400624 4.85787e-19)
(1.84522 -0.00312212 -5.75196e-20)
(2.53373 -0.441612 -5.49458e-20)
(0.0962453 0.131606 6.92877e-19)
(2.00428 2.42581 -6.80724e-20)
(2.24437 0.0425353 -1.20362e-20)
(2.23264 -0.137294 5.97862e-19)
(0.837635 -0.347941 0)
(2.7065 -0.229087 -8.83396e-20)
(-0.533592 0.377867 -1.38068e-18)
(3.03664 -0.0985011 -5.65848e-19)
(0.623782 -0.182904 1.36689e-22)
(1.61715 -0.0241549 1.13534e-20)
(1.29494 -0.395946 4.03739e-19)
(2.23301 0.791998 0)
(1.97038 0.108034 -9.72164e-20)
(1.01062 -0.407988 -8.60666e-19)
(1.91651 0.255539 -4.93704e-21)
(1.24492 -0.60503 0)
(2.2711 -0.139214 -1.73994e-19)
(0.992186 -0.478487 2.71975e-19)
(2.257 -0.714622 -1.48412e-19)
(1.68348 -0.703863 -3.56936e-19)
(2.36717 0.0806972 -4.41157e-20)
(2.37192 -0.358168 1.01584e-20)
(0.929583 -0.459443 5.39285e-19)
(2.13099 -0.106872 2.479e-19)
(1.82403 -0.371624 0)
(1.75035 -0.798342 -4.1702e-19)
(1.63869 -0.69637 -1.07618e-18)
(2.58858 -0.240006 2.87215e-20)
(1.95861 0.0789681 4.13662e-20)
(1.8812 1.19832 0)
(1.5612 0.0360986 0)
(2.02196 -0.0284247 -1.97176e-19)
(0.516571 0.346825 3.41118e-19)
(2.75888 1.4245 0)
(2.28605 -0.100842 1.7419e-19)
(1.48777 -0.662553 -4.17753e-21)
(0.870304 0.427971 -6.23855e-19)
(0.832367 -0.354554 -4.59477e-19)
(-2.17231 0.611658 7.9715e-19)
(1.82272 -0.0156586 3.31997e-20)
(-2.02534 0.380639 2.41699e-18)
(2.74092 -0.699644 -3.55075e-19)
(2.23018 0.0198144 0)
(1.37603 -0.0994942 -1.08074e-19)
(1.50571 -0.422687 0)
(1.96234 0.11193 -4.73076e-19)
(1.97591 -0.44669 0)
(2.11699 -0.0191773 -1.69417e-19)
(1.66478 0.285784 7.87457e-21)
(2.79404 -0.137449 -5.07833e-20)
(1.07281 -0.412562 4.86724e-19)
(1.95565 0.095465 -3.82329e-19)
(2.01346 0.229768 -4.13835e-19)
(1.93815 -0.835523 0)
(-1.03434 1.69309 0)
(1.14814 -0.453829 -4.80501e-19)
(2.74296 -0.177382 0)
(3.451 0.497348 -8.66715e-19)
(1.34067 -0.215413 0)
(1.54164 -0.442494 9.55812e-21)
(-0.630749 0.0982761 1.72906e-19)
(1.73162 -0.557903 7.51065e-19)
(0.579168 -0.27276 -3.4663e-20)
(2.30777 -0.550041 0)
(1.67102 0.315223 -5.11847e-21)
(1.80142 0.00938515 -2.50187e-19)
(-0.155027 -0.0732768 -9.13401e-21)
(1.92754 0.0400947 -2.18112e-19)
(2.60934 -0.0333108 -8.14677e-20)
(2.67452 -0.0126294 -3.64347e-20)
(3.16684 0.992789 3.45569e-19)
(2.49726 0.423496 -6.19905e-20)
(-1.72289 1.53144 -6.43622e-19)
(1.65906 -0.466654 0)
(-0.011355 -0.0944659 -5.8309e-20)
(1.97451 0.125719 -1.6846e-19)
(2.5128 -0.255997 0)
(1.95963 0.0810573 1.43037e-19)
(1.10808 -0.534397 -3.62806e-19)
(1.64263 1.32329 1.51041e-19)
(3.83157 0.304584 0)
(1.33955 -0.631961 1.30713e-19)
(1.13077 1.09586 0)
(2.15569 0.0428031 3.77748e-20)
(2.24642 -0.250038 -1.37636e-19)
(-0.282977 -0.074632 1.17646e-18)
(0.999378 -0.0193669 0)
(1.58782 0.282317 2.33935e-19)
(2.01134 0.0588885 1.53419e-19)
(0.345842 -0.328116 0)
(1.70962 0.0130864 0)
(1.97841 -0.159581 0)
(-0.578191 0.264704 4.39575e-19)
(0.279422 -0.132669 -3.62999e-20)
(2.64333 -0.0867233 0)
(2.03481 0.00711362 0)
(1.47406 -0.63499 7.06068e-20)
(-2.05092 1.73521 0)
(2.37664 0.438093 7.17705e-21)
(2.88764 1.31111 1.91309e-19)
(2.04553 0.200369 7.49517e-21)
(1.83552 0.43241 -4.59943e-21)
(0.869892 0.507021 7.17645e-19)
(2.9332 1.47179 -2.03285e-19)
(2.36633 -0.258277 7.96499e-21)
(1.98834 -0.0551573 1.67452e-19)
(1.5525 -0.126703 -2.62861e-19)
(1.81074 -0.281729 3.99215e-21)
(1.99637 0.0118062 0)
(-2.04476 0.285133 -2.30735e-18)
(0.352382 -0.172429 0)
(1.16879 -0.559631 6.08609e-20)
(1.84398 -0.723536 0)
(2.23484 -0.175323 0)
(1.24678 -0.596452 -3.06588e-19)
(2.0587 0.034681 -8.77633e-21)
(-0.299665 0.494831 -1.55408e-18)
(2.03124 0.00280956 9.63682e-21)
(1.77302 -0.692703 4.10038e-19)
(3.02642 1.21678 2.19962e-19)
(0.672596 -0.161452 1.35101e-18)
(2.35387 0.134688 2.21341e-20)
(2.03869 -0.81683 1.67773e-19)
(1.95097 0.0433759 -2.61499e-19)
(2.7689 0.462991 0)
(1.80312 -0.0904086 -5.01228e-19)
(1.78979 -0.459954 4.17914e-19)
(2.00462 0.145056 -5.92513e-19)
(0.0609441 -0.237057 -2.29341e-20)
(1.56249 1.33983 -1.43866e-19)
(2.86249 1.3647 2.92132e-19)
(3.21402 -0.52321 0)
(2.05195 -0.258613 0)
(0.53723 0.452052 -6.09328e-19)
(2.09605 -0.111891 1.04044e-19)
(-0.169581 -0.485474 0)
(2.27425 -0.144928 -1.51133e-19)
(1.99654 0.00505117 -3.17722e-19)
(0.134683 -0.424637 -1.57908e-20)
(0.00190878 -0.772092 1.5086e-19)
(2.6569 -0.076913 -5.65181e-21)
(0.896282 -1.52282 5.51717e-20)
(2.35113 -0.365396 -3.50391e-19)
(1.91811 -0.457628 2.9434e-19)
(3.35773 1.0182 7.92144e-19)
(1.48858 -0.602015 3.82911e-19)
(1.9061 0.226602 -6.06341e-22)
(0.970306 0.350352 5.24386e-19)
(2.11921 2.09336 0)
(1.66482 -0.436616 2.40435e-19)
(-0.664634 -0.698697 0)
(-0.722506 0.99773 -2.67293e-18)
(2.71518 -1.42187 0)
(-0.786945 0.235887 -5.6561e-19)
(1.58171 -0.671567 -5.42052e-19)
(1.78259 0.751138 -3.27277e-19)
(2.0065 -0.828104 0)
(1.05337 -0.917383 0)
(3.10139 -0.290866 0)
(1.9772 0.0976055 1.23107e-19)
(2.05463 0.900071 -1.55759e-18)
(0.0481285 0.272177 1.24128e-18)
(1.55235 -0.295116 -7.95082e-21)
(3.47218 1.03503 -8.95983e-19)
(2.02442 0.354223 0)
(1.18333 2.13425 2.18211e-19)
(2.5182 1.40064 1.2349e-19)
(0.741944 1.19391 -2.59734e-19)
(1.49484 -0.698528 3.56415e-19)
(2.55928 -0.178767 4.82849e-21)
(1.12068 -0.545922 6.14643e-19)
(2.29831 0.46975 0)
(2.25295 -0.290829 1.30166e-19)
(1.07209 -0.309996 9.24031e-20)
(1.84135 -0.0315876 2.7634e-20)
(3.44791 0.663246 -4.68322e-19)
(1.86483 -0.726298 0)
(2.49356 0.811872 0)
(3.25605 0.326576 0)
(0.448894 -0.256313 0)
(1.90512 0.0110321 0)
(1.37767 -0.511753 1.62961e-19)
(3.71842 0.947228 6.48679e-19)
(1.40727 -0.576835 4.5355e-19)
(2.07125 0.0396602 2.58302e-19)
(-0.956454 -0.410611 0)
(2.00323 -0.839639 3.09579e-21)
(-0.454077 0.141634 0)
(-0.629207 -1.0262 -4.18805e-19)
(-0.528937 0.350957 6.46708e-19)
(3.99881 0.468394 -3.501e-19)
(1.97757 0.164895 2.97998e-19)
(2.01227 0.343802 -9.1538e-20)
(4.09848 0.0485409 -5.24887e-19)
(2.46917 0.0216225 0)
(0.20389 0.125814 1.06305e-18)
(1.97636 0.0584701 0)
(1.52008 0.927433 1.75632e-20)
(2.48014 -0.152147 0)
(2.0778 0.237388 -1.16513e-19)
(2.05581 -0.0907992 0)
(0.867764 -0.319327 -3.24371e-19)
(-2.48452 1.48898 2.1985e-18)
(2.33283 -0.193264 -1.37079e-19)
(1.36081 0.406252 4.69704e-19)
(-0.936886 0.410685 -9.19516e-19)
(2.06703 -0.759463 0)
(0.966573 -0.170132 -1.24227e-18)
(1.80019 0.307127 3.09114e-22)
(3.54755 0.622672 -1.1608e-18)
(1.87692 0.0122576 5.71753e-21)
(4.13342 -0.71012 2.20015e-18)
(3.15035 0.77642 0)
(1.71615 -0.771914 -8.88982e-20)
(1.40494 -0.641721 0)
(2.51705 -0.239751 1.52849e-20)
(0.399865 -0.0874335 7.90636e-20)
(-1.44609 -0.435621 0)
(2.38328 0.397275 0)
(1.42428 -1.35037 -1.84566e-19)
(2.47311 0.766417 0)
(1.75437 1.90616 6.42666e-20)
(2.96581 1.0066 -3.45113e-19)
(0.173477 0.0604982 -8.52012e-19)
(0.0491872 -0.578069 -4.30653e-20)
(1.98342 0.0226402 -7.92869e-21)
(0.715785 -0.467505 1.27743e-20)
(-2.07809 1.25276 -1.3764e-18)
(1.87663 0.0111864 5.3294e-19)
(0.0568278 -0.31381 1.79618e-20)
(-0.648882 0.175901 0)
(2.47668 0.128696 -9.85022e-20)
(1.29427 -1.40067 2.00461e-19)
(0.309329 0.309428 8.49655e-20)
(3.45733 0.67081 9.14437e-19)
(2.86488 1.73054 0)
(1.78024 -0.496735 -4.19752e-19)
(1.13812 -0.249188 -9.85926e-21)
(2.59287 0.755875 -9.96288e-20)
(2.62202 -0.0345496 -3.88547e-19)
(0.215813 -1.03816 4.5847e-20)
(-1.71838 0.0258535 1.67348e-18)
(1.42774 -0.565913 -1.09357e-19)
(-0.169459 -0.601295 2.08636e-20)
(2.60357 -0.227888 -3.47938e-19)
(-0.00962257 -0.890014 -5.14042e-20)
(1.95856 -0.657019 0)
(1.87535 -0.1346 -4.91069e-19)
(-0.859349 0.0327905 0)
(0.713596 -0.636874 2.43122e-20)
(-0.515004 -0.609731 2.32527e-19)
(0.115732 -0.233985 9.89441e-19)
(1.88008 0.32218 -9.66323e-22)
(-1.93502 0.795505 9.52632e-20)
(-0.309962 -0.379097 0)
(2.13983 -0.792707 4.56636e-19)
(2.10611 -0.832217 1.22493e-19)
(-0.656664 -0.257678 -8.4063e-19)
(1.76202 0.550762 0)
(1.6862 0.518143 0)
(0.129363 0.438484 0)
(1.37152 -0.692115 -3.92921e-20)
(1.94297 -0.0546819 -4.72084e-19)
(1.33603 0.202514 0)
(1.85919 -1.57153 0)
(2.28485 0.173384 -8.6205e-21)
(2.70542 -2.31364 -6.91163e-20)
(2.1264 0.235712 -3.4362e-19)
(1.57164 -0.364804 2.95196e-20)
(1.73035 0.0426317 4.2449e-20)
(1.91777 0.00798794 -4.06545e-20)
(1.76747 0.376231 3.12158e-21)
(1.94725 0.598455 -2.70706e-20)
(1.90165 1.26344 0)
(-2.02313 1.25736 -8.50022e-21)
(-0.23087 0.626504 0)
(1.00098 0.223247 0)
(2.89178 0.191571 -5.22365e-19)
(-1.23875 -0.46162 0)
(2.47781 0.375803 0)
(1.88097 -0.0927192 7.54972e-19)
(1.81991 -0.803999 0)
(2.01881 0.197891 4.2418e-19)
(3.33847 0.683989 4.65289e-19)
(3.30521 0.609972 1.62154e-19)
(1.92155 0.250053 5.89487e-22)
(1.06998 1.46815 2.65417e-19)
(2.15157 -0.829149 5.6765e-21)
(1.90286 -0.761382 -1.14187e-20)
(1.12508 -0.432658 4.69299e-19)
(0.531265 -0.492931 0)
(0.909236 -0.449163 0)
(-1.86447 0.447198 -1.20066e-18)
(-2.38056 1.42564 -3.00699e-18)
(1.00352 -0.825468 0)
(0.411956 -0.448608 -9.28218e-21)
(-1.41036 1.01853 0)
(0.396059 -0.0591342 1.14796e-18)
(1.07955 -0.501033 -6.0898e-19)
(3.3699 0.472538 -2.1457e-20)
(3.23584 0.725202 3.68116e-19)
(1.17736 -0.392043 9.50341e-20)
(2.60998 -0.187474 1.76805e-19)
(2.33574 0.960432 0)
(2.42077 0.902024 0)
(1.05128 0.0761652 0)
(0.109469 -0.438526 -6.26165e-19)
(1.3752 -0.516561 0)
(2.3066 0.654264 0)
(1.83902 0.0573849 0)
(2.43049 -0.39024 -7.65798e-20)
(-0.290063 0.71008 3.65238e-19)
(1.9885 -0.764487 -2.34784e-19)
(1.36349 -0.681723 1.15053e-19)
(1.37109 -0.279616 0)
(-1.66759 -0.585406 0)
(1.95242 -0.581442 -4.00029e-19)
(1.56782 0.577257 6.98514e-19)
(-2.2615 0.904004 -8.47392e-19)
(2.41206 0.421868 -8.53199e-22)
(1.70613 -0.420681 4.41009e-19)
(0.955307 0.517924 -1.12647e-18)
(-2.38633 1.57387 0)
(1.18118 1.41486 -6.11658e-19)
(0.308499 0.491129 -6.98963e-19)
(3.37071 0.480706 0)
(2.23956 -0.0622472 0)
(1.75499 -0.0928156 0)
(2.01653 0.0388613 -4.60485e-19)
(1.44395 0.307217 -4.82086e-19)
(1.62602 0.151226 0)
(2.86367 1.42441 1.61059e-18)
(1.75183 -0.784059 4.1609e-19)
(2.44684 -0.358038 8.79138e-20)
(-1.23719 0.257935 3.10196e-19)
(2.02614 -0.267075 0)
(2.443 0.0398664 6.1019e-20)
(1.76019 -0.39212 0)
(1.20615 -1.48815 -2.00553e-19)
(1.69305 -0.768825 0)
(2.09143 -0.759231 5.30946e-19)
(1.41983 -0.301847 -6.99987e-23)
(2.06261 0.183385 -8.40894e-21)
(2.47548 -0.380541 0)
(1.77754 -0.760525 0)
(1.55995 -0.657783 -5.64517e-19)
(2.33926 0.424061 -7.92806e-21)
(-0.308143 -1.18746 1.76198e-19)
(0.832098 -0.399955 4.75954e-19)
(1.87908 -0.0534163 0)
(1.54395 0.236783 -7.31496e-19)
(2.33603 0.00289475 -4.29171e-20)
(1.3646 -0.776067 -5.30224e-20)
(2.06184 0.248505 -1.13602e-20)
(2.09714 0.306139 0)
(1.14157 -0.316279 6.67624e-19)
(0.937868 0.280031 -7.2404e-19)
(3.67324 0.711381 1.02308e-20)
(1.75818 0.262933 -8.29423e-19)
(-1.05187 0.140076 2.35549e-19)
(-0.713354 -0.288704 -1.85024e-18)
(1.49637 -0.302182 -9.58858e-20)
(2.06287 -0.0453565 -4.36736e-20)
(1.10051 0.393958 1.38036e-18)
(-0.438642 0.402533 6.64861e-21)
(-1.13781 -0.0269523 4.56662e-19)
(-0.646087 -0.905786 4.34102e-19)
(1.75093 -0.0198011 4.90614e-20)
(2.37508 -0.227832 0)
(2.11104 0.565037 1.69857e-18)
(1.12212 -0.546976 2.78717e-19)
(1.63188 -0.178851 2.613e-19)
(-0.35952 0.306884 0)
(1.59957 -0.362679 -7.02136e-20)
(1.95734 0.0249554 6.91663e-22)
(2.09056 0.0747089 0)
(-2.02024 1.71981 9.44468e-19)
(0.634441 -1.9944 9.76938e-20)
(1.17425 -0.209725 0)
(1.00459 -0.37132 0)
(1.50433 -0.700838 -6.83078e-20)
(1.3403 -0.951578 -2.2413e-20)
(2.8657 0.213192 1.8741e-19)
(-0.052082 -0.354895 0)
(1.97537 0.0168535 -4.28581e-19)
(2.23705 -0.765602 -1.076e-19)
(2.1555 -0.73701 3.17732e-20)
(1.17747 -0.454863 5.90877e-19)
(-1.2354 -0.191648 -4.86428e-19)
(-0.911836 -0.802591 3.7997e-19)
(3.67506 0.666739 -8.8612e-21)
(2.69672 -2.22009 0)
(2.24558 0.959508 -1.29341e-18)
(1.55831 -0.608045 2.81802e-19)
(2.09241 2.14608 1.93641e-19)
(0.775658 0.682075 0)
(1.11172 -0.1957 -5.87975e-19)
(1.17695 -0.498337 -7.17299e-19)
(-1.72637 0.190994 7.73441e-19)
(-0.0280036 0.408523 -1.15397e-18)
(2.31135 1.54456 0)
(-0.277271 0.0605956 -7.87099e-19)
(2.31642 0.519038 0)
(-0.531435 1.00234 -8.04386e-19)
(-0.34511 -0.213836 1.45392e-18)
(-0.899712 1.83598 0)
(-1.47214 -0.261738 2.52658e-19)
(1.55358 -0.0740952 -1.07313e-19)
(0.0319645 0.110712 4.74858e-19)
(1.65418 -0.648328 5.14954e-19)
(-2.05256 0.687858 -2.17776e-18)
(1.14495 -0.52263 0)
(2.02727 0.0455342 1.47913e-19)
(0.449948 -0.0890558 0)
(2.2391 0.196708 -3.00507e-21)
(-0.430282 -0.45375 -1.37064e-18)
(0.522629 -0.188563 3.09357e-19)
(2.10609 0.339426 0)
(1.86311 -0.743563 -3.98306e-19)
(3.01271 -0.116213 1.57718e-19)
(-1.2232 -0.630528 1.07534e-18)
(0.847798 -1.93737 0)
(-1.20675 -0.609081 -9.56267e-19)
(3.5154 0.553604 -9.96842e-19)
(1.5802 0.231837 9.36873e-19)
(1.99947 -0.544379 0)
(2.4086 -0.173006 3.46901e-19)
(-1.08787 -0.202073 1.0208e-18)
(-0.727327 1.08205 -1.79098e-19)
(2.17277 -0.585488 1.62996e-19)
(-0.842761 -0.0367048 0)
(1.79703 -0.335406 -4.23828e-20)
(1.97092 0.155353 3.3265e-22)
(2.53338 -0.371745 1.40057e-19)
(2.29036 0.00565023 0)
(-1.42789 -0.559202 7.87179e-19)
(1.63644 -0.416116 -8.00366e-22)
(1.2359 -0.351577 7.34113e-20)
(1.8785 0.480041 0)
(2.01583 -0.782326 -1.87114e-19)
(-1.83816 0.312049 1.49496e-18)
(1.72855 -0.3817 -5.51244e-19)
(-0.150402 0.314289 0)
(1.50712 -0.274886 -5.15066e-20)
(2.04155 -0.761984 1.51736e-19)
(-1.25628 0.101304 -5.11915e-19)
(1.06169 -0.332952 0)
(0.385049 -0.180461 1.69188e-18)
(1.51919 -0.761501 0)
(-1.95046 0.422618 1.70055e-18)
(1.43967 -1.1564 0)
(1.86468 -0.0902853 -2.77743e-19)
(2.1463 -0.232062 -2.90826e-19)
(2.89934 1.3661 -8.05629e-19)
(1.48541 -0.586719 0)
(1.96051 -0.840355 -2.92633e-19)
(1.98783 0.0295292 0)
(2.38785 0.440625 0)
(2.03971 -0.843494 9.92367e-20)
(-1.67351 -0.406614 8.27461e-19)
(0.50817 0.00435912 1.94044e-19)
(2.1017 -0.558673 -9.60493e-20)
(1.67912 0.342899 3.04682e-19)
(0.75631 -0.525067 3.1081e-20)
(2.09205 0.292334 1.60008e-19)
(-2.31241 1.70029 -2.30349e-19)
(2.30675 -1.88862 0)
(2.46465 0.245296 0)
(-2.53017 1.49849 0)
(0.477945 -1.12077 1.34045e-19)
(1.14263 -0.390455 -4.14601e-19)
(1.48127 0.148732 0)
(-0.391751 -0.089187 2.56972e-19)
(2.29089 -0.167326 -2.02781e-19)
(-0.749523 -0.0144437 -1.66559e-19)
(1.36134 -0.485984 -1.35729e-19)
(2.12722 -0.849677 0)
(0.0519874 0.229326 1.45608e-18)
(-1.67828 1.43278 -2.03793e-18)
(-0.775211 2.04191 0)
(-0.680077 -0.207241 -9.78758e-19)
(1.88461 0.0423952 -6.66319e-21)
(2.6821 -0.158686 8.54762e-20)
(1.93106 0.0678061 2.79374e-19)
(2.82325 1.14756 -3.72555e-19)
(2.44361 0.229944 8.37652e-21)
(-1.03525 0.348697 0)
(1.92 -0.753334 0)
(-0.24604 -0.0363729 1.8503e-19)
(-0.141181 0.70125 0)
(1.60119 -0.333234 -7.10741e-20)
(2.12981 -0.766408 -2.88178e-19)
(0.954228 -0.448898 4.98993e-19)
(2.20279 -0.137937 -1.21053e-19)
(1.74646 0.369136 -3.02778e-19)
(1.5162 -0.593592 -2.76616e-19)
(1.60582 -0.62909 -5.15766e-19)
(1.33995 -0.830119 0)
(1.70557 -0.661808 4.92898e-19)
(1.94953 -0.0406961 0)
(2.51654 -0.408578 -6.18884e-21)
(2.0348 1.34001 1.37923e-20)
(1.22423 -0.241289 6.15169e-20)
(2.23195 -0.399024 -2.55355e-19)
(0.356887 -0.0453415 -9.59085e-19)
(-2.13784 1.46243 0)
(1.35072 -1.92393 -1.06071e-19)
(0.0241444 -1.495 -1.62205e-18)
(2.08713 0.587783 -1.70323e-19)
(1.80881 -0.726622 4.62662e-19)
(2.13393 0.0255676 -4.54098e-21)
(-0.105201 0.481909 3.86446e-19)
(1.76353 -0.74438 -1.26352e-19)
(0.263082 0.190494 0)
(-0.672302 -0.134822 4.5237e-19)
(1.77712 -0.349665 2.91213e-19)
(1.99638 0.00711113 -1.48557e-22)
(1.14638 -0.500933 1.0523e-18)
(-0.184245 -0.13433 -1.0799e-20)
(1.72417 0.646201 0)
(0.428751 -0.978048 -4.20314e-20)
(-1.3319 -0.749112 -9.33155e-20)
(1.05235 -0.307273 -7.9128e-19)
(0.690235 -1.04159 3.5269e-20)
(2.72656 0.917317 -3.68814e-19)
(2.13195 0.56072 3.21919e-21)
(0.925371 -0.371526 3.58002e-19)
(1.7961 -0.342956 0)
(2.59768 0.0548769 -1.63804e-19)
(2.36892 -0.043667 -5.54309e-21)
(3.08311 0.89518 -3.71624e-19)
(-0.286012 0.15662 0)
(3.48622 0.967366 3.81267e-20)
(-0.317848 1.07214 7.70207e-19)
(1.59372 -0.68345 1.09573e-18)
(-0.123543 -0.536577 1.0662e-20)
(1.24828 1.14482 -7.36939e-19)
(-0.137595 0.469456 2.90169e-18)
(1.97517 -0.745102 4.73927e-19)
(2.12515 0.0113207 -4.37537e-21)
(0.566752 -0.347506 -7.11345e-21)
(2.71054 0.00836672 4.37492e-20)
(-0.293548 0.0151022 0)
(1.99645 0.0299871 0)
(2.34103 0.456909 0)
(1.75413 -0.676689 -4.30454e-19)
(1.51901 -1.2122 1.89475e-19)
(-0.562176 -0.316334 0)
(1.1969 -0.348844 -1.71668e-19)
(-0.903935 1.72295 0)
(3.85972 -0.0679376 0)
(-0.951761 -0.0952925 0)
(2.05678 -0.0273954 0)
(0.389483 -0.106779 -5.2766e-19)
(-2.20139 1.83844 0)
(3.8464 -1.29801 1.18388e-18)
(1.45369 -0.001681 0)
(1.93747 0.142983 0)
(1.93243 0.226405 1.83232e-21)
(-2.37957 1.56306 0)
(2.51503 -1.77059 0)
(-0.202786 -0.447053 0)
(2.45969 0.0586673 2.13704e-20)
(2.55362 -0.198298 0)
(2.12699 -0.831332 -1.32643e-20)
(1.53146 -0.43773 3.3633e-21)
(-0.457145 0.46114 -5.26917e-19)
(1.99136 0.0607781 6.71857e-19)
(-0.1561 -0.0353023 9.94777e-21)
(1.05798 0.974918 -5.96364e-19)
(1.4685 0.738277 0)
(2.38485 -0.353743 9.17098e-21)
(1.61846 -0.13334 -2.55116e-19)
(1.5712 1.77857 1.45037e-19)
(1.87123 0.404286 4.24685e-19)
(0.745644 -0.250666 -7.51436e-19)
(1.4893 -0.643195 -4.27875e-19)
(3.24126 -1.7496 2.05912e-19)
(1.11073 -2.17588 0)
(2.2806 -0.507419 3.20433e-20)
(1.54329 -2.21339 1.25022e-19)
(2.66169 0.278119 -8.59349e-20)
(-2.20128 0.871378 0)
(1.82667 -0.00594381 -3.12972e-19)
(3.03992 0.778507 -1.1454e-18)
(1.32708 -0.529309 5.47188e-19)
(1.20047 -0.54278 -6.59138e-19)
(1.63378 -0.755203 0)
(1.74172 -0.766871 0)
(3.42863 -1.77008 1.05066e-18)
(2.28345 -0.39408 -1.64286e-19)
(3.41124 0.328135 -6.24424e-19)
(1.78819 -0.0157701 2.89886e-20)
(1.17481 -0.312577 -1.59283e-19)
(1.68678 -0.480467 4.68616e-19)
(2.49343 0.259623 0)
(2.41606 0.313442 2.32701e-20)
(-1.36184 1.54162 -2.39934e-18)
(2.2627 -2.29968 9.03872e-19)
(1.0042 -0.20321 1.56036e-20)
(-0.51166 -0.48202 8.04169e-19)
(3.39786 0.368632 5.21456e-19)
(2.54469 0.782131 7.76151e-20)
(2.35276 0.570659 0)
(-0.0683712 -1.24896 0)
(2.19024 -0.835284 -3.99754e-21)
(1.12067 -0.221631 0)
(1.85002 -0.38162 1.9579e-19)
(1.65651 0.292691 5.28418e-19)
(1.68501 0.489147 -1.54023e-19)
(1.57426 -0.631378 1.11756e-18)
(1.97875 0.178117 -2.05245e-22)
(1.58389 -0.00797596 0)
(1.82491 0.00978042 -6.86282e-21)
(-0.908708 -0.198242 -8.81993e-19)
(2.16259 0.284519 0)
(2.60928 -0.390731 0)
(1.89235 -0.761491 1.7258e-19)
(1.90609 0.591518 2.28873e-19)
(1.05416 -0.131006 0)
(2.79028 -1.0064 2.66998e-20)
(2.64469 0.00119141 1.82816e-19)
(2.34171 0.351865 2.34643e-20)
(1.78529 0.487265 4.54781e-19)
(0.0470109 -0.681686 -8.13321e-20)
(1.51525 -0.474988 0)
(0.510031 -0.0637102 -2.40799e-18)
(0.497083 -0.21015 1.12188e-18)
(1.95735 0.0220913 1.73724e-20)
(0.00793176 0.413 -9.75735e-19)
(1.77983 -0.737814 3.26451e-20)
(2.65734 0.299178 2.29718e-19)
(2.27696 -1.93165 0)
(1.9443 0.199727 2.47234e-21)
(1.81596 0.00607134 9.73044e-20)
(2.14848 -0.0196639 -1.74718e-19)
(2.20065 0.539867 -1.22213e-19)
(2.17831 -0.795897 0)
(0.116667 -0.517204 0)
(2.48655 0.0241107 0)
(2.3353 0.445974 -5.7691e-20)
(1.02403 -0.479199 7.83299e-19)
(2.4627 1.84896 -1.03966e-19)
(1.44813 -0.0842324 0)
(-2.51661 1.35316 -4.98795e-19)
(0.246034 -1.17513 1.0828e-19)
(-1.94138 1.30962 0)
(1.91131 0.256958 -1.3907e-19)
(1.61921 0.282792 -1.76501e-19)
(2.94055 -0.326914 -9.32381e-20)
(2.05231 0.227432 -7.04264e-21)
(0.644929 -0.209807 0)
(2.17672 0.187499 -1.61407e-19)
(2.01384 -0.431433 0)
(2.04491 -0.263029 9.36586e-21)
(0.969629 0.131894 0)
(2.2729 0.813217 7.88939e-20)
(1.67347 -0.669109 -5.03643e-19)
(2.39794 0.825825 0)
(1.82063 -0.0498578 -4.82978e-19)
(2.06784 0.270608 1.10352e-20)
(1.77493 -0.402189 0)
(1.10566 -0.522193 0)
(0.46536 0.277958 -9.43091e-20)
(2.4996 -0.223324 -1.44465e-20)
(1.14688 -1.80478 -1.12754e-19)
(0.516566 -0.351555 -4.47715e-20)
(2.63132 -0.112945 1.85366e-21)
(1.7351 0.0319442 7.34351e-19)
(1.78844 0.41786 -1.96218e-21)
(2.05431 0.585742 0)