/*--------------------------------*- C++ -*----------------------------------*\
| =========                 |                                                 |
| \\      /  F ield         | OpenFOAM: The Open Source CFD Toolbox           |
|  \\    /   O peration     | Version:  2306                                  |
|   \\  /    A nd           | Website:  www.openfoam.com                      |
|    \\/     M anipulation  |                                                 |
\*---------------------------------------------------------------------------*/
FoamFile
{
    version     2.0;
    format      ascii;
    arch        "LSB;label=32;scalar=64";
    class       volScalarField;
    location    "0.1";
    object      p;
}
// * * * * * * * * * * * * * * * * * * * * * * * * * * * * * * * * * * * * * //

dimensions      [0 2 -2 0 0 0 0];

internalField   nonuniform List<scalar> 
13486
(
46.1486
33.022
3.91793
-17.3658
2.37806
-6.29204
-3.21662
16.8565
26.0693
14.3189
-15.2825
8.2643
48.4273
-7.82494
4.02621
15.3581
-30.5763
5.17674
9.46991
40.2245
-14.5877
48.5253
35.7763
-7.89482
12.2393
-6.35782
-18.827
-3.64708
3.41405
-3.55675
-2.87363
6.49237
-8.19006
-1.91722
16.6812
-2.88875
2.53685
34.6612
0.208015
24.6415
-26.1548
51.9654
0.447729
14.199
12.2244
7.19512
-29.9727
4.11191
1.05161
-7.08247
26.244
1.36375
6.87056
34.7683
3.9113
3.45326
1.28494
-0.498046
-10.6339
-0.45753
-13.3616
2.41786
-20.6789
-14.7874
-1.81444
1.38314
-13.8904
45.5295
27.1291
0.746105
-13.8794
5.09027
26.6522
-117.337
3.66318
0.5819
2.26662
3.7545
-27.9673
2.18344
0.428141
35.886
-25.0885
2.17208
44.9737
12.6664
1.88297
22.2345
28.2638
17.8285
7.11295
9.89018
42.7877
39.7488
27.0497
0.52865
-18.4743
-10.519
25.9765
-29.7455
2.01755
-4.66124
-9.99616
2.4088
23.3606
-29.2972
27.7469
2.95905
-28.5817
6.47839
23.9677
3.42449
35.2822
0.214053
57.2551
24.9715
13.9025
0.852273
27.5492
1.46058
5.41422
-14.0002
29.0968
1.12876
24.1114
0.475571
16.8306
7.40526
1.50218
-0.830912
0.800794
-29.3026
-69.1071
-209.731
27.0754
22.9479
57.5706
7.365
1.48666
18.2228
-7.89312
0.701229
7.35306
1.0443
0.172884
-14.1387
5.07002
48.3263
-6.9267
-3.69549
19.1307
-0.474606
-1.5465
36.4461
10.4093
4.8974
-6.27599
-59.0414
29.4722
2.37849
-5.5332
29.3409
4.95249
51.1198
0.839381
-12.2813
-1.95705
70.0949
5.25675
-198.879
-59.7262
4.53779
19.3336
13.7278
0.344969
-5.96417
-16.4553
-12.1008
28.6246
7.96151
25.3762
3.9349
10.9077
-11.3938
4.98513
-5.09482
-0.984655
-3.68479
-54.4052
27.8616
1.4487
2.25187
2.02033
42.3702
1.46011
-15.0083
-0.570025
-6.03913
39.9264
-10.015
-1.14863
8.85801
35.0164
-5.58269
4.41903
0.966806
5.06001
30.0153
0.29803
4.47531
-5.19488
-3.36674
39.3018
28.6049
-1.84568
-1.7925
-3.56682
18.8645
40.9231
-25.0765
-30.8635
-5.52347
18.5159
-5.28295
4.8217
44.4819
-4.45556
-2.29427
1.24825
2.85198
24.5027
-93.572
-7.55426
53.1251
-8.44929
42.3566
-2.99534
3.87226
42.6704
10.815
-8.49923
21.34
1.61632
39.59
1.46124
34.2935
13.571
-4.72219
-96.3468
15.455
-8.47533
57.79
23.419
1.68673
0.297328
-6.31776
7.2503
1.3383
-42.1225
-8.11016
31.3556
2.40862
4.18873
-7.25721
-1.6111
-11.2202
1.12138
-3.85348
24.7017
4.92752
32.8921
26.9641
-4.00913
5.91756
44.2889
-4.94996
0.348157
3.49833
1.83831
4.05873
2.44182
20.5336
26.9686
-9.41208
-12.7408
-23.9251
-7.81906
-1.44085
7.29314
27.7697
-9.73596
2.73955
26.9865
25.3521
-2.1108
-2.07136
-4.96561
7.07946
29.5141
-10.4946
5.51959
4.66686
3.83499
5.55553
1.6248
-13.2199
-74.4264
14.0258
3.58824
1.57619
-11.3755
-17.6683
-8.72776
4.43963
-13.4517
23.2776
2.51879
28.5942
29.8515
-1.46372
2.13489
2.40302
26.5705
36.7183
62.6702
6.72438
11.9138
20.1788
2.58025
12.7659
24.8525
9.06029
7.07922
42.9516
-4.66131
24.1663
59.769
0.574002
16.5601
2.82699
-1.91216
37.122
9.66871
9.91035
-11.1801
0.28822
18.8624
56.653
-28.676
2.5468
19.6499
7.14368
6.97225
-17.6857
28.2602
-0.0043748
-114.122
16.9777
2.72893
-3.69014
8.53268
6.51968
31.9489
27.7714
-3.26652
-1.43456
-2.29139
-32.3369
40.291
17.9576
0.241882
12.5402
5.89542
-8.97723
0.0529217
24.4297
28.465
2.10289
-11.7721
-54.4785
27.3014
7.66836
49.4239
35.4123
-32.3567
0.146223
2.17237
19.0412
-41.7176
-11.6525
37.5584
-4.53786
12.2852
42.8737
44.082
1.43497
-15.5945
-9.09472
-37.7946
-10.4191
-40.2855
2.00657
25.5939
-44.4025
-2.98878
3.80069
34.8093
-11.841
17.4603
31.2348
15.4677
-38.7505
-5.85637
30.688
27.4246
40.3681
-11.3315
-2.1244
-53.2245
10.8063
28.4243
3.24388
56.9025
18.561
-2.96919
-2.19796
6.72272
25.3061
-19.5078
-2.15423
48.2735
21.4423
12.6396
6.79834
-6.41999
-6.10946
48.8029
2.54846
11.6938
46.2591
-35.3356
-4.70273
-215.662
-4.95627
4.30374
32.805
39.6106
48.2871
-52.9602
1.32861
-11.1762
16.497
29.0086
-8.30232
-21.7852
27.7187
-9.14815
-5.71902
-8.78072
-14.0339
-6.42009
35.0232
-0.99337
2.0381
-17.5076
28.3443
-3.21403
64.3295
43.7457
25.8043
14.0725
1.58796
0.513233
59.3942
-0.957785
1.73452
-8.79077
23.9597
-24.547
7.12589
19.5097
-0.471044
-12.7849
33.2228
-18.8877
-35.2571
21.1576
-7.43143
69.3633
15.9408
25.7314
29.4456
-6.09281
3.57092
53.1774
-1.2518
35.7256
-10.7806
7.29019
-3.55694
3.00751
-1.27986
-28.1687
27.9641
23.9438
-8.26319
0.112509
-1.72573
45.4151
35.8479
1.18362
25.4809
14.4299
-12.5895
-2.60908
28.9748
-57.3155
48.8153
1.62149
-1.08182
51.0251
8.01635
4.36005
15.8221
-1.5072
-9.29152
12.5861
6.31943
29.0818
42.6787
-14.19
-5.65899
-13.9996
2.74566
41.3308
8.29568
-11.3086
-9.23207
3.40762
-52.23
17.7337
-1.0013
-23.1367
24.9829
40.3599
1.98426
30.4705
-15.9233
-9.17793
-37.1953
11.2789
-11.7893
32.8352
5.53513
-12.4265
21.0681
32.112
-8.05341
-13.6785
21.0935
41.1973
5.27767
46.0573
4.95879
16.7926
3.09963
32.8812
1.26746
39.6146
-18.0993
10.5662
23.1944
-0.575809
-3.90111
27.5838
-37.3554
7.24189
38.7181
48.0716
2.34068
-20.8021
6.67549
9.42028
24.8338
20.2199
-22.3537
-16.1285
2.77328
45.0408
4.80774
2.58068
-3.92451
48.4903
0.925367
1.39855
22.334
12.368
2.30178
0.604504
17.204
7.49243
4.41063
10.2807
-22.0077
46.2961
23.8238
17.6155
21.3497
5.44143
-10.5358
54.4759
6.19751
54.637
-2.37858
27.2327
0.500989
-79.9482
3.89202
15.1371
57.6438
-3.18145
6.17081
13.0543
-26.3304
14.7203
4.48299
-16.4244
25.6901
-13.5384
-4.17025
-4.16602
-15.7148
-1.50118
28.8002
0.597326
52.6698
24.5105
2.76422
-9.31133
-6.03575
11.0342
-13.427
-13.812
-28.346
41.7664
0.349691
0.237367
-9.40356
49.1727
-0.740577
5.65642
51.1639
22.5817
-10.5627
1.87167
16.449
3.31874
22.5454
2.08709
-0.00578575
10.7598
23.002
9.2144
22.778
52.3877
1.1908
-5.18422
28.0721
3.00758
1.41633
14.9879
13.7352
11.4592
-11.0158
5.99692
2.47203
7.03724
41.9668
8.6637
6.88513
5.94518
-48.3277
0.441224
28.7253
2.69728
21.3409
24.9899
42.4282
5.18452
-33.0763
53.5255
1.92446
-9.14794
26.4937
-5.39893
32.7503
4.00162
26.4265
-113.809
-195.027
-4.57086
2.36889
-33.4373
16.903
55.636
-1.1374
-12.1837
-4.91236
29.7086
4.73757
11.3446
-10.6552
55.7787
-10.8066
13.9504
-6.00805
15.4196
26.3623
7.31863
-52.2555
-18.6033
50.2207
23.7122
-6.54228
21.1662
-23.401
18.1693
17.213
14.0317
-110.882
0.44933
36.0228
-1.36546
-0.237636
15.5188
-9.59879
0.0995794
1.50353
28.4408
30.6388
-4.81587
3.88462
-10.1567
-15.3846
6.11174
-1.32684
7.92197
24.5046
-2.2435
-30.6222
32.6831
2.39649
-0.597645
3.86572
-5.76544
-5.62546
-4.31261
2.52056
-7.84249
22.6837
48.5043
1.90744
-0.800789
50.8496
46.9434
0.345098
-0.602484
26.4103
-35.251
2.97171
4.71844
-1.22024
4.41486
-34.6592
8.8343
18.882
-8.16952
1.66688
-8.16557
-0.919819
20.7323
10.7091
16.0259
-5.56897
23.2448
44.885
-19.8253
-7.20695
30.1501
-21.9563
16.8089
0.897299
-3.5074
-5.97452
-1.32864
28.2447
54.8547
28.0655
5.48288
-0.713847
27.6693
43.1513
-3.99632
27.7703
28.1232
47.3947
-0.754594
2.53484
5.85592
1.28351
45.5605
5.87568
9.90819
16.763
1.36438
8.31949
4.194
-10.5861
27.099
28.089
22.9073
12.6458
-23.4722
1.11208
-0.507192
4.12932
-21.4033
-30.0111
2.14014
-5.52321
-12.042
15.8702
-3.24486
-106.973
-23.1304
0.149116
10.481
-16.8683
-5.02031
33.4862
-2.69481
48.9304
-1.81354
-99.7516
33.226
42.0841
4.44412
2.14926
-25.4614
28.0056
1.8593
-19.0659
1.21526
2.04186
1.81692
29.5186
1.44774
17.4202
2.24314
25.7907
-19.7329
2.01937
-0.186096
33.7714
-8.39523
-14.4037
-6.04254
47.7206
4.83138
-4.44266
-15.8032
25.0034
-6.38917
1.25789
9.51081
7.50188
4.38983
15.4726
-0.829141
23.288
20.9668
32.109
13.8552
2.5879
-0.0918423
20.0098
-13.0012
33.9719
20.0656
1.20701
0.450932
0.362849
-2.84513
1.30619
33.0478
9.22447
3.35736
27.7189
4.61313
20.1234
57.0507
-1.48166
-19.4282
15.8897
3.38789
0.919374
0.737469
-15.2031
26.2037
1.37975
1.8494
1.29564
3.28249
37.3928
-10.0693
-2.34433
26.559
6.35151
44.2604
32.1953
39.3284
11.4496
16.8307
8.47095
3.7313
13.058
26.2291
-49.8793
-1.23432
-23.1924
-3.15799
-9.97234
27.241
-12.5769
-8.03033
-5.47058
-56.8573
2.48975
27.8604
1.96054
6.89962
-394.749
28.1497
55.9199
3.01
-12.2722
15.0744
1.92841
27.4156
3.14876
2.37118
32.6641
1.16207
52.2907
13.3947
26.9853
-2.08957
38.3196
2.14203
33.169
1.47032
-7.90023
-13.3831
-1.99913
12.7183
3.75763
2.53667
47.8239
26.8354
30.9408
42.7425
30.4539
33.2664
0.773763
27.4117
27.6797
28.629
-0.26089
-2.69105
-6.25655
-55.7171
6.73324
30.737
-186.562
53.4073
-30.4646
1.30723
53.997
43.0013
-0.734836
-3.57474
25.933
11.3834
-23.8317
23.1432
-139.501
-8.48078
27.9091
40.1559
3.20229
28.959
36.9321
-0.631988
0.0109838
37.7335
11.6426
1.82547
-15.4107
3.40854
-11.1349
25.3018
20.5098
0.759847
2.56003
-4.02324
9.0494
3.12778
8.544
45.0182
0.824825
62.7041
27.8513
9.612
32.1864
-10.4393
-71.6335
-7.16412
28.6366
1.23943
-145.034
0.501259
12.6051
15.8531
1.90339
6.42313
-35.4931
7.31532
5.88976
2.58223
21.7888
7.88514
36.9888
28.485
30.1812
25.7682
0.340323
-7.3801
-8.55277
5.97328
0.680771
-2.00278
18.3537
-0.237717
0.508189
0.580648
7.10698
-10.7869
18.8193
10.4905
2.98379
-3.40579
11.2709
-7.6966
-5.35104
6.65424
3.01775
29.4834
23.6194
37.5505
-191.48
27.1366
1.59636
41.2015
-11.7491
13.9206
4.87005
-0.86821
50.8092
52.9912
19.5827
-0.060188
18.3926
22.65
51.195
11.6548
-9.04972
-10.1677
7.34861
-43.3321
-24.237
28.644
24.8874
4.78566
-20.464
15.7797
24.9413
57.7218
-13.2526
22.9001
-38.2927
-30.2856
43.1561
-0.138116
20.9469
1.30766
4.80958
7.94126
60.9771
3.78188
-7.27201
13.4025
6.88732
-11.8387
-172.251
5.91429
30.7807
5.07017
2.87903
46.1087
42.4826
0.71908
-45.9051
3.63683
4.16806
32.684
21.1538
41.1627
12.5492
-15.5118
44.3846
20.3378
-19.5705
16.3653
29.3657
36.5129
-11.5445
-49.2079
-0.776981
24.689
50.3638
12.9009
3.9008
-12.1015
57.8638
-19.5256
-8.56039
53.0123
24.0761
4.68408
18.2932
-14.5454
10.5619
-0.76579
-19.1193
2.19033
-6.93173
3.21921
-0.309488
-37.6072
-32.926
-21.2664
-18.6853
-39.0566
-8.81979
37.1079
27.8299
-2.55487
-35.3553
7.7483
3.87278
0.274565
62.1624
7.84764
-8.6833
20.1907
-2.42358
-6.8821
14.5483
14.143
27.3715
63.6128
-1.36459
0.898174
-6.62181
5.21915
12.1781
23.0631
-7.3047
45.2849
19.1279
29.2199
-1.68279
0.957369
-0.665151
27.8393
28.3339
28.037
26.9853
56.2814
54.8554
-1.91286
24.4674
36.8678
-6.76072
41.5033
1.203
53.9303
41.3192
4.35603
33.9583
15.7499
16.1349
0.420766
27.5272
-7.90605
21.4249
0.587587
6.77432
0.0855178
27.0683
-1.62471
6.85521
51.2596
51.2898
11.9513
-201.666
8.57927
-42.1453
0.534385
20.7623
43.9662
-176.632
29.4128
24.9253
15.249
26.0319
-9.29217
1.39071
2.03105
58.36
3.43093
2.60408
31.7945
-2.66661
-1.43567
12.2007
7.5854
20.5317
-18.0671
-3.63725
16.6728
15.7734
9.94583
15.0553
55.0899
42.5071
35.842
53.5776
50.5299
8.41695
0.908756
4.33269
-47.159
50.4225
0.688948
26.9762
20.9394
-9.79583
8.87504
30.2981
-1.17551
11.6995
14.4832
64.2604
-17.2642
10.5918
4.67617
31.0446
3.23297
-7.57876
49.3416
39.4971
24.1156
26.5955
-0.430947
-13.5115
-28.692
54.573
1.48623
60.4872
-57.6959
5.77245
-53.4229
-4.47109
-123.055
8.22583
0.724873
10.2814
2.15871
8.46435
-7.84116
0.487523
0.697374
-126.678
-5.82259
-21.0533
4.0209
-0.216565
-22.4198
-12.785
24.6836
25.9508
40.1048
27.7335
10.011
4.62145
71.2054
25.668
-20.3686
0.173265
-0.0424455
20.0928
22.4509
44.9673
-8.91757
-8.46782
14.5699
-1.61823
10.1947
34.4181
-192.135
-10.5497
-30.5566
55.587
-11.2686
15.3296
37.8287
-45.6733
17.1035
2.07722
-16.3206
-15.4506
1.83472
18.1125
33.4475
36.396
-18.1827
-183.334
5.34987
-25.2632
-2.64391
-1.96643
8.69478
-0.791713
2.6873
-8.67721
-16.4132
-7.04779
47.0567
-12.6937
53.9014
-11.7169
1.31716
7.70414
3.97718
42.3529
23.34
34.1749
4.42467
1.1104
-15.9752
41.0135
-195.538
19.9276
2.74158
35.1468
42.3043
1.94578
29.4311
49.7968
29.1675
29.7988
-63.0857
2.40845
10.4516
-5.56679
2.76764
7.70498
10.7425
4.13174
-16.5118
7.99089
3.23762
17.3273
9.90164
-6.65861
53.737
5.41735
2.16744
6.70554
28.5441
-0.358239
0.521773
28.526
-14.3384
2.72188
0.816308
27.1282
27.1091
25.1323
3.8963
26.1446
33.0939
30.2704
-1.29123
1.35134
5.82718
20.9394
-9.705
-46.1753
-4.33007
-23.146
-14.1446
-4.07101
3.42876
2.49027
-149.417
-9.16228
-10.3092
2.17908
-1.28095
8.78465
-12.7421
30.0197
70.9178
8.47937
2.16581
12.4934
2.08636
8.57963
2.3927
-2.43678
-4.69212
3.93473
39.3311
-0.972854
48.7975
1.14735
27.741
17.1311
10.1834
-45.9426
-0.295928
56.6968
-26.4775
28.14
27.1872
44.9427
7.41675
39.7165
27.696
-56.3109
31.046
-17.5992
-22.699
40.9094
32.9272
-18.1325
-1.3383
36.6216
-41.2311
-3.40315
2.4129
1.6764
19.2907
18.5012
28.6491
21.3007
19.5831
-45.8423
-6.77627
-1.25453
26.771
60.6431
-3.28876
-19.5201
-48.6969
24.1021
7.37589
2.74823
-7.21429
4.44084
15.7321
25.8072
5.01617
57.0973
10.0505
4.8467
-3.77691
-9.89192
-4.78402
-36.7204
-6.28972
-10.2518
36.1947
12.627
-4.42043
51.5878
1.40663
-14.8086
1.11566
-21.9264
29.8296
-258.336
8.63002
26.159
4.67098
-1.85949
1.93196
-20.0868
-1.88534
29.381
-10.5347
1.51783
-29.7365
27.4362
28.8427
-10.8844
35.973
32.1325
47.0338
48.0399
29.6271
8.18784
58.7559
-30.0367
23.7241
-9.42995
-9.09255
34.5961
-4.56415
46.2984
11.2087
-17.276
-38.4415
-31.2737
29.3274
-4.0613
-0.472805
5.09064
-39.4759
4.43717
16.0171
6.0196
16.2358
55.4014
-199.804
-6.36059
-18.2233
26.6668
20.5552
-3.19561
69.9801
2.31645
3.04937
16.9199
-22.6123
28.5264
26.7794
31.7804
31.9648
5.07551
10.5062
24.3057
8.71727
-178.832
-0.0995003
28.5671
29.9303
41.3405
-37.4827
4.78647
-11.0916
19.7288
6.694
-7.65582
22.5252
1.44416
19.4073
29.1734
-31.9713
49.0308
-2.16129
54.7702
31.4672
-9.44494
0.590543
1.77845
9.91444
29.669
-8.1295
39.0468
28.6
-0.977988
2.03981
6.95957
-6.69939
-0.0295838
-31.4809
5.76438
-1.28917
27.3849
-46.5188
-22.0669
-0.324635
35.0652
42.9679
12.78
-44.0513
14.7792
1.06711
5.76524
13.2299
-45.4466
-46.5771
52.9602
-13.0324
2.93043
-7.83708
-20.2413
-52.1187
26.5111
-31.756
-0.998783
29.8087
11.631
29.7058
-9.26512
8.94208
54.5311
-41.6286
27.3734
8.48847
-60.611
7.85939
8.92827
-18.7746
54.9074
30.8959
2.59656
53.5029
37.0906
35.5205
-26.4577
-46.5928
3.19497
-20.6566
-40.3895
-16.6434
-21.6474
-15.5433
19.4141
10.3605
10.1911
13.9626
-77.5657
11.1036
25.0918
-16.944
25.9664
15.7696
27.397
1.52959
4.99561
-10.4554
-36.3997
-9.42776
-1.64434
27.7289
-8.47709
47.2922
-10.1662
25.7632
4.72116
4.63228
-8.7974
25.6498
11.4816
6.62936
23.5659
-0.562882
4.50761
43.9629
34.6402
-3.71933
-12.154
-24.3942
24.3272
-0.348471
-6.59832
-16.3049
0.76637
-0.0997425
3.52916
20.8692
16.3004
5.94667
12.3436
-1.70636
1.8774
-6.31833
34.8399
-10.5092
27.8555
0.0550469
23.5836
32.2586
16.9669
22.3297
-26.0671
-7.32301
1.76418
-57.8636
-5.70183
-3.2975
5.08211
-32.6522
21.0996
-0.27728
28.4797
-9.33543
4.1844
-27.5862
1.29667
27.8202
-15.8232
25.0521
7.9751
-4.95007
-54.4584
-9.58716
19.5822
28.5273
1.58156
7.81223
-76.3872
31.9776
-9.24129
6.60733
-10.9855
35.9259
12.6946
1.18832
29.8264
28.4853
33.031
4.6435
36.4839
-46.2375
3.37366
2.74948
22.5529
14.7626
7.85036
-28.7128
-7.11573
-9.4027
9.46383
2.97935
-8.34398
52.669
-67.7929
33.0048
15.0128
-0.642341
1.70282
1.49454
1.88721
3.16551
7.75741
25.7171
3.7536
27.7799
-27.1735
-7.82359
-37.1534
3.03077
-8.20276
35.6841
54.0601
31.0752
0.263504
-24.6255
15.5274
-19.8477
0.286393
2.96763
0.440578
-3.67167
-9.6038
-7.19477
-3.81851
23.3425
24.5054
-18.1769
9.35928
31.4317
-8.30259
-17.5069
30.7278
1.52315
-14.0553
1.82647
-2.27385
0.0477441
51.7345
2.96829
21.571
-20.1234
-10.0776
-8.40709
25.9659
4.95076
17.9981
-21.1954
-5.56818
4.05489
-4.79688
31.5559
21.6102
4.63738
3.55999
-3.09125
56.7456
-31.3048
31.4502
34.9327
-5.76311
-1.09289
10.206
-46.5278
-30.4847
23.4288
13.6632
25.49
-6.34423
31.1761
6.46818
42.7831
-1.98517
25.0872
36.6763
21.5011
6.36057
-10.9997
8.8189
-22.6749
16.5908
12.6339
32.8644
3.40853
46.8803
7.08957
50.6744
5.11636
35.8254
-0.724931
18.9603
-13.6552
26.3331
9.54073
12.0952
47.6352
26.8702
7.69558
-7.77738
16.1171
27.0156
1.61723
-36.55
17.7587
2.62575
37.1077
-10.8658
46.9289
6.79051
71.4198
48.0309
9.43407
6.21877
-12.6742
2.42973
52.2673
5.66233
0.192531
0.956844
55.7413
10.7504
20.0025
47.2047
-10.7864
29.3826
-1.28926
33.2994
4.31868
29.676
26.0888
41.2254
0.949188
-27.8495
8.46273
-9.71878
11.0233
-31.1169
3.52482
38.0765
44.0622
1.28737
-12.0109
0.0255348
38.0977
20.7595
22.2115
18.117
2.72813
-54.2743
-10.057
28.9323
-27.8139
2.85234
1.10178
15.2572
12.0123
-6.27904
55.8296
-59.1373
47.4687
-14.842
52.6404
-2.11636
5.47905
3.03991
0.77205
23.0675
26.8232
6.33964
4.17062
5.08913
3.50497
43.9673
-7.22151
2.8462
-47.005
3.18585
-28.2902
34.526
3.81801
2.49578
1.65411
28.3287
60.5387
-9.28358
4.52624
24.9064
2.95588
12.3399
2.88827
8.8509
4.73295
-36.5832
-8.8763
1.83968
1.07702
5.87467
-14.2889
-3.37238
-0.194541
22.741
28.5057
23.4299
58.3811
-13.5304
54.3538
-64.0068
49.2249
-7.77275
-7.65919
55.7061
10.9128
-0.394203
24.0083
2.10315
27.7014
-39.2988
-29.959
7.51422
-4.93684
-5.7157
0.606104
0.969403
9.66937
35.029
-6.94332
11.8613
-24.2972
7.33386
-35.0471
1.36609
5.43844
-45.2866
-22.0987
42.2815
1.11257
46.5473
10.6603
-16.2118
8.53583
-22.3418
3.02502
26.98
35.3986
58.6964
20.971
21.1067
2.70495
-196.056
56.9426
61.0374
31.2676
-9.16512
-5.98035
-21.9025
22.879
12.312
6.88037
22.2257
0.769314
1.31734
-16.6543
47.498
6.62547
3.68316
-6.96405
23.4337
-2.48056
67.8278
62.0199
23.1753
-1.74332
3.24536
-52.2017
10.0867
63.9006
-12.9178
2.93878
14.5667
0.716313
6.97978
-0.956098
-3.91849
7.0398
4.73937
8.18855
1.65049
5.44289
40.9748
-23.4666
28.5997
-5.41711
-2.774
53.3215
-10.9294
5.75738
-16.7239
11.5527
3.4872
-10.5895
-20.2004
2.91267
8.1802
68.6802
-46.4303
-17.0248
-4.12736
-21.2756
-26.6748
-13.7154
-11.9874
-14.6502
1.29768
-21.7476
-19.162
-5.29534
2.48139
3.81567
3.27614
66.8633
2.50494
11.0321
0.680584
6.5801
-157
-1.20917
40.514
27.3626
8.9691
3.17581
26.29
28.2727
-1.98462
-9.92564
3.01463
42.7079
-4.8967
27.4413
2.9781
46.446
6.59076
-4.6694
5.60688
31.5862
-2.28357
24.747
-10.7974
62.6477
-11.4316
-2.24099
-16.4367
11.4744
-8.96394
-11.5004
-10.0456
4.98055
-6.27088
-5.47102
-55.6663
3.50851
7.49204
-2.94723
-17.5223
14.4339
-23.4766
21.7817
-8.83791
30.7328
56.0824
22.2069
-168.677
24.7014
5.07817
5.77694
-0.440857
-4.6807
-25.5618
3.91028
-2.41156
-4.67786
-1.78139
-30.0595
-46.9045
-13.0818
12.9763
27.479
-31.9054
-9.78615
-5.43271
1.82665
3.1993
11.7986
-96.8472
-9.30791
28.1974
-10.749
-1.77595
-9.03513
-13.9038
-13.2515
-13.5772
68.2916
6.33508
-5.98213
7.36718
51.5752
53.7177
-3.94819
-0.779936
28.0034
1.40134
4.28053
53.0761
11.7457
18.1913
70.5283
-9.46801
-12.5173
3.33426
44.4839
28.2661
25.9813
36.7472
20.2368
0.946182
2.34196
12.0452
7.69576
-38.7563
54.4094
-31.1035
-18.3094
1.21516
-1.73434
9.73344
-5.86464
-0.342704
8.39674
26.8253
29.2907
30.3824
-20.737
45.338
52.4833
-16.5235
14.6837
2.66297
4.07814
5.07084
15.3342
-32.862
-7.0887
-29.529
60.7813
-18.1121
30.7275
26.7918
38.7564
12.9218
17.9148
3.8505
1.45302
-0.156202
4.50627
-20.3232
-21.7984
0.715803
-12.7018
35.2987
-4.93569
1.99055
6.61061
-156.759
-6.90371
-32.4147
20.5695
0.101042
4.9475
15.9375
-8.63072
8.54797
-19.4431
2.22223
29.8465
-15.8974
55.2245
1.50491
59.7413
-1.5758
2.98506
8.58422
24.3457
20.5134
-27.6849
0.652251
-5.53791
6.47976
15.7677
72.4516
38.6356
3.23008
-7.70237
8.75011
4.60576
30.9099
4.55298
15.5421
-8.12494
-8.37209
-109.51
-21.2038
2.02097
-161.273
14.077
16.112
51.5361
57.6486
-35.4415
-25.3064
5.57923
-17.2074
55.0171
-13.3204
-16.1597
11.996
16.7829
1.04102
-13.0891
6.76117
1.18692
20.6952
0.186627
-14.4075
3.97109
-12.0105
-25.8297
-8.69722
-29.0094
-23.6245
29.7651
-3.45631
-4.74463
-1.43751
4.59081
62.1155
11.2931
26.0328
-0.259164
11.6885
-1.34691
5.94832
6.59055
-11.6798
-42.2389
55.2161
28.7681
0.805603
-50.037
65.9929
-7.98265
-52.5501
-9.18081
5.86824
-8.74829
-1.2178
45.232
0.284082
22.632
10.3535
-15.1414
3.70087
5.9903
15.7532
-30.244
0.299252
5.24329
26.5511
-9.07679
-59.8394
-10.2122
-1.89353
-25.3268
-18.1033
60.1679
16.0358
-8.65986
4.43458
8.4386
49.692
11.0714
-43.5371
8.24667
38.0457
28.7487
-3.01906
24.038
4.54858
54.7108
1.60367
27.9127
-13.1835
-4.70412
1.41001
-7.07691
2.5664
9.70054
-44.0138
-8.50124
32.0449
3.98414
-0.214708
41.8112
22.3157
38.9263
25.2754
-6.60994
0.79904
1.67872
24.0103
0.0330764
34.8499
12.795
53.4728
-12.1869
39.9282
-6.73346
54.938
-16.8628
-11.446
55.9202
-10.807
10.7989
-18.3376
45.812
54.1813
31.1619
-42.1694
27.3648
38.4087
-2.48891
8.99357
-2.85817
40.7426
-9.54174
-25.6131
-26.687
-27.0474
35.5039
-2.76125
-24.6409
9.90719
52.8756
-19.3432
-3.27436
-27.1871
-11.588
15.9397
0.104991
26.1477
22.4595
-23.3119
63.3708
-0.113613
42.6779
42.5173
4.2872
0.558227
21.4542
-20.1205
0.143993
18.7266
16.0413
-8.50423
24.2845
-15.1307
53.471
31.0432
9.99114
-38.2225
29.6664
2.38391
16.6749
38.7893
7.59352
1.33846
36.2378
28.9813
-6.8215
-199.322
12.7535
30.1961
54.146
-59.8619
58.2601
58.4223
59.4507
3.4961
35.7254
-12.3581
27.5482
39.4823
36.3327
29.7806
44.1874
67.3654
23.4055
-52.9474
-33.8579
-41.2256
67.0872
13.2044
3.77746
-10.212
24.5078
45.93
25.1149
7.61866
1.02812
43.8052
-17.7022
27.8237
-9.54257
11.4561
1.69819
-25.4172
17.51
-10.5904
-9.95436
-33.0063
-2.42134
3.98693
33.5007
-5.91647
6.54931
23.7997
-14.4368
6.91989
1.95972
-12.8031
-13.7241
-49.613
41.5358
46.9365
-8.47859
13.2485
37.6334
36.6686
1.26814
-7.41784
27.714
-41.4171
40.2653
-12.7408
39.0261
17.1828
5.0014
35.63
21.2857
38.502
7.21345
13.4208
-5.18209
-174.042
-15.9692
2.03832
37.6955
-7.38914
-1.10886
-7.62535
45.4724
36.548
10.6383
16.2586
43.2024
-21.8933
26.0245
2.68704
-6.98119
24.0265
-4.2506
-19.0013
-16.7295
-34.5298
-1.83752
-8.85068
3.28884
-21.4972
-110.394
18.401
55.1692
62.0876
50.5745
-6.05506
28.2777
-13.4103
24.0346
43.9164
4.02539
35.6123
-5.92304
8.32274
-4.4969
1.50174
40.2799
-21.8427
30.4758
-21.6249
-4.01949
-32.8337
34.0543
30.7282
27.4137
-16.9528
23.1134
-61.2804
-25.7386
-27.1679
8.73711
55.1478
-26.5213
-0.125315
-8.93418
27.9812
26.2354
0.863685
17.5509
-18.2398
43.5281
41.2536
-0.785279
-3.8337
42.9479
-2.72346
-12.5688
4.13904
37.9697
44.9771
-12.5423
9.7282
-2.95543
53.1693
-20.9872
-3.98254
2.68674
49.0612
-1.06681
-4.77507
3.42617
40.1442
23.3716
39.2704
0.246875
-25.4989
29.6078
65.0096
-129.674
19.3224
2.79532
-23.7894
0.324507
8.80826
-9.93736
7.5074
-15.6058
20.0713
1.18126
-5.64159
34.9658
45.304
24.7918
-20.1156
-2.28823
31.6853
-19.2189
-0.0521882
-4.72167
12.5166
-18.542
31.657
31.188
-0.172662
28.5366
52.8545
1.34739
15.6658
31.2846
-29.0574
15.2165
-5.29114
10.7654
-8.26378
21.6586
1.10491
8.55824
0.18488
-76.1488
41.4229
-5.9038
5.19274
-2.28034
1.46579
28.6445
-18.8475
59.1077
-16.7782
-33.115
-23.9543
37.4862
31.3127
39.5849
-37.6262
50.1958
-8.847
13.0942
6.32131
-15.8581
25.5551
11.1429
-1.64047
13.5493
-44.8586
20.6451
-32.9241
-3.09104
-1.03061
-12.1933
-14.5962
21.0911
51.8142
2.18078
-12.6787
35.8854
-16.1196
45.4793
-9.96126
1.23018
13.382
27.8842
13.0652
2.04447
-14.6475
0.494681
7.41978
10.2819
-14.7439
-7.90424
2.70003
7.7411
-12.9157
67.6789
27.6157
27.6673
46.6376
6.87098
30.5764
-7.1697
-31.727
-3.92253
27.8949
65.7277
23.9441
-13.2388
41.139
21.1437
23.4967
2.20243
-1.01301
13.2224
59.8015
-24.8139
-5.89354
36.3616
43.3445
26.9971
26.6542
33.7742
21.9364
-50.4323
-5.82645
28.7964
-123.026
-156.816
27.884
-4.47603
-41.8555
-10.3575
29.1176
30.2871
32.0634
-2.89448
39.1208
40.3938
5.306
33.9047
27.5091
27.3361
21.3504
5.40951
11.1512
-0.457849
36.9457
33.2299
5.17644
21.3098
-2.56538
1.05522
50.6405
34.9829
1.35569
-10.4505
6.01103
37.0067
12.559
1.9212
1.67966
6.01708
0.487719
7.76825
-9.17534
-1.80755
8.70116
1.71879
-10.4637
-17.4391
47.8156
-10.3975
-51.9732
-8.42871
52.5227
2.52243
6.28095
4.61515
-24.9721
23.7279
26.3825
9.41204
44.0606
17.2897
3.47496
-42.0821
-9.97248
4.12371
33.3138
5.974
-12.9416
-21.9231
0.12248
-48.0511
-8.27281
-17.8153
-2.06014
9.75572
26.9943
38.0111
0.717928
2.40461
44.6319
29.607
-12.1522
-7.2989
-41.333
12.9396
4.84958
11.0089
27.6719
3.77284
2.4087
1.07289
9.5009
-7.7876
-42.5328
4.95593
-6.11602
-37.3572
-23.6384
-8.97148
5.64228
-36.9314
11.6695
-13.6549
28.0815
24.085
4.3531
37.4246
-8.347
52.3053
-4.08645
1.42844
-16.7761
26.5812
15.2834
-181.292
-34.1187
29.3338
36.6134
54.7873
-11.3296
-39.5945
-7.23724
-0.917045
1.48984
-17.6953
-6.67546
-24.0754
15.8494
-13.1161
11.5121
-9.09996
-0.932795
45.0627
22.1586
-26.9106
2.20735
-17.1538
-50.8255
37.5614
61.8693
-73.9555
34.3541
26.3568
0.707288
-36.2018
37.0567
34.5218
-17.9227
2.19381
-4.41011
-8.10129
-18.1272
-20.4898
-18.9404
19.1582
3.82987
31.5415
-15.4633
-23.2949
26.6751
-16.5948
-26.3024
1.55627
21.3969
-26.5351
-8.87643
-23.2131
-16.2732
-25.912
56.119
-34.3571
-1.86644
-12.7362
29.0015
-31.2806
3.8545
-16.4979
-14.0426
-5.00069
30.4762
0.780061
-18.7504
21.441
-1.81349
-2.13972
-15.582
-17.5195
13.8772
19.9449
27.4886
-29.0415
45.8251
-0.620528
-0.853138
2.98153
-36.7956
-6.36485
-18.1328
-7.04798
7.71524
7.92098
3.58261
-4.18802
-8.87851
24.5045
-11.5778
28.7687
-11.1954
18.7104
-1.38514
-2.28991
5.09359
73.9146
-149.604
-26.628
-26.6072
-6.86573
27.194
2.76115
4.51791
4.76945
-22.0436
-11.3131
-185.914
-21.2139
29.0875
-18.2299
4.53753
-23.1196
1.20461
24.8179
2.44368
1.42891
-4.68921
38.2245
-33.6565
-2.35189
42.4237
8.95406
-31.9803
-3.6842
-14.0351
-8.2096
-5.07763
36.2898
-4.24555
12.2489
-40.4554
-11.0611
-15.5353
-17.3608
-48.5691
3.13435
1.31405
28.3654
7.26635
-10.1111
63.2198
-7.24578
34.4395
45.1774
-25.5035
0.211853
28.404
28.0621
14.8302
-6.36906
-10.1394
-11.01
25.4572
8.12811
-7.81765
-14.7184
8.0581
33.1036
-3.0475
4.75005
2.11538
40.9296
-18.5797
-23.2164
2.38228
22.0994
-0.242842
4.42676
45.6732
35.5005
3.71446
-7.32452
35.802
13.5824
-2.10675
20.6228
-0.379664
-7.70398
-12.8901
-6.705
35.8149
27.6479
0.168767
-11.0411
4.46409
-0.0173452
28.9867
-5.99244
11.5135
38.3706
42.4217
0.650158
29.3599
19.306
29.4159
32.7018
-4.27114
32.116
-0.547777
28.1528
16.0724
30.3756
-10.4129
35.8243
32.9652
26.0062
17.1062
-3.99306
16.2105
3.74441
-5.88439
40.1852
41.3129
-5.13398
44.5358
-7.90328
-139.615
28.1968
27.4637
-14.4706
0.840709
-38.6082
-4.97859
-32.3106
-6.12332
-13.746
-7.46642
23.691
60.3802
36.314
0.573746
-8.33673
27.696
10.2334
-22.7699
-8.43448
-1.83212
-21.7714
-150.67
-139.913
25.9409
4.18961
17.1861
1.34866
1.29233
3.31574
1.84381
7.77618
7.35516
19.4592
-3.86469
-3.65451
-54.1935
-9.99969
17.4651
12.8314
3.16423
-10.2148
18.1563
-1.25327
9.21698
-4.84209
29.0741
22.4253
49.0426
27.2866
-6.92853
-5.73726
-6.02993
-1.01565
1.41824
2.83636
1.98029
-6.85498
61.7708
5.40627
1.4101
44.6127
-9.11198
-18.324
2.64929
-10.374
-35.9022
-10.4423
-14.4547
23.1098
1.4418
-3.8975
4.54441
0.0961334
-7.91171
-1.32817
5.32426
21.1346
-11.3727
-7.17173
-17.0926
9.77804
-7.74269
29.4641
46.4069
-0.311092
29.5742
11.3554
26.6806
52.3513
-9.10194
16.9279
13.263
14.821
43.0653
-13.4372
0.994074
2.4549
29.937
46.5431
-2.59508
3.59966
-7.85492
-6.5517
13.735
-3.26165
-17.0466
-2.26794
8.90979
-43.2011
8.4902
7.88232
24.348
6.91122
-58.6304
5.02743
1.89482
2.33727
50.817
59.1612
39.2472
63.9044
23.5734
32.2283
30.2705
23.2267
27.9384
-4.42488
27.6383
-6.04881
-163.18
44.3166
-2.51123
-8.69036
55.2715
0.747573
-9.35063
12.4547
12.6818
34.8101
-24.3768
25.5963
50.7996
-9.01317
-145.307
-16.3202
10.9554
-13.5081
37.4458
1.8237
34.712
27.8982
-8.00359
33.1233
-5.66832
-47.5278
-53.0582
-4.78651
33.3628
-6.99141
27.585
0.912673
-18.9447
5.63663
4.623
-33.9736
-1.55722
-34.2408
34.2063
4.06415
-27.7436
-11.3547
18.3288
7.90799
-5.0997
11.6914
2.69936
14.4677
-28.3059
15.0643
8.27356
-0.255383
0.442476
22.6494
17.1787
6.74979
-34.2321
62.8341
-10.3894
-25.5406
24.6988
21.0542
-22.4302
-6.68218
-10.2525
10.3695
10.2574
-6.20316
0.418336
-2.58343
64.9248
4.46983
-8.39597
4.71316
-7.54049
13.4495
-0.249778
24.6679
17.9719
-14.4534
15.6034
-41.1099
12.5545
11.9751
25.8389
19.1947
-0.397481
3.77309
8.25825
30.461
5.75655
4.70494
-28.2857
-15.4875
-3.74447
25.5234
-26.7764
9.62323
-29.3501
33.9547
-18.8544
-2.89336
38.1031
33.6048
12.7211
-9.248
-39.5927
30.3248
2.27573
35.9029
11.3505
5.46762
26.2793
8.80486
10.0093
7.65039
-3.59498
-4.56153
16.8706
-2.58891
39.5974
8.70387
66.5186
0.0813192
7.52604
33.4484
4.97467
10.2241
29.851
19.1043
16.1804
-6.92641
3.05132
25.6901
15.4336
3.0531
-6.47369
0.575457
-9.5027
-21.3671
-3.28282
24.026
6.57502
24.8469
-3.25166
51.5726
39.1362
9.21956
18.1729
7.35441
-32.1847
25.663
16.9649
0.992916
10.8088
35.1398
29.8789
1.90319
-7.90698
-22.4157
21.1168
7.5403
6.0019
30.0209
-9.0059
22.7329
-21.9044
25.6181
13.9982
2.50942
11.6193
30.8705
-0.130232
27.5007
37.7016
7.46871
-1.59135
15.7992
6.44473
47.2062
-14.8679
39.9318
32.1857
-18.2366
-1.16789
1.372
-3.65951
-13.552
-1.96827
26.6161
42.6006
32.3856
42.8816
18.3732
36.0051
11.379
6.85754
12.7186
4.38787
3.86787
20.0958
2.4912
46.7705
6.98175
-22.9878
19.7599
43.809
46.0682
-12.3908
12.2063
-2.71524
-149.582
13.9446
-1.09572
-8.14995
14.5211
51.5087
-35.1036
-13.6348
-11.7766
12.0788
5.66378
4.27217
24.3226
24.6372
-70.8916
3.80205
2.79606
-12.8376
26.2872
26.6686
26.9795
8.39469
-30.1207
10.9591
4.07132
-12.3724
6.39374
18.5217
13.0016
11.2341
-6.83625
-0.678948
2.2497
26.609
-18.6929
6.50474
35.6744
17.6954
1.05986
-16.3026
-9.05268
-4.57727
17.6481
5.49074
-2.86737
27.7176
18.8655
0.923728
-2.17252
-0.12014
6.40192
-2.57948
21.363
13.0362
-4.82344
16.5142
-6.16415
20.0216
1.13607
9.35712
23.8466
22.9096
30.5186
6.57415
15.5589
2.43943
27.4307
-4.93207
13.6177
28.1995
-14.0525
-12.3353
-0.86066
-20.3763