/*--------------------------------*- C++ -*----------------------------------*\
| =========                 |                                                 |
| \\      /  F ield         | OpenFOAM: The Open Source CFD Toolbox           |
|  \\    /   O peration     | Version:  2306                                  |
|   \\  /    A nd           | Website:  www.openfoam.com                      |
|    \\/     M anipulation  |                                                 |
\*---------------------------------------------------------------------------*/
FoamFile
{
    version     2.0;
    format      ascii;
    arch        "LSB;label=32;scalar=64";
    class       surfaceScalarField;
    location    "0.4";
    object      phi;
}
// * * * * * * * * * * * * * * * * * * * * * * * * * * * * * * * * * * * * * //

dimensions      [0 3 -1 0 0 0 0];

oriented        oriented;

internalField   nonuniform List<scalar> 
20045
(
0.546675
-0.622168
0.0754925
-1.16075
0.472318
0.688427
0.222345
1.65744
-1.87979
0.290608
-0.348808
0.0581999
-0.979901
0.882594
0.0973062
-0.490575
1.99391
-1.50334
-1.10532
0.299143
0.806179
0.062881
0.493495
-0.556376
0.519456
0.437284
-0.95674
-0.684341
-0.251125
0.935467
-0.21248
0.643233
-0.430752
1.90783
-1.00024
-0.907587
0.423009
-0.419967
-0.00304238
-1.24282
0.892816
0.350005
-0.192709
1.03505
-0.842341
-1.05333
0.368991
-0.0282328
-0.26571
0.293943
1.05383
-0.32603
-0.727797
-1.49678
2.24232
-0.745538
-0.780294
0.00934182
0.770952
0.341673
-0.368822
0.0271488
0.147645
0.275364
-0.222077
-0.938668
0.617822
0.467745
-1.08557
0.915042
0.0579775
-0.97302
-0.540871
1.15869
0.372265
-0.387253
0.0149881
-0.876514
1.80435
-0.927835
1.73545
0.262008
-1.99746
-1.87707
1.19764
0.679425
-0.0152535
-0.230134
0.245388
1.32231
-1.13529
-0.187016
-0.585246
1.12997
-0.544725
2.12026
-1.23757
-0.882697
-0.628689
0.69157
2.2831
-1.13273
-1.15037
1.43062
0.31864
-1.74926
-0.0724378
0.445033
-0.372596
-2.15005
0.876846
1.2732
0.641938
0.530313
-1.17225
0.0257589
0.524177
-0.549936
0.205134
-0.283216
0.0780819
2.11319
-2.14905
0.0358599
1.46753
-0.442677
-1.02485
0.607044
0.860483
0.958664
0.949168
0.623665
-0.488712
-0.134953
1.25668
0.564416
-1.82109
1.88335
-0.452727
0.0990833
1.5801
-1.67918
1.26688
-2.12703
0.860149
1.94444
-1.44938
-0.495057
-0.793085
-0.89561
1.6887
-0.105087
-0.338784
0.443871
0.557456
0.221148
-0.778604
-0.754269
-0.225632
0.147695
1.36927
-1.51696
1.72531
0.0895551
-1.81486
0.698894
-1.28414
2.16257
-1.5122
-0.650371
-0.125913
0.559585
-0.433672
0.790657
1.37192
0.729349
-1.24976
0.520416
0.356804
-0.0151314
0.350965
0.487285
-0.83825
1.59705
0.323656
-1.9207
-0.0910496
0.322764
-0.231714
-0.701469
0.0945841
0.606885
0.921631
-0.402175
1.92057
-1.97534
0.0547693
-0.255696
0.164646
-0.615231
1.17269
-0.303328
-1.05805
1.36138
-0.791323
0.757302
0.0340215
1.74266
-0.258393
-1.48427
1.35157
-1.20387
-0.151376
1.89404
0.610345
-0.803054
-0.607307
0.629248
-0.0219403
0.806092
-1.42034
0.614245
1.00817
1.14793
-2.1561
0.910288
-0.794045
-0.116242
1.01759
-0.288244
-1.99645
0.318876
1.67758
-0.00821748
0.554893
-0.426742
0.609048
-0.182306
1.08657
-1.6251
0.53853
-1.64537
0.0354191
1.60996
0.985169
0.223863
-1.20903
-0.92592
0.728323
0.197597
-1.44354
0.100822
1.34272
0.824342
-0.173385
-0.650957
0.441201
-0.657083
0.215882
-0.245259
-0.796839
1.0421
0.652793
-0.700234
0.0474408
1.46784
0.418991
-1.88683
0.323695
0.0485696
0.027113
-0.315797
0.288684
1.29735
-0.655413
0.0259371
-0.335134
0.309197
1.56982
0.713281
-0.581199
-0.661623
-0.343553
0.370666
-0.327132
2.05244
0.138084
-0.564826
0.404104
-0.378167
0.393482
1.24627
-1.63975
1.31648
-1.9799
0.663417
0.016358
-0.546512
0.468126
0.0783854
-0.325806
0.40772
-0.0819142
1.18447
-1.09472
-0.0897485
-0.560637
0.45555
1.3272
-2.04336
0.716164
-0.250046
0.387842
-0.137797
0.0639058
-0.392915
0.329009
1.10574
-0.1907
1.64349
0.476771
-1.23807
0.934744
1.37232
-2.05362
0.681305
0.23982
0.814008
0.417261
-0.543174
-0.858908
0.694938
0.16397
-0.833566
0.117745
-0.656777
0.539033
1.38411
0.560326
1.10103
-1.49945
0.398423
1.56257
0.132093
-1.69466
-2.11755
1.67218
0.445368
-0.707524
-0.344762
1.05229
2.03631
-0.652195
-0.686313
0.197601
0.936326
-1.05075
0.114427
-0.36204
0.261465
0.100575
1.12322
0.824018
-1.94724
1.2679
-1.11864
-0.14926
-0.330458
0.111651
0.218807
-0.384204
-0.162308
2.27984
-0.907529
-0.730006
0.759996
-0.0299899
1.00766
-1.67221
0.664546
0.439744
-1.23283
0.803238
0.628281
-1.43152
1.54639
-0.740303
1.92102
-0.246315
-1.67471
0.270672
-0.924333
0.653662
1.8315
-1.24288
-0.588619
-0.31363
0.41182
-0.0981892
0.0123022
1.67663
-1.68893
2.10696
-0.371512
-1.67082
0.0219494
1.64887
-1.08049
0.826353
0.254133
2.00218
-0.994016
0.250652
0.659636
-1.29657
1.49231
-0.195736
-1.3045
1.52685
0.0275747
-0.48202
0.454445
0.582885
-0.74774
0.164855
-0.0422755
-0.416496
0.458772
1.64706
-0.00571825
-1.64134
2.25585
-1.11057
-1.14528
-0.498255
0.455979
1.08751
-1.34329
0.25578
0.248268
-0.0431342
-1.77652
-1.02517
1.21227
-0.187102
-1.23342
1.04797
0.185451
-0.0228685
-0.112585
0.135454
0.699821
1.13168
-0.0734984
-0.288542
0.969986
-0.0336601
-1.34309
0.0465189
-1.44171
1.87733
-0.435623
-1.39844
1.48475
-0.0863132
-1.17974
-0.852663
2.0324
0.159293
-0.550001
0.390708
0.72115
-0.963163
0.242012
1.21459
0.227578
-1.44217
-0.0217492
-1.46406
1.48581
-0.853114
1.65635
0.407899
-1.14839
0.74049
-0.7686
2.0958
-1.51968
1.13556
0.384118
-0.259015
0.299403
-0.0403877
0.724203
-1.92772
1.20351
-1.51011
0.633592
-1.20747
-0.78481
1.78613
-1.19181
-0.594322
-0.658923
0.684682
0.3901
-0.414722
0.0246217
-1.49912
-0.438869
1.93799
-1.46875
2.07618
-0.60743
2.01091
-1.38012
-0.630788
0.0205913
-0.432893
0.412302
-0.465042
-1.08074
1.54578
-0.530137
0.317657
-0.847746
0.140222
-1.16986
-0.397745
1.5676
0.274638
0.0658885
-0.340527
0.0231608
-1.04833
0.254363
-0.269616
1.66128
-0.0987095
-0.372794
0.300356
-0.424777
0.515466
-0.0906894
-0.371394
2.01846
-1.64654
1.1815
0.939244
-0.448475
-0.490769
-1.41559
0.30171
1.11388
0.689071
1.32184
2.03188
-1.30768
1.26847
-2.00768
0.739206
0.666847
-1.24038
0.57353
0.12799
-0.908284
-1.0026
1.39608
1.23185
-1.72243
0.233632
-1.3119
1.07826
-2.00949
1.00626
1.00323
-0.187954
-0.737966
0.383794
0.33355
-0.717345
0.993209
-0.0976557
-0.895554
-0.363367
-1.16871
1.18101
-0.554285
-0.175722
1.08599
1.54052
-1.43021
-0.110308
-0.0230615
-0.312368
0.33543
1.27487
0.0648388
-1.33971
0.202186
0.308431
-0.510617
0.0549988
1.14042
-1.19541
-0.655859
1.74243
1.20029
-0.79239
-0.198942
0.655319
-0.456376
1.38022
-0.372557
0.271479
-0.0243175
-0.247161
0.302632
0.101955
-0.404587
-0.314847
0.328523
-0.013676
1.82297
-1.22546
-0.597515
0.448652
-1.9174
-0.348797
0.0339502
-1.61318
0.451578
1.1616
1.6222
-0.492231
0.520018
-1.96173
2.39799
-1.15063
-1.24736
-0.0403346
0.314973
1.94055
-0.85811
-1.08244
-1.20876
0.213479
0.995283
-1.83702
1.83002
0.00700402
0.676224
-1.33187
0.655643
0.320956
-0.184161
-0.136795
-0.998183
1.21613
-0.217946
0.07654
-0.399895
0.323355
-0.359261
0.109215
-0.389572
0.0637662
-1.34777
-0.632129
1.11715
-1.61448
0.497334
0.284345
-0.557727
0.273382
0.974839
0.347467
1.08133
-0.847697
-0.0874633
0.670348
0.915658
0.706544
-1.04709
0.0989027
0.948183
0.672272
1.26828
0.872085
0.162965
0.506053
-0.221708
-0.624662
-0.0750979
0.69976
0.0457165
-0.304732
-1.22952
1.28452
-0.281897
0.377057
-0.0951593
-1.75055
1.62878
0.12177
-0.433489
1.37581
-0.94232
-0.316396
-0.326159
0.642555
1.49009
-1.63391
0.143823
-1.08627
-0.923219
2.08461
-1.46284
-0.621777
-0.250865
0.227803
1.48895
-0.812721
-0.572885
1.69003
0.278191
-0.770326
0.492135
1.82805
-0.267584
-1.56047
1.88027
-0.424364
-1.45591
-0.597782
0.875973
1.69032
-0.997192
-0.693125
-0.364864
1.61945
-1.25458
0.557616
-1.01777
0.460153
-0.530612
0.12699
0.403622
-0.460674
0.0491518
0.411523
1.88773
-1.46595
-0.421779
-1.1858
-0.931752
1.21108
0.329433
-1.60812
-0.142435
-0.0899677
0.3926
0.492539
-1.68693
1.19439
0.00895042
0.38115
-1.09283
2.21605
0.597622
1.22535
1.96564
-1.28633
-0.679308
-1.86416
1.46642
1.30746
-1.99496
0.687503
-1.22664
-0.152028
1.37867
-0.627331
-0.335228
0.962559
1.20575
-0.118238
0.605335
0.333909
0.637392
-0.266912
-0.868378
-1.3986
2.01856
-0.61996
-0.500213
0.0754361
-0.387769
0.188826
0.152035
-1.98905
1.18555
-1.84141
0.384229
-0.641764
0.967274
-0.32551
-0.00825128
0.298859
-1.02042
0.600706
0.419719
0.882524
0.301944
-0.0313006
0.570627
-0.539326
0.938053
0.329843
-1.18926
1.6818
1.16095
-0.175783
-0.451306
-0.964282
2.02395
-1.31767
-0.706288
1.91569
-1.96497
0.7498
1.21517
1.54805
-1.7157
0.16765
-0.939259
0.694
-0.299126
-0.0313322
-0.448948
-0.994592
0.664885
-1.15344
0.488552
0.840231
0.850086
1.18306
-1.78468
0.601624
0.55221
-1.14147
0.589259
-1.96547
0.320099
0.0496558
0.774686
-1.2308
1.45294
-0.222132
-0.453848
0.660313
-0.206465
-1.03843
-0.0668953
-0.269581
-0.503486
0.773067
0.251342
0.00208372
-0.253426
-0.647953
-0.432534
0.692622
0.918656
-1.61128
1.84249
-1.17022
0.794431
-0.903689
-0.0355695
1.01218
-0.45997
-1.3303
-0.189385
-0.294285
0.417147
-0.122862
1.93428
-0.677602
-1.00216
1.51988
-0.51772
-0.284497
0.336644
-0.0521469
1.26791
-0.274697
-0.626768
-1.06016
-1.03338
1.84674
-0.813365
1.11781
-1.82928
0.711469
0.836402
1.24821
-0.338179
0.301429
0.0367498
0.259376
-1.48602
1.41297
-2.11315
0.700183
-0.808924
0.017601
-0.188999
1.29003
-0.461428
1.64698
-0.56457
1.23142
0.393737
-1.89052
-1.44675
1.01789
0.428857
1.33094
-0.279456
-1.05149
1.86289
-0.372802
-0.870805
-1.03543
-0.961967
0.74018
0.644456
-0.710248
0.0657919
0.652028
-0.642686
-1.51439
1.32539
1.7128
0.400392
-1.59422
0.592057
1.5778
-0.36672
0.286934
-0.411248
0.124315
-0.145513
-1.02871
1.17422
-1.8764
0.418277
1.45812
1.69289
-1.69289
-0.681472
1.85821
-1.17674
0.595828
-0.627129
1.08393
-0.898045
-0.185885
-1.80372
1.91463
-0.11091
0.744454
-0.0792869
-0.665167
0.584105
-0.201832
-0.382273
0.305684
-0.62208
-0.0418571
1.15401
-1.72689
-1.6067
1.85826
-0.251561
-0.628076
1.3207
0.229334
0.0315938
-0.260928
-0.245623
0.202089
0.0435333
-0.763062
0.891052
1.7871
-1.35244
-0.43466
-0.229877
-0.996601
1.22648
-0.52945
0.566376
-0.0369265
0.341796
-0.599777
0.257981
-2.12734
0.911719
1.21562
-0.251456
-0.0973521
0.408273
-0.12134
-0.0248802
-0.275476
0.300356
0.78543
1.1023
0.28233
-0.0529956
-0.256806
-0.450517
0.707323
-0.99639
1.59918
-0.602789
-0.0280067
0.359666
-0.33166
0.928481
-0.629338
1.63972
-0.247178
-1.39254
0.111292
-0.908131
0.0309288
1.18367
0.903896
0.540094
-1.44399
1.00072
-0.806669
-0.194048
-2.04067
0.369855
-0.826219
0.469691
0.356528
0.600734
0.979098
-1.57983
-1.323
1.17097
0.161431
-1.83719
1.67576
-0.328591
0.349182
-0.262866
0.302332
-0.0394654
0.0724527
-0.697115
-0.945361
0.0632927
0.882069
-1.31309
-0.300087
1.22452
1.05324
-0.455901
-0.59734
-0.311466
0.0269689
0.276494
-1.38652
1.11003
0.222189
1.05131
-1.2735
0.499799
-1.41798
1.66428
-0.246299
-1.42737
1.0625
-0.180317
-0.206936
-0.833345
-0.40008
-0.582399
0.138402
0.443997
-1.72906
0.732671
1.28777
-1.51765
0.489315
1.08849
-0.690511
0.669116
0.0213952
0.329405
-1.32762
0.998218
0.37533
-0.60259
0.22726
1.073
-1.69977
-1.26056
-0.137881
-0.70693
0.00546013
-0.492462
-0.0704956
0.562958
0.700835
-0.240821
0.33187
-0.0910491
1.46957
-0.868838
-1.45912
1.95802
-0.498905
0.543913
0.407365
-0.951279
-0.741244
0.412653
-0.508852
-0.0735468
0.321903
0.762027
-0.56875
-1.48487
-0.44013
0.145845
1.19515
0.905567
0.255385
-1.47033
1.56941
-0.0614329
-0.699528
0.760961
-0.185711
-1.67062
1.85633
0.280206
-0.292018
0.0118119
0.594469
-0.435176
-0.423356
0.980972
1.02627
-0.755602
-0.701669
-0.318756
-0.0109971
-0.850619
0.861616
0.803521
-1.98326
-0.0350446
-0.999138
1.03418
0.0222324
-0.338244
0.316011
-1.26307
0.041521
1.22155
1.86849
-1.30408
-0.0128391
0.219
-0.206161
-0.481001
-0.0484488
0.379882
0.741174
-1.12106
0.322149
-0.396658
0.0745082
1.32323
0.72955
-2.05278
-0.818595
2.28644
0.242346
0.00899604
-0.502937
-1.20563
1.70857
0.846858
1.43299
1.50198
-1.27979
-0.756488
0.486907
-0.416976
-0.0436987
-0.609723
1.91718
0.255724
-1.55853
1.30281
1.80551
-0.240493
-1.56502
-0.609404
1.25226
-0.642851
0.778641
-0.371901
-0.935516
1.30742
0.329251
-0.30868
-0.0205717
-0.590697
-0.954071
1.54477
-0.0130712
-0.232551
0.12268
-0.145548
0.967169
-1.55787
-1.38726
-0.380226
1.76749
-0.0392984
-1.03258
1.07188
-0.0439479
2.07994
-2.14628
0.0663466
0.462011
-0.235491
-0.226521
-0.0187256
-0.671786
0.509893
0.532205
-0.724919
0.0975882
-1.49355
1.9383
-0.444757
0.0760045
-0.357902
1.05108
0.495315
-1.6944
-0.454656
-0.0500276
-0.392847
0.442875
1.0694
-0.163835
-0.457816
0.502877
-0.0450607
-0.331587
0.408127
-2.27613
1.06866
1.74023
0.253682
-0.198285
0.540081
-0.428602
0.972516
1.7056
-0.551587
-0.469447
0.0116305
-0.254961
-1.25942
0.602867
0.535188
-0.507614
-1.89008
0.0136787
0.0246242
0.463257
-0.0879276
-2.01788
1.23294
0.784936
1.59729
0.323275
0.440383
-0.155178
-0.285206
0.624135
-0.570005
-0.0541298
-1.82484
0.69211
-2.06925
1.03587
-0.439838
0.293545
0.146293
0.0384364
-0.270071
0.231634
1.96913
-0.0144484
-1.95468
0.443429
0.0275532
-0.470982
-0.296551
-0.562357
0.504758
-0.0635567
-0.252382
0.258228
-0.00584683
0.859588
-0.0941084
-0.76548
0.026534
-0.278916
1.67048
-1.25149
-0.0629247
-0.323294
0.386219
-1.92149
0.427941
0.0365366
0.0871832
-0.430736
0.323087
0.730154
0.277403
-0.364867
0.507796
0.368798
-0.876595
0.75216
-0.401195
0.664791
-0.726224
0.49589
-0.431984
0.212624
-0.666471
1.61901
-0.422202
-1.19681
1.13696
-0.161955
-0.975004
-0.721394
-0.202939
0.323034
0.0769553
-0.399989
0.57315
-0.868734
0.295584
2.03385
-0.0385804
-1.99527
0.357411
0.0966738
-0.454085
-0.983509
1.35038
-0.366869
0.899767
1.00172
-1.90149
0.144674
0.414911
-0.59045
0.914307
-0.323857
0.472092
0.201369
-0.673461
-1.38654
0.760975
0.625562
0.239322
0.0189061
-1.67617
0.288905
0.673416
-0.402259
-0.271157
0.797392
-1.15347
0.356077
-0.214137
-0.408031
0.257391
1.82255
1.62442
-0.255045
-1.36938
-1.58499
0.16701
0.655172
-1.10648
1.27492
-2.08846
0.813545
-0.234288
0.618082
-0.0144835
-0.8089
0.552094
-0.347453
0.465198
-0.223852
-1.52952
1.75337
0.8439
0.645045
-1.36024
1.4797
-0.119459
0.0223205
-0.514783
-1.15856
-0.43556
-0.270434
0.301468
-0.0310339
0.0195856
-0.531578
0.511992
0.159338
0.776515
-0.935853
-0.299296
1.09669
-1.08565
-0.391269
1.47692
-1.52261
-0.493931
2.01654
0.90282
-0.787336
-0.115484
-0.537613
0.0454129
0.4922
0.317626
0.147569
-0.465195
-1.83865
0.0794535
1.7592
0.0491131
0.424403
-0.473516
1.52483
-1.69113
0.166306
-0.86839
0.483432
0.48665
-0.970081
0.0242944
-0.294728
-0.719059
-0.520792
1.23985
1.24204
-2.01064
-1.92044
1.67606
0.244378
0.384787
-0.0626371
1.53249
-0.481413
-0.200248
-0.37547
0.575718
-0.0254852
0.397779
-0.372293
-0.411483
1.47149
-1.06001
1.72019
-1.27127
-0.448921
1.88905
-1.79019
-0.0988662
1.43563
-0.77881
-0.656817
0.0872372
-0.500245
0.413008
-0.629391
-0.0273867
-1.91939
1.62366
0.295735
0.0526103
-1.97201
-0.490141
1.35505
-0.864907
-0.966639
-0.499311
0.447244
-0.366637
-0.0806069
-1.46962
-0.451865
-0.419216
0.291261
0.127955
0.416228
-0.214043
-1.8197
1.76776
0.051932
-0.501607
0.256756
0.500546
0.478426
-0.034997
-1.15561
0.157428
0.340199
-0.379639
0.0394397
-0.568233
0.706647
-0.138415
0.807588
-0.063134
-0.476584
0.839277
0.428629
0.773452
0.654975
0.23383
-0.888805
-0.376616
1.09777
-1.27047
0.827251
0.443222
0.249168
-0.00984562
1.48937
-0.645474
1.06842
-0.739018
-0.288407
-0.477966
0.766372
0.45736
-1.48946
1.0321
1.17297
-1.21226
1.99805
-0.870132
-1.12792
-0.0117366
-1.06116
-0.209311
-1.39535
1.95801
-0.562664
-0.0882143
-0.520828
1.7893
-1.98947
0.519847
-0.455039
-0.0755726
-0.362457
0.354077
0.33894
-0.0104168
-0.998298
-1.01862
2.16436
-0.812788
0.313728
-0.533887
0.220159
0.107042
0.477063
-1.32193
-0.738597
2.06053
0.893331
0.312418
-0.00815579
-0.322729
0.330885
1.68516
0.303847
0.0260709
-0.329917
1.23072
0.38829
-0.690319
-1.93791
0.33121
-0.480346
0.0277565
0.452589
1.10047
1.29752
0.21857
0.387565
-0.606135
1.82963
0.0594261
1.19966
-1.70331
0.503645
-1.6158
0.00546275
1.61034
-1.52289
1.97716
-0.454273
0.314337
-0.00974
-0.304597
-0.720121
1.96217
0.157614
0.430802
-0.588416
0.129303
-1.48954
1.29908
-0.657142
-0.641936
-1.70658
2.21963
-0.513053
-0.462075
1.12413
-0.662059
2.32514
-1.00258
-1.32256
0.0872498
-1.21666
1.12941
0.275425
0.0269072
-0.793614
1.69338
1.1052
-1.78667
1.75032
-0.63251
-0.400467
0.337542
-1.66206
0.0462653
1.87634
-0.693283
0.00327558
-1.99973
0.5636
-0.0394237
0.545255
1.17981
-1.72506
1.131
-0.326007
-0.804989
1.19698
-1.90907
0.712099
-0.394323
0.0232133
0.37111
-0.403281
-0.9696
1.37288
0.756512
-0.543889
-1.07097
0.83376
0.237208
0.399794
0.413349
-0.813144
0.165089
0.282155
-1.62988
1.93628
-0.306401
0.258506
0.0217004
0.890749
0.419134
-1.30988
0.640258
0.784538
-1.4248
0.385687
0.945256
-0.0685242
1.98955
0.0282814
1.5902
-1.61848
-0.0338952
0.00588845
-0.444846
-0.0584326
0.503278
1.244
-0.943009
-0.300992
0.916421
1.08163
-0.332457
0.265451
0.067006
-0.502838
1.60048
-1.09764
0.00104149
0.375542
-0.376583
0.46042
-1.36235
0.901926
-0.700134
-0.374607
1.07474
1.40694
-0.132075
0.53564
0.595355
-0.659744
-0.724035
1.38378
0.606638
-1.60324
0.173479
0.375225
-0.548704
0.408531
-0.111031
-0.2975
0.0119434
0.263481
-0.156751
1.77893
-1.62218
-0.187827
1.76793
1.46693
-1.24611
-0.220822
1.2902
-1.06634
-1.05064
0.451833
0.598811
-0.282491
-0.615555
-0.307353
0.33526
-0.0279074
0.141786
0.298597
0.271748
1.48269
-1.75443
0.492097
0.367491
0.265747
-1.78836
-0.998793
0.312598
0.686194
-0.684336
-0.461748
1.14608
1.02301
-0.515211
-1.70967
1.08159
0.811677
-0.753833
-0.057844
-1.15454
1.65498
-0.500448
-0.86372
0.975012
-1.10898
1.17025
-0.0612711
-1.39926
1.9602
-0.560943
-0.0467249
0.462072
-0.415347
0.328131
-0.289695
-0.851476
-1.28171
1.98221
-0.700499
-1.07535
1.37706
0.992758
-1.08937
0.09661
-0.13505
-0.342282
0.477332
-1.8959
1.30118
0.594726
0.0137495
-0.257696
0.243946
0.0494519
1.03822
-1.44971
1.37016
-0.912802
-0.353968
-1.09278
-1.33648
1.36476
0.910427
0.137547
0.528593
0.440769
-0.969363
-0.702388
0.653433
0.0489551
0.326543
-0.0292455
-0.297297
0.52933
-0.884572
0.355242
-0.827891
1.08692
-0.259028
-1.42758
-0.240189
1.66777
0.32373
-0.45878
0.769813
0.474188
-1.95457
1.39994
0.554625
0.394278
0.182412
-0.57669
0.0133969
0.402213
-0.509112
0.106899
-1.28048
-0.377438
0.906769
0.306181
0.432078
-0.34484
0.401847
-0.382262
0.630598
-0.975359
0.057429
0.595364
0.101218
-0.701626
0.600408
-1.05028
-0.796281
1.84656
0.31658
-0.976324
-1.0413
-0.0540376
1.09534
0.228083
0.4307
-0.658783
-0.00320594
2.13073
-1.34496
-0.78577
0.362969
1.26145
-0.0206392
1.06962
-0.65913
-0.410493
-0.591694
1.1996
-0.607905
-1.101
-0.323013
1.42402
-0.944886
0.354437
-0.691734
-0.358909
2.41401
-0.987483
-1.42653
-0.45586
0.0868128
0.369047
0.668382
0.203825
-0.872206
-0.3663
0.415413
0.133182
0.475576
-0.608758
-0.163449
-0.0568135
-0.441441
-0.0221463
1.50627
0.907741
-0.992648
1.86949
-0.480404
1.67805
-0.43633
-0.0195305
-1.57952
0.478519
1.45323
-1.19386
-0.254127
-1.26707
0.28356
0.816458
-1.3066
1.23233
-1.37785
1.61357
-0.0655204
-0.400219
-0.256864
-0.429325
-0.260038
0.689362
-0.625565
-0.0746689
1.44118
0.245835
-1.68702
-0.0255664
-0.512174
0.53774
-0.180498
0.775686
-1.98508
1.20939
1.63947
-0.11464
-1.77889
1.83325
-0.0543636
0.422121
-0.327537
-1.69656
-0.199346
-0.629573
1.6726
-0.0489441
0.551061
1.90848
-0.756708
-1.15177
-1.08153
-0.162386
1.24391
0.0968791
0.892681
-0.98956
-1.39356
0.13049
-0.433723
-0.158552
0.592275
-0.897966
1.15369
0.355369
0.962858
-1.31823
-0.757339
0.104725
0.652614
-1.62208
0.100242
1.52184
0.228409
1.14175
-0.526186
0.813581
0.622046
-0.444282
-0.381937
1.33649
-1.5828
0.294007
-0.719758
0.425751
-0.451634
0.596309
1.33892
0.0526455
-1.39157
1.18945
-1.66985
0.0414743
0.279482
-0.416487
0.958527
-0.542041
-1.1941
0.475042
-0.0458625
0.593749
-0.547886
0.371312
0.136713
-0.508025
0.400545
0.193924
-0.556348
1.21152
-0.103384
-0.336454
-0.334381
0.358675
0.583354
-0.274924
-0.0641813
-0.11998
-0.419806
0.398748
0.0210578
0.432313
-0.483808
0.051495
-1.38084
1.12245
0.10735
-1.14865
-0.061528
-0.597395
-0.0245134
1.12283
-1.09832
0.674666
-0.749764
0.564263
-1.15124
0.586981
-0.92831
1.51074
-0.582426
0.539147
-1.93775
0.471841
-0.0518333
-1.8686
0.815949
1.34841
-1.46732
-0.242353
-1.30821
-0.656769
-0.861093
0.357607
-0.305151
-0.127292
0.432443
2.16493
-1.06446
1.87247
-0.459495
-0.473206
-0.321919
0.795125
-1.69302
0.671178
1.02184
0.515737
0.127496
-0.417742
0.901174
0.34342
-0.195774
-1.15752
0.533005
-0.375391
0.0658101
0.479772
-0.545583
-0.215485
1.65667
0.299852
-0.439302
0.13945
1.8228
-2.14815
1.00285
1.1453
0.355534
0.518704
-0.874238
1.34946
-0.986767
-0.362692
-1.07387
0.611797
-0.360462
-0.101423
0.769805
1.73757
-1.92328
0.844557
-0.372465
-0.758793
1.36543
-1.99244
1.42033
0.572109
0.528081
-1.43989
0.911809
-1.35756
1.46499
-0.107432
0.644253
-1.02087
0.0252278
0.323431
0.57939
-0.122052
-1.29828
0.480287
-1.90416
0.727352
1.1768
0.509597
-1.59112
1.44981
-0.0301885
-1.17857
0.243661
0.843178
2.01357
-0.690285
-1.32329
-0.941261
0.487348
-1.17168
0.341241
-1.76121
1.59882
-1.06311
0.691208
0.979368
-1.62478
1.14978
0.475006
-1.87782
1.21789
0.659923
-0.763742
-0.244743
0.266975
-1.9791
1.37305
0.606047
1.21005
-1.93018
-1.57845
-0.0514265
2.06953
-0.794613
1.20138
-0.188435
-1.01294
-0.053189
-0.323997
0.377186
0.317596
0.966754
1.01097
-1.26705
-0.357731
0.285522
0.470991
0.379216
0.73817
-1.11739
0.784051
-0.450501
-0.0986783
-1.76348
1.86216
-0.729902
0.564579
-1.41769
-1.07459
-0.723282
1.79787
0.496191
-0.669576
-1.33452
0.410724
0.923801
0.0234671
0.153307
-0.176774
1.66371
-1.88756
0.480224
-0.896711
1.07908
0.260336
-1.33942
0.500064
-0.186336
-1.55141
0.451936
1.09947
-1.11737
0.417241
0.605603
-1.1973
0.759396
-0.465389
0.107095
-0.0836282
-0.120827
1.92634
-1.14451
1.46063
-0.316124
1.91896
0.0118098
-1.93077
-1.12998
0.0784442
-0.720209
0.100974
1.59192
0.270584
0.0660594
0.37267
0.110232
0.485596
0.964093
0.437242
-0.110699
-1.6656
-0.154093
-1.76674
0.851346
-1.70946
0.366359
0.383959
-0.750319
1.74551
0.107429
-1.85294
-0.238191
0.228451
-0.726346
-1.3429
-1.48218
-0.233515
-0.528205
1.71765
-0.650914
0.925234
-0.27432
-1.60885
0.558572
-0.600005
0.979222
-0.827144
-1.19073
-0.470879
-0.478146
0.720158
-0.885483
0.31725
2.00063
-0.328022
1.31086
-0.966098
-0.344766
0.256777
0.398541
0.540615
1.88231
-1.72088
-0.054328
-0.455443
0.671325
-0.934242
1.03314
-0.901809
-1.08926
0.443206
0.352002
-0.795208
-1.68308
-0.00981451
-0.269753
1.47614
-1.20639
-0.241203
-1.53769
-1.26784
1.33268
2.01022
-0.888451
-1.12177
-0.14383
0.613521
1.44841
-0.602659
-0.845748
0.532809
-0.589623
-0.616853
0.172007
-0.339944
-0.00916984
0.349114
-0.395702
0.924295
-0.763096
1.97315
-0.0296236
-0.337014
-0.54116
-0.195705
0.736865
-0.0235466
1.68726
0.56242
0.115298
-0.677718
-0.734613
1.1145
0.746022
0.854461
-0.823346
-0.175446
1.04506
-0.382992
-0.662068
0.394001
0.314925
-0.708925
0.0323741
-1.28672
1.25434
-1.76438
0.282198
0.439128
-0.857657
1.709
-0.0175187
0.550328
0.283797
-0.934711
-1.96161
0.999647
-1.67112
0.560553
-0.897411
0.134349
-0.665632
-1.07612
1.74175
-1.92374
0.00189037
-0.380961
0.37907
1.47715
-1.15827
1.11227
-1.01539
0.218313
1.05415
-1.27246
0.284227
-0.71795
-1.37524
-0.544353
1.91959
-0.373212
0.389211
-0.0159992
-0.868435
1.47999
-0.611554
1.43993
-1.12839
-0.311532
1.65919
0.0376707
-1.69686
-0.857147
-1.291
-0.622032
-0.0848973
0.751374
1.28493
-0.02367
0.211535
-0.187865
-1.23003
-0.321374
1.28349
0.958827
-1.0294
1.25944
-0.230043
0.363842
-0.337771
0.755244
0.351256
-1.1065
-0.124455
0.424306
-0.219259
-1.75984
-1.85031
0.997178
-0.185501
-0.0700782
0.324441
0.142596
1.39624
-1.53884
-1.01171
-0.143905
1.22865
0.613838
0.143665
-0.527869
0.69217
-0.771882
0.0797112
0.0991912
-0.691879
0.592688
1.06985
0.305961
0.550003
1.59476
-0.754527
1.50563
-0.941051
-0.233301
-0.489156
0.722457
1.40053
0.218921
-0.0199662
-1.29134
0.888057
1.61249
-1.63604
-0.710093
-0.745183
1.45528
-0.95742
-0.735601
-1.66893
1.69171
-0.0227827
-0.313008
-0.71005
0.450013
1.05408
0.54068
0.205015
-0.428628
0.223613
-0.670829
-1.30451
-0.38789
-1.36407
1.75196
1.20711
-0.313777
-0.422595
0.596074
1.05483
-1.78118
0.797607
-0.73963
-0.850423
1.85647
-1.00605
0.62094
0.828622
0.66015
-1.48877
1.76252
-1.10565
-0.656869
-0.687366
-1.1702
1.74329
-0.573091
0.996484
0.314381
-0.57497
0.557452
0.794239
1.53091
-0.439505
0.386316
-0.0396771
-0.201144
1.83265
-1.00864
0.852451
1.31248
-0.802957
0.43349
0.369467
0.530299
-0.818706
1.39624
-0.057313
1.26364
-0.0622566
-1.26901
-0.0408724
1.30988
0.379633
-0.0491459
-0.330487
0.330104
0.131908
0.242448
-1.76533
-0.563025
0.635478
1.28991
-1.16383
-0.126081
0.326609
0.71845
-0.310952
0.155774
0.527017
0.433608
-0.960625
-0.692152
1.39105
-0.158662
-0.770403
1.81496
-1.04456
-0.40764
0.807435
-0.168158
-0.58918
1.98328
-0.94371
-0.664409
1.02305
0.326412
0.608334
-0.669862
-0.368459
0.321734
-0.529398
-0.295996
-0.0154698
0.651667
-0.3324
1.55074
-1.21834
0.334849
-0.359729
-0.624334
0.248864
-0.663066
0.0410332
-1.78062
1.27768
0.477605
0.436702
0.407551
-0.619624
0.212072
0.398065
0.210983
1.35979
0.794534
-2.15432
-0.227718
-0.0308726
0.25859
0.0619069
-1.52103
1.33162
0.678601
1.46981
-1.32721
-1.77992
-0.0827184
-0.222852
-0.831149
0.857502
1.11517
0.59783
-1.71301
0.771019
-0.0963533
-0.0562481
-0.598623
-0.204334
-1.10129
-0.938688
0.656197
0.748266
1.20976
1.08553
-0.988088
-0.0974448
0.387359
0.011389
-0.174941
0.498956
-0.0666427
1.39597
0.331151
-1.72712
-0.573039
0.638849
-0.458035
0.278226
0.179809
-0.671944
-0.00805158
0.679996
0.708114
0.519766
-1.22788
0.42416
0.598847
1.26569
-0.0359225
-0.524714
0.684404
-0.574172
-0.310758
0.366543
-0.0557853
-1.78571
1.0009
1.582
-1.28454
-0.297457
0.0359017
-0.304094
0.268193
1.51347
-1.67022
1.12206
0.0850529
0.329097
0.783173
-0.279922
-0.0160738
0.450346
-0.574196
0.12385
-0.886775
-0.262509
2.01364
-1.02915
-0.984491
1.54053
-0.527456
-1.01308
0.810026
-1.32806
0.518029
0.071308
0.961743
0.0504376
-0.000766684
0.865348
-0.864582
-0.0984071
0.548753
-0.725912
-0.354641
-0.0846609
1.74951
0.00316734
-1.75267
-0.834265
0.614667
-0.513449
0.308283
-0.0428323
0.24425
0.714277
-1.0112
1.17054
0.00685393
0.00837836
-0.169299
0.307383
-0.772895
0.991208
0.0227677
0.512421
-0.0180773
-0.312269
1.28711
0.047264
1.03827
-0.21538
-0.251388
-0.425888
0.952905
-0.316634
1.3304
-1.01377
-1.5083
-0.167871
-0.582361
1.44679
-0.864429
0.123275
-0.477916
0.611603
-0.118107
-0.0377603
-0.472391
0.510151
-1.48985
0.546138
0.262775
-0.275614
0.810876
-2.13281
0.565252
-1.77089
-0.560701
1.02845
-0.62654
0.979162
-0.545554
0.0225311
-1.14415
1.17653
-0.00226363
-0.310105
0.139272
-0.926608
-0.175116
-1.08035
1.25547
0.369549
0.604182
2.12643
-1.34481
-0.781623
-0.417887
0.149509
0.456612
0.0424636
-0.499076
-1.45395
0.309437
0.391126
0.0174044
-0.0153782
-0.263625
0.279004
0.893006
-1.47537
0.176859
0.801584
0.115762
-0.917346
-1.4888
1.17217
0.301654
0.0727804
-0.374435
0.679158
-1.96086
-0.28697
-0.00436253
0.291332
0.392358
-0.0907035
0.0196085
1.34347
-0.957784
1.10139
0.946823
-0.522663
-1.61964
0.545051
-1.17953
1.01623
0.1633
0.749
-1.45909
-0.917695
-0.531156
1.44885
0.0336976
0.792656
-0.579928
0.500641
1.83927
-0.237613
-1.60166
0.0156099
-1.68121
1.52282
0.136373
0.864124
0.584283
-0.3157
-0.00702894
0.306533
-0.47846
-0.674977
-0.0165287
0.189253
-0.172724
0.0373689
-1.76011
1.72274
-0.149354
0.624889
-0.475535
0.538944
-1.6897
1.15075
-0.0893289
-1.02931
-0.0565983
0.315341
1.18348
-0.64797
-0.347562
0.995533
-0.686611
-0.626477
0.843875
-0.491873
-0.459345
0.078738
0.380607
-0.213757
0.621308
-1.76313
-0.214129
-0.130758
0.344887
0.417617
0.398109
-0.815727
1.15203
-1.80793
0.655905
0.12554
-1.06421
0.232508
-1.93909
-0.950431
-1.0536
2.00403
-1.73994
0.0855623
1.65438
-1.92897
-1.41155
0.0539951
-0.561648
0.566751
-0.00510337
-1.72001
-0.606644
2.00262
0.721728
-0.35293
0.183718
-0.609606
-0.294898
0.893745
0.294935
0.200411
-0.741571
0.0348108
-0.315155
0.280344
-0.346445
0.0328142
-0.208341
0.244243
-0.570344
0.925878
-1.96035
1.22873
0.731615
-0.212983
0.818318
1.01392
0.400972
-0.0213385
-0.244325
0.44934
-0.873508
-0.461016
-1.01238
0.353429
0.65895
-0.056417
-0.335719
0.392136
-0.796942
0.896133
-0.180325
1.2942
1.02644
-0.46402
0.836198
-1.52281
0.845123
-0.990272
0.145149
0.234748
-0.0157474
0.317088
-0.0156596
-1.76305
1.09742
0.624933
0.9156
0.0260809
-0.388415
0.362334
-2.11089
0.806382
-0.292434
0.394389
-0.367325
-0.0324241
-0.417996
0.45042
-1.04187
0.393904
-1.81679
1.59753
1.55223
-0.473151
-0.473731
0.430638
0.0430931
-0.434587
0.0417397
-0.302348
-1.95213
0.789159
1.16297
-0.289939
0.259066
-0.157305
0.680993
-0.523688
1.04147
0.0805887
-0.278271
-0.293615
0.571886
-0.519932
0.5427
-0.755963
-0.052961
1.09897
-1.66684
1.68714
0.14249
-1.03955
-0.585552
1.65714
-0.053683
-1.60346
0.101981
0.30168
-0.403661
1.0031
-2.0014
0.822122
0.0592503
-0.881372
0.279057
-0.0876147
-0.191442
-1.55841
1.54942
0.00898775
-0.342956
0.907219
0.872683
0.847504
1.86003
-0.648798
-1.21123
0.0039594
-0.313408
0.309449
0.54425
-0.596267
-0.0331233
-0.575695
-0.0205726
0.139268
-0.60844
0.469172
-0.164854
1.66318
-1.49832
-1.45204
0.426236
1.02581
0.537102
1.43203
0.0564619
0.119554
-0.176016
1.00274
0.448603
-1.45134
0.0633842
-0.368535
-0.703464
1.82247
-1.119
-1.32782
0.0588174
1.13259
0.482648
-1.40034
-0.00473639
-0.236573
0.241309
1.36219
-0.263138
-1.09905
0.39555
0.424312
-2.06435
1.04573
1.71551
-1.81419
-0.889359
0.137657
0.751703
-0.0335995
0.00649674
-0.368368
0.361872
0.413053
0.0275211
-0.440574
-0.0189507
0.251418
-0.232468
-0.335719
0.349406
-0.0136873
-0.953984
2.00882
-0.54747
0.536473
0.352305
-0.50961
0.635222
-1.00686
0.371638
-1.1834
-0.809036
0.441392
-0.123766
-0.270067
-0.0116842
0.281751
1.96078
-0.72292
-1.23786
0.133326
1.15658
-0.452379
-0.250009
-1.05018
0.199566
0.296306
0.753287
-1.04959
0.0793069
-0.135905
0.0565981
-0.0328503
0.656985
-0.646467
0.121084
0.525383
1.52097
-0.865864
-0.655108
-1.73188
0.202356