/*--------------------------------*- C++ -*----------------------------------*\
| =========                 |                                                 |
| \\      /  F ield         | OpenFOAM: The Open Source CFD Toolbox           |
|  \\    /   O peration     | Version:  2306                                  |
|   \\  /    A nd           | Website:  www.openfoam.com                      |
|    \\/     M anipulation  |                                                 |
\*---------------------------------------------------------------------------*/
FoamFile
{
    version     2.0;
    format      ascii;
    arch        "LSB;label=32;scalar=64";
    class       surfaceScalarField;
    location    "2.7";
    object      phi;
}
// * * * * * * * * * * * * * * * * * * * * * * * * * * * * * * * * * * * * * //

dimensions      [0 3 -1 0 0 0 0];

oriented        oriented;

internalField   nonuniform List<scalar> 
20045
(
1.40453
-1.6653
0.260772
-2.87355
1.28805
1.58549
0.513333
4.9202
-5.43353
1.25804
-1.54325
0.285205
-2.54479
2.30373
0.241068
-1.23295
4.99846
-3.7655
-2.89905
0.878116
2.02094
0.157542
1.2805
-1.43804
1.35339
1.19148
-2.54486
-1.58471
-0.593761
2.17847
1.25183
-0.860561
-0.391265
4.91108
-2.64724
-2.26383
1.1273
-1.10587
-0.0214386
-2.89304
2.24216
0.650886
-0.555382
2.78178
-2.2264
-2.50689
0.92218
0.376857
0.487449
-0.864306
2.93026
1.05185
-3.9821
-4.07227
5.75986
-1.6876
-1.93863
-0.154896
2.09352
2.10846
-2.02779
-0.0806728
0.409114
0.71819
-0.67859
-2.19496
1.0283
1.22865
-2.25695
2.18808
0.128352
-2.31643
-1.16155
2.18986
-1.17084
1.21469
-0.0438479
-2.52472
5.77006
-3.24533
2.47014
0.167638
-2.63778
-5.86985
5.3186
0.551251
-1.05408
-1.97246
3.02654
3.59168
-3.1728
-0.418882
-1.35453
3.12564
-1.77111
8.34323
-5.29659
-3.04663
-1.63618
1.79372
4.55226
-2.24382
-2.30844
2.86695
1.31611
-4.18306
-0.189658
1.14642
-0.956761
-6.92789
4.56092
2.36697
1.72882
1.41143
-3.14026
0.0681742
1.33981
-1.40798
0.543604
-0.741256
0.197652
6.97062
-6.89202
-0.0785926
3.4697
-1.02832
-2.44137
1.39341
2.07628
2.48612
2.42495
-0.242643
1.37661
-1.13397
1.75379
1.20902
-2.96281
4.48827
-1.62132
0.465107
4.09738
-4.56248
3.29152
-5.48692
2.1954
6.5743
-3.70362
-2.87067
-1.61408
-2.46121
4.07528
-0.257974
-0.886132
1.14411
-0.991222
3.21336
-2.22214
-1.96416
-0.58063
1.0031
2.58427
-3.58737
4.4629
2.05372
-6.51662
2.28423
-3.63876
4.61596
-3.85174
-0.764222
1.43537
-0.448514
-0.98686
1.12571
3.49024
1.31622
-4.02217
2.70595
1.88836
0.220106
0.672155
-2.16251
1.49036
3.12522
1.45855
-4.58377
-0.323831
1.29509
-0.97126
-1.73585
0.115973
1.61988
2.42053
-1.06715
4.00982
-4.12584
0.116022
-1.1332
0.809373
-3.48633
2.49511
-0.81759
-2.7225
3.54009
-0.326631
-0.164406
0.491037
3.58009
0.120256
-3.70035
3.17895
-2.17584
-0.984777
4.56487
1.58551
-2.14089
-0.87569
-0.524848
1.40054
2.41802
-1.06865
-1.34937
2.1458
2.40782
-4.55362
2.15958
-2.01923
-0.140345
3.50499
-2.18877
-5.58843
0.633383
4.95504
-0.0735316
1.47806
-0.86092
1.34999
-0.489068
-0.724619
-0.645587
1.37021
-3.96623
0.103908
3.86232
2.37272
0.761399
-3.13412
-2.10742
1.61485
0.492567
-4.16463
0.651724
3.51291
2.15581
-0.458573
-1.69723
1.13538
-1.74472
0.609343
-0.733252
-1.92687
2.66012
1.70433
-1.82331
0.118978
2.67592
0.712996
-3.38892
-0.910257
-0.260586
-0.271648
-0.927469
1.19912
3.39291
-1.66409
0.273263
0.670574
-0.943837
3.12635
1.42592
-1.23611
-1.65694
-1.49894
1.22729
-2.47933
6.94223
0.354139
-1.21506
-0.907024
1.18029
0.924821
3.18132
-4.10614
2.3468
-6.45635
4.10955
-1.11833
-1.36964
1.16752
0.202122
-0.860688
1.06938
-0.208688
3.37147
-3.0354
-0.336061
-1.43933
1.18136
4.40569
-6.0366
1.63091
-0.719997
1.02081
-0.300814
0.158914
-1.03538
0.876467
2.62432
-0.436244
6.69539
1.64783
-3.24529
2.4277
2.84528
-4.83392
1.98863
-1.5113
4.44156
0.695988
0.739387
-2.25618
1.83175
0.424426
-4.58109
0.298604
-1.70007
1.40146
3.63245
2.94185
2.9278
-3.95405
1.02624
3.87531
0.399137
-4.27445
-8.29822
6.71438
1.58385
1.39711
0.760481
-2.15759
6.6613
-3.02885
-0.280265
1.65687
0.259536
-0.649974
0.390438
-0.144638
0.0272003
0.117438
2.88139
1.97638
-4.85776
3.11621
-2.66462
-0.451595
-0.664988
0.0294248
0.635563
-0.970144
-0.399493
5.29268
-2.4474
-1.90481
1.99029
-0.0854775
2.51991
-4.70332
2.18341
1.54824
-3.16232
1.84384
1.92835
-3.7722
2.35337
0.0646471
6.12044
-0.8264
-5.29404
1.2647
-4.02553
2.76082
3.65947
-2.0961
-1.56336
-0.728795
0.782963
-0.0541678
-0.168931
4.71967
-4.55074
2.92638
-0.456237
-4.09929
0.107796
3.99149
-2.85649
2.22407
0.632425
4.11979
-1.97398
0.468607
1.69097
-3.13872
3.6157
-0.476974
-4.08473
4.59806
0.0529826
-1.26114
1.20816
0.762676
-1.54627
0.783597
-0.104595
-1.07456
1.17915
2.68325
1.02116
-3.7044
6.12525
-2.914
-3.21125
-1.28321
1.17861
3.86789
-4.10649
0.238601
0.668864
-0.12526
-6.18296
-2.256
2.93506
-0.679055
-2.94746
2.37097
0.576492
-0.0531886
-0.339308
0.392497
2.00303
1.65644
-0.240096
0.0954584
-0.0875978
0.347133
-3.27367
0.134947
-3.75302
4.66575
-0.912734
-3.74216
3.95008
-0.207911
-2.41017
-1.69489
4.10506
-1.52147
-0.302519
1.82399
1.74333
-2.11786
0.374532
3.84533
0.250166
-4.0955
-0.129926
-3.68813
3.81806
-2.40187
4.24572
1.10017
-3.06662
1.96646
-2.00291
6.4086
-4.09339
3.10788
0.985509
0.0289708
-0.121432
0.0924609
2.44275
-5.1434
2.70065
-4.63067
2.10595
-3.54016
-2.60595
6.19909
-4.99914
-1.19995
-1.68123
1.74941
1.02059
-1.09044
0.0698451
-3.07913
-1.50566
4.58478
-4.61736
6.65685
-2.03948
6.25011
-5.97457
-0.275542
-0.0828135
-0.931577
1.01439
-4.1504
-2.10661
6.25702
0.789241
0.462585
1.44445
-0.0473368
-3.2194
-1.0066
4.226
0.725212
0.172397
-0.897609
0.317968
-2.57397
1.97791
-3.03199
4.08095
-0.205633
-0.970461
0.780803
-1.13333
1.37321
-0.239881
-1.72109
4.40434
-7.01532
2.86491
4.69189
-2.57092
-2.12097
-3.78326
0.911473
2.87179
0.797767
5.45235
5.53923
-3.09648
4.66877
-6.59337
1.92459
1.30852
-1.67427
0.365757
0.417903
-2.35653
-2.58384
3.50866
3.06426
-4.29722
-5.77277
-0.263178
6.03595
-6.38452
2.12695
4.25757
-0.484006
-1.62341
0.995009
0.900447
-1.89546
2.9567
-0.839107
-2.11759
1.04743
-3.23818
3.06925
-1.45449
-0.450323
2.90584
3.56592
-3.61538
0.0494583
-0.0561828
-0.803755
0.859938
3.08
0.381579
-3.46158
3.15766
-0.741463
-2.4162
2.44224
4.78398
-7.22622
-2.03261
1.30799
3.17407
-2.07391
-0.652761
1.90019
-1.24743
3.90649
-1.38659
0.709359
-0.0635914
-0.645768
1.93804
-0.200155
-1.73789
-0.833302
0.870059
-0.0367564
6.937
-5.472
-1.465
1.46723
-6.08459
-0.927135
0.0938326
-4.20024
1.02532
3.17491
4.73291
-1.60727
1.13078
-4.8838
8.0223
-3.93772
-4.08458
-0.112963
0.838174
5.71089
-4.69185
-1.01904
-3.03689
0.408967
2.62792
-4.85798
4.74019
0.117784
2.54926
-3.36652
0.81726
-0.300704
0.0153747
0.285329
-2.42902
2.89429
-0.465269
-0.459049
-0.440055
0.899104
-0.947405
0.227408
-1.04792
0.187231
-2.55359
-3.90277
5.24531
-8.52813
3.28282
2.49798
-1.28878
-1.2092
2.78609
0.805589
-1.93348
-3.83929
-0.368376
1.13105
2.49697
2.23594
-2.74647
0.432825
2.31364
3.84
1.87089
2.3172
0.464585
1.59578
0.902199
-1.63208
-0.19749
1.82957
-0.211906
0.240877
-5.93953
8.38177
-2.72372
3.36559
-0.641872
-4.72402
4.52027
0.203749
2.03703
1.34223
-3.37926
-0.643456
-0.882649
1.5261
3.72514
-4.22762
0.502478
-2.6882
-3.69633
5.14634
-3.72337
-1.42297
-0.645405
0.589222
3.63029
-1.08102
-4.45585
9.70117
5.88246
-3.11475
-2.76771
6.73253
-3.53404
-3.19849
3.87298
-1.20781
-2.66517
3.08298
2.79948
4.53309
-2.69927
-1.83382
-1.0792
4.12902
-3.04982
2.75761
-3.25728
0.49967
0.87129
-1.34321
0.471923
1.40846
-0.218768
-1.18969
5.29348
-4.38517
-0.908308
-4.35364
-3.94458
3.09202
0.473902
-4.25698
-0.467039
-0.1178
2.05584
2.59748
-4.43676
1.83928
0.0211663
0.999428
-2.67804
5.55943
1.48969
5.44731
7.13902
-5.50205
-1.63697
-4.6732
3.6666
3.24264
-4.87197
1.62933
-3.07101
-0.449302
3.52031
-1.61533
-0.877705
2.49303
3.60684
0.26105
3.97484
0.717052
1.77688
-0.82832
-2.34448
-2.98425
4.83409
-1.84984
-1.35369
0.220369
-1.05488
0.402124
0.474664
-5.33264
-1.30954
-0.723075
1.40915
-1.33517
1.69032
-0.355147
-0.0897469
1.34779
-2.27903
1.43226
0.846772
2.48562
0.885849
-2.23026
2.95546
-0.725193
2.2547
0.861514
-1.6826
4.28009
2.93264
-0.559923
-1.28762
-2.49564
11.484
-5.74343
-5.74057
4.44132
-5.11674
3.23295
1.88379
3.89492
-4.3948
0.49988
-2.46122
1.72797
-0.776001
0.111014
-1.5329
-2.63173
1.75927
-3.03651
1.27724
2.24588
2.28721
2.72995
-4.41351
1.68356
1.4829
-3.02574
1.54285
-4.85433
0.888101
0.121622
2.03418
-3.70718
3.88283
-0.175657
-0.989516
1.64515
-0.655637
-2.67322
-0.225837
-0.723974
-1.30267
2.02665
0.706617
-0.00271605
-0.703901
-1.72863
-1.12786
1.65354
2.32579
-3.97933
5.11823
-1.27822
5.54447
-2.2375
-0.223725
2.69621
-1.21332
-3.60646
-0.486927
-0.382752
-0.0323394
0.415091
2.98123
-1.22744
-2.67897
4.0865
-1.40753
-0.745286
0.902417
-0.157132
3.11108
-0.15438
-3.1297
-1.30707
-2.78591
4.87006
-2.08415
2.62336
-4.41989
1.79652
1.94897
3.19737
1.01737
-0.77894
-0.238429
0.678878
-3.74988
2.87559
-4.42343
1.54784
0.463697
-0.790328
-0.547753
3.47556
-2.52439
1.21485
-0.0118884
1.3204
0.822577
-4.89484
-3.79151
3.1145
0.677014
3.4474
-0.850108
-2.5973
4.74908
-1.02394
-3.7429
-2.21766
-1.9293
1.66703
-0.964017
-0.571316
1.53533
1.6606
-1.81549
-3.99545
3.4477
5.4238
1.54682
-4.23882
1.55985
3.53996
-0.447943
0.975944
-0.506364
-0.46958
-0.160119
-2.6713
2.83142
-4.48744
0.798074
3.68937
4.26572
-4.26572
-3.456
4.87039
-1.41439
1.27353
-3.5038
2.68295
-1.68
-1.00295
-4.88038
5.05307
-0.172691
1.92797
-0.202941
-1.72503
1.53388
-0.456502
-1.07737
0.797157
-1.44061
-1.24428
5.81603
-10.2719
-3.88955
4.63887
-0.749312
-1.54657
3.20011
0.0408227
-0.0165039
-0.0243188
-1.35975
2.53768
-1.17793
-1.94232
2.36022
5.75487
-3.67407
-2.08079
-0.591076
-2.41641
3.00749
-1.3991
1.47552
-0.076411
0.961323
-1.48931
0.527985
-4.89962
2.44648
2.45314
-1.06221
-0.481038
0.77354
0.202404
0.326859
0.151062
-0.47792
2.48028
2.8132
-0.257424
0.298247
-0.573445
-0.993798
1.56724
-2.66535
4.26759
-1.60224
-0.068955
1.01092
-0.94197
2.46746
-1.58934
1.9673
-0.0361579
-1.93115
0.393499
-2.32037
0.471071
3.37426
2.42708
1.46544
-3.89252
2.54996
-1.92662
-0.623343
-5.05321
0.953926
-1.66206
0.86219
0.799865
1.04003
3.5155
-4.55553
-3.33013
2.88083
0.36393
-4.55766
4.19373
-0.700687
0.617873
-0.0755424
0.0178253
0.0577171
0.180838
-1.81292
0.179259
0.00431936
-0.183578
-3.50595
-0.694287
3.05139
2.80199
-0.727194
-2.07479
-0.84874
0.103455
0.612249
-3.37396
2.76171
0.917734
2.46319
-3.38093
0.697036
-3.47394
4.06079
-0.586846
-3.72775
2.64854
0.492641
0.72205
-1.92958
-1.01788
-1.53104
0.336171
1.19487
-4.60276
1.93741
3.15049
-3.74156
0.813646
2.72631
-1.80267
1.74672
0.0559504
0.0755063
-3.41271
3.3372
1.07439
-1.57879
0.504401
1.31879
-4.44849
-3.35584
-0.386322
-1.87508
0.139226
0.0773378
0.923369
-1.00071
3.06667
-0.143825
-0.0579551
0.20178
4.17164
-3.13161
-1.08595
3.54966
-2.4637
1.39229
1.1219
-2.51418
-1.62218
0.921493
-1.3661
-0.164936
1.49346
1.18949
-1.75819
-3.07573
0.333408
-0.716159
2.93804
2.36403
0.568617
-3.94493
4.41004
0.21631
-1.76325
1.54694
-0.460945
-4.11252
4.57346
0.490505
-0.584394
0.093889
0.950437
-2.4719
-0.446999
3.20461
4.01144
-2.74674
-1.66853
-0.610494
-0.115857
-2.20799
2.32384
1.64866
-4.05883
-0.234131
-2.30777
2.5419
0.249031
-1.5857
1.33666
-3.13514
-0.0233876
3.15853
2.79509
-1.58607
0.0100436
0.604672
-0.614716
-1.25599
-0.143119
1.05413
1.90922
-2.96335
0.858059
-1.03833
0.180274
2.73075
1.52238
-4.25314
-1.36328
4.0392
0.665118
0.0414992
-2.97658
-4.02593
7.00251
2.28556
3.00712
4.09608
-3.17835
-2.00942
1.28544
1.13912
0.269338
-1.39703
4.63967
0.554329
-3.76423
3.2099
4.02765
-0.523532
-3.50412
-1.7979
3.06608
-1.26818
1.87137
-1.66823
-1.99227
3.66049
-0.724423
0.361726
0.362697
-1.35418
-2.45314
3.80732
1.04069
-2.40043
0.371498
-0.424686
2.57337
-3.92755
-3.43808
-1.14476
4.58284
-0.051667
-2.67214
2.72381
1.29326
5.6866
-5.96587
0.279266
1.17024
-0.474915
-0.695323
-0.0410948
-1.76157
1.22728
1.43285
-1.89048
0.27515
-3.90853
4.91518
-1.00664
-0.272362
-2.45136
1.28425
1.06912
-5.35828
-1.53375
-0.23837
1.24826
-1.00989
2.66088
-0.296851
-1.17496
1.29005
-0.115095
-1.04666
0.58761
-6.86274
3.32258
4.24185
0.756612
-0.384267
1.34559
-1.21822
2.61051
10.5336
-4.71761
-1.20597
0.0310142
-0.673564
-3.32189
1.13716
1.32637
-1.27339
-4.60514
0.117702
0.0916609
1.2218
-0.147414
-4.56985
2.35198
2.21787
3.37731
0.632511
1.18136
-0.441886
-0.739471
1.63097
-1.47927
-0.151699
-3.54907
1.30525
-5.41818
2.63227
-2.60755
3.09576
-0.488211
-0.0585402
-0.598025
0.656565
5.07241
-0.0951491
-4.97726
1.16147
0.0947671
-1.25624
-0.768725
-1.48745
1.33464
-0.199259
0.34036
-0.404513
0.0641529
2.24382
-0.262053
-1.98177
-0.234823
0.575182
2.77856
-2.06557
-0.161902
-0.833594
0.995496
-5.00784
1.09931
-0.196974
-0.221927
-1.27701
0.085158
2.71683
-0.121285
-0.247091
1.34235
0.951814
-2.29417
-1.27634
1.94849
1.71861
-1.5023
1.27302
-1.11411
0.641807
-1.63132
-0.581699
-2.65358
3.23528
2.92056
-0.524194
-2.39636
-2.9347
-1.09082
0.84909
-0.700943
-0.148147
1.4865
-1.81381
0.327313
5.36871
-0.126729
-5.24198
0.220618
-0.82656
0.605942
-2.574
3.59574
-1.02175
2.76663
2.4894
-5.25603
-1.6782
1.22968
-1.54356
2.41135
-0.867797
1.25718
0.504148
-1.76133
-4.04866
2.36793
1.68073
-0.462906
0.058393
-4.23645
0.79837
1.77054
-1.02378
-0.74676
2.02418
-2.85333
0.829153
-0.62421
-1.04109
0.599478
5.08712
4.11969
-0.801225
-3.31846
-3.94985
0.475903
1.61838
-2.906
4.2733
-7.05684
2.78354
-0.624051
1.61906
0.107113
-1.78498
1.21154
-0.903137
1.20174
-0.859606
-6.48734
7.34695
3.35107
0.279217
-3.62872
3.89653
-0.267812
-0.776158
0.853496
-2.923
-0.825022
-0.703754
0.779532
-0.075778
2.25629
-1.93774
-0.318541
0.212559
0.868096
-1.08066
-0.631288
2.65547
-2.26844
-1.4301
3.69854
-4.14024
-1.26388
5.40413
2.13412
-1.92105
-0.213072
-1.43877
0.138354
1.30042
-0.428496
-0.777915
1.20641
-4.59327
0.183144
4.41012
0.112497
1.12344
-1.23593
3.78334
-4.21514
0.4318
-2.16371
2.19625
-0.249726
-1.94652
0.055961
-0.759715
-2.51955
3.52076
-1.0012
4.14967
-6.15259
-4.72525
4.1266
0.598659
1.03974
-0.181685
3.85173
-2.56748
-0.45886
-0.709954
1.16881
-0.0701861
1.03844
-0.968255
-0.74429
3.48234
-2.73805
1.92974
-0.899401
-1.03034
4.9836
-4.77553
-0.208072
3.4118
-1.4807
-1.93111
0.205035
-1.31043
1.10539
-1.63
-0.0700709
-5.31196
4.63031
0.681651
0.234534
-5.54649
0.0339079
2.19377
-2.22768
-2.48791
-1.89726
1.19833
-0.935307
-0.263024
-3.90776
-1.10008
-1.11121
0.799164
0.312046
3.07902
0.0786432
-4.8568
4.60206
0.254742
-0.818314
-0.282974
0.118569
1.25101
-0.0895412
-2.75688
0.327861
0.956934
-1.01007
0.053133
-2.19933
-0.537451
2.73678
2.08806
-0.160084
-1.26647
2.73505
0.376027
1.86597
3.44625
-0.140873
-3.30538
-0.670658
2.41399
-3.42402
2.17286
1.25116
-0.309376
-0.153529
3.88124
-0.530169
2.18803
-2.11252
-0.708018
-0.953304
1.66132
-0.289858
-6.59158
6.88144
2.99346
-3.04513
3.99244
-1.76035
-2.23209
-0.0318962
-2.85226
-0.571763
-2.1159
4.3207
-2.20479
0.342726
-1.09487
5.76364
-5.13129
1.22353
-0.0751574
0.946447
-0.685603
-1.14539
0.899898
-0.0298394
-2.05195
-2.04421
4.71407
-1.53512
1.65979
-0.231569
-1.42822
0.221368
1.31251
-4.7749
-2.21124
6.98614
3.44786
0.158977
-0.0249416
-0.840961
0.865903
4.0896
0.227118
-0.332378
0.10526
-3.58693
3.00523
-1.81174
-4.7168
0.827247
-1.22888
0.0679757
1.1609
3.80644
4.21586
3.22666
-1.92785
-1.29881
4.77111
0.212485
3.15235
-4.47116
1.31881
-4.01582
0.0308035
3.98502
-4.2495
5.45858
-1.20909
0.821025
-0.0272004
-0.793825
-2.17926
6.32894
-1.21283
2.38332
-1.1705
0.235136
-3.86385
4.08898
-1.56919
-2.51979
-4.4262
5.72215
-1.29596
-1.23144
2.99459
-1.76315
5.80389
-2.5649
-3.23899
0.24211
-3.00495
2.76284
-0.0594005
0.0772258
-2.01107
4.77771
1.37668
-4.83268
4.21294
-1.58958
-1.03902
0.877119
-4.14369
0.12787
4.56511
-1.83516
0.194069
-5.7825
1.42817
-0.0883619
4.47831
2.97014
-7.44845
2.81531
-0.901518
-1.91379
1.71785
-4.03106
2.3132
-1.03114
0.05737
0.973772
-1.10517
-2.54489
3.65006
1.88468
-1.24287
-2.79138
4.53852
-1.74714
0.680339
0.997134
-1.67747
0.400843
0.797488
-5.55721
6.6384
-1.0812
0.617701
-0.127195
2.28797
1.20355
-3.49152
1.1287
2.63255
-3.76125
1.07613
2.37128
-0.129021
6.24946
-0.0665014
3.95019
-3.88368
-0.0129633
-0.0559917
0.0321242
0.589121
-0.621245
1.87857
-1.61995
-0.258616
1.84276
2.14967
0.579014
-0.728115
0.1491
-1.16859
3.84978
-2.68119
-0.0528355
1.04118
-0.988344
-3.87972
-1.25316
5.13288
-2.55768
-1.31433
3.87201
3.63528
-0.555287
1.22805
1.58725
2.26679
-3.66607
1.39927
1.56618
-3.98259
-1.55369
1.48206
0.0716303
1.03197
-0.177873
-0.854097
-0.211484
0.152083
-0.278269
4.06306
-3.78479
-0.718169
4.81555
3.65611
-3.16352
-0.49259
3.36702
-2.60562
-2.39574
1.03785
1.3579
0.154216
-1.83422
-2.05909
1.64837
0.410716
0.398632
0.782725
0.7592
3.6327
-4.3919
1.2777
0.966123
0.679521
-4.81977
-2.54121
0.830097
1.71111
-1.83442
-1.22985
3.06426
2.68927
-1.34691
-4.19756
2.65098
1.68748
-1.26285
-0.424631
-4.62446
9.97411
-5.34965
-2.13136
2.52486
-2.85137
3.12988
-0.278513
-2.24956
6.43992
-4.19037
-0.116023
1.17576
-1.05973
0.686302
-0.744842
-4.1429
-3.18626
5.92953
-2.74327
-2.74832
3.65979
2.43529
-2.78784
0.352547
0.856475
-2.2617
1.40522
-5.07248
3.1016
1.97088
-0.176731
-0.076301
0.253032
-0.170735
2.7715
-3.51579
6.14364
-6.4335
-0.554741
-3.23677
-3.53307
3.46656
2.16718
0.203792
1.42436
0.704388
-2.12875
-1.83055
1.71248
0.118064
4.27781
-2.76027
-1.51753
-0.769841
2.37238
-1.60254
-3.64365
-0.903199
4.54685
-3.43178
-0.914804
4.34658
2.14017
-1.28369
0.895772
0.982793
-5.51457
2.39532
3.11925
2.54811
-1.6771
-0.871005
0.0382336
1.09403
-1.35835
0.26433
-2.61406
1.42823
-2.19807
0.796083
1.14032
-0.935283
2.21295
0.0433316
-1.18748
1.94796
0.164571
1.53976
-1.23416
0.917892
0.316269
-3.57164
-2.84751
6.41915
3.581
-1.31421
-2.44477
-0.222726
2.6675
0.596091
1.11523
-1.71132
-0.145409
5.50451
-3.52574
-1.97878
0.980903
3.13879
0.203507
0.923397
2.48439
-3.40779
-1.57412
3.1725
-1.59838
-2.69351
-0.980157
3.67367
-2.47892
0.935362
-1.55656
-0.839182
5.75302
-2.50411
-3.24891
-0.748677
-1.23543
1.98411
1.49832
0.581034
-2.07935
-0.979867
1.09236
0.272701
-0.252936
-0.0197644
1.25933
-0.135626
-1.14758
-0.0655667
3.42629
2.32674
-1.14759
5.70851
-0.165293
5.48389
-1.5922
0.843525
-3.89468
1.20117
3.71759
-3.03871
-0.710366
-3.37743
0.803436
1.98496
-1.95106
3.12184
-3.28196
4.1435
-0.248573
-1.02317
-0.721552
-0.799146
-0.550378
1.34952
-1.64042
-0.182889
3.8227
0.635348
-4.45805
-0.191271
-1.24504
1.43631
-0.383907
3.65974
-5.52774
1.868
4.02211
-0.238772
-7.86961
8.34031
-0.470702
1.04938
-0.933411
-4.1578
-0.914682
-1.25801
4.72899
-0.0986835
5.90918
4.94122
-2.00135
-2.93987
-2.78691
-0.309134
3.09605
0.719174
2.20908
-2.92825
-3.55118
0.416039
-0.989432
-0.243455
1.23289
-2.41119
2.96552
0.908246
2.29298
-3.20122
-2.51029
1.47167
1.03862
-4.2215
0.405238
3.81626
-1.48204
7.62568
-1.36807
2.26934
1.14247
-0.935417
-0.726638
4.66386
-5.49026
-1.6515
-0.925583
2.57708
-1.61801
-0.0601896
3.37014
0.0704229
-3.44056
5.10439
-5.26969
0.00362327
-0.304327
-2.65556
3.45267
-0.797107
1.04663
-3.56619
-0.122256
1.54085
-1.4186
-0.0995147
-0.954554
1.05407
2.28473
-1.33429
-1.45652
3.0749
0.301513
-2.90906
-0.867544
0.923505
2.66469
-3.40615
-0.209833
0.225207
-1.07741
1.02954
0.0478652
1.13552
-1.26241
0.126892
-3.00534
3.1256
0.379682
-2.82446
-0.155104
-1.52613
-0.232438
2.92626
-2.69382
1.73706
-1.93455
0.902521
-3.38067
2.47815
0.448202
6.10989
-6.55809
1.74239
-4.72665
4.00638
-0.111495
-4.61376
1.26135
3.45272
-3.53447
-0.663086
-1.99563
-3.1211
-2.25916
0.956489
0.829589
0.430076
-1.25966
7.27471
-3.46827
3.79181
-0.916214
-1.20344
-0.896789
2.10023
-4.81227
2.20308
2.60919
0.573296
-1.43386
1.1537
1.04254
0.904027
-0.494913
-1.62904
1.25672
-2.46955
-1.14456
0.716645
0.427915
-0.607211
4.42991
1.69309
-0.920453
-0.772633
4.55175
-5.64093
2.6498
2.99113
0.951511
1.36576
-2.31727
0.028822
-1.51725
1.48843
-2.81445
1.58301
-0.718065
-0.320925
1.81924
4.41119
-4.87214
2.21349
-0.956308
-1.75944
3.32561
-4.35479
3.10367
1.25112
-3.21036
-2.4488
5.65916
-3.29189
3.67954
-0.387652
1.61841
-2.28907
0.0690138
0.740163
1.39396
-2.11548
1.04682
4.17894
-10.3628
3.24443
7.11837
1.15337
-3.94028
3.07591
0.031005
-3.06789
0.593183
3.36179
5.12651
-1.82016
-3.30635
-2.43448
1.31253
-3.14695
0.904098
-4.39171
4.08258
-3.19447
1.52625
2.25456
-2.02195
1.1808
0.841157
-5.68536
2.79608
2.88928
-5.57882
-1.19727
1.4463
-4.90346
3.51313
1.39033
4.07225
-6.25151
-5.53076
-0.0264443
7.05786
-2.78457
4.20738
-2.27364
-1.93374
-0.135076
-0.843818
0.978893
0.0503872
1.90213
2.54267
-1.56479
-0.457163
0.598163
1.28651
0.83533
1.96632
-2.80165
2.07309
-1.17265
-0.237611
-4.67335
4.91096
-1.76673
1.2912
-3.69308
-3.28591
-2.34793
5.63384
1.30036
-1.75893
-3.56045
1.1542
2.40625
-0.204239
0.690619
-0.48638
6.89344
-7.75304
0.207025
-2.86258
4.94424
-2.57969
-2.36455
0.758986
0.900807
-4.16861
1.26142
2.90719
-3.95655
1.39886
1.66444
-3.23856
1.12609
-2.77759
-0.42309
0.218851
-0.186152
4.2138
-2.84067
3.78473
-0.944067
3.94335
0.0142282
-3.95758
-3.05545
-0.0762583
-1.25891
0.209313
4.05641
0.7411
0.161317
0.402513
-1.7833
3.05684
2.48752
2.48403
1.79378
-4.51759
-0.339215
-3.83699
0.397605
-5.08946
0.973303
0.976302
-1.94961
5.83506
-0.276125
-5.55893
-0.614743
0.587543
-1.78498
-3.6332
-3.69755
-0.697251
-0.676396
5.78079
-1.64508
2.44939
-0.804308
-5.27065
1.69901
-1.61257
2.4479
-2.32275
-2.24709
-1.55169
-1.13239
1.50692
-0.0340028
-2.16533
5.51023
-0.781246
0.0357894
-0.527697
0.491908
0.715457
1.18473
1.4302
4.84063
-4.4767
-0.311176
-1.14813
1.75747
-2.27211
2.70493
-2.42167
-7.22547
1.14675
0.925132
-2.07189
-4.33205
0.0663285
-0.771064
3.83251
-3.06145
-0.873876
-6.99573
-3.10366
3.48524
5.76768
-2.73894
-3.02874
-0.311214
1.1734
3.91299
-1.46735
-2.44563
1.38487
-1.5205
0.573554
-0.541429
-0.597706
-0.188385
0.786091
-0.651084
2.07544
-2.36882
6.44106
-0.00228119
-0.933026
-1.3503
-0.581771
1.93208
-0.0925764
6.98601
-0.826691
0.845435
-0.0187448
-1.90192
2.95605
1.76874
2.08104
-2.07366
-0.467545
2.74476
-1.01337
-1.73139
-0.245594
0.0575815
0.188013
0.383124
-3.31904
2.93592
-4.46253
0.764976
1.14649
-4.6434
5.04101
-0.0379998
1.42287
0.825229
-2.47031
-4.00458
2.07528
-4.32942
1.41542
-2.40402
0.461698
-1.64347
-2.92085
4.56432
-4.58139
-0.541803
1.09668
-0.554874
4.1816
-3.54822
3.18679
-2.46762
0.4642
2.66184
-3.12604
0.536634
-1.52607
-2.28659
-2.19754
4.48413
-2.36545
3.83648
-1.47104
-3.75243
3.88463
-0.132199
3.953
-3.26277
-0.690227
3.33021
0.189465
-3.51967
-2.20422
-3.4367
-1.52817
-0.346909
3.22924
3.43206
-0.0421203
0.578069
-0.535948
-3.257
-0.911608
3.01036
2.7495
-2.60013
3.30339
-0.70326
-0.0360427
-0.296335
0.520531
1.56785
-2.08838
0.636374
1.05671
-0.463898
-4.43956
-5.791
1.72023
-0.0327503
-1.78284
3.76074
0.429515
3.3938
-3.82331
-2.47376
-0.283125
1.67408
3.44415
0.374717
-1.34486
-0.677904
-0.65583
1.33373
0.260144
-1.82922
1.56908
2.68924
-1.34701
2.87476
4.23217
-1.98628
3.90572
-2.61452
-0.653513
-1.27472
1.92823
3.51991
0.609114
-0.126958
-3.43937
2.3342
6.30939
-6.40196
-1.67843
-2.37255
4.05098
-2.49715
-2.31512
-4.83163
4.80251
0.029119
1.28892
-1.43352
0.883147
2.79703
1.43514
-0.046715
-2.71615
2.76286
-1.43585
-2.68999
-1.88563
-2.40152
4.28716
3.71654
-0.268683
-1.7013
0.147601
2.7864
-4.57137
1.86811
-1.73976
-2.77707
3.97464
-1.19758
0.128806
2.05998
1.82024
-3.88022
4.578
-2.68176
-1.89623
-2.28401
-2.92456
4.18579
-1.26123
0.123689
-0.0878995
-1.48471
1.44671
2.01681
3.78708
-1.1311
0.996029
0.0193503
-0.163176
4.49632
-2.51994
2.94082
4.33389
-2.13651
1.20652
0.929992
1.06807
-1.77609
3.42367
-0.0535395
2.15024
2.05715
-3.02659
-0.30696
3.33355
0.992279
-0.0887075
-0.903572
0.931254
0.238984
0.667481
-4.91698
-1.45846
1.6393
3.1395
-2.94439
-0.195107
0.849399
1.89536
-0.834692
0.392806
1.35397
1.14948
-2.50346
-1.66749
3.95172
1.25049
-1.8982
4.56837
-2.67017
-0.935624
1.61596
-1.70027
-0.810021
5.04994
-2.55779
-1.69919
1.01423
-0.985411
1.56352
-1.71862
-0.94226
0.826236
-1.45041
-0.781353
-0.0673874
2.69711
-0.8811
3.81858
-2.93748
-0.43851
0.765368
-1.30679
0.596837
-1.76516
0.236992
-7.23374
4.25715
1.2604
1.15095
0.458566
-1.91973
1.46116
0.721387
0.628602
3.53471
2.28721
-5.82192
-0.647818
-0.0471506
0.694968
1.68929
-2.77524
4.04244
1.72524
3.66641
-3.2369
-4.32159
0.554026
0.327959
-4.30268
2.07045
1.15447
2.14421
-3.29868
1.98484
-0.247773
-0.115562
-1.54438
-0.592136
-2.537
-1.85668
2.01089
2.89708
0.652572
2.58144
-2.40946
-0.171977
0.995211
0.0343291
-0.360109
1.30018
-0.164665
3.69671
0.913149
-4.60986
-1.2585
0.113941
-1.19164
0.73266
0.45898
-1.75619
-0.0211863
1.77737
1.39978
2.14569
-3.54547
1.12192
1.56734
3.13458
-0.078318
-1.36102
1.72314
-3.50645
-0.958823
1.61874
-0.659915
-6.08018
3.47422
3.94321
-3.05177
-0.891439
0.0941191
-0.78468
0.690561
3.97661
-4.25488
2.56327
1.15327
1.3136
1.87319
-0.772758
-0.00859512
0.0471877
0.225073
-0.272261
-2.22304
-0.678334
4.98958
-2.55666
-2.43292
2.4119
-1.42715
-0.984748
2.13433
-3.5198
1.38547
0.23288
2.5682
0.12801
3.93072
-2.39322
-1.5375
0.316534
-0.269346
-3.8405
-1.69453
0.77408
4.14599
0.0299801
-4.17597
-4.46352
-0.848026
-0.386135
-0.684416
-0.0436985
1.98448
1.46819
-1.89486
2.10742
-0.106362
0.333484
-0.314176
0.668315
-1.96886
2.43306
0.0644612
1.26191
-1.24922
-0.738925
3.52501
0.0375156
2.54393
-1.03867
-0.689938
-1.13607
2.49004
-0.624273
3.55245
-2.92818
-3.64079
-0.595659
1.80685
3.40412
-5.21097
-0.899252
-0.79528
1.58603
-0.305534
-0.0931814
-1.21487
1.30805
-3.86341
1.30562
0.762585
-0.752541
2.26374
-7.03864
3.53705
-7.56298
-0.674437
1.90308
-2.0418
2.56381
-1.41433
0.0611725
-2.69026
3.07339
-0.01066
-0.793095
0.271634
-2.19268
-0.677152
-2.68621
3.36337
2.8234
4.29993
7.01963
-4.51789
-2.50174
-1.11241
0.455365
1.18223
0.107785
-1.29001
-3.73439
0.893722
1.06358
-0.0316156
-0.0276223
-0.698196
0.725818
5.8187
-4.01185
0.448804
2.0533
0.394017
-2.44732
-4.00151
3.37723
0.778484
0.188688
-0.967173
2.85412
-6.04038
-0.770424
0.00709278
0.763331
1.01678
-0.2383
0.0455994
3.42282
-2.3467
2.67699
2.49286
-1.37093
-4.7955
1.50959
-2.9171
2.60928
0.307824
2.38853
-4.06696
-2.42767
-1.44999
3.87766
0.131468
2.0926
-1.47958
1.27664
4.6243
-0.602924
-4.02138
0.0107983
-4.52839
3.06899
0.261217
2.53515
1.37783
-0.835586
-0.00537518
0.785194
-1.26925
-1.76726
0.223074
-0.672398
0.449324
0.0783945
-3.79601
3.71761
-0.379295
1.58782
-1.20852
4.13552
-8.15353
4.01802
-0.122923
-2.54169
-0.132549
0.165119
2.94652
-1.66143
-0.954208
2.61564
-1.91297
-1.59298
2.20756
-1.28242
0.111053
-1.22862
1.11756
-1.18785
1.64641
-4.17222
-0.466346
-0.458996
0.925342
1.05351
1.118
-2.17151
0.711808
-3.17313
2.46132
0.475505
-2.67046
0.694775
-5.12097
-2.48826
-2.47031
4.95857
-4.22333
0.170684
4.05264
-4.8212
-3.57937
0.287481
-1.43134
1.44763
-0.0162979
-5.67553
-1.50522
5.20193
1.88644
-0.934626
0.47626
-1.61233
-0.772656
2.34
0.778156
0.596515
-1.94682
0.0939839
-0.840136
0.746152
-0.655252
-0.0735438
-0.549099
0.643218
-1.51511
2.46662
-6.18781
3.1248
3.06301
0.968595
3.00624
2.19089
1.08119
-0.0889105
-2.93945
2.89274
-2.25005
-1.3104
-2.64209
0.906931
1.73516
0.456307
-0.515136
0.0588293
-2.13212
2.39227
-0.567366
3.43915
0.433133
-1.25982
2.14018
-4.05314
2.03713
-2.32138
0.284251
0.670193
-0.065521
-0.899602
0.120662
-4.56028
2.91681
1.37645
1.03545
0.0702872
-1.00061
0.93032
-6.44057
2.35585
-2.04801
1.84785
-0.959722
-0.0798929
-1.0929
1.1728
-2.71826
1.05683
-4.65973
4.19583
2.96142
1.98282
-1.27219
1.16461
0.107581
0.873687
0.374574
-0.798046
-4.41223
2.27474
2.13749
-0.774247
0.727097
-0.402434
1.71028
-1.30784
3.27178
-0.708514
0.0340159
0.453101
-0.487117
-1.32883
1.3933
-0.218417
0.682114
3.32809
-5.7836
4.4719
0.299208
-0.778976
0.133389
4.13899
-0.208564
-3.93043
-0.31512
1.76311
-1.44799
1.96898
-4.02092
1.56615
-3.57211
2.00596
-0.174104
-0.0528127
0.226917
-4.30819
4.53131
-0.223115
-1.64227
2.54479
1.83543
0.0943028
6.71114
-3.38612
-3.32503
-0.19986
-1.26901
1.46887
-0.647224
-1.54592
-0.0840807
-1.49417
-0.0517429
0.464617
-1.50311
1.03849
-0.441995
4.20075
-3.75876
-3.88466
1.05279
2.83187
1.27082
3.80158
0.105589
0.411079
-0.516668
2.62765
1.21129
-3.83894
-0.272763
1.10235
-1.34902
3.57622
-2.2272
-3.35358
0.326987
2.79844
1.28937
-3.71704
-0.0168014
-0.628466
0.645267
3.95777
-1.02408
-2.9337
1.46987
1.08258
-4.25058
2.20637
4.13079
-4.3684
-2.21243
0.227206
1.98522
-0.344439
-0.775779
0.387244
0.388535
-1.25295
0.4702
0.782753
-0.0434019
0.667852
-0.62445
-1.22194
1.1662
0.0557388
-2.65673
5.44313
-1.51323
1.39737
0.939242
-1.34168
1.68502
-2.65275
0.967735
-2.33969
-2.0151
-0.978121
0.549625
0.571195
0.111739
-0.682934
4.2509
-2.42499
-1.82591
0.258256
2.88125
-1.19081
-0.639739
-2.78747
0.579481
1.70579
1.87763
-3.58342
-0.0319587
-0.0832602
0.115219
-0.0899875
1.72095
-0.290597
1.00119
-0.710592
4.34209
-4.07674
-0.265357
-7.24069
0.753351
0.276143
0.680436
2.17601
-2.85644
-1.80122
-0.723175
1.24286
-1.46479
-0.672979
-0.226623
-1.45222
2.42187
-0.969657
0.777551
0.126476
-1.18135
-0.846439
-1.17615
1.17386
-0.546458
-0.280102
5.99909
-2.48069
-3.5184
3.17365
-2.28136
-0.892285
0.920617
1.76863
1.22336
0.252158
-1.15792
0.949236
-0.463879
-1.55536
0.781747
-1.68115
1.63853
2.29219
-1.2592
0.481282
0.695887
0.320897
-0.119312
-0.054792
3.75267
-3.88027
0.127601
5.03642
-2.18627
1.19721
0.989064
0.582404
-1.73053
-3.13241
-4.02438
-1.21015
1.12144
-0.844913
-1.31474
2.15966
-3.71472
0.966399
1.05805
1.14138
-2.19943
0.261964
-2.62741
-0.77678
-1.17769
3.81024
1.84189
-5.04038
1.16285
-2.52349
1.36065
-1.27252
1.64723
-2.74542
-3.69515
0.750863
-0.850378
2.73699
-3.84243
1.59269
2.24974
-0.104802
-1.53138
0.136932
-1.71634
1.57941
-3.85835
-2.73502
-0.825448
0.83254
3.30711
2.23213
0.831986
2.14924
-2.96572
-1.45416
4.00019
-0.266083
-3.7341
-2.03652
0.849039
3.39967
-1.56288
-1.83679
1.47125
0.959811
-2.43106
-1.82595
3.01042
-1.18447
-6.59161
3.40442
3.18719
0.020351
1.20339
3.55819
-2.49532
-2.90734
5.40267
1.79741
-3.59862
-3.14298
-0.408195
2.37529
-0.801224
2.44065
-1.63942
0.985778
4.83293
-6.30654
0.139752
-2.7486
2.60885
2.01637
-3.34982
1.33345
3.07779
-1.76419
0.542703
-0.465352
-0.0773515
-1.37109
2.62781
2.68561