/*--------------------------------*- C++ -*----------------------------------*\
| =========                 |                                                 |
| \\      /  F ield         | OpenFOAM: The Open Source CFD Toolbox           |
|  \\    /   O peration     | Version:  2306                                  |
|   \\  /    A nd           | Website:  www.openfoam.com                      |
|    \\/     M anipulation  |                                                 |
\*---------------------------------------------------------------------------*/
FoamFile
{
    version     2.0;
    format      ascii;
    arch        "LSB;label=32;scalar=64";
    class       surfaceScalarField;
    location    "2.8";
    object      phi;
}
// * * * * * * * * * * * * * * * * * * * * * * * * * * * * * * * * * * * * * //

dimensions      [0 3 -1 0 0 0 0];

oriented        oriented;

internalField   nonuniform List<scalar> 
20045
(
0.487446
-0.51767
0.0302246
-1.06379
0.371087
0.692704
0.369732
1.90242
-2.27215
0.0928136
-0.0959529
0.00313929
-0.824981
0.80756
0.0174214
-0.590017
2.21214
-1.62212
-1.01068
0.447142
0.563541
0.0674886
0.422854
-0.490343
0.468279
0.410018
-0.878297
-0.828952
-0.105071
0.934023
0.069192
-0.533025
0.463833
2.25893
-1.07706
-1.18186
0.344792
-0.353559
0.00876726
-1.2785
1.10148
0.177024
-0.331202
1.05593
-0.724724
-1.08918
0.260229
-0.0565648
-0.0717212
0.128286
0.771063
-0.599007
-0.172056
-1.72723
2.51936
-0.792126
-0.750323
0.0646154
0.685708
0.174514
-0.202209
0.0276948
0.112057
0.232735
-0.125697
-0.938094
0.60907
1.11736
-1.72643
0.826017
0.219148
-1.04517
-1.1656
1.77467
-0.537084
0.631292
-0.0942081
-1.24973
2.37951
-1.12978
1.72446
0.251868
-1.97633
-2.30191
1.25929
1.04262
-0.230398
-0.135697
0.366094
1.42183
-0.994406
-0.427419
-0.797784
1.63933
-0.841551
2.3781
-1.34583
-1.03228
-0.546291
0.613779
2.17692
-1.07737
-1.09955
1.44545
0.155235
-1.60069
-0.0634246
0.383721
-0.320296
-1.86473
0.78699
1.07774
0.579769
0.517914
-1.09768
0.0588615
0.3963
-0.455161
0.1535
-0.213232
0.059732
2.20188
-2.20132
-0.000565056
1.48656
-0.554036
-0.932521
0.697338
0.789218
1.01893
1.23999
-0.36082
0.824587
-0.463767
1.26576
0.545409
-1.81117
1.77028
-0.324826
0.163645
1.87765
-2.04129
1.29973
-2.19798
0.898258
1.73905
-1.26876
-0.470295
-1.21316
-0.834764
2.04792
-0.0945487
-0.293994
0.388542
0.784869
-0.220676
-0.564193
-0.68383
-0.141151
-0.0528581
1.5768
-1.52394
1.54729
0.113822
-1.66111
1.01717
-1.81495
2.03925
-1.28728
-0.751967
0.242634
-0.434944
0.19231
0.911284
1.12797
0.424923
-1.73152
1.30659
0.211882
-0.0373677
0.984276
-0.0902559
-0.89402
1.64152
0.147992
-1.78952
0.007501
0.0647217
-0.0722227
-0.671657
0.168165
0.503492
0.83434
-0.36606
1.78848
-1.82264
0.0341636
-0.0295145
0.0370155
-0.0784102
0.863279
-0.240843
-1.04418
1.28503
0.0575316
-0.376618
0.319086
1.8182
-0.397216
-1.42099
1.35865
-1.41151
0.0336953
1.78451
0.422295
-0.753497
-0.303375
-0.607612
0.910986
0.377929
-1.18555
0.807621
1.03683
1.18493
-2.22176
0.898997
-0.691392
-0.207604
1.4451
-1.02017
-2.5315
0.481371
2.05013
0.0297867
0.457659
-0.548736
0.622509
-0.0737728
0.407606
-1.23407
0.826463
-1.60417
0.0731533
1.53102
1.03846
0.148487
-1.18695
-0.852897
0.785525
0.0673719
-1.42376
-0.225506
1.64927
0.712782
-0.124082
-0.5887
0.399157
-0.556743
0.157586
-0.152838
-0.809993
0.962831
0.5771
-0.614558
0.0374575
1.49462
0.377698
-1.87232
-0.593103
0.0560191
-0.124616
0.0450924
0.0795232
1.20118
-0.621411
0.0565119
-0.106342
0.04983
1.48676
0.690166
-0.462065
-0.816438
-0.126944
0.00232829
-0.304896
1.85219
0.00933407
-0.55807
-0.0437393
0.100251
0.447542
1.19712
-1.64466
1.07362
-1.70425
0.630631
-0.664194
-0.445503
0.387281
0.0582219
-0.23736
0.299307
-0.0619473
1.23159
-0.893732
-0.337859
-0.489679
0.39513
1.2913
-2.19061
0.899316
-0.156647
0.312267
-0.155621
0.0513918
-0.291596
0.240205
1.16891
-0.342894
1.723
0.655106
-1.15186
0.911012
1.37249
-1.92778
0.555288
0.523169
0.247895
-0.288523
0.531157
-0.760062
0.616245
0.143817
-0.79111
0.096174
-0.574532
0.478358
1.23532
0.503731
1.09754
-1.40558
0.308039
1.59564
0.195388
-1.79103
-2.09638
1.6
0.496378
-0.154951
-0.898421
1.05337
1.83315
-0.597831
0.173184
0.651402
0.247456
-0.199835
-0.0476209
-0.180467
0.114055
0.0664118
1.13975
0.803629
-1.94338
1.19578
-1.15519
-0.0405905
-0.34313
0.210849
0.132281
-0.3157
-0.129803
2.17136
-0.798865
-0.638659
0.680661
-0.0420025
1.25559
-2.21407
0.958485
0.323661
-1.53682
1.14006
0.437034
-1.57709
1.31104
-0.933111
2.01224
-0.264496
-1.74775
1.04965
-2.09716
1.04751
2.30094
-1.44236
-0.858575
-0.2601
0.474569
-0.214468
-0.0256302
2.09561
-2.06998
2.12814
-0.403677
-1.65902
0.060907
1.59811
-0.935352
0.824214
0.111138
2.00432
-0.967485
0.343028
0.555969
-1.26029
1.55221
-0.291925
-1.56205
1.93178
0.0249837
-0.351916
0.326933
0.0921677
-0.122837
0.0306696
-0.0353537
-0.364314
0.399668
2.10753
-0.608176
-1.49935
2.70268
-1.31625
-1.38643
-0.435104
0.39975
0.668033
-1.33245
0.664413
0.18412
-0.0306197
-1.57365
-0.950199
1.37961
-0.429414
-1.34017
0.98018
0.359986
-0.0330831
-0.0397387
0.0728219
1.05667
1.24426
-0.122552
-0.0579151
0.0985036
0.148953
-1.41341
0.153125
-1.46534
1.86249
-0.397154
-1.29665
1.49658
-0.199935
-1.1841
-0.843496
2.0276
-0.731738
0.286643
0.445095
0.910666
-0.946056
0.0353901
1.83715
0.143912
-1.98106
0.0246112
-1.5002
1.47559
-0.706675
1.84673
0.380439
-1.07121
0.690773
-0.865236
2.15653
-1.6479
1.06812
0.579781
0.41508
-0.513259
0.0981785
0.909806
-2.46805
1.55825
-1.91607
0.666344
-1.21023
-0.833349
2.14753
-1.29194
-0.855587
-0.52294
0.581801
0.291725
-0.309163
0.017438
-1.5331
-0.3052
1.8383
-1.69787
2.36959
-0.671712
1.78377
-1.29282
-0.490942
0.17213
-0.502158
0.330028
-0.52323
-0.916864
1.44009
0.551028
-0.481836
-0.920497
0.765546
-1.40963
-0.474502
1.88413
0.207882
0.0542772
-0.262159
0.269301
-1.2195
0.126478
-0.356875
1.72071
-0.125062
-0.307334
0.24391
-0.303388
0.364671
-0.0612822
0.199595
1.90793
-1.53929
1.01606
0.505652
-0.00083959
-0.504813
-1.39559
0.267962
1.12763
0.586433
1.19733
2.5732
-1.6634
1.46595
-2.48035
1.0144
0.382958
-1.6123
1.22935
0.0469534
-0.797277
-0.965767
1.41331
1.30595
-1.89597
0.6759
-1.4685
0.792601
-2.50555
1.43854
1.06701
-0.0357309
-0.817166
0.356648
0.260178
-0.616827
1.42607
-0.436009
-0.990065
-0.162907
-1.45727
1.43164
-0.496855
-0.141804
1.29305
2.18796
-1.74604
-0.44192
-0.0206898
-0.260518
0.281207
1.34198
0.235566
-1.57754
0.458312
-0.168099
-0.290213
-0.334124
1.34429
-1.01017
-0.912706
1.32031
1.11577
-0.73533
-0.127176
0.341069
-0.213893
1.86394
-0.608352
0.204475
-0.0189167
-0.185558
0.25528
-0.149235
-0.106045
-0.241538
0.250828
-0.00928949
2.11889
-1.33589
-0.783004
0.485208
-2.18308
-0.265762
0.0242233
-1.73678
0.574255
1.16253
2.41506
-0.775726
0.501259
-1.9666
2.55756
-1.15408
-1.40348
-0.0301539
0.238036
1.55807
-0.733905
-0.824161
-1.21803
0.287365
0.930662
-1.93681
1.953
-0.0161987
0.578647
-1.74819
1.16954
0.0365631
-0.157368
0.120805
-0.930415
1.25905
-0.328637
-0.315028
0.383584
-0.0685564
-0.283105
0.126459
-0.280888
0.0435282
-1.10189
-0.602363
0.816911
-1.54648
0.729567
0.793017
-0.0842346
-0.708783
0.797177
0.624649
1.32584
-0.649944
0.0316478
0.0605199
1.40169
1.01337
-0.97899
0.0247219
0.954268
0.542739
1.01533
0.749595
0.306331
0.250717
0.5423
-0.555803
-0.0388993
0.594702
-0.120242
0.535322
-1.42192
1.08779
-0.339687
0.336499
0.00318788
-1.79504
1.73612
0.0589177
-0.684694
1.11772
-0.433029
-0.441705
-0.204233
0.645938
1.52401
-1.65617
0.132164
-1.53688
-0.968676
2.57496
-1.63361
-0.941349
-0.203083
0.182393
1.9374
-1.35875
-0.777499
1.59441
-0.307978
-0.382802
0.69078
1.59595
-0.332914
-1.26303
2.41515
-0.680768
-1.73439
-0.76686
0.458882
1.63307
-0.959466
-0.673606
-0.313398
1.55366
-1.24026
1.49212
-2.07149
0.579372
0.678683
-0.295748
-0.382936
0.642874
-0.290999
-0.351875
2.47609
-2.02116
-0.454934
-1.14119
-0.955191
1.44749
0.740472
-1.65238
-0.14266
0.0770533
0.178227
0.163322
-1.33423
1.1709
0.00864789
0.283078
-1.07746
2.21722
0.822217
1.29668
2.33521
-1.41553
-0.919674
-1.84326
1.36876
1.44253
-2.41268
0.970146
-1.24153
-0.0723704
1.3139
-0.446763
-0.353764
0.800527
1.10587
-0.437834
0.0604416
0.445211
0.972794
-0.0454285
-0.948977
-1.39094
1.88582
-0.494887
-0.351919
0.0485311
-0.120905
-0.00627121
0.259237
-2.19604
0.584241
-1.49695
0.237174
-0.427234
0.579163
-0.151929
0.00199609
0.0908175
-1.0105
0.757888
0.252607
0.686975
0.544616
-0.112664
1.02225
-0.909589
0.98976
0.206017
-1.21738
1.3807
1.14371
-0.105254
-0.404188
-0.991406
1.97684
-1.51803
-0.458804
1.79676
-1.5726
0.439902
1.1327
1.57983
-1.7201
0.14027
-0.849012
0.696174
-0.212404
-0.130726
-0.223843
-1.19992
0.553313
-1.0654
0.512092
0.826274
0.806798
1.43184
-2.27726
0.845414
0.437054
-1.05182
0.614764
-1.94182
0.337654
0.0195673
0.693215
-1.13044
1.73696
-0.606512
-0.509057
0.605426
-0.0963694
-0.790259
-0.220425
-0.248256
-0.441083
0.689338
0.177693
0.00224655
-0.17994
-0.653346
-0.282007
0.754739
0.884052
-1.63879
1.44838
-0.905638
0.55492
-0.891494
0.0424819
0.907081
-0.470027
-1.31171
-0.336191
0.269578
-0.53546
0.265882
1.93775
-0.671986
-0.886183
1.46645
-0.580266
-0.225967
0.257594
-0.0316265
1.47512
-0.0490454
-0.288209
-1.04602
-0.983935
1.82099
-0.83706
1.27236
-2.2701
0.997741
1.18346
1.3915
0.55499
-0.588423
0.0334324
0.175783
-1.41731
1.34019
-2.03327
0.693083
0.274479
-0.216948
-0.146147
1.24369
-0.686807
1.27105
-1.20547
1.58842
0.416488
-2.14372
-1.76425
0.95357
0.810676
1.2654
-0.199545
-1.06586
1.8638
-0.33979
-0.863371
-1.05675
-0.946559
0.999319
-0.490053
0.150978
0.339075
0.635005
-0.57039
-1.40322
1.25708
1.74115
0.460731
-1.54494
0.658758
2.16622
-0.718724
0.044173
0.335463
-0.379636
0.0252026
-1.24083
1.21562
-1.80161
0.34041
1.4612
1.5912
-1.5912
-0.42817
1.44066
-1.01249
1.05894
-1.1716
1.38351
-0.809437
-0.574074
-1.84289
1.9246
-0.0817145
0.660553
-0.0897127
-0.57084
0.510035
-0.225613
-0.284422
0.21144
-0.653145
-0.316868
0.891272
-1.66877
-1.6746
1.9664
-0.291802
-0.560396
1.31514
0.303117
-0.0348996
-0.268218
-0.212012
0.285837
-0.0738252
-0.75313
0.800083
2.23894
-1.82574
-0.413195
-0.163394
-1.05011
1.21351
-0.446033
0.490751
-0.0447186
0.234137
-0.545405
0.311268
-2.02802
0.793548
1.23447
-0.0798962
-0.0160567
-0.221664
0.265837
0.0896369
-0.236044
0.146407
1.1204
1.3557
0.189703
0.113414
-0.0977538
-0.581009
0.678763
-0.985366
1.56863
-0.583263
-0.0226938
0.178686
-0.155992
0.852964
-0.405822
1.50719
-0.530422
-0.97677
0.0127008
-0.822694
0.203311
1.63384
0.836235
0.59884
-1.43508
0.919644
-0.819199
-0.100445
-2.03416
0.375145
-0.847698
0.352566
0.495132
0.899244
1.15838
-2.05762
-1.24436
1.17199
0.122115
-1.80758
1.68546
-0.242543
0.414673
0.401834
-0.507671
0.105836
0.0408236
-0.596626
0.0733831
-0.117866
0.0444829
-1.32793
-0.408851
1.22173
0.222014
0.0433047
-0.265318
-0.229723
0.00375576
0.345176
-1.41695
1.07177
0.456068
1.07471
-1.53078
0.731995
-1.40993
1.72614
-0.316208
-1.41781
1.10441
0.407926
0.223366
-0.784866
-0.5553
-0.499706
0.134917
0.364789
-1.70319
0.717827
1.3373
-1.50069
0.88338
1.28284
-0.58004
0.590148
-0.0101077
0.796071
-1.92183
1.12576
0.272123
-0.516226
0.244103
1.01835
-1.30656
-1.26379
-0.0328561
-0.613316
-0.0583414
0.00874519
0.17751
-0.186256
0.702061
-0.060489
-0.0694147
0.129904
1.92847
-1.02923
-0.404044
1.02534
-0.621291
0.519093
0.342874
-0.861968
-0.726663
0.484119
-0.412498
-0.0872078
0.811745
0.571766
-0.443888
-1.48389
0.625295
-0.355718
1.22923
0.808016
0.335696
-1.78158
1.94522
0.218019
-0.927748
0.70973
-0.176423
-1.65123
1.82765
-0.237623
0.21892
0.018703
-0.0262963
-0.705442
-0.655825
2.14794
2.1392
-1.08956
-0.861639
-0.148856
0.0302419
-0.813141
0.782899
0.811413
-1.99551
-0.244015
-0.944684
1.1887
-0.0117643
-0.136103
0.147867
-1.30367
0.107329
1.19634
1.89692
-1.35151
-0.0460115
0.161224
-0.115213
-0.41731
-0.0287225
0.339395
0.710993
-1.05039
0.229665
-0.287383
0.0577179
1.28544
0.729557
-2.015
-0.773063
2.26768
0.175661
0.00203222
-0.52735
-1.10789
1.63524
0.727477
1.44388
1.84841
-1.39234
-0.680801
0.432545
0.257896
0.384979
-0.890367
2.3329
0.279174
-1.53591
1.25674
1.82496
-0.283433
-1.54152
-0.948488
1.42227
-0.473783
0.793946
-0.798098
-0.901932
1.70003
0.128924
-0.170549
0.0416249
-0.573625
-0.96924
1.54286
0.0505849
-0.262597
0.0480585
-0.0811416
1.00986
-1.58349
-1.41138
-0.410364
1.82174
-0.130758
-0.943102
1.07386
0.53736
2.49761
-2.54504
0.0474246
0.41775
-0.300404
-0.117347
0.0167104
-0.596751
0.511778
0.451053
-0.615938
0.169174
-1.6016
2.02725
-0.425647
-0.115947
-0.22374
0.608712
0.702328
-1.70632
-0.494996
-0.239048
0.455161
-0.216113
1.06963
-0.26161
-0.396482
0.438118
-0.0416361
-0.0141338
-0.300894
-2.31827
1.10804
1.84818
0.363959
-0.258651
0.492788
-0.383015
0.902109
1.63543
-0.744154
-0.41096
0.0144774
-0.193221
-1.21
0.431125
0.437659
-0.412675
-1.83423
0.0326193
0.171887
0.406357
-0.134234
-1.93509
1.28281
0.652274
1.51573
0.272747
0.356749
-0.109953
-0.246796
0.533601
-0.502537
-0.0310641
-1.68347
0.606095
-2.02819
1.04425
-0.248908
0.370782
-0.121874
-0.0864316
0.181619
-0.0951874
2.12945
0.00230578
-2.13176
0.324593
0.0180837
-0.342677
-0.263231
-0.496831
0.430277
-0.0311199
0.513777
-0.532886
0.019109
0.750019
-0.116764
-0.633255
-0.0524423
0.566219
1.66951
-1.29181
-0.0593041
-0.270995
0.330299
-2.04777
0.446168
-0.111424
-0.169958
0.043014
-0.166612
0.388625
-0.00181991
0.0334677
0.478701
0.301453
-0.780154
0.857884
0.126392
0.870423
-0.652404
0.410907
-0.359515
0.122673
-0.631729
1.24099
-0.0527623
-1.18823
1.06687
-0.0648527
-1.00202
-1.35734
-0.739823
-0.0814292
-0.359402
0.440831
0.802914
-0.883973
0.0810587
2.18782
-0.0632405
-2.12458
-0.387471
-0.31918
0.706651
-0.969775
1.28356
-0.313785
1.07079
1.28648
-2.35727
-0.383921
-0.0510239
-0.516444
0.840499
-0.324055
0.410348
0.18984
-0.600188
-2.11322
1.09654
1.01668
-0.485297
-0.0475895
-1.68597
0.274596
0.575893
-0.362814
-0.213079
0.967851
-1.22534
0.257488
-0.147333
-0.370338
0.376713
2.1209
1.63941
-0.267735
-1.37167
-1.68516
0.275231
0.667936
-1.07212
1.39483
-2.20622
0.811393
-0.18346
0.540109
-0.038113
-0.782964
0.68521
-0.309339
0.405513
-0.25913
-1.55319
1.81232
0.804199
1.1332
-1.47348
1.55378
-0.0803011
-0.0854061
0.0941512
-1.22922
-0.515223
-0.223448
0.248779
-0.0253317
0.538274
-0.587484
0.0492101
0.0741937
-0.0523677
-0.021826
-0.141987
1.10984
-1.59041
-0.182978
1.77339
-1.49493
-0.482827
1.97776
0.944489
-0.691916
-0.252574
-0.381741
0.0425603
0.339181
-0.602421
-0.138521
0.740942
-1.97814
0.0949017
1.88324
0.0563896
0.353644
-0.410033
1.58897
-1.78865
0.199685
-1.02888
1.58041
0.0078569
-1.58827
0.0181968
-0.241644
-0.32194
-0.951345
1.27328
1.21896
-2.08419
-1.89272
1.64534
0.247378
0.271586
-0.0419209
1.33848
-0.729768
-0.0937229
-0.497909
0.591632
-0.0176208
0.287853
-0.270233
-0.454278
1.85231
-1.39803
1.54692
-0.71627
-0.830651
2.03581
-1.94957
-0.0862381
1.5753
-0.623492
-0.951808
0.091184
-0.43185
0.340666
-0.55636
-0.0181716
-1.89542
1.66566
0.229754
0.109286
-2.0047
-0.657118
1.08813
-0.431017
-1.16728
-0.853875
0.352379
-0.316383
-0.0359965
-1.59841
-0.44936
-0.337746
0.218941
0.118804
0.377474
0.0808384
-1.83394
1.75484
0.0791011
-0.398025
-0.428939
0.0523213
0.348031
-0.023438
-1.19718
0.266764
0.234083
-0.29781
0.063727
-1.25614
0.672115
0.584021
0.691648
-0.0310956
-0.498506
1.30322
0.171897
0.705017
0.110689
0.477033
-0.587722
-0.179832
1.0905
-1.18647
0.767784
0.418685
-0.492285
0.00698832
1.9008
-1.0966
1.64231
-0.846236
-0.483001
-0.322634
0.805635
0.782601
-1.63713
0.854529
1.08227
-1.21303
1.94963
-0.857877
-1.09175
-0.00875755
-1.00319
-0.183279
-1.76953
1.8609
-0.0913702
0.254034
-0.604392
2.07034
-2.10742
0.509013
0.528427
0.150257
-0.188168
-0.282787
0.258475
-0.00764741
-0.978931
-1.01971
2.39235
-1.0337
0.299187
0.359067
-0.658254
0.135687
0.374349
-1.31051
-0.750441
2.06095
0.421326
0.68454
-0.00252678
-0.263212
0.265739
1.64014
-0.338871
-0.139674
0.478545
1.22062
0.0203746
-0.708706
-2.0045
0.329895
-0.41383
0.0193564
0.394473
1.11876
1.43879
0.685632
-0.169636
-0.515996
1.95198
0.0838305
1.17369
-1.6602
0.486508
-1.64283
-0.0309736
1.67381
-1.54027
1.99576
-0.45549
0.252336
-0.00595403
-0.246382
-0.845619
2.06458
-0.465673
0.432523
0.0331501
0.0682457
-1.54173
0.302929
-0.0754002
-0.227529
-1.89749
2.46241
-0.56492
-0.472564
1.0464
-0.573835
2.32065
-1.01985
-1.3008
-0.0198993
-1.18045
1.20035
-0.46827
-0.039401
-1.01938
2.09017
0.971616
-1.39979
2.22471
-0.952351
-0.345007
0.285703
-1.72561
0.0827755
2.41022
-0.978377
-0.0632848
-2.46822
0.448028
-0.051728
0.600306
1.01254
-1.61285
1.08922
-0.23925
-0.849972
1.54467
-1.92312
0.378447
-0.29054
0.0203551
0.270185
-0.380499
-0.937344
1.31784
0.68369
-0.561017
-0.800733
0.302666
0.498067
0.252064
0.578201
-0.830265
0.154612
0.197767
-1.73452
2.05067
-0.316157
-0.145288
-0.0923349
0.884164
0.388089
-1.27225
1.11437
0.881038
-1.9954
0.297911
0.967492
-0.0272493
2.03949
-0.000913934
1.56669
-1.56578
-0.0205018
-0.00219208
0.148195
0.102145
-0.25034
1.64092
-1.59009
-0.0508274
0.890927
1.0587
-0.127468
0.101066
0.0264019
-0.572969
1.60597
-1.033
0.0366564
0.27709
-0.313746
0.890696
-1.55021
0.659519
-1.09669
-1.02427
2.12096
1.65876
-0.316783
0.600357
0.488865
-0.86535
-0.225337
1.09069
0.561024
-1.61114
-0.582794
0.153883
0.428911
0.356441
-0.160298
-0.196144
-0.0776116
-0.390658
-0.156499
1.47974
-1.32324
-0.276378
2.15403
1.53304
-1.22815
-0.304891
1.23558
-1.08709
-1.04514
0.317068
0.728077
0.15452
-0.963957
-0.195654
0.199103
-0.00344874
0.103676
0.253073
0.289415
1.45932
-1.74873
0.395302
0.354718
0.256068
-1.751
-0.842124
0.352742
0.489382
-0.61612
-0.465042
1.08116
0.915052
-0.436351
-1.67242
1.11203
0.588499
-0.466497
-0.122002
-0.903255
1.58474
-0.681484
-0.852976
0.865677
-0.829221
1.0852
-0.255977
-1.12701
1.70865
-0.58164
-0.0431007
0.397006
-0.353905
-0.168636
0.0822048
-0.577804
-1.1768
1.7868
-0.610001
-1.06664
1.33461
1.00139
-1.00479
0.00340066
0.302629
-0.392567
0.0899374
-2.45041
1.69703
0.753385
-0.077149
0.400697
-0.323548
0.0162275
1.34247
-1.79675
1.53403
-0.751429
-0.726768
-1.03748
-1.39846
1.39754
0.992568
-0.0123879
0.766838
0.263527
-1.03037
-0.620375
0.570673
0.0497016
0.44011
-0.418485
-0.0216247
-0.0133767
-0.735495
0.748871
-0.377417
0.991053
-0.613636
-1.49692
-0.486394
1.98331
0.306537
-0.00390828
1.41213
0.228785
-1.56546
1.18859
0.376865
0.716545
-0.768565
0.0520202
0.00876703
0.319197
-0.421616
0.102419
-1.30054
-0.887039
0.873663
0.249809
0.370139
-0.278955
0.572719
-0.0344452
0.136424
-1.03484
0.0567461
0.520354
-0.117967
0.24321
-0.125243
-1.19133
-0.916289
2.10762
-0.128844
-0.736506
-1.00634
-0.19174
1.19808
0.255212
0.335547
-0.590758
0.00145613
2.22197
-1.43094
-0.791029
0.338284
1.30112
0.161843
0.727444
-0.807227
0.0797832
-0.765034
1.81875
-1.05372
-1.11651
-0.490578
1.60709
-0.865589
0.349144
-0.822871
-0.222274
2.01894
-0.889089
-1.12986
0.153828
-0.433724
0.279896
0.772867
0.088708
-0.861575
-0.301044
0.357434
0.695054
-0.782517
0.0874631
0.63231
-0.048477
-0.386627
-0.0170709
1.14505
0.87389
-0.800426
1.58742
-0.7429
2.00219
-0.139653
0.293481
-1.68584
0.569335
1.40755
-1.23176
-0.183133
-1.21045
0.24068
0.392045
-1.04916
1.4284
-1.4032
1.62147
-0.0416387
-0.367797
-0.188947
-0.567587
-0.143329
0.710917
-0.553371
-0.0611869
1.45934
0.281489
-1.74083
0.0608468
-0.485743
0.424896
0.0237436
0.551586
-1.61573
1.06414
1.72414
-0.135169
-1.8282
1.93906
-0.110856
0.41404
-0.245875
-2.15027
-0.300139
-0.66131
1.72175
-0.0560859
0.732172
2.22541
-0.812037
-1.41338
-1.24225
-0.084378
1.32663
0.352707
1.02055
-1.37326
-1.36496
0.0612889
-0.32488
-0.293013
0.617893
-0.924336
1.20351
0.254885
1.02724
-1.28213
-0.817082
0.862247
-0.0451653
-1.88187
0.207248
1.67462
0.565241
0.96879
-0.428618
1.08295
0.492345
-0.59374
-0.253957
1.50432
-1.76882
-0.573345
-0.689586
1.26293
-0.105423
-0.278497
1.3313
0.095681
-1.42698
1.29193
-2.03483
0.0552932
-0.0187301
-1.09266
1.24069
-0.148029
-1.23918
0.917237
-0.026296
0.51082
-0.484524
-0.617155
0.0699267
0.547228
0.590514
-0.61681
-0.477526
1.14546
0.117493
-0.366401
-0.276035
0.294231
0.374801
-0.5429
-0.0699733
-0.0873947
-0.359476
0.344766
0.0147106
0.367077
-0.418885
0.0518085
-1.374
0.976783
0.257995
-1.26434
-0.0172746
-0.505665
0.0548429
1.07286
-1.1277
0.599034
-0.637933
0.350494
-1.57822
1.22773
-0.56979
1.35195
-0.782159
0.405615
-1.79655
-0.0394163
-0.0490014
-1.84372
1.01
1.38235
-1.4777
-0.194721
-1.1603
-0.412299
-0.767474
0.326392
0.589997
-0.0023206
-0.587677
2.30306
-1.1843
1.7659
-0.425714
-0.446351
-0.273697
0.720048
-2.2085
0.926463
1.28204
-0.486803
-0.0462226
0.0387221
1.54169
0.287216
-0.175159
-0.91003
0.0780026
-0.543676
0.34658
-0.358632
0.012052
-0.241022
1.70036
0.361886
0.112784
-0.47467
1.45825
-2.5495
1.15307
1.39643
0.453709
0.365009
-0.818718
1.20131
-0.547608
-0.653698
-0.981179
0.508615
-1.01075
0.032427
0.74044
1.76763
-1.94406
0.748781
-0.338433
-0.782671
1.34369
-1.8752
1.34363
0.531568
0.965383
-1.62627
0.660889
-1.37845
1.44562
-0.067172
0.836409
-1.01624
0.024244
0.465127
0.479363
0.182634
-1.36818
0.494062
-1.8314
0.930583
0.900818
0.459459
-1.70171
1.44193
-0.0912132
-1.12681
0.238248
0.346234
2.01584
-0.668323
-1.34752
-0.677417
0.493852
-1.10997
0.27074
-1.88675
1.80237
-1.49876
0.700664
0.938156
-1.52215
0.713621
0.80853
-1.66143
1.11282
0.548618
-0.487111
-0.142288
0.130524
-1.92161
1.34532
0.576287
1.20394
-2.04956
-1.70856
-0.0259586
2.19302
-0.798185
0.604533
0.174258
-0.778791
-0.0425713
-0.269035
0.311606
-0.41602
0.947565
1.05008
-0.847785
-0.674366
0.336894
0.346796
0.450313
0.653618
-1.10393
0.679994
-0.419816
-0.0759926
-2.12545
2.20144
-0.624054
0.82567
-1.53235
-1.23908
-0.828932
2.06801
0.460005
-0.584087
-1.28117
0.38973
0.891443
-0.00490818
0.023714
-0.0188058
1.61965
-1.87879
-0.109652
-0.983012
0.869383
0.751443
-1.62083
-0.155427
0.454613
-1.55055
0.431692
1.11886
-2.04393
0.947247
1.07453
-1.83957
0.914213
-1.48756
-0.00136647
-0.0035417
-0.0576631
1.88262
-1.16957
1.44638
-0.276807
1.85195
-0.000548663
-1.8514
-1.35595
-0.0206426
-0.406591
0.100729
1.49047
0.200351
0.0572431
0.659408
-0.069909
1.12885
0.960076
0.0819171
0.358193
-1.72733
-0.106609
-1.56993
0.646562
-1.38047
0.302556
0.354364
-0.65692
1.59939
0.0921911
-1.69158
-0.188877
0.182923
-0.63309
-1.3951
-1.49846
-0.221646
-0.784021
2.07596
-0.636007
0.84994
-0.213933
-1.73882
0.547487
-0.510121
0.960434
-0.692098
-1.24299
-0.711537
-0.611707
0.647097
-0.889674
-0.366461
1.98503
-0.263275
1.16961
-0.547002
-0.622604
0.187934
0.153135
0.454114
1.96025
-1.83813
0.0223967
-0.40772
0.565306
-0.945079
0.969801
-0.829367
-0.952793
0.39
0.314041
-0.704041
-1.64037
0.0491698
-0.21567
1.44544
-1.22977
-0.13978
-1.68842
-1.34494
1.58051
2.58455
-1.13177
-1.45278
-0.272206
0.624772
1.55705
-0.845254
-0.711794
0.467744
-0.516221
0.138706
0.00948931
-0.399751
0.105401
0.294351
-0.242322
1.00916
-0.86828
2.07222
-0.0733038
-0.243079
-0.50697
-0.13225
0.639219
-0.0313749
1.65103
0.0783478
0.693428
-0.771776
-0.711116
1.05051
0.819227
0.786745
-0.631725
-0.210399
0.943229
-0.341301
-0.601928
-0.156059
0.142536
0.0135229
0.25496
-1.52845
1.27349
-1.74928
0.250828
0.392433
-0.758912
1.40547
-0.0137931
0.481537
0.201838
-0.837845
-1.92456
0.978002
-1.95979
0.643539
-0.820287
0.0671572
-0.799427
-1.06651
1.86594
-1.78909
0.0372396
0.612042
-0.649282
1.87511
-1.39374
1.48566
-1.13295
0.297287
0.991277
-1.28856
0.409095
-0.733975
-1.35332
-0.328478
1.6818
-0.0994114
0.417304
-0.317893
-0.832888
1.86541
-1.03253
1.52876
-0.952864
-0.575895
1.51307
0.0440054
-1.55707
-1.05644
-1.49307
-0.600656
-0.0126595
0.665744
1.16741
-0.0328599
0.150798
-0.117938
-1.25281
-0.297742
1.37177
1.14758
-0.992545
1.17663
-0.184085
-0.491925
0.352251
0.0756684
0.726565
-0.802233
0.4181
-0.0562138
-0.212097
-1.70951
-1.55934
0.563488
0.0250108
-0.292917
0.419395
0.13022
1.39411
-1.52433
-0.949434
-0.247745
0.9988
0.449577
0.127996
-0.443697
-0.14562
0.207365
-0.0617449
0.186631
-0.670477
0.483846
0.591896
0.525826
0.280358
1.52581
-0.699534
1.68144
-0.855772
-0.179094
-0.459629
0.638723
1.41297
0.140694
0.0648393
-1.23444
0.853937
1.02261
-1.05399
-0.994302
-1.02266
2.01696
-1.20203
-1.00646
-2.06056
2.15778
-0.0972229
0.0981476
-0.714045
0.570716
1.03298
0.492827
-0.0894127
-0.291265
0.380678
-0.600613
-1.22203
-0.158612
-1.41285
1.57147
0.863642
-0.442316
-0.260604
-0.322191
1.08886
-1.72195
0.891623
-0.672475
-0.433964
2.12853
-1.69456
1.06791
0.951902
0.533625
-1.48553
2.08842
-1.23585
-0.852572
-0.807468
-1.3146
2.19103
-0.876429
0.550366
0.619241
-0.50489
0.491097
0.798524
1.52212
-0.376941
0.33437
0.0557354
-0.116224
1.80472
-1.00109
0.844426
1.45864
-0.732758
0.374131
0.358627
0.419654
-0.902655
1.42664
-0.0953372
0.978496
-0.373963
-1.28891
-0.213651
1.50256
0.326881
-0.0683205
-0.258561
0.23465
0.183101
0.259125
-1.79939
-0.495492
0.536315
1.31173
-1.14124
-0.170491
0.280095
0.663133
-0.247365
0.137412
0.429453
0.430241
-0.859694
-0.926128
1.9433
0.51295
-1.07986
2.21724
-1.13738
-0.547132
0.799196
-0.835998
0.0189165
2.06098
-1.01738
-0.635
0.595706
0.605599
0.527076
-0.544351
-0.301456
0.258355
-0.529507
-0.23179
0.00206654
1.11493
-0.265351
1.52202
-1.25667
0.248772
-0.159136
-0.645618
0.14771
-0.577625
-0.023031
-1.71024
1.18289
0.412466
0.428033
-0.0558932
-0.438543
0.494436
0.537076
0.0854336
1.57435
0.830789
-2.40514
-0.147563
-0.0457095
0.193272
0.696713
-1.10076
1.70044
0.884112
1.46214
-1.33192
-2.20496
0.237825
-0.0173534
-0.277565
0.867327
1.83534
-0.0638623
-1.77147
0.649537
-0.0505029
-0.0670615
-0.584968
-0.147789
-0.938986
-0.88031
1.03483
0.601755
0.423581
1.05824
-1.08467
0.0264238
0.331967
0.0127991
-0.106768
0.433211
-0.0661339
1.40266
0.376124
-1.77878
0.290643
0.055937
-0.387756
0.231699
0.156057
-0.600001
0.00403434
0.595967
0.609726
1.05538
-1.66511
0.410635
0.504417
1.29042
-0.0347684
-0.45491
1.17314
-1.24305
-0.0970712
0.135741
-0.03867
-1.84278
1.00943
1.5569
-1.24754
-0.30936
0.0275632
-0.242205
0.214641
1.58527
-1.74177
1.02925
-0.165607
0.618875
0.866785
-0.199668
-0.0321219
-0.776418
0.228945
0.547473
-1.09368
-0.207794
1.99689
-1.01986
-0.977029
1.07362
-0.143968
-0.929656
0.724325
-1.25272
0.528398
-0.0151745
0.926097
-0.0190163
-0.504999
1.26107
-0.756071
-0.486546
-0.289872
-0.566659
-0.303847
0.41663
1.61753
0.00371046
-1.62125
-0.584832
-0.22879
0.110823
0.101423
-0.000356344
1.0122
0.228497
-0.267075
0.341269
-0.0463413
0.16192
-0.257936
0.26727
-0.703363
1.00065
0.0272628
0.410396
0.00535714
-0.582183
1.37936
-0.0899315
1.14817
-0.278781
-0.180422
-0.423176
0.852629
-0.361216
1.64597
-1.28475
-1.48785
-0.198118
-1.01878
1.64185
-0.623066
-0.473146
0.169299
0.534523
-0.111669
-0.0381002
-0.407372
0.445472
-1.51584
0.498465
0.160036
-0.206047
0.905889
-2.2164
0.639177
-1.74706
-0.489666
1.60703
-0.771026
0.881589
-0.451348
0.0242888
-1.17279
1.42775
-0.00152527
-0.258992
0.281139
-0.973054
-0.166611
-1.09813
1.26474
0.254835
0.76869
2.3512
-1.54529
-0.805919
-0.377475
0.12127
0.38324
0.0393494
-0.422589
-1.43138
0.261805
0.295819
0.0606228
-0.0156179
-0.20303
0.218648
0.72502
-1.7438
0.152281
0.799378
0.0427064
-0.842084
-1.81924
1.45802
0.250397
0.0633108
-0.313708
0.58292
-1.75972
-0.223203
-0.0103129
0.233515
0.323117
-0.0727196
-0.0117356
1.27708
-0.979166
1.07411
0.856658
-0.446023
-1.74742
0.50834
-1.20699
0.956951
0.250039
0.981312
-1.97561
-0.86601
-0.53006
1.39607
0.155998
0.668216
-0.510395
0.420682
2.04982
-0.287458
-1.76236
-0.0200168
-1.70731
1.38273
0.130338
0.730581
0.826467
-0.250591
-0.0126204
0.242655
-0.498202
-0.567202
0.17341
-0.167836
-0.00557437
0.0353635
-1.67284
1.63748
-0.0715824
0.47898
-0.407398
0.6446
-1.65703
1.01243
-0.200758
-0.954428
-0.0636667
0.103995
1.19188
-0.578497
-0.332388
0.910885
-0.601846
-0.726086
0.753121
-0.43908
0.470366
-0.497965
0.0275991
-0.587455
0.531562
-1.51194
-0.243335
-0.0291453
0.27248
0.192987
0.544759
-0.737746
0.714145
-0.910698
0.196553
0.0166468
-0.954741
0.303458
-2.20095
-0.819742
-1.25909
2.07883
-1.69628
0.0806407
1.61564
-2.30909
-1.40535
0.0269019
-0.462081
0.479255
-0.0171738
-2.07596
-0.634559
2.03722
0.633713
-0.33226
0.13546
-0.558636
-0.290586
0.795003
0.241093
0.139461
-0.64643
0.0289892
-0.234608
0.205619
-0.409698
0.149597
-0.155797
0.18336
-0.440511
0.894221
-1.75621
1.11718
0.639024
-0.555071
0.615512
1.06644
0.320764
0.00611705
-0.438377
0.348964
-0.843221
-0.437952
-0.923246
0.333201
0.590045
0.226597
0.25947
-0.486067
-0.670137
0.856768
-0.123271
1.2509
1.31059
-1.23224
0.978004
-1.57985
0.75192
-1.03602
0.284102
0.152591
0.00863378
-0.57155
-0.0168727
-1.85991
1.06048
0.188358
0.885266
0.0254526
-0.335415
0.309962
-2.66397
1.10192
-0.252458
0.103223
-0.31794
-0.0365377
-0.357677
0.394215
-0.944675
0.366178
-1.85881
1.64671
1.7788
-0.909417
-0.341456
0.305455
0.0360009
0.110056
0.345105
-0.238821
-1.9012
0.67318
1.22802
-0.221468
0.175759
-0.145124
0.513389
-0.368266
0.662588
0.366661
0.298588
-0.327409
0.0288208
-0.435737
0.462999
0.128041
0.146438
1.01019
-1.45992
1.83167
0.120315
-1.07682
-0.157246
1.68183
-0.0524056
-1.62942
-0.178875
0.215112
-0.0362368
0.984355
-1.96329
0.262878
0.582567
-0.845445
0.0728886
-0.0921493
0.0192607
-1.30431
1.27579
0.0285201
-0.783594
1.13409
1.34611
0.200814
1.66741
-0.576731
-1.09068
-0.00794933
-0.126024
0.133973
-0.58427
-0.522701
-0.0336594
-0.508594
-0.014107
0.0229587
-0.551762
0.528804
-0.146169
1.66375
-1.51758
-1.54664
0.603752
0.94289
0.476864
1.65259
0.0828974
0.0184494
-0.101347
0.976787
0.415894
-1.39268
0.159773
0.430224
-0.709805
1.77419
-1.06439
-1.50769
0.218777
1.18027
0.478988
-1.345
-0.00193977
-0.177572
0.179512
1.83111
-0.461357
-1.36975
0.663825
0.358906
-2.07585
1.05615
1.94264
-2.01863
-0.891567
0.228639
0.662928
-0.185189
-0.220525
0.575197
-0.354672
-0.273554
0.267127
0.00642671
-0.0154256
0.187277
-0.171851
-0.0346481
0.000175845
0.0344722
-0.968388
2.05724
-0.485378
0.51562
0.175182
-0.320306
0.624357
-0.923142
0.298785
-1.0849
-0.790295
-0.751796
0.149375
0.558245
0.00127487
-0.55952
1.92698
-0.31787
-1.60911
0.203148
1.10859
-0.392943
-0.227431
-0.948684
0.135543
0.881517
0.775502
-1.65702
0.00858931
-0.0414905
0.0329012
-0.0410416
0.574643
-0.0163663
0.716712