/*--------------------------------*- C++ -*----------------------------------*\
| =========                 |                                                 |
| \\      /  F ield         | OpenFOAM: The Open Source CFD Toolbox           |
|  \\    /   O peration     | Version:  2306                                  |
|   \\  /    A nd           | Website:  www.openfoam.com                      |
|    \\/     M anipulation  |                                                 |
\*---------------------------------------------------------------------------*/
FoamFile
{
    version     2.0;
    format      ascii;
    arch        "LSB;label=32;scalar=64";
    class       volVectorField;
    location    "2.8";
    object      U;
}
// * * * * * * * * * * * * * * * * * * * * * * * * * * * * * * * * * * * * * //

dimensions      [0 1 -1 0 0 0 0];

internalField   nonuniform List<vector> 
13486
(
(2.72354 -0.329048 2.35457e-18)
(3.27777 0.628993 1.10864e-18)
(4.91918 0.0822173 0)
(0.73147 -0.538994 -4.28897e-19)
(4.47928 -1.07065 7.90115e-19)
(4.86656 0.279651 1.20799e-19)
(4.92863 -0.945357 1.76506e-20)
(3.78881 -1.40671 -1.28738e-18)
(3.73237 -0.730159 0)
(4.04861 1.55321 0)
(-2.93859 1.79949 -9.37047e-18)
(5.06506 -0.157474 0)
(2.45376 -0.748129 -2.35532e-18)
(4.96113 1.50687 1.87709e-19)
(4.71452 -0.78563 4.13688e-19)
(3.94504 1.54541 -6.16172e-19)
(0.930081 -0.847469 3.36187e-18)
(2.4509 -0.850174 7.50312e-20)
(4.5838 -0.0424561 1.04969e-20)
(3.12557 -0.0247649 -2.386e-18)
(1.06943 -1.08277 -1.62049e-19)
(2.49621 -0.779227 3.06343e-18)
(3.32748 0.615572 -8.82433e-19)
(5.80255 -2.06062 0)
(4.13903 1.2646 1.98751e-19)
(5.66717 -1.92338 -7.57138e-19)
(-3.90523 3.24438 4.83166e-18)
(5.19547 -0.273516 1.84155e-18)
(4.04809 0.0906625 0)
(4.72006 -0.778064 -1.08735e-18)
(1.43131 -1.33728 -1.08374e-19)
(4.91885 -0.574639 -4.99243e-19)
(6.14022 -0.524964 1.75268e-18)
(4.24206 -0.204551 0)
(3.81522 -1.34996 0)
(3.72037 0.0124807 -1.00715e-22)
(3.75936 0.299887 -2.14818e-20)
(2.99447 -1.39843 1.21223e-18)
(3.35858 -0.0388527 -4.62536e-20)
(3.80073 -0.426202 1.1997e-18)
(4.62263 -1.64276 0)
(1.9306 -0.938546 -2.72921e-18)
(4.12418 -0.00231461 0)
(4.14761 1.05693 -9.4941e-19)
(4.20156 1.03209 3.93606e-19)
(5.06063 -0.164901 3.08228e-19)
(-0.0642004 4.394 5.33621e-18)
(4.03218 0.0903996 -1.97906e-21)
(3.75806 0.277601 1.66614e-20)
(5.34206 -0.022319 8.9351e-19)
(3.98438 0.0627856 1.30522e-18)
(3.51239 -0.00883005 0)
(5.15409 -0.367721 -4.1571e-19)
(3.14242 -1.14299 -1.76627e-18)
(2.5382 -0.993118 0)
(4.41093 -1.08217 -5.31028e-19)
(4.19509 0.408747 -3.03486e-20)
(3.52305 -0.0174552 -1.94694e-19)
(6.06177 -0.520873 2.01146e-18)
(3.74287 0.477815 0)
(-2.76953 -0.0563902 -1.05746e-17)
(3.76352 0.481549 0)
(7.12046 0.992429 -1.83618e-18)
(1.15411 -1.10019 -1.73816e-21)
(3.18767 -2.82981 0)
(3.76002 0.331392 -9.00205e-21)
(0.415551 -0.492534 -5.06629e-19)
(2.7846 0.16383 7.96735e-19)
(3.73228 -0.789993 -7.03568e-19)
(3.68867 0.0316708 3.16645e-20)
(0.396079 -0.371138 5.82353e-19)
(2.51572 -0.939774 -2.61988e-22)
(3.87626 -0.201192 8.83613e-19)
(-3.36035 -0.983162 -3.07054e-18)
(3.80888 0.380662 -6.71488e-22)
(4.22179 0.397301 7.68982e-21)
(3.82398 0.356572 -2.49629e-21)
(4.71608 -0.827298 -1.69578e-19)
(0.0847788 5.37526 -3.68606e-18)
(3.41679 -0.776332 0)
(3.98096 0.0258424 4.80625e-22)
(3.17746 0.852479 -6.91223e-20)
(7.54064 1.08615 2.61673e-19)
(5.11915 0.156177 -2.26339e-20)
(2.70239 -0.341164 -4.63143e-18)
(2.57509 3.60707 0)
(3.03643 -0.962765 -2.40326e-19)
(4.009 0.111642 -1.94652e-18)
(3.7287 0.48902 -8.74057e-19)
(3.77026 2.11897 -6.50884e-19)
(5.03941 -0.534761 -2.57668e-19)
(4.05888 -1.22071 -6.73212e-19)
(2.83389 -0.533983 6.13688e-19)
(3.21765 0.202855 6.20943e-20)
(3.5303 -1.10637 2.8492e-19)
(4.00462 0.0701212 6.81851e-22)
(-4.7498 3.37558 0)
(-0.18336 -0.876686 4.159e-19)
(3.8388 -0.425482 -2.29207e-18)
(0.958456 -0.556449 2.30217e-21)
(4.02501 0.0305874 0)
(4.9065 1.49186 5.68134e-20)
(-0.24356 -0.968354 5.5334e-20)
(3.52933 -0.0118405 2.27772e-19)
(2.66979 3.48291 0)
(-0.0399495 1.30338 -3.74599e-20)
(3.88791 0.127949 3.96452e-21)
(3.32862 -0.102175 -1.08174e-19)
(-0.0467376 5.48323 4.19265e-18)
(3.67707 -1.67691 0)
(2.83786 -1.35448 0)
(4.94175 -0.725608 -4.5258e-19)
(3.16747 -1.0993 1.20753e-20)
(4.24715 0.239146 2.66995e-21)
(2.05215 0.0357446 0)
(2.70256 -1.33769 -1.07319e-18)
(4.11992 1.2965 0)
(4.40863 -0.189086 0)
(3.84478 -0.188677 0)
(3.78244 0.212934 -8.87472e-21)
(2.51805 -0.820556 -2.2383e-20)
(-3.06403 0.458041 0)
(3.47183 -0.979333 0)
(3.34022 -0.0604575 1.4903e-19)
(3.61417 -1.29762 0)
(3.52307 0.0108553 0)
(4.2786 -0.533659 2.63591e-20)
(4.36278 0.171404 2.91776e-19)
(3.98645 -0.0730551 -1.6348e-19)
(3.36787 -2.33245 -3.8536e-19)
(3.49969 0.0214035 -2.21624e-20)
(-0.324489 4.03924 -1.29269e-18)
(2.00619 0.376411 5.78342e-18)
(-1.42129 0.496057 3.55372e-18)
(3.99898 0.0392754 -2.13927e-19)
(3.80054 0.894047 -9.68967e-19)
(1.0785 1.60584 -6.43189e-19)
(3.70032 -1.65351 0)
(3.80765 0.207653 2.09369e-21)
(3.86669 -1.12316 -4.53833e-19)
(5.81162 -0.10734 -1.8175e-18)
(5.12585 -0.404206 3.51162e-19)
(4.95127 -0.444563 0)
(3.41742 -0.742298 0)
(4.28632 0.0165855 1.12874e-20)
(9.42442 0.0416007 -5.11062e-18)
(4.97791 -0.340681 1.04662e-19)
(0.573564 3.96734 0)
(5.39463 -0.0485911 0)
(4.04314 0.0793972 0)
(4.05335 0.036125 1.81347e-20)
(4.6993 -0.956073 0)
(4.00718 0.0138829 -5.05999e-22)
(3.11673 0.822135 -5.91668e-19)
(4.40391 0.64917 0)
(5.01687 0.128113 0)
(3.39047 -1.57786 0)
(0.528907 -0.421894 -1.28666e-20)
(3.32656 -1.33448 2.53169e-18)
(4.03827 1.30692 -1.04288e-19)
(5.24065 0.00856361 5.46209e-19)
(3.34772 -1.2822 -3.8657e-18)
(4.92442 -0.637853 9.82388e-20)
(1.7826 -0.842007 1.20484e-18)
(3.53236 -0.0177259 0)
(5.19387 1.46657 -4.05525e-19)
(4.79146 1.3739 -1.70418e-19)
(0.764067 -0.120887 -2.84429e-18)
(4.97315 -0.32455 -3.01534e-19)
(-1.29764 0.504287 9.43806e-19)
(0.485392 -0.1953 1.83442e-20)
(4.38552 0.58876 2.66373e-19)
(3.9973 0.184134 -1.52861e-18)
(4.57967 -0.459389 3.89055e-20)
(3.96381 0.0359524 -2.935e-22)
(-0.908108 -3.83102 0)
(4.96349 2.15271 4.97228e-19)
(6.10594 -0.138392 2.49751e-18)
(3.91861 0.111047 -2.18582e-18)
(4.95515 -0.404614 0)
(3.90288 -0.53877 2.42674e-18)
(4.20908 0.214526 5.8573e-21)
(4.72789 -0.44342 -1.91987e-20)
(-4.82758 2.19691 0)
(5.25173 0.169834 2.83815e-20)
(4.97277 -0.257681 -8.37335e-19)
(4.08821 0.0844746 9.89731e-23)
(4.67493 -0.502248 -3.34332e-19)
(4.61701 -1.58378 0)
(2.51533 -1.2149 -1.3502e-18)
(3.78468 0.253082 0)
(4.57679 0.0783577 0)
(3.49743 -0.0951678 0)
(2.59662 1.77104 -1.2053e-18)
(3.54619 -0.170447 0)
(-3.46662 2.89845 -2.39803e-18)
(3.22474 -2.51964 9.03852e-19)
(5.28752 -0.00131707 3.19151e-19)
(2.44952 -1.20686 -5.19573e-19)
(5.14318 1.3811 -2.00639e-19)
(1.38974 -1.44041 1.19916e-19)
(4.37463 0.201189 -8.3053e-21)
(2.88291 -1.39042 -1.40865e-18)
(3.63705 -1.58137 2.51817e-19)
(4.02547 1.19844 1.27664e-19)
(3.57633 -0.159073 -1.7993e-19)
(2.23872 -0.963194 1.12576e-20)
(3.73051 -0.0736177 1.80156e-18)
(3.48346 -0.0921988 0)
(5.21452 0.188939 0)
(5.06897 -0.294781 1.19674e-18)
(4.75594 -2.26959 1.08183e-18)
(3.1717 0.0131803 2.17555e-18)
(3.86248 0.122408 2.72765e-21)
(4.87541 0.386875 -1.39107e-19)
(3.79606 -1.04295 1.12599e-19)
(4.82729 -0.709902 0)
(3.77222 2.05393 1.71008e-18)
(2.99962 -0.567959 0)
(6.36304 1.23652 0)
(1.13709 -0.927958 -6.446e-18)
(5.47416 0.000701561 0)
(3.82806 -1.11902 1.05262e-18)
(5.23619 0.0295695 0)
(5.30964 -0.425924 -5.08303e-20)
(2.52852 -1.1725 8.48889e-19)
(5.18225 0.656191 -2.96398e-20)
(0.948013 -2.28954 1.40068e-19)
(3.76257 -0.690333 1.34665e-20)
(2.95658 -0.915832 4.07795e-21)
(3.92191 -0.542211 -7.80053e-19)
(2.6995 -0.663493 1.72412e-19)
(5.86838 -0.235975 2.27672e-18)
(1.93244 -0.927894 9.33029e-19)
(0.379515 -1.38308 0)
(2.33994 -1.13461 1.00809e-19)
(4.48427 -0.383902 5.56207e-19)
(4.58132 0.0560698 -1.82859e-20)
(2.17145 -1.04373 2.68381e-18)
(4.71561 -0.285018 0)
(6.14342 -0.674834 0)
(4.02668 0.143917 2.31524e-18)
(4.27298 0.166098 0)
(2.11959 -1.05656 9.17957e-19)
(3.14611 -0.0275196 -1.02069e-19)
(3.55898 0.18591 0)
(4.83207 -0.0626065 -1.61565e-19)
(5.17387 -1.3949 2.1545e-18)
(-0.251289 -1.01998 5.9747e-18)
(4.05976 0.999218 0)
(-2.41851 -0.705499 -4.6387e-19)
(1.97374 0.102061 3.36521e-19)
(2.41026 -1.18655 1.34492e-18)
(3.32889 -0.123456 0)
(3.59308 -0.645829 1.30197e-19)
(-1.29294 -4.01705 5.44464e-19)
(4.9156 -0.575233 3.95371e-19)
(3.7431 -1.06552 -1.42775e-19)
(0.312147 -0.401623 1.35458e-20)
(6.08215 -0.619807 1.36268e-18)
(3.52135 0.509341 0)
(3.15952 0.0195482 3.14364e-21)
(4.73023 -0.812483 -9.782e-19)
(-1.06676 -3.53133 -6.9078e-19)
(4.24942 -1.43226 -8.53158e-19)
(-4.88034 2.17251 0)
(3.78131 -0.678922 -2.9777e-19)
(1.23193 -1.39059 -1.73206e-19)
(4.10617 0.014474 -1.02607e-18)
(2.8852 -0.718413 0)
(3.00893 2.01289 8.34722e-19)
(3.95466 0.135794 -5.87227e-19)
(4.84414 -0.741117 0)
(5.13579 -0.230635 2.33387e-19)
(2.5063 -1.19495 1.13383e-18)
(5.05194 -1.31402 -1.20511e-18)
(3.60402 -0.594071 0)
(2.75139 -1.41457 0)
(3.32193 -0.204824 -1.20244e-19)
(5.02271 -0.258645 -1.62331e-19)
(2.78487 -1.50187 2.5754e-19)
(4.15017 -0.387066 -8.82447e-19)
(3.85292 0.198385 1.28792e-18)
(7.81081 -2.57425 -2.6248e-18)
(-4.32897 1.04644 1.10913e-17)
(-2.38063 3.57211 6.88545e-18)
(5.81167 -0.0519353 1.91192e-18)
(3.95582 -0.128893 2.13946e-19)
(5.49993 -0.430842 5.81805e-20)
(4.06285 0.0109908 0)
(0.530456 -1.30204 0)
(3.3173 0.569643 4.76397e-20)
(2.76821 -1.33784 1.04768e-18)
(3.99647 0.0526598 -2.1089e-19)
(4.45567 -0.367113 5.17501e-19)
(4.56923 -0.449176 0)
(4.74823 -0.0604685 -7.36755e-19)
(5.1805 -0.171943 -1.63891e-19)
(3.81036 0.160895 -1.18635e-18)
(4.87355 -1.17362 3.18361e-19)
(3.88935 -0.549991 -1.28155e-19)
(2.29285 -0.959171 9.82721e-21)
(5.07448 -0.210577 1.41072e-19)
(4.87448 -0.588215 4.7191e-19)
(3.73913 0.22154 7.0394e-21)
(3.0934 -1.44062 0)
(0.377637 -0.195184 0)
(4.50595 -0.105204 3.39381e-19)
(3.02909 -0.84652 1.97835e-19)
(3.78631 0.27407 0)
(4.30725 2.95774 -6.06416e-18)
(0.674123 -0.440307 0)
(4.77062 2.11962 -1.09201e-19)
(4.99764 -0.72211 -4.53178e-19)
(6.1451 -2.23784 0)
(3.791 0.840789 -6.01022e-19)
(3.3261 0.642355 -6.76656e-20)
(3.7133 0.435276 -7.53635e-20)
(3.74033 -0.0546482 -1.97307e-18)
(3.88807 -0.697891 0)
(3.77127 0.31231 1.57705e-20)
(3.31142 0.38968 -1.70388e-21)
(3.95197 0.107166 2.74961e-19)
(3.14086 0.334164 -1.15507e-18)
(1.4204 1.50088 1.19613e-18)
(5.05763 -0.552208 4.73046e-19)
(4.34126 -0.774538 -2.49715e-18)
(4.1796 -0.382279 0)
(5.30846 -0.057435 1.31202e-20)
(4.41008 -0.792444 -4.50023e-19)
(3.99867 0.0615399 2.82615e-18)
(4.12287 -1.2173 0)
(5.00274 -0.547487 -9.93018e-20)
(2.81807 0.851858 0)
(4.90799 -0.958397 -7.45346e-19)
(3.66412 -1.03958 -7.83097e-19)
(1.47121 -0.673048 1.09627e-18)
(4.65337 -0.986075 -6.81612e-19)
(4.04549 0.404334 0)
(3.10428 0.0530823 -1.52141e-19)
(3.83943 -0.708113 3.19993e-19)
(3.20065 0.337041 1.08915e-18)
(4.44487 -0.814646 1.77859e-18)
(4.72283 -0.45609 7.86801e-19)
(-5.22893 1.22019 -4.44629e-18)
(4.02571 0.080938 8.01731e-23)
(4.3781 -0.427068 0)
(1.9376 -0.603591 2.6936e-18)
(6.34011 1.15523 0)
(3.24257 0.544405 4.5804e-21)
(4.44799 -0.231922 1.4228e-18)
(5.25653 -0.144523 -1.22888e-19)
(5.16321 -0.224803 1.63317e-19)
(-5.12844 3.41847 -5.8684e-18)
(3.83526 0.157405 1.48296e-18)
(3.95798 0.0213342 0)
(-1.99217 -0.123535 -3.06742e-18)
(4.30805 -0.550175 -5.16688e-19)
(2.89957 -0.758999 -1.08032e-19)
(4.72323 -2.04444 9.78027e-19)
(5.20676 -0.0395534 0)
(5.20623 -0.524476 2.94606e-19)
(3.53281 0.348912 2.29541e-18)
(3.89998 0.155509 1.78841e-18)
(4.74835 -0.813247 0)
(4.00628 -0.000112064 -1.44983e-21)
(4.55594 -0.423986 -5.22426e-19)
(-0.602453 2.55089 8.32784e-19)
(3.11002 -0.0379857 3.02585e-19)
(4.31815 -0.486324 4.89628e-19)
(4.20392 -0.00500157 -6.49619e-21)
(4.36119 -0.400664 0)
(5.33363 -0.418369 -1.26749e-19)
(-2.94724 -0.820906 6.91564e-19)
(4.88744 0.753852 2.13316e-19)
(3.98847 0.0608874 1.10164e-18)
(2.99974 0.0269126 0)
(3.14482 0.331403 -1.42622e-19)
(7.4028 -2.64939 0)
(7.07537 2.07503 -1.45693e-18)
(4.10537 -0.0173037 0)
(4.0769 -1.37919 -2.47061e-20)
(2.56558 -0.104347 -6.47283e-19)
(3.05753 1.80766 2.00681e-18)
(-0.203101 2.44218 -2.41364e-18)
(3.65923 -0.587712 0)
(4.62332 0.14222 -7.1694e-20)
(4.05992 0.435278 -5.85951e-19)
(2.39853 -0.453663 -2.20124e-18)
(1.53745 -1.09719 1.32184e-20)
(3.24394 -0.0337964 -3.28484e-18)
(4.98897 -0.652368 5.71235e-19)
(4.17246 0.40933 3.83734e-19)
(2.83275 -0.832446 0)
(2.6987 0.690163 1.23038e-18)
(3.83305 0.207591 -1.19168e-21)
(0.57593 -0.474404 2.51985e-19)
(-2.9273 -0.339279 -2.17019e-18)
(2.14303 -0.356608 -4.23119e-18)
(5.85499 -0.0354662 0)
(2.79053 -0.457699 0)
(4.1576 2.39661 0)
(4.10344 -0.152122 0)
(1.2031 -0.448816 -8.73768e-20)
(4.88227 -0.901255 0)
(3.19576 -0.683428 0)
(3.27601 0.251916 4.46337e-19)
(6.05869 -0.0853645 -2.60983e-18)
(4.32347 -0.380235 -1.18336e-18)
(3.37939 0.700919 3.7076e-18)
(4.01768 0.0585114 -3.01015e-19)
(4.93074 3.44132 0)
(5.1785 -0.553789 0)
(3.81564 0.171732 1.26874e-18)
(3.95157 0.0415124 2.19657e-19)
(2.55757 1.96279 0)
(-4.5426 1.86629 3.83576e-18)
(4.21909 -1.45134 9.65223e-19)
(-0.756836 -1.69732 0)
(4.69806 -0.289864 7.70463e-19)
(3.91794 0.124065 -1.4675e-18)
(1.57346 -0.401034 -1.33464e-19)
(1.92211 -0.577941 0)
(4.03125 0.431897 1.12416e-18)
(5.19269 0.332057 0)
(4.64068 -0.480177 0)
(4.43407 0.421612 -3.78003e-20)
(3.80872 0.193035 6.75572e-19)
(-4.0104 3.04699 -6.36813e-18)
(4.6973 1.36044 1.88539e-20)
(2.60654 -0.596264 -1.16345e-18)
(4.09009 -0.124561 1.51449e-19)
(4.19948 0.406507 2.95214e-19)
(5.5694 -0.423339 2.57973e-19)
(4.39072 -1.43335 0)
(5.39878 -1.21314 1.17014e-18)
(2.58482 0.00325389 0)
(3.24895 0.480322 5.50191e-20)
(4.5329 -0.476336 0)
(2.8357 0.180121 1.66877e-18)
(-0.339797 1.47215 -5.79415e-18)
(4.94308 -0.629272 0)
(-0.359019 1.06823 1.67859e-19)
(5.18291 -0.617085 -1.3325e-18)
(1.87245 -0.948736 -8.28011e-19)
(3.44643 -0.459578 3.15924e-18)
(2.79053 1.7902 -1.30137e-18)
(2.58654 -0.589355 -3.29219e-18)
(7.4237 2.08457 0)
(3.76669 0.22495 9.5639e-21)
(-5.0089 0.948149 -1.14465e-17)
(4.03053 0.472755 0)
(3.67617 0.507945 8.15977e-20)
(5.27904 -0.0834138 -1.87627e-19)
(5.6016 2.25606 0)
(4.00947 0.0255333 0)
(-2.15506 0.542709 0)
(-0.690033 -3.86121 1.93836e-18)
(7.76292 -3.17481 3.26414e-18)
(8.1101 -0.405935 4.17188e-19)
(4.69017 2.04866 0)
(3.35295 -0.26589 2.14745e-18)
(3.98374 0.0421376 -1.23808e-21)
(4.69196 1.2572 1.71905e-20)
(1.06508 -0.904732 3.07503e-19)
(3.82264 0.343186 0)
(4.0311 0.0821118 0)
(1.37892 -0.0909863 -1.81082e-18)
(2.77768 -0.804684 -8.1093e-19)
(3.80522 -0.3031 0)
(2.92637 -1.41496 -1.05097e-18)
(4.11948 0.0199735 2.21551e-21)
(4.01093 0.0669707 -1.1602e-21)
(1.6284 -0.736045 0)
(3.72449 -0.0761686 2.0631e-19)
(3.80026 0.202701 4.08655e-21)
(5.19422 0.291788 6.06029e-19)
(3.62983 -1.07754 0)
(-2.86748 4.22785 -1.0857e-17)
(5.18728 -0.174205 1.78508e-19)
(4.01012 0.211967 2.43304e-19)
(3.87336 0.0467461 3.92234e-21)
(5.3254 1.40699 0)
(3.32347 0.705186 -9.88672e-19)
(6.23287 0.786109 -1.03515e-18)
(1.44539 -0.521848 9.17584e-19)
(4.02167 0.126209 0)
(1.47568 -1.14942 -1.33959e-20)
(0.832626 -0.0273773 0)
(4.04105 0.116229 -9.25438e-19)
(3.97519 0.15694 4.3314e-19)
(3.70382 0.126003 -2.49043e-19)
(-1.27031 -3.58579 0)
(4.91817 0.0720641 -5.85191e-20)
(2.14647 1.02827 3.38802e-18)
(4.33344 -1.42336 0)
(3.17961 0.223596 1.4201e-18)
(4.81235 -1.18836 -3.59897e-19)
(4.41418 0.023444 0)
(1.14705 -1.48983 9.55308e-20)
(3.40615 -0.709834 -2.51062e-19)
(4.20941 0.00355514 0)
(-1.03506 3.32762 6.32211e-18)
(3.6524 0.479029 0)
(3.40727 -1.5573 1.04131e-18)
(-2.43895 -1.0705 1.20541e-18)
(4.07904 0.0900227 1.67812e-23)
(4.91202 0.323405 -3.23921e-19)
(2.67176 0.683954 6.55247e-19)
(3.44885 -0.519696 -1.17309e-18)
(3.65197 -0.535577 -1.35675e-19)
(3.44105 -1.54897 9.79258e-21)
(4.27106 -0.483 4.74917e-19)
(5.31184 1.41615 8.33497e-19)
(3.78807 -1.70691 0)
(3.98827 0.0510288 -9.76739e-19)
(0.076334 -1.24592 -3.02856e-18)
(2.63329 0.00250957 0)
(3.87889 0.266032 1.74445e-21)
(3.60301 0.0331137 0)
(2.36219 -0.623281 2.84859e-18)
(3.99467 -1.50871 0)
(3.91562 0.0019731 -2.98151e-21)
(4.47401 -0.22809 -8.04576e-19)
(1.14129 -1.71813 1.86601e-19)
(-1.57652 0.215727 1.22201e-18)
(5.01872 -0.0781302 -6.70897e-21)
(2.99114 -1.43588 9.59744e-19)
(3.44529 -0.970705 1.12426e-18)
(2.83335 -0.550856 0)
(-5.34272 2.52612 -3.29909e-18)
(4.44132 -1.32585 -2.04783e-19)
(-5.64382 2.98993 -4.19612e-18)
(4.01571 0.078998 -1.84132e-22)
(2.79367 -1.06123 0)
(4.46295 0.00846252 -3.86051e-21)
(-4.63236 1.95922 0)
(-0.380316 -1.14997 5.57591e-20)
(1.90103 -0.509803 1.75634e-19)
(-0.219247 -0.0818798 0)
(3.98588 -1.06406 3.37154e-19)
(3.12195 -2.66971 0)
(5.64345 1.98559 0)
(3.13064 -1.48176 -1.37534e-18)
(2.88636 0.76152 9.9289e-19)
(3.24652 -0.869619 0)
(3.59724 0.408698 -6.26671e-19)
(8.37434 0.196407 5.65456e-18)
(-3.41403 -0.62475 3.98679e-18)
(5.64337 2.86581 0)
(4.2857 -0.0356048 0)
(-5.08213 1.26119 -5.52186e-18)
(3.68052 -0.174401 0)
(5.17982 0.127338 0)
(-2.20042 -0.849505 -4.87177e-19)
(3.99782 -0.769327 -1.59933e-18)
(3.38431 -0.775106 9.76066e-19)
(6.04899 -0.797755 1.92288e-19)
(-5.3734 2.57704 7.15262e-18)
(3.97574 0.132288 4.95871e-19)
(2.90359 -0.617453 0)
(4.38618 0.977513 -1.31996e-19)
(2.69527 -0.278142 0)
(4.84482 0.0666721 0)
(3.98983 0.233603 0)
(4.42878 0.38501 -3.13833e-20)
(3.67023 -0.0561481 9.20018e-19)
(4.24364 0.124116 -1.77247e-20)
(2.98743 -0.627896 0)
(-4.41903 2.9861 -4.49929e-18)
(4.18309 2.31752 1.41005e-19)
(3.60478 -1.32541 1.1001e-19)
(3.99552 -0.164397 -3.42084e-19)
(4.97885 -1.28508 1.89404e-18)
(4.11997 0.0800844 -8.39397e-19)
(-0.10773 1.07363 0)
(5.16079 -0.19109 0)
(2.91013 1.79881 0)
(2.39918 -1.04975 -2.08284e-18)
(2.03604 -2.09184 -2.7955e-19)
(-0.0637188 -0.301772 0)
(4.44299 0.992064 0)
(5.24748 -0.460444 2.53035e-19)
(3.93679 -0.06615 -2.40403e-19)
(3.82039 1.2961 9.52437e-19)
(3.60592 -1.56951 0)
(-5.37307 3.61833 -2.37347e-18)
(4.68899 0.159122 -4.94727e-20)
(2.71338 -0.729553 -1.95046e-18)
(4.46352 0.136132 -1.35304e-19)
(4.66504 1.25964 1.36755e-19)
(5.02854 -3.63918 1.21775e-18)
(2.36301 -1.05306 3.61583e-18)
(3.66711 -1.51792 5.28496e-19)
(4.20835 0.209947 6.66453e-21)
(3.98812 0.0247778 -2.48269e-19)
(2.69399 -1.25872 -3.32264e-19)
(3.41396 -0.673871 1.10988e-19)
(3.26575 4.44098 1.53448e-19)
(2.92384 -1.40546 5.32041e-19)
(5.30683 -0.00374354 0)
(3.78289 -1.10499 6.43788e-20)
(4.36135 -0.0308754 -7.01586e-19)
(5.98155 1.38011 5.92595e-19)
(2.65898 -0.65908 -1.77309e-18)
(3.58067 -1.27207 -1.18893e-18)
(3.99892 -0.0047546 2.27944e-18)
(4.98405 -0.103052 -1.2897e-18)
(3.13873 -0.572107 -1.28623e-20)
(5.8305 0.00752131 -9.89173e-19)
(2.22255 -0.199676 -3.85547e-18)
(4.35432 -0.00074922 -5.33974e-19)
(2.18068 -0.317714 0)
(1.02152 -2.10976 -5.82889e-19)
(4.049 0.0410979 2.14609e-18)
(3.50361 -0.0105294 -2.38703e-21)
(-3.35836 -1.30813 0)
(3.34603 -1.55885 0)
(4.07513 0.89654 8.11736e-19)
(1.93683 -0.162307 2.38659e-18)
(3.01504 -3.86526 -1.45698e-18)
(4.12128 -1.3846 -5.99479e-19)
(4.37299 -0.80701 1.35839e-18)
(6.48252 1.12867 0)
(4.11439 0.994248 4.22933e-19)
(2.33628 -0.876634 -1.09212e-20)
(5.0596 2.21588 6.16817e-19)
(3.86727 -0.478966 -1.3863e-18)
(-5.24382 2.50946 -1.13181e-17)
(4.90283 -1.21409 -1.82867e-18)
(5.44033 -1.31953 6.5878e-19)
(4.62755 2.53939 0)
(4.10799 -0.676926 -2.3101e-19)
(3.74198 0.110673 2.29741e-19)
(3.97809 0.0219922 9.99198e-22)
(1.79514 -0.860927 3.28319e-18)
(3.81144 -0.479578 2.06589e-18)
(3.86264 1.12037 4.92893e-20)
(-3.41497 -0.251841 -2.21252e-18)
(4.59346 -0.290785 -6.0444e-19)
(4.40118 -0.0215432 4.75155e-19)
(-4.10874 0.808202 -1.39772e-18)
(4.88063 2.08376 -6.05277e-19)
(-0.705137 2.23338 -6.82733e-18)
(2.23369 -1.0853 -1.1164e-18)
(3.99677 0.018371 0)
(4.23769 0.363487 -3.13383e-20)
(-2.66401 -2.63325 -2.95256e-18)
(2.55139 -0.16825 3.51064e-18)
(4.12108 0.0813227 0)
(4.23338 -0.530871 9.61623e-20)
(2.26265 -0.894809 8.11603e-19)
(3.99434 0.105525 -2.1234e-18)
(-4.12253 1.08172 -3.05447e-18)
(3.25809 -0.850286 -6.65147e-20)
(4.32931 -0.401109 8.00847e-19)
(4.58587 0.140067 8.29728e-20)
(3.45243 -1.57692 -1.45423e-18)
(4.29468 0.17297 2.5045e-20)
(2.0267 -2.4078 -9.04509e-19)
(4.26184 -0.0173709 6.58183e-19)
(4.08005 -0.108206 -6.53617e-19)
(4.30856 0.209357 -2.61481e-20)
(4.44067 -0.0725736 -1.43862e-18)
(2.17892 -0.926615 -1.5703e-18)
(4.27839 0.205384 0)
(-0.370303 -3.01223 8.35122e-19)
(4.20325 0.0874311 1.61809e-19)
(1.27126 -0.176085 -2.04283e-19)
(4.94371 0.0665997 -2.48009e-19)
(4.26928 -0.834247 -8.31709e-19)
(4.00161 0.046463 -1.6095e-18)
(4.20236 0.695239 2.27595e-19)
(-4.26102 1.58412 -3.97251e-18)
(5.15785 0.126929 0)
(3.18947 0.269099 7.1643e-20)
(5.27338 -0.135149 1.25605e-19)
(2.81755 -1.03137 0)
(4.27294 0.181858 3.64907e-19)
(5.30706 -0.0421182 1.07004e-19)
(5.1156 0.14624 1.22469e-23)
(4.79237 -1.65044 -1.15565e-19)
(3.60483 -0.171762 0)
(3.55666 0.784393 1.76207e-18)
(4.07547 0.869745 3.39005e-23)
(2.88305 -1.39346 1.16419e-18)
(3.97014 -0.321187 0)
(2.90514 0.688718 -2.87533e-18)
(2.56129 -0.728093 -3.65211e-20)
(5.15917 3.10221 -1.3743e-18)
(2.24412 -0.244094 3.7221e-18)
(4.23192 0.0407417 1.63101e-20)
(-1.98406 0.395271 1.16583e-18)
(3.80853 -0.165352 -1.43785e-18)
(5.49929 -1.0225 -1.69145e-18)
(3.5124 0.342671 -1.33237e-18)
(4.14834 -0.017661 0)
(3.98826 0.0654578 -9.40045e-19)
(-0.0492079 -0.263092 4.07209e-19)
(-2.03554 0.165648 0)
(5.19839 -2.19383 0)
(3.98478 0.0287667 0)
(1.06463 -0.609179 0)
(4.12226 0.686439 0)
(2.09371 -0.166412 0)
(3.91421 -1.06275 -1.54516e-20)
(8.04165 -0.938073 -2.7607e-18)
(5.2342 0.720587 0)
(3.50591 0.749263 2.68181e-18)
(2.93355 -0.799987 -6.85851e-20)
(4.16205 0.440482 2.59575e-20)
(-2.61587 -2.28382 -1.89014e-18)
(2.12924 0.29123 -1.2551e-20)
(-4.18064 1.66244 2.89232e-18)
(4.11023 -0.0121252 -5.26748e-19)
(5.35427 -0.0835097 1.24962e-19)
(4.05785 0.653773 -5.62656e-19)
(3.74415 0.415274 -1.7472e-18)
(4.04518 2.17659 -5.1667e-19)
(7.1997 2.12531 0)
(1.3025 -1.06839 4.43497e-20)
(2.40737 -0.658674 -3.13067e-18)
(4.01541 0.0177245 -2.87662e-18)
(4.46682 -1.35705 -1.15703e-18)
(4.24391 -0.0436562 2.25129e-19)
(5.17618 -1.40715 1.21731e-19)
(4.15234 -0.615398 -1.80779e-19)
(4.01109 -1.04767 -1.16164e-18)
(4.06761 0.393913 6.12837e-19)
(4.16359 2.86819 0)
(3.64137 -0.47424 -1.25881e-19)
(3.33884 0.196208 -4.0787e-19)
(4.92728 -0.847329 0)
(3.37127 -0.166264 0)
(3.58321 -1.63837 -1.27685e-20)
(-1.61867 0.0884144 1.10991e-18)
(3.85132 -1.0935 -5.75043e-19)
(3.54394 0.0633987 0)
(3.74784 -0.0897694 -1.8814e-18)
(3.58458 0.504861 -3.42154e-19)
(0.0869262 -2.40704 4.0449e-19)
(5.26989 0.107595 4.7417e-20)
(-3.78967 1.38578 0)
(1.22429 -1.06524 5.85779e-20)
(5.30494 0.0280986 0)
(4.04519 -0.704765 2.44962e-19)
(5.05409 -0.517828 -2.41213e-19)
(4.029 0.0446845 -2.28627e-21)
(4.83956 1.39729 3.08352e-19)
(5.57297 2.61199 -1.5111e-19)
(3.35743 -0.906143 2.34257e-18)
(1.77703 -1.1187 0)
(3.02703 -2.17617 -7.17418e-19)
(2.96834 -1.04528 0)
(5.35402 0.681423 -2.70077e-19)
(-0.0207156 -2.2415 6.23055e-19)
(5.03996 -2.18914 1.32749e-18)
(3.19199 0.169434 -7.81705e-20)
(-1.02977 -4.25933 -4.55913e-18)
(2.56013 -1.25498 -1.34898e-18)
(2.49633 -0.67693 -1.79568e-18)
(3.83459 0.214912 4.50411e-22)
(3.15413 -2.10231 5.91136e-19)
(2.23443 -0.951583 1.29436e-18)
(2.61167 -0.739245 1.99419e-18)
(2.03837 -1.97639 3.28474e-19)
(3.48191 -2.41619 -4.42208e-19)
(3.56387 -1.11508 1.17958e-18)
(-0.945045 1.1827 3.59826e-18)
(4.36243 0.0392879 1.54081e-20)
(2.96465 -0.806746 7.21403e-20)
(4.71166 0.856247 -3.70406e-20)
(4.35071 -1.11274 0)
(1.13113 -0.49788 -8.2333e-18)
(4.19243 -0.0243558 -8.67086e-19)
(3.9918 0.255727 0)
(5.29719 0.619194 0)
(2.79055 -1.64351 -3.37608e-19)
(6.06153 -1.34461 -1.94192e-18)
(4.87903 0.430211 4.50992e-19)
(3.9887 -0.753514 2.09208e-18)
(4.00922 2.05013 4.99308e-19)
(3.16039 -0.00921204 1.4628e-18)
(-0.391581 -2.50588 -8.18963e-20)
(3.56959 1.41178 0)
(2.66824 -0.801814 1.92609e-18)
(-0.117621 4.78288 1.86098e-18)
(-1.30183 -3.5098 3.36509e-18)
(3.33315 -1.25739 3.87404e-19)
(3.24863 -1.48766 -2.95596e-19)
(3.99475 -0.000126174 7.37911e-19)
(3.3197 -0.0171443 4.87163e-20)
(4.65187 -0.746018 1.15175e-18)
(-0.667992 -2.47078 -5.96797e-19)
(4.82658 0.423918 -3.20542e-19)
(3.85419 0.129165 7.40157e-19)
(2.17824 -0.31287 -1.53721e-18)
(3.69291 -0.131647 1.1752e-18)
(3.10507 -0.575854 0)
(4.90366 0.789363 -3.37386e-19)
(3.92637 0.102858 1.65136e-19)
(2.79361 -0.47802 -6.07674e-19)
(3.75784 3.90187 3.60322e-19)
(3.50634 -1.08206 8.72597e-19)
(4.12305 0.0422327 3.20092e-19)
(2.69149 0.352876 -2.27016e-18)
(4.90512 -0.865621 0)
(3.26143 0.216468 -1.23047e-19)
(4.50787 0.179687 1.85351e-19)
(3.99186 -0.178838 0)
(2.73663 0.137287 1.29937e-18)
(5.27468 0.110224 0)
(3.66105 3.85845 -1.50515e-19)
(4.80894 -0.0429159 0)
(3.63035 -0.520131 0)
(5.08434 -0.0891489 1.5862e-19)
(4.80099 0.338058 -1.72181e-19)
(5.94889 0.254266 -1.70912e-18)
(3.82841 0.3228 -7.93963e-19)
(3.15786 2.61664 -4.72491e-19)
(4.00507 0.230451 -2.94388e-19)
(4.16931 0.696469 0)
(4.6429 3.26025 -5.21747e-19)
(5.00956 0.290573 4.33672e-19)
(3.99444 -0.679821 -5.04222e-19)
(4.35017 -1.10915 0)
(6.0583 1.33764 8.94984e-19)
(4.50923 3.51556 9.23553e-20)
(4.34185 0.0134103 6.39866e-20)
(2.9622 -5.71123 0)
(-1.8515 -1.39577 8.17982e-18)
(4.09889 0.356326 0)
(4.71967 -0.657486 -5.76496e-19)
(0.0723089 -0.863291 0)
(5.87791 2.00117 0)
(3.60228 -1.62955 0)
(3.91239 -1.50092 0)
(-3.73189 3.51753 -1.39769e-18)
(-0.238253 -3.97186 -3.81039e-19)
(3.64581 -0.0403045 -1.38584e-18)
(1.00917 -1.77207 -2.43582e-19)
(2.39698 -1.00348 0)
(1.18098 -2.3547 -2.45912e-19)
(-0.510181 -1.0861 -5.83004e-18)
(3.04959 -1.42665 0)
(2.83288 -0.957196 -2.04845e-18)
(3.83695 0.389575 5.73529e-22)
(4.68837 0.837177 4.53841e-20)
(4.66028 -1.63159 3.12056e-19)
(3.7146 0.405774 0)
(4.25262 -1.3835 0)
(6.78597 0.660552 8.07204e-19)
(3.39865 -0.593985 2.91285e-20)
(3.74403 0.233727 -1.17765e-20)
(2.78889 -1.61386 6.50138e-22)
(3.99741 0.016841 6.94443e-20)
(4.22824 0.350063 7.45325e-22)
(4.05614 0.398232 8.89043e-19)
(3.25402 0.372231 5.83324e-20)
(3.65795 -0.993425 0)
(-4.36661 3.81873 0)
(4.2875 0.163775 0)
(3.78725 0.00474684 0)
(3.38928 -0.55136 8.63766e-19)
(5.55514 -0.0947834 0)
(-2.94707 1.68646 1.83597e-17)
(4.5494 -3.6864 -1.96239e-19)
(2.54202 -0.762676 -3.01709e-18)
(2.88078 -0.718418 1.62891e-20)
(-0.102979 -3.23114 -4.84252e-19)
(-0.868936 2.44536 -9.84935e-18)
(4.01138 0.0824359 2.54613e-19)
(-1.25896 -2.72565 -9.12027e-19)
(3.30304 0.458036 7.26954e-20)
(5.08096 -0.0565269 0)
(4.58922 -0.796619 0)
(3.25975 -0.709196 0)
(4.25212 -0.852765 4.39959e-19)
(3.39061 -2.60839 0)
(3.68321 1.36385 0)
(4 0.0232512 0)
(3.42863 -0.793965 9.03444e-19)
(4.17761 0.414145 -7.73098e-19)
(3.60322 0.0349686 0)
(4.02952 -1.07109 -5.63964e-19)
(3.9514 0.412423 -9.02337e-19)
(5.08277 1.95509 -1.27913e-18)
(3.08887 -1.43639 1.22791e-18)
(3.80381 1.47223 -2.90381e-21)
(3.41094 -0.810637 -2.04602e-20)
(3.3025 -0.167042 1.19017e-19)
(3.68301 -0.667148 -2.56935e-19)
(4.77089 0.346533 2.53561e-19)
(3.77093 0.210848 -1.78289e-20)
(3.59244 0.202275 -1.2957e-18)
(4.23491 -0.0230652 0)
(1.80533 -0.311925 1.55194e-19)
(3.89333 0.145359 1.32321e-18)
(2.46631 -0.900652 -2.81614e-20)
(4.13051 -0.57299 -5.25949e-19)
(2.00419 -0.218062 -2.60927e-18)
(4.80374 0.29841 -4.70802e-20)
(6.28431 0.766502 1.48205e-18)
(4.00302 0.187818 0)
(3.69166 -0.907526 9.29998e-20)
(3.49424 0.0887443 -3.77863e-20)
(3.71101 -0.691229 4.94192e-19)
(1.02578 -0.966737 -3.51548e-19)
(3.98452 0.0331986 7.01453e-19)
(4.30443 0.205624 -6.76252e-21)
(4.18106 0.0185411 -1.04064e-20)
(4.2421 0.122142 0)
(2.71535 -0.563501 0)
(2.84271 -1.36018 1.48863e-18)
(-3.89183 1.12094 3.32805e-18)
(4.00836 0.00780027 1.32132e-21)
(3.89114 0.151799 2.66046e-18)
(3.23981 -0.762512 -2.49248e-19)
(2.84243 0.639253 0)
(3.52826 0.259343 0)
(3.07233 -0.590629 -1.08957e-20)
(4.96487 -0.0167418 2.59131e-19)
(3.9318 1.39476 1.22884e-18)
(4.92455 -0.388974 0)
(4.46116 0.0532086 0)
(4.04869 -1.17674 1.61412e-18)
(3.9371 -0.273568 1.10549e-18)
(0.219881 -0.0931065 -5.29041e-20)
(3.80898 -0.0775028 0)
(5.26152 1.59739 7.42821e-19)
(4.32658 -1.37052 -2.37909e-19)
(-3.02683 -1.72298 -3.8128e-18)
(3.94993 -0.0358326 -1.49526e-18)
(7.74363 -0.485325 0)
(6.2595 -1.25902 1.54384e-18)
(4.18975 -5.66987 -3.82567e-18)
(0.0610086 0.0124251 0)
(3.80863 0.0345431 -1.17829e-20)
(3.80452 0.254596 -8.64073e-19)
(3.99455 0.0160294 7.16098e-24)
(5.19923 -0.57256 1.3451e-19)
(2.85025 2.67478 1.84905e-18)
(4.13489 0.0351178 0)
(1.96949 -0.649811 -1.69542e-20)
(3.56716 -0.772186 2.01155e-19)
(6.66523 -3.12169 -1.09332e-17)
(4.09886 0.642976 6.69598e-19)
(1.82554 -1.07544 4.45893e-20)
(4.05848 0.0336186 -3.26527e-18)
(3.85089 1.23142 -2.84014e-20)
(3.20029 -0.0599375 1.122e-19)
(3.36693 -0.704727 0)
(3.58365 0.0157766 -2.11557e-19)
(2.17011 -0.980151 1.03087e-18)
(4.40303 -0.230933 -1.55396e-18)
(3.94559 0.107896 -1.19258e-18)
(4.66915 -0.618683 5.30205e-19)
(3.26696 -0.257679 3.16161e-18)
(4.33467 0.0199498 -1.82677e-20)
(3.50435 0.2629 7.60332e-19)
(3.88616 0.267419 7.91306e-21)
(6.09174 -0.847329 -2.21595e-18)
(4.95071 2.20732 -8.66868e-19)
(3.12179 -4.09698 1.1145e-18)
(3.90183 -0.0386445 0)
(3.26565 -0.768513 0)
(2.0177 -0.578725 0)
(2.54947 -0.697092 2.31207e-18)
(4.1558 0.0768939 -1.91803e-18)
(3.55499 0.538373 0)
(2.87694 -0.517524 -1.81165e-18)
(3.56902 0.448465 0)
(3.40851 -0.487094 -1.41302e-18)
(3.95034 -0.703975 -5.23992e-19)
(3.61122 -0.929397 -1.28817e-18)
(4.22205 0.0455898 0)
(3.85153 0.122082 0)
(4.03323 -0.196517 2.99854e-19)
(5.16123 0.566084 2.96569e-20)
(5.30485 -0.169852 8.74388e-19)
(4.90994 3.71552 -7.95666e-21)
(4.98279 -0.488777 0)
(3.35801 -1.21813 -6.58891e-19)
(-1.32258 0.663821 0)
(1.73217 2.07693 -1.15021e-18)
(5.61925 2.57665 0)
(4.2782 0.184681 1.55386e-20)
(2.24174 -0.159949 1.00924e-18)
(2.94159 -0.177724 1.00586e-18)
(3.71544 -0.088837 -3.06748e-19)
(4.16332 -3.40042 -3.6731e-18)
(3.84642 -0.323533 2.80343e-18)
(4.1632 0.673473 -2.28275e-20)
(4.82886 -1.32545 -1.38922e-19)