/*--------------------------------*- C++ -*----------------------------------*\
| =========                 |                                                 |
| \\      /  F ield         | OpenFOAM: The Open Source CFD Toolbox           |
|  \\    /   O peration     | Version:  2306                                  |
|   \\  /    A nd           | Website:  www.openfoam.com                      |
|    \\/     M anipulation  |                                                 |
\*---------------------------------------------------------------------------*/
FoamFile
{
    version     2.0;
    format      ascii;
    arch        "LSB;label=32;scalar=64";
    class       surfaceScalarField;
    location    "7.25";
    object      phi;
}
// * * * * * * * * * * * * * * * * * * * * * * * * * * * * * * * * * * * * * //

dimensions      [0 3 -1 0 0 0 0];

oriented        oriented;

internalField   nonuniform List<scalar> 
20045
(
0.247227
-0.268015
0.0207881
-0.532042
0.189398
0.342644
0.201539
1.00369
-1.20523
-0.141642
0.208632
-0.0669905
-0.429384
0.406401
0.0229827
-0.310369
1.1367
-0.826328
-0.4983
0.197764
0.300536
0.0304321
0.218271
-0.248703
0.241826
0.207604
-0.44943
-0.415454
-0.0476091
0.463063
-0.213678
-0.177476
0.391154
1.12594
-0.538792
-0.587143
0.177408
-0.178617
0.00120875
-0.634387
0.555028
0.0793589
-0.147796
0.518651
-0.370855
-0.539995
0.124542
0.0232832
-0.0645076
0.0412245
0.271052
-0.270323
-0.000729545
-0.823271
1.21575
-0.392476
-0.374744
0.0253982
0.349346
-0.200608
0.135346
0.0652618
0.06041
0.116998
-0.065668
-0.466374
0.503187
0.557496
-1.06068
0.407067
0.11118
-0.518247
-0.584591
1.08778
0.0445119
-0.0466373
0.00212532
-0.707561
1.32194
-0.614383
0.850317
0.144976
-0.995293
-1.3159
0.711359
0.604538
-0.245872
0.217662
0.0282094
0.70177
-0.502951
-0.198818
-0.358849
0.849949
-0.4911
1.23298
-0.718742
-0.51424
-0.279585
0.310017
1.02705
-0.498304
-0.528749
0.675504
0.0434335
-0.718937
-0.0295373
0.183571
-0.154034
-0.987428
0.47248
0.514948
0.301328
0.261649
-0.562977
0.0187109
0.210829
-0.22954
0.0634086
-0.0910683
0.0276597
1.06818
-1.06909
0.000909999
0.742851
-0.279452
-0.463399
0.348773
0.394077
0.508158
0.617777
-0.123455
0.0429084
0.0805471
0.648842
0.253749
-0.902591
0.805717
-0.130214
0.09501
0.989103
-1.08411
0.651639
-1.09973
0.44809
0.895511
-0.637102
-0.258409
-0.59157
-0.420344
1.01191
-0.0463035
-0.14872
0.195024
0.361927
-0.181339
-0.180588
-0.345007
-0.0843772
-0.18235
0.930394
-0.748044
0.763968
0.0960632
-0.860031
0.609157
-0.968005
0.844988
-0.49483
-0.350158
-0.236213
-0.151852
0.388065
0.431884
0.413104
0.252115
-0.903004
0.650889
-0.082209
-0.118399
0.861923
-0.208434
-0.653488
0.769938
0.0235543
-0.793492
0.0863845
-0.211363
0.124979
-0.333977
0.0792049
0.254772
0.427688
-0.185862
0.807458
-0.820992
0.013534
0.182811
-0.096427
0.0556983
0.306229
-0.128474
-0.526132
0.654606
0.0715272
-0.119688
0.0481604
0.856587
-0.246162
-0.610425
0.672441
-0.854792
0.0727941
0.783793
0.228961
-0.376757
0.116229
-0.149484
0.0332549
0.155496
-0.616443
0.460947
0.51936
0.589222
-1.10858
0.448453
-0.348201
-0.100252
0.71368
-0.461565
-1.34049
0.234688
1.10581
0.0103831
0.236844
-0.268008
0.302719
-0.0347114
0.299248
-0.662606
0.363358
-0.802757
0.0343463
0.768411
0.516343
0.0774767
-0.59382
-0.418414
0.386751
0.0316634
-0.706436
-0.103091
0.809527
0.366516
-0.0713217
-0.295194
0.200431
-0.287498
0.0870676
-0.0817474
-0.405826
0.487574
0.29173
-0.31254
0.0208105
0.762829
0.17107
-0.9339
0.0308337
0.0136783
-0.0802888
0.255935
-0.175646
0.615126
-0.313798
0.0429118
-0.0871319
0.0442201
0.694339
0.332714
-0.221565
-0.412822
0.205874
-0.286163
-0.179714
0.943682
-0.00184325
-0.266165
0.0911848
-0.048273
0.228821
0.604568
-0.833389
0.52109
-0.913033
0.391943
-0.00722683
-0.211371
0.183683
0.0276879
-0.099807
0.127585
-0.0277778
0.601151
-0.453015
-0.148136
-0.245144
0.19884
0.631197
-1.17305
0.541856
-0.0848344
0.1567
-0.0718658
0.0225873
-0.12354
0.100953
0.577188
-0.170122
0.877384
0.355599
-0.590344
0.461871
0.662845
-0.897686
0.234841
0.240784
0.0302681
-0.392804
0.156591
-0.387946
0.314005
0.0739409
-0.466338
0.0504375
-0.291319
0.240882
0.617931
0.27758
0.55088
-0.717065
0.166185
0.812952
0.093802
-0.906754
-0.98678
0.728567
0.258213
0.07549
-0.774978
0.699488
0.937165
-0.319234
0.173212
-0.130303
0.102264
-0.036829
-0.0654351
-0.0357372
0.0269031
0.0088341
0.570387
0.401456
-0.971843
0.596143
-0.57685
-0.0192929
-0.172332
0.102717
0.0696143
-0.151949
-0.0594221
1.01935
-0.356505
-0.327151
0.344146
-0.0169954
0.638764
-1.17387
0.535108
0.173748
-0.765319
0.556165
0.226786
-0.782951
0.697579
-0.542084
0.963627
-0.134295
-0.829332
0.559035
-0.919164
0.360129
0.981717
-0.608459
-0.373258
-0.126087
0.228135
-0.102048
-0.0362281
1.11215
-1.07592
1.07547
-0.225152
-0.825648
0.026776
0.798872
-0.479819
0.405734
0.0740851
0.995405
-0.476045
0.168161
0.280292
-0.631162
0.779971
-0.148809
-0.868367
1.06991
0.00985044
-0.157174
0.147323
-0.046092
0.0718505
-0.0257585
-0.017822
-0.184685
0.202507
0.682594
0.274438
-0.957033
1.39157
-0.696218
-0.695351
-0.220011
0.202189
0.3445
-0.656443
0.311943
0.0746627
-0.0112541
-0.816816
-0.460929
0.688326
-0.227397
-0.671127
0.48243
0.188697
-0.0119917
-0.0235912
0.0355829
0.484019
0.497698
-0.018829
-0.0169083
-0.014035
0.116299
-0.710593
0.0794315
-0.73356
0.931678
-0.198118
-0.666025
0.752516
-0.0864904
-0.578875
-0.431682
1.01056
-0.214873
0.386501
-0.171628
0.456377
-0.463304
0.00692657
0.999105
0.0264058
-1.02551
0.0145728
-0.759937
0.745364
-0.362172
0.918337
0.194034
-0.546884
0.35285
-0.517322
1.14852
-0.82191
0.544873
0.277037
0.189555
-0.191889
0.00233404
0.516524
-1.27096
0.754436
-1.03911
0.331553
-0.600391
-0.442652
1.22104
-0.723629
-0.497413
-0.27711
0.29582
0.12412
-0.131267
0.00714693
-0.728617
-0.118535
0.847152
-0.916437
1.28312
-0.366683
0.928505
-0.698516
-0.229988
0.0824599
-0.247456
0.164997
-0.30601
-0.464607
0.770617
0.198819
-0.412497
-0.673958
0.749448
-0.709986
-0.22844
0.938426
0.0887549
0.0242752
-0.11303
0.150833
-0.611762
-0.203247
-0.0426249
0.874144
-0.0611924
-0.138523
0.108985
-0.134665
0.165518
-0.0308524
-0.345999
1.02859
-0.83049
0.524479
0.0778369
0.0740682
-0.151905
-0.704046
0.135463
0.568583
0.278277
0.650227
1.34003
-0.823505
0.78695
-1.37567
0.588724
0.309867
-1.11262
0.802748
0.0306334
-0.405378
-0.48778
0.716601
0.660067
-0.970435
0.444608
-0.849024
0.404415
-1.42289
0.821724
0.601168
-0.0142541
-0.40416
0.177541
0.140361
-0.317902
0.743656
-0.256282
-0.487374
-0.0638487
-0.772889
0.736661
-0.251055
-0.0760964
0.681583
1.06192
-0.861369
-0.200552
-0.0101212
-0.124558
0.13468
0.672385
0.13181
-0.804195
0.216849
-0.393483
0.176634
-0.234763
0.770382
-0.535619
-0.435192
0.734439
0.569644
-0.37561
-0.0637265
0.193505
-0.129779
0.994339
-0.355575
0.0876117
-0.00796668
-0.0796451
-0.0575052
-0.215714
0.273219
-0.102497
0.106503
-0.00400647
1.20116
-0.747927
-0.453233
0.245461
-1.1619
-0.112035
0.00953762
-0.870112
0.278161
0.59195
1.31501
-0.465064
0.246926
-0.980486
1.37983
-0.591641
-0.788194
-0.0116868
0.100442
0.853842
-0.476318
-0.377524
-0.611464
0.13936
0.472104
-0.932366
0.934106
-0.00174004
0.38048
-1.05226
0.671781
0.0273068
-0.0350399
0.00773316
-0.464175
0.629573
-0.165397
-0.0774323
0.361863
-0.284431
-0.142268
0.0574338
-0.116076
0.0162695
-0.54976
-0.363273
0.412451
-0.851134
0.438683
-0.114742
0.317891
-0.203149
0.40571
0.29606
0.777348
-0.332739
-0.0125828
-0.0335092
0.709679
0.605333
-0.4907
0.0135613
0.477139
0.385263
0.46858
0.382562
0.13609
-0.290367
0.175625
-0.282939
-0.026563
0.309502
0.00926573
0.18029
-0.815738
0.580975
-0.0543251
-0.121563
0.175888
-0.932428
0.898178
0.0342499
-0.336125
0.488804
-0.152679
-0.215943
-0.105402
0.321345
0.764641
-0.830086
0.0654447
-0.870702
-0.55219
1.28191
-0.814716
-0.467191
-0.0913817
0.0812605
1.14632
-0.765844
-0.460936
0.873387
-0.370786
-0.0219129
0.392698
0.875751
-0.225481
-0.65027
1.09072
-0.322046
-0.768676
-0.440608
0.0698227
0.83533
-0.493532
-0.341798
-0.160515
0.78397
-0.623455
0.461126
-1.05475
0.593621
0.22166
0.179636
-0.401295
-0.0650923
0.0172923
0.0478
1.29738
-1.08358
-0.213799
-0.514904
-0.471875
0.712012
0.349909
-0.852794
-0.0796342
0.150963
-0.208468
0.261775
-0.646509
0.384734
0.00375306
0.120367
-0.53945
1.10984
0.479458
0.721702
1.32857
-0.793856
-0.534718
-0.79053
0.56209
0.71526
-1.19977
0.484511
-0.628209
-0.0399085
0.668117
-0.247815
-0.164665
0.412479
0.544968
-0.200468
-0.0903827
0.16822
0.482262
-0.0363506
-0.466601
-0.655227
0.877779
-0.222552
-0.155403
0.0207379
-0.085446
0.0217195
0.113052
-1.04542
0.364797
-0.799989
0.0771
-0.183394
0.250492
-0.0670978
0.0180465
-0.159688
-0.496386
0.378275
0.118111
0.348076
0.253074
0.495733
-0.0467285
-0.449005
0.490795
0.105348
-0.340668
0.602442
0.571398
-0.0550551
-0.205737
-0.498308
1.09406
-0.869758
-0.224305
0.813371
-0.774625
0.347996
0.426629
0.799843
-0.866282
0.0664389
-0.434852
0.353105
-0.111504
-0.0608275
-0.118441
-0.587995
0.29178
-0.539592
0.247812
0.419566
0.415765
0.687892
-1.13265
0.444762
0.235204
-0.53434
0.299136
-0.972583
0.169826
0.0158052
0.350711
-0.558415
0.850766
-0.292351
-0.252642
0.30269
-0.0500479
-0.415175
-0.0831249
-0.124056
-0.22629
0.350346
0.0799735
0.000860764
-0.0808343
-0.319111
-0.160708
0.37555
0.44511
-0.82066
0.792909
-0.407646
0.278325
-0.448718
0.0138652
0.4649
-0.229696
-0.664761
-0.157149
0.322004
-0.36583
0.0438258
0.971988
-0.323146
-0.468567
0.753307
-0.28474
-0.112735
0.131113
-0.0183778
0.734146
0.00951069
-0.334352
-0.312157
-0.516923
0.934053
-0.417129
0.621544
-1.12863
0.50709
0.589051
0.692856
-0.0333964
0.0172311
0.0161653
0.0881672
-0.716376
0.652481
-0.982938
0.330457
0.0807474
-0.00922027
-0.0821532
0.633033
-0.351813
0.716611
-0.741384
1.05125
0.188063
-1.01133
-0.86971
0.473232
0.396477
0.63778
-0.101094
-0.536685
0.93592
-0.171279
-0.494174
-0.526503
-0.464519
0.580648
-0.0297366
0.220511
-0.190774
0.316727
-0.291329
-0.721044
0.638891
0.842678
0.2255
-0.788752
0.320185
1.04406
-0.332047
-0.266324
0.373199
-0.106875
0.0257234
-0.631928
0.606204
-0.901936
0.168926
0.733009
0.726777
-0.726777
-0.368808
0.749912
-0.381104
0.490228
0.00550501
0.665173
-0.356628
-0.308545
-0.962305
0.99826
-0.0359555
0.334355
-0.0405662
-0.293789
0.257097
-0.106665
-0.150432
0.105835
-0.321778
0.143475
0.458411
-0.919347
-0.86144
1.01325
-0.151812
-0.283296
0.658846
0.109131
0.00482658
-0.113958
-0.0793326
-0.035216
0.114549
-0.374557
0.405191
1.26105
-1.02577
-0.235276
-0.0825133
-0.527063
0.609576
-0.228194
0.246839
-0.0186451
0.119728
-0.272142
0.152414
-0.950598
0.346365
0.604234
0.130628
0.078004
-0.36857
0.102245
0.0165768
-0.11771
0.101133
0.620163
0.677216
0.10864
0.000491101
-0.0416949
-0.288903
0.330598
-0.50478
0.805645
-0.300865
-0.000913072
0.0869646
-0.0860516
0.421965
-0.2242
0.677348
-0.204276
-0.473072
0.00926751
-0.415094
0.153762
0.845343
0.435324
0.293639
-0.728963
0.460913
-0.409182
-0.0517318
-1.01273
0.187086
-0.414663
0.168125
0.246538
0.495306
0.645045
-1.14035
-0.628538
0.588629
0.045092
-0.914619
0.869527
-0.12234
0.2048
0.200424
-0.214219
0.0137953
0.0258471
-0.308786
0.0190351
0.031381
-0.0504161
-0.673849
-0.196263
0.619141
0.0499281
-0.0112813
-0.0386468
-0.118588
0.00585313
0.169642
-0.708163
0.538522
0.250595
0.542077
-0.792672
0.427185
-0.711698
0.87082
-0.159122
-0.718181
0.557666
-0.0181044
-0.0285329
-0.387961
-0.283166
-0.251907
0.0645215
0.187386
-0.878873
0.374093
0.669023
-0.751536
0.417553
0.626506
-0.303297
0.301774
0.00152346
0.400281
-1.09339
0.693111
0.146068
-0.261519
0.115452
0.333651
-0.668003
-0.63464
-0.0313853
-0.306964
-0.0270129
0.0908364
-0.0699827
-0.0208538
0.390348
0.00543897
-0.025804
0.0203651
1.07839
-0.583088
-0.528518
0.885452
-0.356934
0.260517
0.17967
-0.440187
-0.360296
0.237956
-0.211163
-0.0407442
0.440717
0.224456
-0.18998
-0.707706
0.350891
-0.0288868
0.614752
0.405726
0.165673
-0.95151
1.04652
0.126717
-0.467764
0.341047
-0.0861182
-0.827801
0.913919
-0.257316
0.272827
-0.0155104
-0.312955
0.0980814
-0.566341
1.02747
0.979606
-0.420571
-0.431104
-0.0652822
0.00876849
-0.408828
0.40006
0.408506
-0.98738
-0.130949
-0.464854
0.595803
-0.0875311
0.188683
-0.101152
-0.650896
0.0526923
0.598203
0.946292
-0.692543
-0.016599
0.0799446
-0.0633456
-0.209866
-0.0183278
0.178908
0.35998
-0.538888
0.097943
-0.123389
0.0254459
0.598715
0.345628
-0.944344
-0.371601
1.13443
0.0775355
0.002438
-0.273905
-0.585051
0.858957
0.319535
0.699815
0.955766
-0.705171
-0.34559
0.221535
-0.0565819
-0.0085104
-0.445743
1.161
0.13523
-0.766321
0.631092
0.886252
-0.144663
-0.74159
-0.490564
0.710229
-0.219665
0.395245
-0.449255
-0.426414
0.875668
0.0895015
-0.116196
0.0266941
-0.283975
-0.485656
0.769631
-0.131905
0.0525729
0.0297912
-0.0417829
0.506168
-0.790142
-0.705956
-0.208182
0.914138
-0.0640877
-0.478832
0.54292
0.0961342
1.20983
-1.22989
0.0200599
0.204222
-0.14502
-0.059202
0.00105541
-0.304353
0.257701
0.229872
-0.316121
0.068306
-0.81688
1.02574
-0.20886
-0.245287
0.190962
0.2877
0.409879
-0.81627
-0.252817
-0.0497046
-0.0293549
0.0790595
0.533478
-0.127752
-0.194137
0.213846
-0.0197087
0.296023
-0.373455
-1.18395
0.583556
0.942451
0.194246
-0.125382
0.24511
-0.199904
0.460421
0.899781
-0.44137
-0.201136
0.00699871
-0.107219
-0.613826
0.197762
0.20885
-0.198999
-0.918913
0.0169777
0.0050001
0.205426
-0.0593577
-0.906672
0.645124
0.261548
0.68017
0.127288
0.182642
-0.0598055
-0.122837
0.277761
-0.257013
-0.0207482
-0.771419
0.273115
-1.04044
0.523514
0.22519
0.0566576
-0.281848
-0.0376234
0.248959
-0.211336
1.00749
-0.00156927
-1.00592
0.14412
0.00831643
-0.152436
-0.134522
-0.253425
0.221205
-0.0207747
0.0631837
-0.0577403
-0.00544343
0.384766
-0.0527859
-0.33198
0.0286821
0.0345017
0.82789
-0.65682
-0.028309
-0.137713
0.166022
-1.02155
0.20467
0.00853478
-0.144811
0.350685
-0.0260944
0.0760225
-0.0140249
0.00144213
0.237706
0.160634
-0.39834
0.611423
0.2505
0.44102
-0.314303
0.189321
-0.166734
0.0637238
-0.316366
0.610414
0.0227817
-0.633196
0.532343
-0.0344034
-0.49794
-0.561498
-0.357666
-0.314099
-0.040417
0.354516
0.400322
-0.425082
0.0247608
1.11335
-0.0408517
-1.07249
-0.374565
0.0513213
0.323243
-0.494636
0.659848
-0.165212
0.583499
0.661348
-1.24485
0.254601
-0.406452
-0.268884
0.427861
-0.158977
0.21056
0.0939658
-0.304526
-1.15223
0.661648
0.490584
-0.0481063
-0.00963399
-0.844489
0.138533
0.295591
-0.18126
-0.114331
0.48733
-0.612809
0.12548
-0.080278
-0.187737
0.186973
1.02286
0.81995
-0.135655
-0.684294
-0.848011
0.136314
0.338796
-0.544533
0.768513
-1.19164
0.423124
-0.097731
0.275272
-0.00256272
-0.380775
0.33908
-0.155818
0.206256
-0.133388
-0.799143
0.932531
0.487724
0.658601
-0.744861
0.773584
-0.0287231
0.0704197
0.0204167
-0.61072
-0.254461
-0.108427
0.120986
-0.0125593
0.544294
-0.223966
-0.320328
0.0126997
0.0384355
-0.0511351
-0.0647408
0.55207
-0.781515
-0.101241
0.882756
-0.718693
-0.251781
0.970474
0.470897
-0.34561
-0.125287
-0.172119
0.0177627
0.154356
-0.270686
0.0851957
0.18549
-1.01725
0.0470746
0.970178
0.0248375
0.181554
-0.206392
0.806978
-0.908186
0.101208
-0.51891
0.870401
0.245683
-1.11608
0.0105629
-0.11899
-0.101719
-0.640523
0.742243
0.600952
-1.11827
-0.948195
0.823719
0.124476
0.113733
-0.0157902
0.722092
-0.434392
-0.045598
-0.241574
0.287172
-0.00859131
0.123894
-0.115303
-0.191648
0.905086
-0.713437
0.737475
-0.408486
-0.328989
1.03666
-0.980953
-0.0557047
0.780842
-0.285508
-0.495333
0.0420846
-0.217604
0.175519
-0.27963
-0.0116894
-0.923552
0.810798
0.112755
0.0528723
-0.976425
-0.255183
0.461627
-0.206444
-0.593173
-0.490408
0.179434
-0.15647
-0.0229646
-0.799483
-0.222067
-0.170669
0.113213
0.0574565
-0.0405656
0.257414
-0.88094
0.85222
0.0287205
-0.172704
-0.0992646
-0.020423
0.156327
-0.0122071
-0.599824
0.135648
0.124287
-0.150331
0.0260435
-0.791409
0.438621
0.352788
0.35626
-0.0219054
-0.24256
0.69207
0.0420753
0.350121
-0.0424525
0.200473
-0.15802
-0.0810271
0.537404
-0.607884
0.39147
0.216414
-0.0932614
0.045155
1.12047
-0.632744
0.939826
-0.539545
-0.243738
-0.149232
0.39297
0.469907
-0.931878
0.461972
0.54853
-0.612618
0.969839
-0.431875
-0.537964
-0.00345655
-0.512395
-0.0954893
-0.379116
0.704404
-0.325288
0.0591001
-0.34354
1.13049
-1.06787
0.268382
0.383381
-0.161721
-0.0850291
0.0414802
0.109384
-0.00288089
-0.493161
-0.503967
1.3233
-0.65086
-0.357496
0.33486
0.0226368
0.0620752
0.195022
-0.661916
-0.399394
1.06131
0.218318
0.32665
-0.0035065
-0.131331
0.134838
0.820566
-0.278352
0.0196037
0.258748
0.644343
-0.0339293
-0.353428
-1.03106
0.169624
-0.202152
0.0094822
0.19267
0.580031
0.799803
0.551302
-0.42817
-0.123132
0.982324
0.0543339
0.605149
-0.86054
0.255391
-0.829895
-0.012531
0.842426
-0.7542
0.982366
-0.228165
0.125757
-0.00473722
-0.12102
-0.494857
1.09581
-0.284486
-0.125674
0.410159
0.0203989
-0.76526
0.157782
-0.0601311
-0.0976513
-0.960704
1.25112
-0.290412
-0.23064
0.531026
-0.300386
1.16172
-0.511317
-0.650406
-0.00976389
-0.591496
0.60126
-0.188052
-0.0261672
-0.526508
1.11001
0.374233
-0.743041
1.10355
-0.482006
-0.173169
0.14486
-0.868378
0.0384834
1.1939
-0.506005
-0.0187667
-1.32173
0.22904
-0.0182108
0.346556
0.530717
-0.877273
0.544292
-0.120621
-0.42367
0.945966
-1.0241
0.0781381
-0.124187
0.00903441
0.115153
-0.196827
-0.474489
0.671316
0.339614
-0.27589
-0.302079
0.0744956
0.227583
0.115105
0.28677
-0.401875
0.0745048
0.104929
-0.886447
1.03676
-0.150318
-0.23998
-0.0173362
0.447728
0.199924
-0.647652
0.578794
0.544279
-1.12307
0.151417
0.486363
-0.0169887
0.980616
0.00183319
0.784156
-0.785989
0.00844442
-0.00935749
0.0734684
-0.0056631
-0.0678053
1.11806
-0.990076
-0.127985
0.447793
0.522046
-0.102335
0.0515425
0.0507922
-0.28747
0.802742
-0.515272
0.0123499
0.144069
-0.156419
0.55971
-0.90128
0.34157
-0.41411
-0.605469
1.01958
0.846255
-0.17387
0.297676
0.246616
-0.41859
-0.0540766
0.472667
0.280221
-0.807284
0.11291
-0.393713
0.280803
0.17542
-0.0731469
-0.102274
0.027888
-0.21594
-0.0682669
0.602953
-0.534686
-0.158026
1.14713
0.768474
-0.616047
-0.152428
0.619189
-0.541712
-0.512512
0.150018
0.362494
0.124763
-0.481391
0.151471
-0.0468703
-0.104601
0.0555363
0.127106
0.137648
0.735153
-0.872801
0.209919
0.174847
0.120709
-0.839402
-0.424118
0.156371
0.267747
-0.320238
-0.229793
0.550032
0.467506
-0.2298
-0.839288
0.555992
0.247752
-0.199369
-0.048383
-0.465321
0.867824
-0.402503
-0.427259
0.436526
-0.432067
0.534152
-0.102085
-0.56284
0.912586
-0.349745
-0.019772
0.192569
-0.172797
-0.285252
0.247629
-0.289313
-0.560662
0.877905
-0.317244
-0.543335
0.678798
0.498495
-0.503135
0.00464026
0.267021
0.0449251
-0.311946
-1.25783
0.832905
0.424924
0.0158872
0.19905
-0.214938
0.069262
0.692228
-0.883877
0.875822
-0.405915
-0.355392
-0.514318
-0.697455
0.699288
0.496769
-0.014339
0.387211
0.116361
-0.503572
-0.315478
0.291425
0.0240532
-0.0272996
-0.0945896
0.121889
-0.24559
-0.400272
0.645861
-0.0925748
0.473044
-0.38047
-0.747939
-0.264124
1.01206
-0.0866657
0.353687
0.895458
0.222603
-0.835746
0.5222
0.313546
-0.224522
-0.085418
0.30994
0.00339771
0.165864
-0.214884
0.0490201
-0.631063
-0.768302
0.522712
0.122251
0.1871
-0.145015
0.279091
0.265203
-0.026035
-0.748943
0.0270759
0.264654
0.143173
0.041545
-0.184718
-0.621191
-0.485448
1.10664
-0.109908
-0.308682
-0.501804
-0.10212
0.603923
0.118587
0.180635
-0.299222
-0.0128332
1.13104
-0.738852
-0.392191
0.169195
0.650754
0.0983162
0.21158
-0.483524
0.271944
-0.520023
1.02096
-0.500939
-0.56453
-0.256583
0.821113
-0.440664
0.17178
-0.407637
-0.104876
0.867484
-0.424182
-0.443302
0.395784
-0.235749
-0.160034
0.382561
0.0457258
-0.428286
-0.155601
0.180439
0.246965
-0.370276
0.123311
0.0933687
-0.0241176
-0.195893
-0.00660147
0.462548
0.404936
-0.362157
0.834637
-0.432573
1.14393
0.276072
0.119711
-0.858675
0.294145
0.715158
-0.626991
-0.0961646
-0.618634
0.123998
0.180544
-0.435727
0.723858
-0.698135
0.817837
-0.0179936
-0.185272
-0.102227
-0.276515
-0.06476
0.341275
-0.279944
-0.0325958
0.70536
0.151264
-0.856624
0.0269532
-0.242015
0.215062
-0.0101024
0.3935
-0.83487
0.441371
0.874038
-0.0670605
-0.985998
1.04922
-0.0632262
0.204462
-0.125257
-1.07256
-0.185266
-0.322113
0.838754
-0.0279566
0.43446
1.11851
-0.409444
-0.709068
-0.637848
-0.0384422
0.676291
0.221832
0.503243
-0.725075
-0.683088
0.032192
-0.158794
-0.144074
0.302868
-0.464001
0.59923
0.126146
0.51345
-0.639596
0.0204787
0.0691483
-0.089627
-0.966864
0.114943
0.85192
0.355581
0.52024
-0.22642
0.560084
0.220757
-0.295991
-0.118672
0.78783
-0.922125
0.115068
-0.38175
0.266683
0.404023
-0.149422
0.664874
0.0464152
-0.711289
0.725825
-1.1584
0.00853349
0.0187733
-0.362915
0.500201
-0.137286
-0.736501
0.634782
-0.0172663
0.263971
-0.246705
-0.371146
0.194047
0.177099
-0.0587072
-0.254247
-0.243743
0.582539
0.238194
-0.0130033
-0.137512
0.148075
-0.143911
-0.249572
0.0151408
-0.0501807
-0.171254
0.164856
0.00639793
0.186566
-0.210425
0.0238596
-0.611851
0.365689
0.135483
-0.637287
-0.0185621
-0.258547
0.0235007
0.537186
-0.560686
0.303331
-0.329894
0.15216
-0.799361
0.647201
-0.275166
0.735946
-0.460781
0.175507
-0.830734
-0.229029
-0.0253093
-0.922885
0.631565
0.691736
-0.737744
-0.101544
-0.446643
-0.327982
-0.391117
0.164827
-0.0039977
-0.0178037
0.0218014
1.23831
-0.658276
0.850322
-0.197841
-0.222522
-0.143417
0.365938
-1.17375
0.507896
0.665852
-0.437212
0.259736
-0.197126
1.06753
0.14578
-0.0853703
-0.390202
-0.303164
0.0186779
0.379459
-0.369083
-0.0103756
-0.115255
0.820615
-0.152432
0.351795
-0.199363
0.681647
-1.28468
0.57944
0.70524
0.211523
0.200098
-0.411622
0.568214
-0.247291
-0.320923
-0.498196
0.267556
-0.882393
0.0149659
0.367595
0.88568
-0.971798
0.381522
-0.170963
-0.393495
0.673716
-0.854115
0.609349
0.244766
0.60363
-0.946875
0.343245
-0.685757
0.721077
-0.03532
0.421451
-0.502478
0.0123171
0.232688
0.238208
0.135633
-0.752075
0.325991
-1.00606
0.545491
0.460566
0.230836
-0.868685
0.687799
-0.0438544
-0.56761
0.132393
0.146501
1.01554
-0.335648
-0.679892
-0.214625
0.246292
-0.56653
0.136637
-0.959097
0.920655
-0.783122
0.333868
0.467678
-0.686875
0.384608
0.302267
-0.826371
0.519212
0.307159
-0.235674
0.0482463
-0.135777
-0.998798
0.696635
0.302163
0.600636
-1.09549
-0.87326
-0.0131871
1.17247
-0.403961
0.221486
0.0955593
-0.317046
-0.0198158
-0.121957
0.141773
-0.262464
0.468901
0.52776
-0.429416
-0.257459
0.165444
0.174169
0.221512
0.334272
-0.555784
0.349101
-0.20874
-0.0383951
-1.05989
1.09828
-0.307307
0.402256
-0.764428
-0.572011
-0.416262
0.988273
0.229208
-0.30053
-0.652674
0.202424
0.45025
-0.0434967
-0.0216698
0.0651666
0.716237
-0.849625
0.0514014
-0.414316
0.495143
0.484516
-0.97966
-0.391152
0.0336556
-0.796366
0.222024
0.574342
-0.993102
0.578992
0.496961
-1.01698
0.516499
-0.401431
-0.0374851
-0.00601165
-0.0287149
0.914967
-0.586847
0.727149
-0.140302
0.852999
0.00199738
-0.854996
-0.661506
-0.0118366
-0.171557
0.0639384
0.662839
0.10422
0.0268925
0.247932
0.484571
0.00565686
0.481005
-0.134955
0.107655
-0.829715
-0.0512253
-0.725115
0.275364
-0.751682
0.157866
0.17655
-0.334417
0.785171
0.0459041
-0.831075
-0.0896247
0.0848875
-0.332591
-0.707847
-0.757772
-0.10851
-0.45568
1.1815
-0.315699
0.428914
-0.113215
-0.89499
0.273799
-0.260211
0.481723
-0.283041
-0.623631
-0.442553
-0.305378
0.312304
-0.612737
-0.178673
0.960969
-0.122215
0.588384
-0.277358
-0.311026
0.0792738
0.114231
0.230386
0.985508
-0.940416
0.00779476
-0.205037
0.292104
-0.470022
0.483583
-0.422426
-0.514177
0.200084
0.158991
-0.359075
-0.764065
0.0372876
-0.109867
0.732469
-0.622602
-0.0679669
-0.918031
-0.675918
0.807728
1.40002
-0.609612
-0.790407
-0.134259
0.302385
0.773969
-0.412791
-0.361178
0.235963
-0.260081
0.0383502
0.0351182
-0.192465
0.048632
0.143833
-0.107294
0.494504
-0.505708
1.10634
-0.029256
-0.127214
-0.254718
-0.0709907
0.325709
-0.0157277
0.731964
0.181689
0.430002
-0.611692
-0.359911
0.538819
0.409761
0.392981
-0.33679
-0.0873283
0.484528
-0.178308
-0.30622
-0.0583048
0.0420415
0.0162633
0.145067
-0.780559
0.635491
-0.881186
0.123414
0.19786
-0.474482
0.749845
-0.00755898
0.243522
0.10918
-0.424879
-0.933078
0.468559
-1.0259
0.329677
-0.414033
0.0394764
-0.394045
-0.547654
0.941699
-0.826241
0.164896
0.135137
-0.300034
1.00086
-0.766173
0.777323
-0.555492
0.149182
0.495809
-0.644992
0.201034
-0.359828
-0.538687
-0.165679
0.704366
0.18581
-0.0205629
-0.165247
-0.49007
1.09193
-0.601855
0.759121
-0.485495
-0.273626
0.662234
0.0218096
-0.684044
-0.530715
-0.753965
-0.29818
-0.00878335
0.355901
0.581264
-0.012488
0.075603
-0.063115
-0.643941
-0.152426
0.652017
0.56373
-0.503387
0.601093
-0.0977069
-0.298481
0.318085
-0.033663
0.284372
-0.250709
0.180978
-0.33341
-0.115514
-0.883284
-0.836639
0.234466
0.0132859
-0.189451
-0.0137965
0.0676415
0.696092
-0.763733
-0.473602
-0.126221
0.437979
0.35493
0.0619147
-0.213863
-0.0128362
0.200719
-0.187883
0.0793008
-0.333867
0.254567
0.230632
0.258173
0.30327
0.782081
-0.362516
0.838443
-0.436187
-0.0988127
-0.2276
0.326413
0.711334
0.0726351
0.0303428
-0.629511
0.432684
0.302161
-0.317889
-0.501584
-0.60569
1.10727
-0.623181
-0.550567
-1.06858
1.11127
-0.0426955
0.327337
-0.346216
0.281456
0.524567
0.257514
-0.302542
0.164704
0.137838
-0.278239
-0.542753
-0.091664
-0.536545
0.628209
0.418999
-0.200681
0.385061
-0.272151
0.551852
-0.884443
0.443257
-0.332077
-0.668159
1.1853
-0.517145
0.630398
0.464856
0.281563
-0.746419
1.08651
-0.627951
-0.45856
-0.514597
-0.650473
1.0859
-0.435423
0.303949
0.284435
-0.25437
0.246811
0.399729
0.761993
-0.182565
0.162749
0.0215467
-0.0161077
0.901754
-0.500298
0.43727
0.801037
-0.368532
0.190525
0.178008
0.198469
-0.442207
0.711719
-0.0468445
0.409057
-0.18757
-0.645905
-0.119823
0.765729
0.163595
-0.0304849
-0.133111
0.116547
0.0876759
0.129561
-0.883761
-0.253018
0.278865
0.654027
-0.571025
-0.0830021
0.147897
0.336631
-0.12705
0.0672443
0.227142
0.210228
-0.43737
-0.454148
1.0633
-0.0588536
-0.537473
1.10259
-0.565114
-0.272259
0.387364
-0.000242169
0.0207208
1.04945
-0.523492
-0.329302
0.28572
0.282493
0.26849
-0.287052
-0.138941
0.119169
-0.273724
-0.116001
-0.00258723
0.374137
-0.134114
0.760155
-0.626041
0.113003
-0.096426
-0.315711
0.0741369
-0.287309
-0.0108708
-0.847551
0.573645
0.217079
0.210782
-0.364472
0.0306938
0.333778
0.264883
0.0378362
0.778358
0.423294
-1.20165
-0.0786911
-0.0178901
0.0965813
0.174658
-0.703176
0.918242
0.481777
0.733336
-0.665694
-1.09622
-0.0236742
-0.0199546
-0.0612943
0.431249
0.307781
0.538641
-0.846422
0.337292
-0.0339613
-0.0302181
-0.290866
-0.0776666
-0.483934
-0.406586
0.531349
0.499233
0.386219
0.527487
-0.546309
0.0188222
0.158091
0.00676474
-0.0641265
0.217573
-0.0310073
0.672036
0.167636
-0.839672
0.401958
-0.0224993
-0.195456
0.118751
0.0767057
-0.301945
-0.00205453
0.304
0.282715
0.566153
-0.848868
0.201805
0.265701
0.642689
-0.016466
-0.228678
0.55896
-0.0743885
0.0620104
-0.0897603
0.0277499
-0.9491
0.506449
0.778994
-0.622392
-0.156602
0.0113221
-0.111042
0.0997196
0.755947
-0.824214
0.485489
-0.0664904
0.357509
0.419815
-0.103853
-0.0121479
-0.407472
0.156848
0.250624
-0.553709
-0.0975914
0.99882
-0.510692
-0.488128
0.499457
-0.0808825
-0.418575
0.375701
-0.638804
0.263103
-0.080735
0.463806
0.00109423
-0.368072
0.803907
-0.435835
-0.253097
-0.154375
-0.397767
0.228563
0.123232
0.685405
0.00363994
-0.689045
-0.29765
-0.0520306
0.195204
0.0671712
-0.0156287
0.338083
0.162118
-0.188259
0.200959
-0.00906967
-0.00670675
-0.128673
0.12683
-0.351639
0.500821
0.0110558
0.197794
0.207675
-0.275544
0.681254
-0.0510722
0.578559
-0.121058
-0.0911791
-0.207585
0.434726
-0.175728
0.861716
-0.685988
-0.743184
-0.101305
-0.620904
0.959536
-0.338633
-0.153157
0.38172
0.273214
-0.054943
-0.0179671
-0.205647
0.223614
-0.768016
0.244524
0.0861455
-0.102745
0.479707
-1.14162
0.351516
-0.936567
-0.471538
1.02903
-0.438055
0.448911
-0.238683
0.0116936
-0.580715
0.725782
0.00034009
-0.124898
0.138753
-0.484363
-0.0840415
-0.550671
0.634713
-0.188629
0.446926
1.25107
-0.820826
-0.430247
-0.191033
0.0579
0.178323
0.0188324
-0.197156
-0.720441
0.133594
0.150415
0.0250051
-0.00571435
-0.0982039
0.103918
0.402337
-1.02324
0.0773817
0.397792
0.0257363
-0.423528
-0.954119
0.778391
0.115847
0.0312791
-0.147126
0.313338
-0.873999
-0.11305
-0.00223519
0.115285
0.148303
-0.0324562
-0.00400077
0.64393
-0.492513
0.535906
0.436584
-0.23478
-0.806288
0.234276
-0.605185
0.481732
0.123453
0.571872
-1.07346
-0.443317
-0.268992
0.712309
0.0604336
0.3453
-0.258044
0.217477
1.05352
-0.151219
-0.902305
-0.0109512
-0.818764
0.607423
0.054811
0.369771
0.404197
-0.127662
-0.00366977
0.112547
-0.242132
-0.29746
0.0428587
-0.0385843
-0.00427449
0.0187154
-0.652956
0.634241
-0.0520606
0.251218
-0.199157
0.373225
-0.915377
0.542152
-0.101105
-0.475745
-0.0283116
0.0170547
0.605292
-0.29742
-0.167597
0.465017
-0.316806
-0.357043
0.383978
-0.224987
0.342049
0.00579101
-0.34784
-0.479741
0.11527
-0.630351
-0.115691
-0.0192192
0.13491
0.115086
0.254322
-0.369408
0.330181
-0.77681
0.446629
0.0145713
-0.480945
0.14953
-1.11023
-0.353503
-0.763539
1.11704
-0.847293
0.0373541
0.809939
-1.14819
-0.702031
0.0162745
-0.234694
0.239713
-0.00502
-1.17931
-0.30649
0.978526
0.325761
-0.165127
0.0758751
-0.28346
-0.140523
0.406224
0.121105
0.0728349
-0.327553
0.0124451
-0.0980071
0.085562
-0.198638
0.0725515
-0.0645791
0.0759012
-0.234705
0.446229
-0.879733
0.539214
0.340519
-0.265605
0.175223
0.516683
0.164573
-0.000977649
-0.199811
-0.102732
-0.42531
-0.227365
-0.470154
0.165249
0.304904
0.00560395
0.331289
-0.336893
-0.350309
0.42961
-0.0653647
0.633948
1.04574
-0.864053
0.481903
-0.798709
0.374278
-0.513967
0.139689
0.0798589
8.57935e-05
0.0206169
-0.00338576
-0.934432
0.540387
0.108841
0.390616
0.0126906
-0.15975
0.14706
-1.45938
0.591008
0.0656475
-0.281361
-0.159348
-0.01664
-0.180954
0.197594
-0.483113
0.185693
-0.966857
0.851343
1.05563
-0.560483
-0.152598
0.137715
0.0148822
-0.0900237
0.0606688
-0.118764
-0.896787
0.259288
0.637499
-0.110705
0.0928151
-0.0520214
0.244637
-0.192616
0.300298
0.185191
0.153696
-0.138609
-0.0150869
-0.220453
0.231509
0.0808312
-8.37499e-05
0.495374
-0.788321
0.937913
0.0444105
-0.53457
-0.128036
0.851181
-0.0319979
-0.819184
-0.203337
-0.109068
0.312405
0.484427
-0.977589