/*--------------------------------*- C++ -*----------------------------------*\
| =========                 |                                                 |
| \\      /  F ield         | OpenFOAM: The Open Source CFD Toolbox           |
|  \\    /   O peration     | Version:  2306                                  |
|   \\  /    A nd           | Website:  www.openfoam.com                      |
|    \\/     M anipulation  |                                                 |
\*---------------------------------------------------------------------------*/
FoamFile
{
    version     2.0;
    format      ascii;
    arch        "LSB;label=32;scalar=64";
    class       volVectorField;
    location    "7.25";
    object      U;
}
// * * * * * * * * * * * * * * * * * * * * * * * * * * * * * * * * * * * * * //

dimensions      [0 1 -1 0 0 0 0];

internalField   nonuniform List<vector> 
13486
(
(1.39713 -0.193878 6.00853e-19)
(1.65128 0.299302 2.965e-19)
(2.66442 0.0436713 0)
(-1.49716 0.589306 -9.55264e-19)
(2.29973 -0.476681 1.43776e-19)
(2.49053 0.165534 9.11702e-21)
(2.47803 -0.338027 -1.09715e-21)
(1.94016 -0.694274 -2.81295e-19)
(1.90869 -0.371492 0)
(1.98898 0.785215 0)
(-0.888733 2.4862 -1.14276e-18)
(2.52037 -0.0749077 0)
(1.24066 -0.402131 -5.90683e-19)
(2.45956 0.793658 4.74535e-21)
(2.37883 -0.308915 8.26033e-20)
(1.94519 0.775992 -2.00182e-19)
(0.639194 -0.154231 7.68115e-19)
(0.811676 -0.549277 1.42294e-19)
(2.20758 -0.0133786 2.91693e-21)
(1.5855 -0.0362733 -6.14694e-19)
(-1.34124 -0.0226402 -3.39275e-19)
(1.26066 -0.417688 7.6187e-19)
(1.67387 0.295308 -2.37014e-19)
(3.64064 -0.816392 0)
(2.04441 0.631996 6.7843e-20)
(3.5432 -0.782782 -3.17486e-19)
(0.376495 -0.173121 9.01176e-19)
(2.89045 -0.203069 5.86113e-19)
(2.03715 0.0849174 0)
(2.69496 -0.456033 -4.20627e-19)
(-0.879941 -0.776818 -1.87e-19)
(2.43467 -0.23629 -1.2963e-19)
(3.26616 -0.120119 4.81522e-19)
(2.19658 -0.114379 0)
(1.94721 -0.666012 0)
(1.7475 0.0084715 5.05424e-22)
(1.69958 0.179637 -3.04831e-20)
(1.4257 -0.669806 2.92365e-19)
(1.74604 -0.15453 -1.56172e-20)
(1.94355 -0.228736 2.9497e-19)
(2.40735 -0.764335 0)
(0.823671 -0.407374 -6.86713e-19)
(1.99314 -0.003931 0)
(2.06028 0.526197 -3.21946e-19)
(2.0802 0.525047 1.32625e-19)
(2.52221 -0.0738564 9.31053e-20)
(-0.952066 0.102029 1.42515e-18)
(2.01929 0.0821869 -2.93338e-22)
(1.71697 0.174794 2.3135e-20)
(2.82433 -0.000789275 2.18697e-19)
(1.99978 0.0299404 3.67549e-19)
(1.81015 -0.0388008 0)
(2.55274 -0.159778 -1.38496e-19)
(1.5794 -0.575795 -4.28857e-19)
(0.845203 -0.726654 0)
(2.26741 -0.484011 -1.02249e-19)
(2.2572 0.476427 8.53908e-21)
(1.79697 -0.0769321 -6.82087e-20)
(3.25366 -0.0934004 5.73405e-19)
(1.52569 0.319231 0)
(-0.953285 2.40022 -1.56048e-18)
(1.53666 0.329921 0)
(3.71513 0.468952 -4.31048e-19)
(-1.26192 -0.0370918 -3.48368e-21)
(2.17073 -2.57835 0)
(1.68251 0.212648 -1.56805e-20)
(-1.75991 0.669836 -1.0445e-18)
(1.39666 0.0661666 2.06668e-19)
(1.90614 -0.39333 -1.66274e-19)
(1.66003 0.00967496 1.42606e-20)
(-1.6538 0.671399 1.19705e-18)
(0.85942 -0.67459 6.01457e-21)
(1.97075 -0.110414 2.21901e-19)
(-0.865837 0.141056 -5.16786e-19)
(1.69321 0.299743 -3.97501e-21)
(2.28218 0.451994 -1.44443e-21)
(1.71369 0.290887 9.30325e-21)
(2.38285 -0.324404 -3.29516e-20)
(-0.804338 0.522004 -7.27315e-19)
(1.81671 -0.530153 0)
(1.99159 0.0210693 1.06878e-21)
(1.59444 0.402921 -1.88926e-20)
(3.6764 0.407791 -1.25533e-20)
(2.76146 0.0397704 -3.28232e-21)
(1.38826 -0.206567 -1.17575e-18)
(1.30831 1.69838 0)
(1.61666 -0.317671 -8.5813e-21)
(2.00192 0.0454828 -5.57257e-19)
(1.86309 0.226083 -2.42509e-19)
(1.82998 1.04831 -2.2697e-19)
(2.492 -0.241684 -8.31499e-20)
(2.07402 -0.580941 -1.4235e-19)
(1.45384 -0.304669 1.53829e-19)
(1.63594 0.0984997 1.61938e-20)
(1.78962 -0.550427 6.71659e-20)
(2.0087 0.0707162 6.97301e-23)
(0.317496 -0.124667 0)
(-2.14232 0.667543 7.15515e-19)
(1.9603 -0.226198 -5.6319e-19)
(0.801081 -0.122173 4.19604e-22)
(1.91638 0.0192778 0)
(2.42708 0.788285 -1.80351e-21)
(-2.20194 0.543313 5.17296e-20)
(1.79308 -0.0654068 7.9898e-20)
(1.27867 1.64843 0)
(0.825038 -0.0429224 2.72598e-21)
(1.97158 0.0682328 4.6939e-22)
(1.75641 -0.184085 -3.50071e-20)
(-0.861507 0.45297 9.78231e-19)
(1.73773 -0.784642 0)
(1.22123 -0.587327 0)
(2.43874 -0.270472 -1.12638e-19)
(1.589 -0.557814 3.54016e-21)
(2.25709 0.252284 3.16519e-22)
(1.02445 -0.0334408 0)
(1.16876 -0.578776 -2.47492e-19)
(2.03925 0.649137 0)
(2.30639 -0.092811 0)
(1.95961 -0.111709 0)
(1.77465 0.151161 -1.15827e-20)
(0.877195 -0.520243 -6.26331e-20)
(-1.21859 2.45447 0)
(1.76897 -0.498297 0)
(1.75102 -0.161675 5.02592e-20)
(1.8326 -0.641163 0)
(1.79816 -0.0344002 0)
(2.17714 -0.243682 6.16188e-21)
(2.20799 0.0776221 1.25512e-19)
(1.90333 -0.0538479 -5.97977e-20)
(2.26978 -2.25349 -3.6062e-19)
(1.79386 -0.0226552 -8.26207e-21)
(-1.11055 -0.0567137 -3.56779e-19)
(0.517858 0.551452 9.76929e-19)
(-0.235771 0.164104 6.61776e-19)
(1.99956 0.015683 -5.98886e-20)
(1.89518 0.437489 -2.82522e-19)
(0.601474 0.759877 -1.7205e-19)
(1.76056 -0.779273 0)
(1.78529 0.143646 3.16613e-21)
(1.96912 -0.548313 -1.02654e-19)
(3.08921 0.0161503 -4.91303e-19)
(2.55032 -0.171339 1.16666e-19)
(2.46497 -0.187203 0)
(1.84337 -0.506119 0)
(2.09931 0.00271504 1.34697e-21)
(4.07443 0.31934 -9.18279e-19)
(2.12331 -0.206322 -5.73736e-21)
(0.244392 1.71937 0)
(2.83045 0.0160911 0)
(2.04052 0.0789965 0)
(2.01126 0.0219981 5.81943e-21)
(2.39508 -0.384405 0)
(1.983 0.0117383 -1.12191e-21)
(1.56997 0.40302 -1.60857e-19)
(2.20238 0.334223 0)
(2.82763 0.0625377 0)
(1.56108 -0.706995 0)
(-0.374994 0.168564 7.56742e-20)
(1.6868 -0.673317 5.99915e-19)
(2.10059 -0.531121 -4.12628e-19)
(2.6999 0.0152488 1.18811e-19)
(1.69362 -0.65149 -9.10028e-19)
(2.35148 -0.259281 6.39007e-20)
(0.731445 -0.347523 3.01231e-19)
(1.81332 -0.0498712 0)
(2.5711 0.783651 -5.17904e-20)
(2.37688 0.720493 5.64311e-20)
(0.389239 -0.100365 -7.34068e-19)
(2.10705 -0.18061 1.13915e-20)
(-0.250765 0.178624 1.78945e-19)
(0.358544 0.496053 1.69125e-20)
(2.19666 0.306359 1.063e-19)
(1.99756 0.0903349 -4.61034e-19)
(2.31049 -0.181818 9.22718e-21)
(1.97923 0.0377669 3.67558e-23)
(-2.02399 0.202669 0)
(2.43509 1.12328 3.47269e-20)
(3.20138 0.0772506 6.56126e-19)
(1.97947 0.0632417 -5.87038e-19)
(2.46577 -0.174008 0)
(1.98477 -0.277291 5.86102e-19)
(2.25731 0.229443 8.4198e-22)
(2.37768 -0.180899 -3.64329e-21)
(-1.52454 1.00241 0)
(2.68145 -0.0266089 1.45386e-20)
(2.68928 -0.188146 -2.6445e-19)
(2.08618 0.075992 -2.30513e-22)
(2.64789 -0.308609 -1.23582e-19)
(2.44127 -0.746495 0)
(1.04694 -0.505715 -3.21072e-19)
(1.75144 0.175355 0)
(2.45204 0.0529315 0)
(1.83808 -0.124478 0)
(1.26731 0.872562 -3.35198e-19)
(1.88099 -0.154402 0)
(-1.19081 2.48699 -3.24623e-19)
(2.187 -2.53607 7.91227e-19)
(2.5949 -0.00493654 6.89051e-20)
(1.04928 -0.518092 -1.28438e-19)
(2.54937 0.742989 -1.49806e-20)
(-0.925822 -0.811005 1.87619e-19)
(2.22055 0.0977457 -3.78217e-21)
(1.30857 -0.632431 -3.37851e-19)
(1.65655 -0.715143 2.73091e-20)
(2.07562 -0.388852 5.01266e-19)
(1.90149 -0.144158 -6.13006e-20)
(0.494273 -0.666945 4.33002e-20)
(1.88818 -0.0384726 4.62022e-19)
(1.82514 -0.130087 0)
(2.69424 -0.00952456 0)
(2.87852 -0.216748 4.22669e-19)
(3.28364 -1.2756 6.02881e-19)
(1.60478 -0.0213611 5.62618e-19)
(1.96572 0.0670366 5.29971e-22)
(2.48762 0.209277 -1.0502e-20)
(2.13843 -0.731046 4.49448e-20)
(2.73952 -0.406067 0)
(1.82668 1.03227 5.64234e-19)
(1.53489 -0.333632 0)
(3.19733 0.815318 0)
(0.823919 -0.129602 -1.47321e-18)
(2.86051 0.049465 0)
(1.95152 -0.543579 2.37774e-19)
(2.67871 0.0300104 0)
(2.59802 -0.165754 -2.27875e-20)
(1.20347 -0.565005 2.10839e-19)
(2.61893 0.371686 -4.60008e-21)
(-1.2737 -1.41159 2.52524e-19)
(2.08415 -0.478162 6.97515e-21)
(1.64295 -0.309006 -3.33991e-21)
(1.9994 -0.27042 -1.88456e-19)
(1.43411 -0.172898 2.19115e-19)
(3.12571 -0.00941474 6.15349e-19)
(0.844445 -0.407767 2.35341e-19)
(-1.93057 -0.058167 0)
(1.02006 -0.496434 2.47809e-20)
(2.51747 -0.243397 2.09831e-19)
(2.45725 0.0357111 -5.02312e-23)
(0.889808 -0.430095 6.71815e-19)
(2.37581 -0.11513 0)
(3.31827 -0.137589 0)
(2.00398 0.0659407 7.04058e-19)
(2.32459 0.158649 0)
(0.898638 -0.446163 2.22691e-19)
(1.68593 -0.210857 -3.13115e-20)
(1.79973 0.0877654 0)
(2.25227 -0.012432 -4.14982e-20)
(3.08662 -0.693854 8.77264e-19)
(-0.230844 -0.103299 1.10786e-18)
(2.02399 0.502066 0)
(-2.67914 1.21312 -4.21882e-19)
(0.987849 -0.0036769 8.76192e-20)
(0.985528 -0.48413 3.11126e-19)
(1.76208 -0.19011 0)
(1.96679 -0.454636 4.22416e-20)
(-1.78708 0.319177 3.74225e-19)
(2.43637 -0.236641 1.09234e-19)
(2.10212 -0.751807 -5.68915e-20)
(-0.26488 0.196138 -7.89374e-20)
(3.29731 -0.1499 4.14899e-19)
(1.76871 0.244472 0)
(1.67415 -0.200818 -3.81968e-22)
(2.37773 -0.315849 -1.95861e-19)
(-2.13999 0.523196 -4.64281e-19)
(2.19971 -0.696604 -1.50672e-19)
(-1.55912 1.12769 0)
(2.10503 -0.463587 -1.08026e-19)
(-1.24678 -0.580497 -3.2774e-19)
(2.12814 -0.00992706 -2.56449e-19)
(1.22443 -0.416387 0)
(1.51952 0.949619 2.42717e-19)
(1.97243 0.0699812 -1.60201e-19)
(2.76533 -0.426836 0)
(2.55864 -0.11058 7.65456e-20)
(1.13315 -0.544484 2.79096e-19)
(2.99372 -0.705038 -4.89808e-19)
(1.97409 -0.41777 0)
(1.09485 -1.29172 0)
(1.77952 -0.21546 -3.79582e-20)
(2.22144 -0.196769 1.81149e-20)
(1.10642 -1.37948 1.15063e-19)
(2.11208 -0.185288 -2.12544e-19)
(1.93872 0.0906786 3.47668e-19)
(4.32686 -0.289991 -7.87242e-19)
(-1.55259 2.39237 1.84655e-18)
(0.443176 -0.307152 1.47757e-18)
(3.06629 0.0989752 4.95686e-19)
(1.84583 -0.0733834 7.84169e-20)
(2.68151 -0.164963 3.35224e-20)
(2.10308 -0.000667646 0)
(-1.90714 0.121693 0)
(1.42505 -0.139893 4.41024e-20)
(1.20188 -0.580201 2.45123e-19)
(1.99755 0.0231124 -5.88879e-20)
(2.54831 -0.231693 1.95011e-19)
(2.58598 -0.279672 0)
(2.09577 -0.0366437 -1.57183e-19)
(2.57103 -0.0932718 -5.88634e-20)
(1.93021 0.0754689 -3.18413e-19)
(2.52547 -0.466444 2.86141e-21)
(1.95287 -0.222002 -7.73448e-20)
(0.572925 -0.681784 6.82817e-21)
(2.26896 -0.181957 -1.55765e-20)
(2.4242 -0.23773 1.24116e-19)
(1.74527 0.124277 5.70341e-21)
(1.36161 -0.621035 0)
(0.643464 -0.0545035 0)
(2.21776 -0.0333487 8.4701e-20)
(1.64545 -0.332996 1.04429e-20)
(1.73443 0.181429 0)
(1.8449 1.27305 -1.22427e-18)
(-1.42016 0.628967 0)
(2.33562 1.09757 1.96288e-20)
(2.44141 -0.271481 -1.20698e-19)
(1.90252 1.42383 0)
(1.8835 0.42949 -1.74532e-19)
(1.35079 -0.152578 -6.65126e-20)
(1.86088 0.213385 -2.07628e-20)
(1.88341 -0.031673 -5.10118e-19)
(2.1742 -0.472795 0)
(1.70194 0.210812 2.85704e-20)
(1.53483 -0.106472 -1.78531e-21)
(1.98885 0.0606628 7.41987e-20)
(1.61873 0.1444 -3.03993e-19)
(0.705149 0.733764 3.19083e-19)
(2.47718 -0.238458 1.61045e-19)
(2.2104 -0.340344 -5.45517e-19)
(2.12926 -0.183741 0)
(2.6311 -0.0797791 1.44269e-21)
(2.244 -0.346251 -9.4235e-20)
(2.00108 0.0311861 8.07777e-19)
(2.10205 -0.583252 0)
(2.47477 -0.257763 -3.99424e-20)
(1.4207 0.403864 0)
(2.49011 -0.34036 -7.36324e-20)
(1.86855 -0.515977 -1.80929e-19)
(0.645831 -0.301482 2.82252e-19)
(2.37779 -0.401855 -1.17998e-19)
(2.02145 0.198607 0)
(1.65596 -0.211018 -4.96096e-20)
(2.1381 -0.478685 1.18282e-19)
(1.62932 0.151809 2.87052e-19)
(2.25948 -0.350889 3.77661e-19)
(2.36982 -0.183248 1.92416e-19)
(-2.39006 1.81455 -1.20727e-18)
(2.01738 0.0780058 1.05483e-22)
(2.23025 -0.175274 0)
(0.972158 -0.334071 6.79815e-19)
(3.21514 0.78466 0)
(1.44465 -0.174168 2.45111e-21)
(2.27412 -0.0907807 3.48681e-19)
(2.60243 -0.0936642 -5.59069e-20)
(2.56451 -0.109046 5.83516e-20)
(0.237519 -0.0437714 -1.06579e-18)
(1.93902 0.0750446 3.9736e-19)
(1.92548 0.0248034 0)
(-0.644737 0.347874 -4.82823e-19)
(2.18864 -0.246516 -1.21147e-19)
(1.66822 -0.326824 -8.0663e-21)
(3.10556 -1.27987 4.9362e-19)
(2.43695 -0.0180703 0)
(2.5472 -0.2457 1.07576e-19)
(1.78755 0.171879 6.17642e-19)
(1.96903 0.0788502 4.87429e-19)
(2.72388 -0.47758 0)
(1.98123 0.00233813 -3.04265e-22)
(2.60605 -0.26943 -1.97085e-19)
(-1.40085 -0.529182 2.22293e-19)
(1.56816 -0.0367079 7.81499e-20)
(2.19557 -0.212419 1.15174e-19)
(2.0375 0.0067767 -1.33084e-21)
(2.22397 -0.167898 0)
(2.58915 -0.156461 -7.76414e-20)
(-2.7058 1.36821 4.44408e-19)
(2.46135 0.428393 1.38761e-21)
(1.99773 0.0291612 3.09829e-19)
(1.3834 0.0285255 0)
(1.561 -0.182926 -6.23889e-20)
(2.02286 1.43945 0)
(3.32298 1.30776 -2.78412e-19)
(2.13682 -0.0279476 0)
(2.09278 -0.676922 -6.8537e-21)
(1.29642 -0.0937449 -1.66744e-19)
(1.50727 0.878787 5.80057e-19)
(-1.32609 -0.261761 -8.22062e-19)
(2.00759 -0.414217 0)
(2.39514 0.0645732 -7.61287e-20)
(2.0282 0.207077 -1.85199e-19)
(0.975318 -0.504689 -4.46225e-19)
(-0.718662 -0.319105 2.19642e-20)
(1.6335 -0.0374028 -8.48648e-19)
(2.82039 -0.376719 2.05361e-19)
(2.09838 0.203734 1.31764e-19)
(1.42732 -0.442721 0)
(1.34385 0.334021 3.2856e-19)
(1.81363 0.15743 -7.50726e-21)
(-1.61524 0.668712 5.67438e-19)
(-2.73379 1.3141 -1.48803e-18)
(1.12896 -0.397955 -9.20349e-19)
(3.09887 0.0773759 0)
(1.05951 -0.478162 0)
(2.00383 1.21502 0)
(2.10376 -0.083711 0)
(0.829799 -0.154807 -1.12693e-19)
(2.46228 -0.317389 0)
(1.53341 -0.208403 0)
(1.65691 0.11486 1.17905e-19)
(3.19306 0.0955679 -6.80473e-19)
(2.19899 -0.160641 -2.82884e-19)
(1.69467 0.344306 1.012e-18)
(2.00625 0.0225396 -9.49487e-20)
(2.32819 1.74902 0)
(2.88188 -0.300549 0)
(1.92174 0.0794706 3.39928e-19)
(2.02314 0.0520555 6.04645e-20)
(1.28247 0.926849 0)
(-1.59398 0.973393 1.22776e-18)
(2.18176 -0.71301 1.69583e-19)
(-0.294815 0.139064 0)
(2.37102 -0.115636 1.92626e-19)
(1.97515 0.0627941 -3.9355e-19)
(0.317038 0.0204196 -5.93283e-20)
(0.967333 -0.319593 0)
(2.01164 0.212596 3.45331e-19)
(2.66428 0.208107 0)
(2.6395 -0.301807 0)
(2.23035 0.208988 -1.7596e-20)
(1.93411 0.0957933 1.82826e-19)
(0.378069 -0.174902 -1.16619e-18)
(2.33352 0.709929 3.22285e-20)
(1.31301 -0.32776 -2.9281e-19)
(2.10828 -0.0739952 3.76848e-20)
(2.10245 0.198242 1.02959e-19)
(2.69451 -0.157441 1.95083e-19)
(2.28109 -0.689773 0)
(3.13634 -0.566317 4.35121e-19)
(1.30683 -0.0356307 0)
(1.49055 -0.154776 3.65522e-20)
(2.29369 -0.187159 0)
(1.42102 0.0809768 4.37794e-19)
(-0.625046 -0.253639 -1.33957e-18)
(2.78174 -0.362886 0)
(-0.201266 0.128703 2.97904e-20)
(2.89292 -0.332925 -4.50813e-19)
(1.75108 -0.302725 -2.74269e-20)
(1.75815 -0.253917 7.87529e-19)
(1.39971 0.865443 -3.64954e-19)
(1.30408 -0.315609 -8.3492e-19)
(3.47863 1.28349 0)
(1.76091 0.147437 1.22163e-20)
(-2.33718 1.91285 -3.03929e-18)
(2.01636 0.220613 0)
(1.84119 0.240091 2.26069e-20)
(2.93913 -0.0312117 -4.62732e-20)
(2.73146 1.18588 0)
(2.00338 0.0188639 0)
(-2.17963 1.11416 0)
(-1.7667 -0.223518 1.67441e-18)
(4.25365 -0.377821 9.51505e-19)
(3.73107 0.379413 3.01263e-20)
(2.3012 1.05141 0)
(1.69613 -0.156988 5.43052e-19)
(1.97168 0.0372341 -1.2103e-22)
(2.33108 0.654678 -6.4899e-20)
(-1.36568 0.289857 6.49905e-19)
(1.90823 0.172324 0)
(2.02634 0.0808591 0)
(0.700146 -0.0898951 -4.63752e-19)
(1.40092 -0.433991 -2.03502e-19)
(1.95052 -0.171101 0)
(1.26748 -0.613373 -2.21738e-19)
(1.94903 0.0194944 9.62812e-22)
(2.00929 0.0618553 -1.95194e-22)
(0.727443 -0.336221 0)
(1.92779 -0.0458568 7.7781e-20)
(1.79623 0.140876 8.20521e-21)
(2.66099 0.185809 1.12159e-19)
(1.85042 -0.534293 0)
(0.447485 -0.264311 -2.22434e-18)
(2.58152 -0.0967674 6.41931e-20)
(2.0019 0.0940694 7.26427e-20)
(1.87806 0.0340754 4.14214e-21)
(2.64272 0.77011 0)
(1.66828 0.338693 -2.69632e-19)
(3.18119 0.542864 -2.32587e-19)
(1.08541 -0.306169 1.90869e-19)
(2.0087 0.053989 0)
(-0.7796 -0.364518 -2.24583e-20)
(0.435246 -0.0676034 0)
(2.0049 0.0504736 -2.81809e-19)
(1.99121 0.0716911 1.22282e-19)
(1.87665 0.0559705 -6.63284e-20)
(-2.03224 0.0726229 0)
(2.3156 0.0322327 -1.61891e-20)
(1.06704 0.485749 8.95805e-19)
(2.24955 -0.685127 0)
(1.62358 0.101965 3.67269e-19)
(2.49779 -0.48405 -3.12921e-21)
(2.21159 -0.0166782 0)
(-1.26835 -0.729855 1.80003e-19)
(1.83428 -0.483594 -6.9057e-20)
(2.04866 -0.000424703 0)
(0.690199 0.0181431 1.4245e-18)
(1.82928 0.227964 0)
(1.6554 -0.754999 2.38633e-19)
(-2.72098 1.10053 8.87878e-19)
(2.08563 0.0850259 2.49718e-22)
(2.51207 0.169712 -4.01494e-20)
(1.33566 0.314097 1.73768e-19)
(1.75144 -0.28177 -2.90207e-19)
(2.00996 -0.377515 -4.69275e-20)
(1.69594 -0.762969 2.98262e-21)
(2.1782 -0.217523 1.13014e-19)
(2.62998 0.776356 1.13542e-19)
(1.81072 -0.799762 0)
(1.99672 0.0246354 -2.74753e-19)
(0.0100265 0.219786 -5.09536e-19)
(1.33364 -0.0472684 0)
(1.83971 0.225503 -1.49162e-21)
(1.61803 0.00699968 0)
(1.19197 -0.340265 7.21194e-19)
(2.06359 -0.747565 0)
(1.79975 0.00112885 -3.47982e-21)
(2.28449 -0.0875933 -1.98705e-19)
(-1.22294 -1.01248 3.35716e-19)
(-2.33014 1.16284 1.25428e-18)
(2.32847 -0.0228551 -1.71948e-21)
(1.30697 -0.61732 1.81051e-19)
(1.75494 -0.49306 2.72469e-19)
(1.44924 -0.312729 0)
(-0.418722 0.328709 -6.6507e-19)
(2.30199 -0.624205 -3.57952e-20)
(-0.441451 0.432898 -7.82271e-19)
(2.01099 0.0721846 3.48015e-23)
(1.40861 -0.544714 0)
(2.23673 -0.0199766 -1.48796e-21)
(-1.6956 1.13014 0)
(-2.28599 0.548415 5.34025e-20)
(0.331483 -0.0603085 7.36165e-20)
(-0.129738 0.163967 0)
(2.04169 -0.507176 7.50749e-20)
(2.1433 -2.64712 0)
(2.74754 1.09714 0)
(1.43087 -0.676584 -3.14892e-19)
(1.45062 0.372925 2.6731e-19)
(1.65975 -0.606114 0)
(1.79471 0.19715 -1.69806e-19)
(3.65051 0.402087 9.47105e-19)
(-2.68934 1.50388 2.07625e-18)
(2.72142 1.456 0)
(2.18401 -0.0453061 0)
(-2.21828 1.99628 -1.32818e-18)
(1.87821 -0.102659 0)
(2.72198 0.0274449 0)
(-1.08922 2.36961 -2.32865e-20)
(2.04213 -0.366389 -3.69534e-19)
(1.72148 -0.405745 2.37993e-19)
(3.34626 -0.222263 6.04949e-20)
(-0.589749 0.502123 1.44416e-18)
(1.9921 0.0609206 1.39577e-19)
(1.48418 -0.34645 0)
(2.18339 0.503335 -5.19782e-20)
(1.38421 -0.175862 0)
(2.41245 0.0402056 0)
(2.00009 0.118451 0)
(2.22067 0.189744 -1.43989e-20)
(1.86663 -0.0284669 2.37344e-19)
(2.29424 0.106046 -2.92405e-21)
(1.52725 -0.352108 0)
(0.322064 -0.129504 -8.61309e-19)
(2.0389 1.15593 8.35965e-20)
(1.83153 -0.655669 2.49248e-20)
(2.02707 -0.0979463 -1.27235e-19)
(2.95749 -0.699353 7.82671e-19)
(2.0396 0.0685138 -2.26852e-19)
(-0.627867 -0.31418 0)
(2.56605 -0.0973497 0)
(1.41773 0.881982 0)
(1.16334 -0.523392 -5.13944e-19)
(0.0197213 -2.03789 -3.56555e-19)
(0.375458 0.132604 0)
(2.20874 0.516878 0)
(2.61361 -0.185898 8.91788e-20)
(1.9472 -0.0346246 -5.94307e-20)
(1.89626 0.658706 2.92771e-19)
(1.65875 -0.707048 0)
(-1.31857 1.88688 -3.52237e-19)
(2.43536 0.0721857 2.40573e-20)
(1.37046 -0.398297 -4.8762e-19)
(2.2635 0.0681973 -7.90564e-20)
(2.32218 0.660369 1.13876e-19)
(3.98481 -1.52699 8.67152e-19)
(1.16147 -0.527484 8.98448e-19)
(2.12898 -1.17632 2.59799e-19)
(2.28228 0.226536 7.70382e-22)
(1.99994 0.0143007 -6.90584e-20)
(1.15042 -0.536216 -6.89934e-20)
(1.84845 -0.458353 2.92981e-20)
(1.60114 2.13275 -1.06689e-20)
(1.28312 -0.611886 1.15381e-19)
(2.63332 -0.0648468 0)
(1.6481 -0.257421 -4.02081e-22)
(2.21526 -0.0433339 -2.5544e-19)
(2.96075 0.82292 1.15745e-19)
(1.34107 -0.362054 -4.45895e-19)
(1.81357 -0.627359 -2.74175e-19)
(1.9437 -0.0100077 5.66746e-19)
(2.37866 -0.0561345 -3.23556e-19)
(1.37837 -0.161855 -4.45217e-20)
(3.0579 0.115201 -2.60929e-19)
(1.11292 -0.136686 -9.85858e-19)
(2.14243 -0.0267443 -1.99746e-19)
(1.09558 -0.202595 0)
(-1.31064 -1.14227 -1.05226e-18)
(1.89777 0.0347909 5.43662e-19)
(1.58823 -0.00591108 -9.82459e-22)
(-0.904699 0.0589272 0)
(1.52776 -0.696768 0)
(2.0338 0.46459 2.58379e-19)
(0.973158 -0.13017 6.12716e-19)
(2.02305 -2.43696 -1.56628e-18)
(2.11744 -0.671817 -1.19674e-19)
(2.22569 -0.353202 2.96736e-19)
(3.27967 0.758648 0)
(2.04469 0.506232 1.40615e-19)
(0.665031 -0.573667 -3.38827e-21)
(2.49082 1.12422 6.13462e-20)
(1.96848 -0.253436 -3.36947e-19)
(-0.775493 0.699729 -2.35907e-18)
(2.89187 -0.691437 -7.45533e-19)
(3.19209 -0.609403 2.37886e-19)
(2.25677 1.26677 0)
(2.31288 -0.441561 -8.96774e-20)
(1.88797 0.0530913 6.05199e-20)
(1.98117 0.0270743 3.66096e-22)
(0.760552 -0.366858 8.28214e-19)
(1.94878 -0.250986 5.04941e-19)
(1.44281 -0.261485 1.8562e-19)
(-2.73478 1.44452 -1.19972e-18)
(2.44012 -0.203967 -2.09354e-19)
(2.27587 -0.0240013 1.7801e-19)
(-1.44117 2.36996 -2.25803e-19)
(2.40045 1.071 -1.49767e-21)
(0.764071 -0.0652159 -1.54346e-18)
(0.920773 -0.449655 -2.68841e-19)
(1.994 0.0198326 0)
(2.27633 0.406683 1.72396e-21)
(-1.83112 1.88718 -9.83669e-19)
(1.2893 -0.121411 8.9633e-19)
(2.12442 0.0652678 0)
(2.02621 -0.230083 7.31437e-20)
(1.12986 -0.468238 2.04623e-19)
(1.99296 0.0441508 -5.98191e-19)
(-2.47829 1.58294 -1.22673e-18)
(1.6662 -0.590246 -1.24802e-20)
(2.20885 -0.170769 1.92247e-19)
(2.34982 0.0670483 1.08943e-19)
(1.67579 -0.764165 -3.26981e-19)
(2.30857 0.156336 3.67259e-21)
(0.12593 -2.2519 -1.32019e-18)
(2.12397 -0.0426092 2.39639e-19)
(2.10709 -0.0630075 -1.63139e-19)
(2.16425 0.103598 -6.60609e-21)
(2.12896 -0.0325388 -3.54711e-19)
(1.0661 -0.473593 -3.95272e-19)
(2.27899 0.209137 0)
(-2.02372 -0.46294 1.09045e-18)
(2.11019 0.0737389 4.3801e-20)
(0.751324 -0.0136368 -8.39962e-20)
(2.45962 0.0322791 -2.39215e-20)
(2.1731 -0.372471 -1.85632e-19)
(2.00022 0.0183104 -4.73563e-19)
(2.10704 0.340787 7.82269e-20)
(-1.71146 1.11239 -1.26803e-18)
(2.73427 0.0326916 0)
(1.59125 -0.166954 3.17841e-20)
(2.61545 -0.0996431 5.72213e-20)
(1.41919 -0.531348 0)
(2.15567 0.0802804 1.43904e-19)
(2.63319 -0.0814768 6.10891e-20)
(2.70655 0.038012 2.47059e-24)
(2.44855 -0.756462 4.64562e-20)
(1.94286 -0.138811 0)
(1.77457 0.378978 4.93837e-19)
(2.12417 0.7511 -2.06093e-19)
(1.25154 -0.60429 2.61457e-19)
(2.0169 -0.169609 0)
(1.4461 0.328148 -7.73225e-19)
(0.949432 -0.435437 -6.6673e-20)
(2.48391 1.55225 -2.23328e-19)
(1.12337 -0.161788 9.57844e-19)
(2.12803 0.00397498 5.6239e-21)
(-2.43352 1.25374 1.02819e-18)
(1.93997 -0.0904136 -3.63425e-19)
(3.13607 -0.444106 -5.99031e-19)
(1.77344 0.16765 -3.56883e-19)
(1.96167 0.0060732 0)
(2.00011 0.033429 -2.60679e-19)
(0.20699 -0.0942642 5.28364e-19)
(-0.461021 0.37873 0)
(3.4725 -1.13922 0)
(1.97915 0.0271984 0)
(0.934443 -0.234957 0)
(2.05646 0.338768 0)
(1.04882 -0.129092 0)
(2.23041 -0.728429 -8.14372e-21)
(3.84624 0.243033 -5.6404e-19)
(2.64884 0.400394 0)
(1.75317 0.379834 7.43857e-19)
(1.2639 -0.475605 8.63474e-20)
(2.08889 0.210031 6.43304e-21)
(-1.58846 2.06026 -4.41891e-19)
(1.06358 0.107638 -1.75174e-21)
(-1.94235 1.2361 1.0818e-18)
(1.79509 0.000470329 -1.31396e-19)
(2.84179 -0.0200477 3.17421e-20)
(2.0317 0.320611 -1.78277e-19)
(1.8648 0.203679 -4.82508e-19)
(1.97346 1.07638 -2.04198e-19)
(3.33377 1.25447 0)
(-1.06878 -0.0890432 7.93233e-20)
(1.21372 -0.355966 -7.90154e-19)
(2.01057 0.0272734 -8.03591e-19)
(2.31437 -0.633618 -1.69925e-19)
(1.9837 -0.0294742 5.58104e-20)
(2.6388 -0.541245 -7.25412e-20)
(2.11587 -0.286675 -4.1876e-20)
(2.05667 -0.496329 -2.59375e-19)
(2.02902 0.185356 1.92813e-19)
(1.77871 1.15114 0)
(1.98793 -0.335094 -4.27075e-20)
(1.67587 0.0937022 -1.0919e-19)
(2.4692 -0.298285 0)
(1.79771 -0.189068 0)
(1.73378 -0.789883 -4.01857e-21)
(-2.45806 1.1539 1.08358e-18)
(2.18955 -0.758786 -2.40023e-19)
(1.73825 -0.00907213 0)
(1.9077 -0.0413343 -4.82708e-19)
(1.79697 0.239097 -9.34662e-20)
(-2.04881 -0.572458 5.75004e-19)
(2.67184 -0.0303523 2.0145e-20)
(-2.122 1.30041 0)
(-1.16159 -0.0105752 1.10888e-19)
(2.65894 -0.0607907 0)
(2.28615 -0.465058 9.40942e-20)
(2.50963 -0.244918 -8.31799e-20)
(1.99984 0.0299589 -1.91289e-22)
(2.39239 0.733049 -9.9863e-20)
(2.70833 1.33729 -3.2594e-20)
(1.70695 -0.471728 5.68297e-19)
(-0.286923 -0.688679 0)
(1.72587 -2.30512 -6.14788e-19)
(1.34502 -0.802706 0)
(2.71235 0.387864 -5.03164e-20)
(-2.11617 -0.350699 1.00801e-18)
(3.40775 -1.09618 6.6166e-19)
(1.62817 -0.166744 -3.06397e-20)
(-1.63559 0.702237 -2.49354e-18)
(1.07653 -0.530192 -3.01921e-19)
(1.25861 -0.364857 -4.57227e-19)
(1.8012 0.159474 2.72753e-21)
(1.92692 -2.10221 5.06791e-19)
(1.10761 -0.488205 3.25101e-19)
(1.31811 -0.392603 5.00303e-19)
(0.0918077 -1.95683 4.47045e-19)
(2.44494 -2.21186 -3.61044e-19)
(1.80812 -0.55223 2.75454e-19)
(-1.35691 -0.464872 9.39868e-19)
(2.29754 0.0212172 1.12365e-21)
(1.26437 -0.512649 -7.17725e-20)
(2.36388 0.456343 -4.52833e-20)
(2.24258 -0.505974 0)
(0.914944 -0.273196 -1.81664e-18)
(2.10825 -0.0391086 -3.08457e-19)
(1.9972 0.127175 0)
(2.6807 0.362669 0)
(1.17397 -1.64284 -1.96681e-19)
(3.44834 -0.410829 -6.35309e-19)
(2.47713 0.237579 1.70282e-20)
(2.03831 -0.357462 4.84121e-19)
(1.95404 1.03654 1.86985e-19)
(1.41571 -0.01636 3.61038e-19)
(-2.28085 -0.0451943 -8.26097e-20)
(1.77956 0.675559 0)
(1.34905 -0.424464 4.77653e-19)
(-0.58325 2.11895 2.07545e-19)
(-1.91582 0.713497 1.89709e-18)
(1.68343 -0.634812 9.26805e-20)
(1.46318 -0.65721 -3.20397e-20)
(1.68615 -0.00885393 1.89721e-19)
(1.72323 -0.158432 1.68668e-20)
(2.6601 -0.451577 4.41186e-19)
(-2.31538 -0.15488 -7.99624e-19)
(2.45614 0.23063 -1.00567e-20)
(1.94624 0.0706266 1.97708e-19)
(1.09 -0.190856 -3.93176e-19)
(1.88443 -0.0778428 2.99432e-19)
(1.27212 -0.182848 0)
(2.46069 0.421622 5.91359e-21)
(1.98458 0.0637269 4.42721e-20)
(1.43654 -0.27791 -1.53891e-19)
(1.83854 1.92241 3.26845e-20)
(1.77854 -0.539883 2.07337e-19)
(2.07912 0.0320313 8.33839e-20)
(1.34317 0.16593 -5.93792e-19)
(2.46051 -0.312161 0)
(1.61588 -0.13255 -5.56342e-20)
(2.27758 0.0900049 1.0735e-19)
(2.16091 -0.113475 0)
(1.37438 0.0550272 3.38078e-19)
(2.67377 -0.0297767 0)
(1.73923 1.92083 1.17235e-19)
(2.32545 -0.0316166 0)
(1.98715 -0.368689 0)
(2.54467 -0.041598 4.71018e-20)
(2.44619 0.181067 9.61848e-21)
(3.0548 0.274931 -3.91041e-19)
(1.91526 0.160048 -2.20556e-19)
(1.55831 1.25864 -1.49797e-19)
(2.00152 0.101857 -8.8477e-20)
(2.08644 0.345695 0)
(-0.0108936 0.46417 -7.04729e-20)
(2.5612 0.160459 6.16881e-20)
(2.24216 -0.450509 -1.91808e-19)
(2.24046 -0.501317 0)
(2.99621 0.806611 1.77551e-19)
(2.18594 1.74333 1.0243e-20)
(2.27442 0.0117668 6.89204e-21)
(1.7601 -0.679873 0)
(-0.759908 2.27508 1.38928e-18)
(2.04973 0.181164 0)
(2.67773 -0.3921 -2.18473e-19)
(-0.18577 -0.0483981 0)
(2.40788 0.218911 0)
(2.09711 -1.29081 0)
(2.01676 -0.742563 0)
(-1.1776 2.43059 -1.7296e-19)
(-1.63274 -0.499072 -3.57292e-19)
(1.85654 -0.0241053 -3.56232e-19)
(-1.43455 -0.905932 -4.62757e-19)
(1.19179 -0.516787 0)
(-1.09282 -1.46989 -4.37215e-19)
(-0.381279 -0.100532 -1.09264e-18)
(1.44608 -0.679077 0)
(1.42357 -0.49752 -5.06143e-19)
(1.69244 0.3307 -4.40988e-21)
(2.34967 0.440704 1.08269e-19)
(2.42689 -0.772523 7.27938e-21)
(1.85202 0.19001 0)
(2.19321 -0.66686 0)
(3.43758 0.434924 1.87609e-19)
(1.8456 -0.414483 7.83809e-21)
(1.73607 0.128324 -1.08907e-20)
(1.15446 -1.54066 1.40052e-20)
(1.99832 0.00883624 1.93864e-20)
(2.26634 0.3945 -1.43727e-21)
(2.02803 0.187757 2.7717e-19)
(1.54022 -0.131379 3.03384e-20)
(1.86962 -0.496439 0)
(0.2347 0.0313874 0)
(2.316 0.134082 0)
(1.80919 0.019445 0)
(1.7189 -0.30028 2.13585e-19)
(2.95661 -0.0107901 0)
(-1.04892 2.49613 2.49963e-18)
(3.48036 -2.13486 -4.81545e-20)
(1.28262 -0.407248 -7.51646e-19)
(1.22282 -0.45522 -4.47918e-20)
(-1.87456 -0.657952 -6.11342e-19)
(-0.482273 2.43679 -1.10681e-18)
(1.85547 0.0534203 6.65291e-20)
(-2.39935 0.350773 -8.53535e-19)
(1.48756 -0.117577 5.04158e-20)
(2.57409 -0.0290227 0)
(2.32596 -0.324487 0)
(1.47781 -0.374245 0)
(2.16994 -0.388747 9.74323e-20)
(2.48983 -2.50552 0)
(1.81344 0.682692 0)
(2.00187 0.011687 0)
(1.74487 -0.410622 2.22053e-19)
(2.088 0.210417 -2.64125e-19)
(1.6836 0.0267563 0)
(2.31815 -0.725098 -2.35505e-19)
(1.97681 0.192459 -2.64871e-19)
(2.49987 1.03 -1.30827e-19)
(1.48425 -0.692489 2.94561e-19)
(1.89124 0.729611 6.58076e-22)
(1.82245 -0.558638 -5.38948e-21)
(1.76838 -0.209211 3.7444e-20)
(2.02464 -0.469218 -8.73787e-20)
(2.42877 0.188171 -8.52854e-21)
(1.7599 0.127881 -2.08218e-20)
(1.81076 0.0895626 -3.44339e-19)
(2.12453 -0.0398372 0)
(0.67559 0.0113954 6.38969e-20)
(1.96683 0.0741091 3.58919e-19)
(0.789929 -0.61017 -6.67065e-20)
(2.11071 -0.27274 -1.23047e-19)
(1.00426 -0.151644 -6.67978e-19)
(2.44659 0.162804 5.58878e-22)
(3.20139 0.561404 3.33957e-19)
(1.99879 0.0863081 0)
(1.60976 -0.225737 -1.00868e-20)
(1.7268 -0.0326175 -1.52652e-20)
(2.04975 -0.475952 1.76822e-19)
(-1.3575 0.210154 -7.3258e-19)
(2.06286 0.0370408 1.80173e-19)
(2.30483 0.20734 -8.52217e-22)
(2.15051 0.0109658 -4.21129e-21)
(2.27815 0.107599 0)
(1.09324 -0.315724 0)
(1.3054 -0.625455 3.63951e-19)
(-2.40442 1.44609 1.33053e-18)
(1.99942 0.0103263 3.62544e-22)
(1.96449 0.0738366 7.16889e-19)
(1.58218 -0.223878 3.39434e-20)
(1.41235 0.312488 0)
(1.78409 0.115279 0)
(1.56224 -0.337029 -4.08546e-21)
(2.47143 -0.00714197 7.38429e-20)
(1.94193 0.710045 3.94293e-19)
(2.4567 -0.164535 0)
(2.10906 0.0109838 0)
(2.07188 -0.5598 3.44264e-19)
(1.99434 -0.154029 2.74673e-19)
(-0.174559 0.619817 -5.39537e-20)
(1.73966 -0.0533021 0)
(2.04824 0.14891 1.6681e-19)
(2.5946 -0.896518 -1.08584e-19)
(-2.01901 1.73334 -1.14594e-18)
(2.02535 -0.0189907 -3.815e-19)
(3.84009 0.134945 0)
(3.51146 -0.352865 5.08977e-19)
(2.31809 -0.976458 -2.17642e-18)
(-0.0231627 0.430934 0)
(1.84554 0.0299728 -1.32175e-20)
(1.91319 0.124619 -2.34791e-19)
(1.81095 0.0143153 -1.15458e-24)
(2.52066 -0.25498 4.78044e-20)
(1.23598 1.06001 3.83931e-19)
(1.85593 0.0468766 0)
(0.987156 -0.356891 -4.66145e-21)
(1.57371 -0.211516 -3.41166e-20)
(2.35484 1.01226 -1.88921e-18)
(2.04559 0.320591 2.11577e-19)
(-0.14764 -0.711386 5.01936e-20)
(2.01427 0.0248331 -8.30046e-19)
(1.50905 -0.396753 -1.14571e-19)
(1.70236 -0.204117 3.44346e-20)
(1.70858 -0.374012 0)
(1.76262 0.00939165 -7.74315e-20)
(1.03419 -0.476334 2.59762e-19)
(2.25768 -0.0894351 -3.86197e-19)
(1.98933 0.0636815 -3.23941e-19)
(2.65684 -0.375564 1.98408e-19)
(1.64823 -0.145577 7.99286e-19)
(2.23504 0.0139187 -5.22157e-22)
(1.77225 0.118384 2.01607e-19)
(1.82587 0.231105 -6.69162e-21)
(3.35521 -0.207163 -6.77493e-19)
(2.42455 1.14754 -7.73298e-20)
(2.14895 -2.41316 1.21361e-18)
(1.87949 -0.0207002 0)
(1.55727 -0.346884 0)
(1.30839 -0.125731 0)
(1.28392 -0.372527 5.83202e-19)
(2.15034 0.0719945 -5.27589e-19)
(1.77936 0.257938 0)
(1.4768 -0.297172 -4.5515e-19)
(1.77269 0.224601 0)
(1.72988 -0.273985 -3.5087e-19)
(2.21811 -0.475901 -2.02067e-19)
(1.84565 -0.466975 -3.04123e-19)
(1.93713 0.0471317 0)
(1.9516 0.0613026 0)
(2.18345 -0.119949 1.1221e-19)
(2.61613 0.332069 4.58948e-21)
(2.86084 -0.101248 2.40416e-19)
(2.36947 1.83109 -4.81668e-21)
(2.46418 -0.214706 0)
(1.69191 -0.615155 -1.55526e-19)