/*--------------------------------*- C++ -*----------------------------------*\
| =========                 |                                                 |
| \\      /  F ield         | OpenFOAM: The Open Source CFD Toolbox           |
|  \\    /   O peration     | Version:  2306                                  |
|   \\  /    A nd           | Website:  www.openfoam.com                      |
|    \\/     M anipulation  |                                                 |
\*---------------------------------------------------------------------------*/
FoamFile
{
    version     2.0;
    format      ascii;
    arch        "LSB;label=32;scalar=64";
    class       volScalarField;
    location    "3.6";
    object      p;
}
// * * * * * * * * * * * * * * * * * * * * * * * * * * * * * * * * * * * * * //

dimensions      [0 2 -2 0 0 0 0];

internalField   nonuniform List<scalar> 
13486
(
65.0967
53.3368
13.1351
-90
26.3566
0.656245
22.7332
38.4286
46.6053
28.6798
-186.49
20.5655
68.1836
0.637456
27.2293
29.8078
-137.864
7.65454
24.2852
59.4431
-57.9802
67.5819
52.3008
-72.5054
25.642
-64.0396
-131.066
-15.5696
0.555531
-17.909
-37.8517
27.6352
-44.1972
-1.37877
38.5252
-2.80062
-52.0653
54.2583
-59.4772
46.8388
4.5557
70.8287
5.97322
26.5198
25.9348
19.99
-129.891
0.401998
-48.9229
-17.4776
40.6783
-0.188322
16.9855
55.0832
-1.09531
27.3079
12.8284
-14.759
-41.4571
-7.47968
-219.706
-5.5946
-77.1932
-54.5453
-90.5585
-36.1749
-108.212
65.1435
46.3191
-10.3584
-108.975
0.973698
47.6844
-97.4509
-11.3814
13.9007
-5.40824
26.7102
-133.984
-63.2938
-1.33621
53.1056
-78.8302
13.58
65.318
19.2403
-53.3733
38.7857
45.7757
32.1224
23.5314
34.476
62.6942
56.796
47.5317
0.0777948
-132.016
-138.191
46.7711
-141.364
-2.33101
2.53611
-139.843
9.83613
32.1873
-145.021
45.7806
-71.2172
-136.593
30.9518
44.683
30.4334
55.0337
10.5764
75.1906
45.2673
26.3526
1.13272
47.9739
-27.9657
6.98599
-214.073
49.6157
-39.79
44.008
3.07167
37.1082
15.738
5.35312
-71.0506
6.28004
-126.949
-93.9059
-96.8734
42.2275
38.4244
69.1597
31.7263
-29.2599
39.9925
-31.8641
15.8523
24.5212
-45.6978
9.85309
-92.8044
-3.08688
61.9716
-19.3983
0.480825
28.5001
24.1191
-1.21474
54.8775
17.5481
13.3289
24.8848
8.43852
49.5618
12.6153
-12.3418
49.5544
23.5933
70.2222
16.2551
-6.99667
6.72281
84.9862
-2.21593
-96.482
-113.353
17.6973
33.303
32.2214
-1.257
-251.97
-4.71096
-39.3773
46.0231
24.3508
44.8526
11.186
29.2862
-155.738
12.3111
-15.4818
0.224043
-11.0413
5.10261
48.2887
-34.1034
12.7505
-0.939369
58.5503
2.4907
-178.833
-74.7916
-11.6312
59.5306
-3.60853
-40.5455
15.2512
54.2413
19.9819
12.0395
11.8975
8.07239
50.1454
3.49752
12.7308
-12.8052
-66.2
58.76
45.7605
0.75083
-38.3006
-18.2715
32.7134
59.8833
-46.1247
-140.631
-19.6289
40.8132
-12.9091
12.2681
63.7038
-5.97201
-109.705
-18.1261
-60.1374
44.4804
-27.6739
-34.3991
72.255
-110.221
61.4987
-5.24165
13.3969
62.0722
29.2914
-46.1945
32.9098
11.2699
58.9904
-89.6958
51.577
29.4649
-40.1103
-95.8172
29.1394
-213.161
75.7126
43.2206
-60.4343
-25.3308
-282.051
27.0092
-27.3791
14.6841
-45.7166
49.6649
-94.3901
27.5732
-271.979
25.6502
-159.648
-13.1882
-49.5833
45.4231
-1.89232
46.4591
44.8637
-19.1296
17.1188
63.8636
-38.5608
-23.8664
-29.6063
-65.4731
-2.53511
-30.6265
41.062
46.4028
-111.516
-214.113
-128.598
-32.0716
4.34586
12.7002
45.611
-101.979
-21.6933
47.6482
42.1336
-3.93788
-8.3721
-12.1263
16.0365
47.3239
11.972
24.418
6.77663
-3.15975
28.0405
-65.8965
17.7001
-43.6657
30.0799
-88.7445
-35.1186
-73.8437
-84.6959
2.26045
30.9255
-175.336
38.9506
-19.251
45.8172
50.2746
-8.43977
-35.1012
-55.41
45.5678
57.0805
72.4319
23.1898
33.482
40.5593
12.2975
32.1305
39.1386
33.1565
22.0607
60.6023
21.1328
45.37
78.1821
24.374
30.6468
-81.3883
-9.72991
56.4345
31.2495
29.64
-199.404
0.414578
36.0025
75.4245
-46.5815
-33.7541
35.8337
13.1898
16.482
-135.394
47.004
-17.7011
-99.9297
37.0143
-95.0658
-60.1851
25.0173
20.4751
50.3677
45.006
-19.1812
-0.214761
-6.83137
-114.715
59.9882
37.4098
5.36586
36.4112
10.2134
-226.179
3.3183
40.8199
45.2925
-59.3241
-171.711
-65.7098
45.0095
31.372
68.1185
47.9451
-121.982
-19.6597
9.32851
30.079
-115.595
-18.6253
57.8512
-19.7405
22.888
62.43
64.1284
-11.1013
-98.2338
-221.115
-126.513
-33.0462
-119.259
15.6238
43.3881
-28.3367
23.8228
-11.9246
56.3578
-37.6839
37.4426
51.0315
28.747
-16.8456
-22.3109
47.3876
45.1691
53.9766
-164.266
26.2662
-113.865
29.7529
45.9749
38.1559
75.5574
31.8861
-8.73694
-10.1747
14.8777
46.3174
-131.439
8.55774
67.1341
43.3876
22.3939
10.3798
22.1757
-40.6221
67.7843
-34.7297
32.6976
64.1651
-136.605
-19.2527
-94.3726
-23.3955
-30.7812
53.3373
52.7682
67.3154
-66.4431
-41.7601
-202.671
31.3071
46.4575
-17.5561
-22.3994
44.3075
-191.602
-254.229
-120.848
-93.7359
4.54927
56.1345
-1.52657
9.36867
-68.3678
44.1508
0.399797
81.1056
63.2806
47.3235
36.3551
-4.50274
-0.0321244
77.8061
21.4534
-20.5094
-9.40403
45.5929
-131.567
15.3411
33.9982
-32.0929
-9.86775
51.759
-39.7634
-132.185
31.9724
-18.5432
84.3015
32.2954
40.8967
49.5314
-264.832
14.2461
69.0403
23.3161
57.3745
13.4921
17.449
-60.4778
-56.3084
6.46158
-147.601
47.0179
44.8033
-220.177
0.464422
-0.729563
64.6654
53.4788
-13.6478
45.5708
37.8509
-9.27928
25.1594
41.0604
-106.412
67.0872
0.452901
-6.71698
70.1471
31.601
-3.87822
36.1327
-72.4251
-181.963
27.0566
28.9223
50.0618
62.9687
-133.225
21.5918
-137.986
0.159983
61.2724
17.3657
-166.633
-149.035
41.3272
9.488
37.9572
-90.7602
-21.6703
45.5776
60.0944
-34.8955
49.6078
-94.1118
-231.133
-33.5723
21.663
-196.961
50.3346
13.867
-229.365
40.6638
52.7288
-49.2752
-138.431
41.1249
61.3639
19.0923
65.5206
13.941
32.4775
15.1969
50.3283
10.0053
59.9589
-132.582
17.0021
43.8924
7.59721
-36.1982
45.4901
-129.936
16.795
53.2089
67.5387
-68.2527
22.2788
17.6846
15.6124
43.4724
34.256
14.0821
-145.663
7.0638
64.7039
13.0874
9.84721
-125.745
67.7693
-43.5789
10.9815
43.7864
34.7867
-52.4201
-5.95351
39.0345
11.7872
-24.1021
20.8255
-29.0397
65.9754
44.9673
37.0305
37.679
-1.28087
-32.6141
73.042
18.5754
73.2103
-100.534
45.8996
-4.11742
-97.7152
28.552
28.87
76.1572
-148.19
30.5128
32.7266
-48.6602
28.401
10.2343
-6.89848
45.8637
-131.49
-33.2321
-41.0404
3.47764
-8.40934
49.3255
-1.64361
71.7126
46.4367
10.9798
-225.718
-11.036
19.0147
-205.52
-0.868649
-144.641
61.1591
-0.277673
12.5974
-276.145
68.4436
0.59912
19.5274
70.2663
40.8654
-192.368
-44.9496
37.0234
9.96557
43.463
10.9158
-84.5693
20.649
43.8315
17.9877
40.8225
71.1486
10.6455
-203.449
45.3811
37.6413
-0.796809
34.8141
35.2665
23.6633
-169.577
13.8979
-63.6154
12.7157
61.1392
18.3295
11.4934
13.478
0.264063
15.0943
47.1705
14.9252
42.0549
44.9382
60.9981
9.13971
-19.7775
72.6502
4.35858
-189.383
48.308
-39.4964
51.0456
10.027
43.927
-32.3711
-97.555
-68.8399
-1.19636
-135.382
27.4852
74.4577
-30.3483
-89.7631
-7.7213
47.44
-7.24263
23.5924
-266.304
73.5742
-172.077
31.4312
-18.5275
29.2092
45.8465
22.2003
-61.2117
-39.5442
69.4876
44.7644
21.0889
43.4689
3.92542
38.8472
37.6376
29.737
-88.9733
-13.9265
55.6339
25.6982
-35.0509
37.9368
-184.867
-26.6224
-90.3582
49.3855
48.3419
-155.122
12.471
-185.292
-47.2183
12.331
-9.96529
20.9601
43.7853
6.17065
-26.6731
52.3378
-2.74748
-64.7597
-21.9822
-11.4836
-157.302
-68.1224
-78.6755
-294.681
43.4359
68.2072
-15.5615
-62.0238
70.3555
66.2946
-67.9638
-70.9229
46.8578
-119.098
11.1249
-8.83606
8.19392
27.5792
-132.338
22.9976
32.7619
-9.42546
-38.3378
-57.1255
1.60348
41.0036
24.2386
35.1587
-182.408
40.7743
64.8324
-131.33
-289.897
50.2659
15.496
35.7152
-61.2712
-15.9381
-191.854
2.32213
47.0252
73.444
50.1601
-1.86975
2.92152
45.7038
63.4044
-3.66404
48.1589
46.2531
66.2576
25.2144
-81.3102
12.4054
9.57873
65.3656
12.4952
12.1049
36.5267
-14.8902
20.6325
3.28647
-30.995
44.0231
42.4825
33.7173
25.34
-93.7419
-3.22779
-6.88309
27.6487
-31.1919
-12.4179
10.3242
-246.835
-234.116
27.1685
-15.1185
-95.6528
-88.6181
-43.2859
33.9358
-162.498
-239.067
50.787
-77.706
67.7912
-108.911
-96.0317
52.7012
61.6248
-0.674781
9.13803
9.18681
47.1261
27.1584
-57.4888
-67.7704
-67.9452
-35.2985
43.8468
12.7577
29.4771
-62.2422
45.7783
-131.483
10.8161
-16.5334
54.4272
-25.4956
-195.579
-125.151
67.1953
-3.13363
-200.997
-173.582
46.1275
-224.778
-49.2875
19.6471
28.7593
-21.0356
34.6171
-85.0898
39.482
44.1465
52.0594
24.0804
-26.7655
-22.8549
36.1985
-5.60469
53.4255
34.0984
-42.1018
-92.1295
-23.0693
4.2061
-46.9741
51.1816
21.6121
46.1899
45.4569
4.94478
39.3711
75.4998
3.13639
-41.0353
33.0777
-13.386
-121.223
-13.4133
-66.9566
46.3712
11.1059
4.67901
9.74435
10.2737
56.8778
-191.022
-0.649787
45.6044
-15.9061
61.9583
51.5019
58.9049
20.3852
32.7206
24.7562
13.5966
35.059
46.0456
-33.1373
7.2818
-92.3665
-31.0405
-277.343
46.6777
-82.7241
-60.9128
-234.311
-24.5933
-28.3137
46.0382
-9.68223
23.5033
-93.0493
45.3379
74.8612
-13.911
-185.152
28.7168
-0.588591
46.1212
10.3998
-103.14
53.5779
40.705
71.3119
36.6216
45.3807
-13.39
57.5323
11.326
51.7313
0.387142
-49.4818
-4.7261
-152.483
35.9207
-33.5033
-22.1954
67.5984
45.2093
48.9649
62.053
50.0426
54.3162
-12.6195
47.2122
45.2268
47.1768
9.90486
-6.44153
-19.2816
-20.7787
24.3806
50.2313
-98.2588
73.2291
-26.9889
10.9169
72.8015
62.5362
7.7298
-109.489
46.9766
27.1145
1.77168
43.4791
-97.4485
-8.50659
45.2625
60.7333
-67.4257
49.4344
57.0646
-0.599463
-11.236
57.2486
28.6215
-43.2822
-155.046
13.4952
-29.9726
43.1997
35.7309
-56.8122
-13.6414
-29.142
25.8697
-17.3607
20.0988
63.5785
-6.88253
80.3398
46.8189
23.8094
51.1714
-198.363
-106.037
-212.766
46.359
-89.0778
-94.9513
-38.3577
25.2592
29.6544
-78.6513
32.3446
-104.201
29.4337
-2.74842
-54.3531
40.191
24.6622
57.4396
46.7804
47.9177
45.364
8.1193
-38.1937
-25.1634
13.617
-80.1984
-4.12744
39.7517
-59.7466
8.64111
-28.0823
19.3794
-272.46
37.3614
25.1838
11.332
-32.1427
30.4047
-18.5341
-40.8728
13.9977
-38.9301
49.39
35.4129
56.855
-97.9183
41.5764
10.462
61.1396
4.84934
27.1
7.67384
1.32514
69.7941
71.4796
40.8395
25.1474
33.477
42.8195
70.6442
33.2789
-41.2736
-266.553
17.9632
-24.754
-83.354
45.2763
45.7429
-22.7735
11.5476
37.5785
43.7976
76.3866
-92.0088
37.4388
-128.053
-22.5243
62.5994
20.8446
39.509
-48.6771
17.0467
26.6191
78.9699
-29.1286
-19.2623
25.7242
14.7239
-194.429
-97.9006
10.041
50.2602
2.27614
26.4405
66.16
61.3274
8.66738
-61.4734
-25.9799
13.26
52.131
45.1502
60.8618
34.0128
-170.902
63.6588
41.6356
-51.8337
36.3859
46.9756
55.6361
-177.792
-37.2574
0.505523
39.6926
69.4978
31.4104
17.822
-30.6241
76.5352
-136.774
-31.0812
72.001
40.7337
-10.0372
39.2548
-101.154
30.6813
-38.3106
-142.315
-77.0447
-234.138
8.20597
-22.9231
-127.349
-134.965
-88.9069
9.58785
-122.778
-214.566
38.8846
42.9163
24.3314
-107.221
27.1854
12.4883
5.95761
79.7907
32.1017
-21.2297
40.7228
-24.616
-243.537
37.5511
36.973
45.6915
80.4929
0.871292
19.1878
-74.9033
12.2616
33.3618
44.1811
-8.2346
64.279
33.684
48.2754
-59.0555
-73.3077
11.7944
46.857
45.9009
47.868
45.805
74.2814
73.8749
-21.8915
40.8807
56.6364
-20.48
60.8689
-84.1375
72.912
60.5046
8.05523
51.1146
25.944
36.3452
11.938
46.5637
-34.7641
42.1453
24.8807
31.1371
0.793751
45.8016
-23.4896
23.7348
70.6387
70.4351
34.1525
-97.341
20.3708
-0.13022
10.4165
37.8451
63.7178
-99.0038
47.258
44.5796
30.466
46.677
-272.885
-48.4527
-40.9306
75.7333
27.4863
-10.5133
52.0136
0.545062
13.1119
25.2902
17.6999
36.2964
18.0303
-12.3089
33.8581
37.6134
32.3375
35.46
73.8734
61.9568
55.0487
54.9069
69.8785
29.0449
-40.089
3.36335
-31.9885
69.6748
-61.5145
46.5588
42.3028
-212.936
29.8288
50.4361
-105.538
30.6381
31.6549
81.3634
-132.872
28.7723
-10.5558
50.8347
13.5061
-106.963
68.7294
59.5108
44.9343
46.2399
-31.8119
19.3197
-149.75
73.6296
4.92646
78.4721
-15.0863
17.467
-101.87
24.6154
-97.7199
20.8643
-47.897
19.7743
-55.3835
19.4966
-128.306
-0.416998
-46.187
-98.7901
-14.027
-59.6499
-26.9232
31.8731
-53.9358
-220.588
45.9803
46.7934
57.3501
44.5261
28.4807
26.615
84.0769
45.7851
-130.995
-1.67039
2.67686
36.5284
42.3851
64.2511
-29.4927
-29.6718
36.8443
-0.570734
20.6127
55.7201
-97.3186
-211.999
-150.612
74.5407
-135.451
37.0167
56.6387
-17.8302
38.1325
-23.9655
-146.515
-131.209
13.7916
32.9698
52.8206
55.7807
-62.8774
-98.6795
30.3084
-134.82
-24.0539
6.59668
22.3618
-47.1808
-125.097
-149.196
-137.545
-62.6627
66.3737
-64.6221
71.7571
-208.183
-32.3801
28.6439
-6.07117
61.9825
44.1995
53.7912
-25.4916
-35.1009
-152.785
60.0473
-100.274
35.2123
-72.1882
54.0662
61.892
-76.1407
46.0933
69.2388
49.4315
49.1536
-65.4234
-14.4924
28.8332
-35.997
-83.9499
30.4572
32.6773
13.5611
-165.657
20.12
15.564
39.5598
34.0696
-12.9039
72.6787
12.8369
0.2977
14.3159
44.2563
-67.7011
0.79765
49.1769
-13.4252
13.3937
-2.12912
47.1279
44.4212
42.7938
-146.51
43.4139
51.7489
50.8656
-20.1689
11.1204
15.5939
41.4902
-29.815
-110.886
-183.856
-44.7776
-101.055
-1.43323
-39.3503
10.9625
-100.901
-19.6478
-270.986
14.3711
-49.7943
20.753
-153.424
48.4689
85.0746
20.0187
-46.4612
24.2294
10.9912
20.2267
3.53908
-21.4468
-226.9
14.9365
58.2008
0.830972
68.2599
3.04359
42.6545
38.5049
29.3199
-108.348
27.1736
74.4311
-58.2804
44.403
44.0507
64.0987
14.5991
59.3431
47.8915
-98.8631
50.7356
-130.501
-132.99
60.6006
40.8293
-54.8827
9.71428
57.3186
2.31948
-112.364
10.9997
10.3093
37.3754
27.6462
46.2422
42.3962
41.591
-68.6554
-16.1341
-24.6711
45.3705
78.775
-27.0804
-126.769
-104.989
44.9887
13.8423
13.4817
21.1371
15.6802
37.9211
-25.7713
30.22
65.801
22.7872
3.19219
-45.3704
-168.015
-42.4223
-133.095
-60.3752
-219.192
53.1439
27.2294
-21.1418
67.8156
-1.52241
-159.958
-48.2224
-136.481
48.9302
-88.7383
19.2386
45.8227
-79.9805
-19.3031
-27.4301
-129.967
-91.2252
49.289
-265.254
-176.229
-149.026
44.118
49.0696
-141.082
56.1938
52.5435
65.9012
67.549
49.9185
16.1984
74.937
-151.932
44.1084
16.9383
-218.407
54.0975
-171.663
65.9393
25.3153
-36.845
-105.409
-106.729
48.6228
-180.984
-62.0292
0.360258
-20.7538
3.75033
30.527
14.3588
36.1643
74.4732
-96.7534
-61.087
-11.8715
46.5005
36.6514
-53.5532
84.618
-83.79
14.763
32.0887
-31.2792
43.4362
47.0783
51.7957
51.4549
5.25653
30.5323
45.0971
19.0384
-33.3685
-9.48812
48.8477
50.9304
60.2715
-49.4621
13.2225
22.8972
29.8861
18.8165
-158.013
38.9433
-55.3945
40.6265
47.0303
-136.466
68.2593
-95.968
72.7816
51.2764
-286.533
1.26608
-20.9925
23.1837
48.0311
-298.235
59.4423
43.6678
24.7172
9.16398
18.986
-1.70979
24.0663
-144.024
30.2244
-82.5945
44.596
-111.334
19.9666
-24.0277
54.9079
62.3288
26.3719
-109.259
25.6876
-20.736
12.7768
28.2953
-39.9836
-35.6917
71.8854
-12.8475
-19.1241
-33.6072
-133.184
9.56992
44.8431
-141.287
-4.5492
47.8419
33.5694
49.0946
-196.003
29.3447
72.4235
-66.4574
44.6221
26.5344
-20.0607
19.6372
19.5524
-3.64777
73.6232
51.5103
-17.7855
71.1653
57.3905
54.6092
-136.938
-112.978
29.9594
-40.1626
15.5222
-80.28
-35.2888
-74.2279
38.9473
26.3711
30.6108
34.0819
-21.9917
34.4951
45.1722
-150.572
46.8753
30.7248
44.7845
-26.5073
-32.1198
-144.404
-136.501
-184.331
-4.97923
44.4628
-228.598
66.6379
-205.205
43.6133
29.139
-18.9666
17.2586
47.5223
25.0141
16.3009
42.5806
11.5536
5.97991
63.0638
52.7878
-56.6514
-103.946
9.19209
40.9637
7.32219
19.3034
-60.6589
7.02304
29.866
-21.0308
42.05
37.9765
16.0037
24.6779
6.26693
-158.846
-243.851
54.6947
-158.08
45.8934
0.382931
39.9847
48.6672
28.9489
43.7894
24.6326
-131.667
-21.3202
-93.3835
-181.606
-87.1832
-6.64
-28.7755
37.5452
4.51169
44.104
-9.77642
12.9263
-54.3604
-107.893
48.1919
-135.866
45.6592
20.9216
-208.845
-12.2045
-169.57
37.2745
45.2003
-247.261
17.5518
-81.3815
51.9373
23.197
27.3206
-201.676
55.7526
30.2542
-2.24712
48.7918
47.3723
54.0047
20.8511
54.6431
-68.0298
14.3898
-31.7873
43.2785
31.6195
21.4598
7.56689
-116.187
-269.055
30.958
13.9805
-292.99
70.393
-72.1091
53.1453
37.2158
-62.9628
27.969
10.3812
-94.2681
10.9995
14.9134
43.2988
-16.9463
45.6308
-56.4228
19.2607
-30.8631
30.0683
-130.966
54.926
72.6039
49.7037
25.9079
9.36559
32.5429
-131.947
15.409
-111.665
7.09126
-68.3046
-279.252
-143.718
-19.8374
42.2636
44.3735
-82.1435
20.7385
50.8258
-17.4424
-49.9879
48.7266
-31.7455
-200.944
8.75662
-1.94637
0.88453
69.2872
-106.868
43.8235
-32.6027
-18.9535
-17.2883
45.4847
29.4428
39.0011
-23.2534
-25.9292
10.7329
26.1506
51.6526
42.335
14.1961
-24.5515
-2.82416
75.2675
-32.6195
51.2132
54.941
5.18255
32.6694
29.2422
-107.703
-39.5367
40.5044
29.2938
45.371
-210.031
49.4252
11.2826
61.974
27.5627
41.3336
55.936
38.9757
18.0043
-187.504
19.1159
-125.431
38.4121
24.497
53.8502
10.5341
65.5451
16.8108
69.8385
-10.7181
55.5387
1.48011
38.1182
-140.49
43.7509
30.378
23.5272
64.4882
45.3623
20.95
-14.7807
32.8388
42.9676
-113.667
-128.523
37.674
2.86206
57.2966
-145.249
66.8836
16.2784
84.4504
67.2253
33.6233
30.1276
-146.948
9.32355
71.2114
0.120106
4.62251
-8.1613
71.5191
26.304
41.1651
59.9387
-20.6146
49.3515
-3.37277
52.9215
13.3369
50.1417
47.1171
60.6313
5.17466
-125.036
22.1779
-173.845
30.096
6.52255
-19.3799
56.8557
63.175
4.77973
17.1845
9.67117
57.4238
40.531
43.3715
30.4244
-29.9811
-96.9225
-73.5332
46.7042
-55.6349
-8.21054
7.48579
35.6515
29.9113
-16.6648
74.306
-28.663
66.576
14.8946
68.5441
-25.0043
30.5073
-11.2021
11.7868
41.3338
44.7673
3.93915
-7.92634
-10.0787
-8.89044
63.0087
-4.99991
6.97338
-51.8965
-8.24929
14.3805
54.0289
26.2135
12.2518
6.00247
45.2537
78.7764
-179.978
9.77329
44.9023
17.5192
25.5867
-64.3676
32.5773
-8.1279
-95.2822
4.65752
-56.0102
-32.7715
-8.1301
-80.9685
-121.413
6.78369
37.4502
48.6703
40.2849
77.0804
-211.102
69.7728
-91.2723
68.0123
-297.826
-23.4154
74.7139
22.8963
-84.6389
44.3908
23.3553
48.6585
-40.43
-146.322
16.258
-17.2266
-32.0485
-1.21298
-21.8135
21.8797
54.7978
-253.649
23.3824
-55.002
24.9739
-32.1653
-148.34
28.6983
-22.4359
-44.4974
56.1904
-18.5904
62.5129
26.4834
-133.307
20.2003
-26.5699
-9.51968
40.0495
55.4706
76.0344
36.0207
40.5246
26.4911
-96.4504
73.968
79.2208
49.359
-17.3117
-211.941
-128.283
43.6764
32.4113
28.3647
38.9125
-43.58
-175.792
-152.354
63.9879
16.0474
11.2423
-120.46
43.6929
16.9484
83.3279
79.0584
42.9685
9.71708
27.7524
-81.5658
22.976
80.3273
16.7018
-12.4924
35.3387
1.19686
17.9111
0.291939
-5.68215
19.1217
14.0799
28.6165
0.694
19.0713
60.9481
13.422
48.4943
-130.406
-7.81757
72.4246
-97.52
31.0373
12.9342
23.5702
13.6919
-148.653
9.2784
13.0622
18.7567
83.0574
-107.729
-79.9766
-102.507
-16.5632
14.2822
13.2884
-128.087
-73.1714
-1.24692
-74.7152
-23.4926
-33.059
14.4623
10.956
10.6096
82.7566
10.5848
22.2615
-31.6111
14.8124
-96.5742
-7.53375
60.5941
46.207
22.4227
-9.2279
45.1913
48.6383
18.6275
-282.708
-116.413
60.0498
-18.2513
42.3917
8.17122
66.3308
10.1088
-143.402
11.1505
49.3881
-11.0457
41.3583
-21.0732
80.3104
-122.392
-3.04626
-168.451
24.9097
-158.15
-26.3734
-130.566
13.777
20.7098
-227.937
-27.3226
36.409
20.2044
-57.7711
-23.6251
39.8876
-136.682
41.5539
-139.679
49.9154
73.7163
42.6547
-100.366
45.7619
13.9606
27.8671
33.2571
-9.2868
-133.292
-13.0563
-28.1744
20.5934
6.69192
-17.2312
2.14955
-142.568
30.6971
45.0867
-23.9036
-163.501
-6.35618
-7.23159
-11.6669
33.0589
-66.0473
-173.354
45.859
-12.1377
26.3846
-36.9995
-150.218
-155.658
-214.611
80.4651
27.7119
-26.3479
18.8761
70.3593
72.6345
-155.909
-2.07167
45.1119
-137.219
-12.2513
71.2498
32.4222
39.619
84.326
-4.6264
15.0106
12.8692
64.6911
47.1298
46.5075
56.0739
34.4209
8.83704
12.6377
24.854
19.9412
-125.403
73.1295
-7.27614
-12.6398
1.31494
-50.0087
30.7609
-119.333
-6.13507
21.0005
47.4447
48.9214
50.9547
-130.981
64.0825
71.4967
-86.4623
34.9273
-52.2843
-43.7831
31.3842
29.3839
-24.8157
-17.9633
-31.1275
78.5936
-137.529
51.7485
46.5612
58.2007
35.6604
39.4185
-10.9545
7.75542
26.8717
16.7501
-136.061
-51.9249
13.0662
-106.764
54.7747
-216.27
-139.246
14.7789
-94.7964
-141.971
-145.403
42.716
-0.0404897
-63.016
22.9743
-119.984
27.7648
-86.8334
-58.181
49.0693
-145.512
73.2534
-1.24452
75.9998
-1.05835
-108.913
17.7094
40.6829
41.0522
-69.0749
-10.9333
-0.838252
16.3298
35.6336
84.7221
58.2686
27.1563
-16.4714
30.6292
0.273574
50.9402
-16.52
29.6711
-80.2424
-121.828
-105.302
16.2575
8.47817
-101.918
32.0728
35.301
70.8902
75.059
-134.637
-128.156
4.81581
-29.4709
74.1012
16.4644
-7.90898
23.1696
34.9153
-73.8246
15.744
9.74151
19.9694
41.4678
-52.9587
15.3941
-17.2261
-21.2807
-63.1952
-3.18383
-62.6276
-56.5884
49.6856
-166.16
-129.675
-24.6889
13.2191
79.3786
33.9929
43.0117
-35.7575
31.3596
4.44442
28.339
18.3039
-128.686
-115.313
73.9994
48.4758
6.05864
-99.4471
82.2499
-149.753
-105.403
-71.4205
27.9303
-167.134
-67.7469
64.7493
4.05113
43.1236
22.1613
-94.2285
35.3566
-20.4833
30.0812
-65.8893
7.08381
19.6547
45.9348
-177.621
-108.665
13.0024
-21.8685
-33.6277
-32.0772
78.0247
32.2404
-290.767
26.9024
16.7692
69.3396
31.5723
-109.902
29.7524
56.1509
48.7174
-21.1531
41.4594
-10.7531
73.4896
8.22209
46.7237
-168.127
-18.4084
-3.56173
-97.5138
28.6799
20.0179
-111.436
-185.009
53.0023
-2.60744
3.31149
61.0978
37.3624
59.6455
42.3706
-27.1868
3.62906
7.789
45.7581
0.149994
54.8108
35.9263
72.4007
-115.459
58.288
22.836
72.5931
-86.9797
-19.0142
74.4191
-122.02
34.7351
-137.484
65.4984
71.875
49.1116
-48.9597
44.6894
57.165
-54.3545
23.6064
-124.027
60.4268
-131.191
-27.0828
-137.433
-145.152
56.2332
23.8866
-139.714
31.8078
71.7898
-11.1651
1.06273
-150.214
-25.6462
38.1854
-37.9494
43.5077
44.2766
-136.159
79.6228
36.2858
62.5651
61.912
13.1631
-19.6236
41.655
-49.666
-18.153
40.5017
36.87
-7.95989
44.399
-71.3686
64.3879
49.1395
28.8347
-3.15445
49.5285
-35.5257
30.9688
58.1279
19.3717
1.32493
56.562
48.4801
-19.5742
-96.6535
35.3632
50.3685
73.0349
-98.7568
76.9418
73.4569
77.6393
-21.8015
55.4022
-186.177
45.6141
59.0283
57.9136
49.9967
63.8451
83.3714
40.7903
-100.789
3.94678
-109.889
82.6378
32.2817
-11.4933
-156.294
43.9635
64.4146
45.0423
28.2199
-6.5146
63.7912
-74.6243
48.3476
-164.678
23.9236
-186.881
13.6447
35.4857
-190.499
-216.856
-7.85495
-19.7815
-20.7141
54.4544
-0.603564
13.0245
44.1085
-133.564
29.1857
-7.07302
-122.176
-151.529
-105.162
61.293
65.5801
-139.254
23.8414
57.0004
51.381
5.10698
-216.4
49.5054
-117.415
60.5242
-105.656
58.9852
31.7141
12.0315
55.698
36.0116
57.9515
28.2011
24.9798
-11.4059
-98.3026
-141.46
-149.774
56.9968
-198.074
-89.2284
-166.134
63.1437
57.3073
21.2566
37.0854
63.1867
-55.0402
44.8249
-57.8008
-16.123
44.6464
-140.016
-136.806
-29.2711
-141.237
-4.34419
-291.535
-71.6902
-136.627
-96.8165
40.0553
73.4762
79.7462
70.1577
-224.852
48.6356
-180.27
43.9117
63.0233
12.4695
56.1301
-142.16
27.7051
-15.178
3.64702
60.2733
-17.5004
50.9101
-130.78
-3.32576
-148.143
51.8851
50.6464
44.9082
-138.978
44.5446
-39.5943
-148.96
-151.955
27.9783
74.2744
-67.375
-35.2316
-175.565
45.8211
43.7951
24.7063
30.7702
-136.376
63.9758
59.8368
-82.0281
-1.38362
62.4252
-135.863
-226.117
6.64669
57.7763
63.9644
-163.337
33.0745
2.51817
72.3214
-127.105
-91.3638
3.42625
68.4038
6.2608
-9.04964
-11.1233
59.8489
37.3661
59.5489
2.30797
-60.0883
50.1259
81.4646
-100.438
40.5575
5.46416
-124.277
5.87861
27.5963
-173.474
32.1845
-73.6634
32.0231
-46.3376
-37.2421
55.2159
64.5754
44.3097
-46.248
-82.4646
51.4699
-128.785
23.5329
-17.232
30.9463
-130.914
48.7654
51.6643
5.02802
48.5987
71.8879
-43.4034
37.3458
51.3591
-153.074
30.8511
-9.33479
30.8591
19.1892
37.5329
0.784621
27.2435
11.7763
-59.1371
61.1705
20.5641
25.4546
-146.947
-30.2277
47.3428
-139.501
77.4693
-136.785
-145.913
-8.88413
56.4781
51.0858
58.7949
-107.221
69.4705
-179.011
36.082
4.33811
-113.73
42.7268
29.8613
5.84782
34.9163
-101.83
38.5306
-140.008
-153.229
-1.3191
-92.7949
-106.173
41.0938
70.8143
-23.5374
-188.124
56.5812
-68.1504
64.9972
20.6355
7.56372
29.7049
46.0081
31.9404
-26.0244
18.9812
5.71066
17.0845
21.5019
-124.131
-179.372
14.045
27.9004
5.46285
83.2158
48.6097
45.6137
65.8114
13.543
50.4233
-115.332
-95.0241
-197.894
45.1364
82.0739
44.1178
-21.5378
61.1224
42.3689
43.453
-72.1968
5.27657
31.7494
78.0341
17.8449
-34.9033
51.4599
62.3986
47.2032
46.2445
54.2683
37.321
-51.2844
-261.799
49.663
-98.8983
-98.32
45.9149
-222.618
-3.95069
16.9394
48.4842
49.9928
51.2632
3.81517
58.5893
59.8916
29.8132
53.1585
47.6469
40.5321
37.3101
31.2937
31.4249
33.2761
56.4453
52.7933
5.70823
41.8904
3.1937
-74.7132
70.2413
54.6759
1.67709
-222.931
13.9995
56.2284
34.3741
16.5758
-209.377
14.0293
-72.3288
17.2618
-197.536
-0.394943
33.6498
-34.4215
-109.176
-137.434
67.0655
-170.428
-88.379
-229.551
71.0711
-42.7967
23.5248
14.8641
-141.804
38.575
43.0318
31.0228
63.4999
39.7068
7.21106
-113.988
-229.473
4.9768
52.1256
10.7266
-166.789
-126.061
-53.9725
-110.437
-217.188
-76.7586
12.8131
21.1091
44.691
57.3542
-47.6578
-43.5264
63.631
50.3818
-161.709
2.85508
-111.995
32.9131
5.49286
32.2184
39.2811
0.96185
-46.9421
-60.4097
17.7855
-193.621
-110.78
12.6265
-195.082
-133.953
-138.623
-245.521
13.4752
-93.7069
31.3952
-146.453
45.1661
41.039
29.2656
57.0082
-296.227
71.4333
-31.6776
8.46952
-27.412
46.2991
33.964
-96.8293
-92.2503
46.4684
53.7472
73.78
-217.761
-124.491
-293.518
21.8399
1.1099
-134.147
19.7198
-129.112
33.2655
-178.94
35.0207
14.2302
37.5275
65.277
42.2585
-17.7549
-4.05078
-41.0482
-101.502
57.8377
79.9296
-100.225
54.0954
44.5996
-0.0634599
-37.5545
55.7363
53.8526
-80.9524
-36.5491
-212.236
-293.171
-24.609
-132.787
-19.9273
33.0705
-17.9106
49.8397
-158.888
-136.084
43.0995
-21.1267
-141.44
8.79972
37.6249
-147.189
-10.9531
-137.489
-132.584
-132.724
75.0133
-95.1962
-0.322979
-199.217
49.562
-152.583
-18.8365
-72.1471
-204.305
-12.5615
51.0137
-1.33161
-132.762
42.153
-1.42486
-69.6589
-117.2
-144.625
34.329
39.2101
45.8303
-103.04
65.0413
-60.6803
0.410016
12.5615
-52.9831
-278.109
-134.186
-107.502
22.5698
22.4088
-96.4697
-1.49879
-37.5721
43.6275
-239.097
45.1406
-154.086
30.7995
-8.62479
-16.7339
0.345201
85.4852
-17.9495
-150.211
-83.7516
-39.7648
44.9802
-98.1602
2.13697
13.607
-113.075
-214.318
-96.9127
-127.771
48.7034
-137.174
12.4089
-127.518
4.57811
42.3428
13.764
25.2603
-10.1363
57.6065
-142.229
-89.7217
61.4609
29.0671
-148.424
-1.34962
-134.091
-34.8179
-4.74983
56.6044
-168.461
23.8461
-120.705
-119.858
-161.462
-136.878
-109.218
27.983
-40.3954
45.9186
21.8954
-194.039
74.9939
-292.357
54.9137
64.108
-145.915
9.91584
48.8306
44.057
36.2929
-101.29
-100.346
-89.5376
45.2756
17.9436
-46.3921
-128.656
29.7618
53.1507
0.0890685
10.1594
8.68031
60.6331
-36.9445
-42.3043
-183.542
39.8701
10.9144
-3.46291
65.2965
55.2119
-162.487
-178.482
55.9226
26.3859
4.50931
41.4704
-33.9244
-102.921
-102.39
-150.096
54.1459
47.7138
28.9897
-17.734
-11.8026
2.30832
49.2314
-209.069
35.2782
57.9996
61.9103
-67.9719
46.4499
40.6949
49.242
52.1623
2.49306
52.4483
-1.75691
45.7518
29.693
49.2542
-196.716
55.7611
53.5908
41.2949
32.8203
-85.3194
35.272
15.1797
-27.3773
59.3538
58.7816
-218.709
53.1779
-122.905
-99.9664
49.0788
49.3231
-68.5364
3.18375
-128.02
-199.79
-22.7567
-141.176
-75.6847
-2.6122
43.2905
77.1389
55.6546
-54.6181
-90.0785
48.0114
26.5208
-33.0432
-111.139
-84.7137
-39.6408
-97.8506
-85.94
43.4975
-19.0749
23.7794
6.65343
6.06825
-6.10659
7.36703
22.4386
28.675
33.8774
-29.349
22.9981
-91.2604
-262.575
36.5549
27.9289
44.4648
14.8326
33.28
10.3116
22.8059
-18.9454
46.0019
40.7156
68.6415
45.7334
-106.498
-3.35248
-17.1649
-76.9712
-218.675
-107.477
-37.9391
-202.902
77.5372
13.4285
10.3809
64.1963
-180.034
-15.8544
-31.2417
-210.195
-119.057
16.5158
-30.6655
44.2362
-39.3188
-100.945
3.3138
-88.9832
-26.4769
-29.2622
-9.27272
37.4005
-129.926
-152.131
-33.7789
27.9671
-39.7381
49.1526
65.9596
-81.3231
49.8172
32.0159
34.9658
71.7091
-191.384
30.5693
31.4004
23.26
62.4079
-2.38577
22.0038
-28.3993
48.6206
66.0936
-161.505
-39.0269
-57.3854
-37.1382
27.0087
-95.5448
-57.6333
-94.5995
22.91
-113.9
19.8593
26.9297
40.8577
16.8341
-98.3317
-17.4951
-89.3331
-31.7401
69.9858
77.6115
58.9368
79.7265
41.3759
45.5439
50.2229
43.8469
43.0135
-61.5214
47.3583
-3.11772
-96.4368
64.2484
11.014
-33.3407
73.9383
7.78756
-284.364
27.3662
24.0495
54.3904
-91.2987
42.7915
68.9574
-182.579
-98.275
-46.5143
37.0015
-158.587
56.6073
2.20158
54.5495
45.3444
-160.501
52.5313
-15.442
-108.421
-102.894
-239.794
53.4402
-43.0095
44.985
27.0974
-128.237
2.9477
-11.8768
-27.3024
-104.619
-124.48
54.2628
14.9571
-140.542
-8.39883
32.396
21.3708
-232.818
26.0492
-96.6255
25.9251
-151.747
30.487
17.6353
28.2515
16.4015
44.9247
34.3984
18.7951
-144.003
80.387
-25.4631
-141.292
45.1145
40.6604
-129.297
-32.4699
-176.591
31.3576
30.9287
-34.2629
3.07405
-1.98071
80.6835
-15.8844
-188.628
3.72425
-12.01
33.4535
-7.33076
43.7288
32.3415
-144.202
35.3502
-118.937
35.7012
27.1732
46.2116
34.4524
0.758429
1.25393
29.9889
49.4253
31.6709
12.8994
-152.701
-11.5662
-11.1217
40.398
-148.52
31.0754
-116.065
53.4487
-133.613
-1.81959
58.0774
53.1871
25.8869
-198.643
-100.998
50.2057
17.9832
55.3227
28.2298
7.42707
46.5592
26.2264
18.5659
18.2063
-15.3292
-56.4488
33.5009
-11.5002
59.3959
23.4352
80.7664
5.75139
17.8665
53.836
12.4075
21.9483
48.8184
39.521
34.4056
-49.8717
-78.1933
44.8412
35.5023
27.5103
-231.322
-29.8909
-240.623
-130.786
-22.0128
41.7796
13.0442
38.3664
4.96645
70.112
55.6485
21.8971
39.5173
21.0241
-150.293
43.4276
37.8174
9.53133
28.9222
55.0183
49.8867
-161.868
-172.875
-51.4229
42.0278
29.2594
8.67729
48.631
-292.641
42.4378
-70.0007
45.8965
25.6202
-217.269
24.0962
51.8498
18.6482
46.8156
57.1782
17.0772
-28.3107
29.5243
12.1588
66.2993
-127.755
60.7499
51.9231
-137.673
-77.7068
-0.820434
-16.2673
-189.546
-120.105
43.8792
61.5666
50.5146
62.1484
33.954
57.3232
23.7652
12.7289
25.2672
10.0694
11.3906
40.9998
14.8592
64.7114
23.3062
-115.381
35.1895
63.6719
66.7177
-229.383
32.5118
-92.8415
-96.0525
26.7768
33.1827
-159.543
27.6245
66.9746
-133.9
-118.137
-209.374
24.207
15.0388
13.7084
44.3816
45.3286
-19.0858
-0.196536
-50.6738
-141.18
43.5583
43.0369
45.7004
30.3308
9.54002
32.6405
14.1078
-87.2445
28.6737
41.4155
33.3302
34.6901
-15.0276
-5.95162
-60.556
46.7254
-135.131
21.6173
55.1013
38.8333
-144.991
-152.441
-239.782
-36.6371
33.4285
18.4876
3.88032
46.0981
35.3316
-25.3677
-13.8631
37.9205
28.3959
-189.781
42.8339
32.3044
-23.7416
26.3758
-103.785
30.9258
1.16961
22.696
39.0034
42.0312
51.7343
13.4948
28.4326
-35.6599
45.3138
-30.6393
35.2823
48.1658
-93.0327
-106.429
-106.982
-117.542
9.92355