/*--------------------------------*- C++ -*----------------------------------*\
| =========                 |                                                 |
| \\      /  F ield         | OpenFOAM: The Open Source CFD Toolbox           |
|  \\    /   O peration     | Version:  2306                                  |
|   \\  /    A nd           | Website:  www.openfoam.com                      |
|    \\/     M anipulation  |                                                 |
\*---------------------------------------------------------------------------*/
FoamFile
{
    version     2.0;
    format      ascii;
    arch        "LSB;label=32;scalar=64";
    class       volScalarField;
    location    "3.8";
    object      p;
}
// * * * * * * * * * * * * * * * * * * * * * * * * * * * * * * * * * * * * * //

dimensions      [0 2 -2 0 0 0 0];

internalField   nonuniform List<scalar> 
13486
(
2.40583
1.91595
0.165228
-0.208837
0.796079
-0.198881
0.381815
1.354
1.63628
0.815306
-6.7027
0.406366
2.53039
-0.328908
0.636398
0.913723
-7.20107
-7.23164e-05
0.564054
2.16894
-0.18163
2.50082
1.87724
-1.12855
0.779722
-1.05497
-6.04663
-0.690253
0.00374268
-0.548762
-0.139517
0.465077
-1.38909
-0.403024
1.35773
0.0132716
0.0441511
1.96186
-0.0114156
1.63712
0.220803
2.62461
0.0464758
0.783251
0.74429
0.387763
-9.12715
0.00658064
0.0421449
-0.764479
1.39248
-0.0394205
0.256196
1.99542
-0.0485943
0.858626
0.0807467
-0.0420358
-1.33186
0.0636089
-4.49881
0.0625485
-3.69977
-0.169573
-0.503623
0.0496662
-0.21957
2.4068
1.6258
0.0185261
-0.219504
-0.0386975
1.64589
-5.53937
0.0552242
0.0858384
0.0506771
0.622253
-10.9228
-0.127828
0.00884212
1.9367
-4.11448
0.181583
2.41557
0.808098
-0.15116
1.31398
1.58266
0.893798
0.321683
1.18032
2.30692
2.06114
1.69553
0.00713104
-5.73877
-0.216118
1.6115
-7.75455
0.030686
-0.234412
-0.222454
-0.0380837
1.01449
-8.08295
1.60494
-0.0176117
-10.4926
1.06305
1.56388
0.387703
1.99432
0.0664532
2.82527
1.63702
0.78019
-0.376652
1.66166
0.0393323
-0.00995302
-4.52296
1.77267
-0.0165713
1.56209
-0.0336903
1.16798
0.372289
-0.32082
-0.445445
-0.0293703
-8.65674
-4.73369
-5.028
1.46681
1.27869
2.82178
1.10629
0.038669
1.3976
-1.16193
0.244475
0.455013
-0.125826
0.0701443
-3.26263
0.010977
1.69501
-0.826601
0.0036589
0.914193
0.593843
0.0103451
1.97653
0.4358
0.157737
0.877569
0.0838582
1.77985
0.107533
-0.589087
1.78078
0.225993
2.61706
-0.0411713
-0.596981
-0.0745381
3.25469
0.0305951
-5.03341
-4.46381
0.450769
1.10263
0.878473
0.00815115
-0.507478
-0.57959
-1.41104
1.61159
0.468529
1.537
0.0646239
0.707344
-0.864143
0.193074
-0.695338
0.00104679
-0.517934
0.290225
1.72047
0.0427617
0.120413
-0.0597392
2.0472
-0.0850734
-6.78948
-0.455062
-0.606448
2.16199
-0.503415
-0.149795
0.350691
1.96601
0.639825
0.104791
-0.0904957
0.00638417
1.76467
-0.0517645
0.199698
-0.595603
-0.741434
2.14033
1.60509
-0.200666
-0.27094
-0.581326
0.92448
2.18579
-2.17238
-7.39888
-0.852884
1.43377
-0.619479
0.0610546
2.34324
-0.500644
-0.278326
-0.211716
-0.0820729
1.51874
-0.179858
-1.21155
2.67684
-0.224341
2.25188
-0.441619
0.125478
2.27489
0.736673
-1.35129
1.08151
0.0713099
2.14396
0.0125308
1.83661
0.763165
-0.775263
-5.53941
0.891891
-0.276513
2.8575
1.58225
-0.0241155
-0.153822
-0.632784
0.447545
-0.26327
0.113249
-1.26111
1.75298
0.0184326
0.624366
-0.578864
0.885545
-0.904358
-0.214412
-0.163163
1.54528
-0.178948
1.5762
1.56803
-0.604806
0.28675
2.34704
-0.736479
-0.154197
-0.183255
-0.0340089
-0.0198481
-0.200117
1.35162
1.62136
-1.93472
-3.736
-8.39333
-1.18852
-0.343006
0.0668448
1.55387
-0.217059
0.0639246
1.69405
1.47857
-0.418786
-0.477091
-0.577034
0.276175
1.65927
0.318185
0.208799
-0.00148787
0.0209423
0.496235
0.0385971
0.66851
-0.20401
0.803181
-0.0683111
0.0440219
-4.78816
-0.205037
-0.298206
0.386035
-4.29677
1.30656
0.0671154
1.58406
1.77176
-0.250332
0.0469298
0.0485652
1.59547
2.07239
2.78555
0.349073
1.03765
1.32377
0.201605
0.962027
1.32568
1.12874
0.283388
2.2083
0.369443
1.60173
2.92374
0.631546
0.976942
0.0241599
-0.231109
2.05064
0.927443
0.726441
-0.895719
0.00734583
1.09605
2.8213
-2.17846
0.0619974
1.0587
0.21425
0.274368
-4.97306
1.64519
0.0186047
-5.5425
1.14302
-0.0402223
-0.725119
0.580874
0.275876
1.78491
1.57041
-0.572074
0.00312565
-0.453106
-6.93521
2.19076
1.15557
0.0373554
1.11462
0.0277014
-0.318054
-0.174355
1.42319
1.62945
0.0468349
-3.97398
-3.42696
1.52094
1.09552
2.53736
1.67438
-7.52548
-0.165866
0.105215
0.950171
-5.96917
-0.0839699
2.10533
-0.665868
0.672875
2.29427
2.35834
0.0388431
-0.215482
-0.291705
-6.18801
-1.21728
-6.04522
0.342809
1.4421
-0.25599
0.41814
-1.44196
2.03009
-1.3408
1.17279
1.80488
0.932685
-1.28017
-0.746213
1.66203
1.61317
1.97086
-0.66216
0.910066
-4.29185
0.761827
1.60897
0.231812
2.83159
1.01923
-0.560913
-0.492487
0.336902
1.61906
-6.40888
0.0324081
2.48174
1.4478
0.654962
0.0366106
0.734384
-0.883084
2.52432
0.057347
0.921867
2.36709
-7.22928
-0.62065
-5.04688
-0.749465
0.0488139
1.91523
1.85661
2.49659
-3.4706
0.0372627
-1.01635
0.995797
1.61315
-0.745362
-1.44185
1.59139
-0.229002
-0.5299
-1.93027
-3.01596
-0.168167
2.02549
0.0073865
0.0667222
-0.195747
1.52599
0.00642427
3.09102
2.33209
1.64695
1.30161
0.0184413
0.00380308
2.9065
-0.170496
0.0362069
-0.545072
1.61632
-8.67249
0.253924
1.12923
0.0269336
-0.74276
1.85528
-1.85821
-6.44423
1.04372
-0.0958132
3.24295
1.06534
1.40822
1.74973
-0.526616
0.207987
2.60855
0.797729
2.08655
0.371366
0.441975
-0.178433
-0.117961
0.0448509
-8.91666
1.64651
1.60138
-0.290336
0.00210714
-0.246319
2.38262
1.92094
-0.164355
1.63172
1.19413
-0.717696
0.888392
1.43358
-4.34583
2.49561
0.045698
0.0202755
2.60807
1.10745
0.0027594
1.07738
-0.204343
-0.214743
0.65817
1.01554
1.7986
2.31248
-2.17419
0.727934
-2.34704
0.00600466
2.24729
0.440894
-0.711877
-0.228125
0.21537
0.116836
1.30877
-0.471429
-1.36682
1.63644
2.18482
-0.148179
1.74788
-3.50273
-0.391433
-1.88681
0.66139
-1.41494
1.77924
0.204971
-3.85495
1.38177
1.90084
-1.2405
-1.89913
1.41352
2.25351
0.484706
2.42588
0.200333
1.06864
0.362403
1.79143
0.0599307
2.19274
-5.32623
0.320359
1.55662
-0.292616
-0.695023
1.59037
-6.79364
0.288481
1.82165
2.49423
-0.264224
0.11909
0.423816
0.152806
1.44841
1.12371
0.534508
-5.01339
0.041655
2.38741
0.259589
0.095539
-0.978956
2.51022
-0.33348
0.0690893
1.55619
1.28229
-0.11568
-0.491551
1.37634
0.19055
-0.308055
0.628395
-1.5962
2.43709
1.60104
1.13833
1.17764
-0.681214
-1.21263
2.73633
0.482895
2.74296
-0.25747
1.55604
0.0126753
-5.57985
0.974927
0.887364
2.86851
-0.622526
1.05133
1.00085
-2.32694
0.846502
0.0136042
-0.724232
1.58091
-1.77591
-0.669498
-0.895228
-0.336788
-0.316933
1.7369
0.00783118
2.65799
1.61705
0.096946
-0.348651
-0.585754
0.517709
-4.18745
-0.434192
-8.48024
2.23399
0.00248086
0.0822993
-1.36302
2.54534
0.00426355
0.202584
2.60281
1.41105
-0.478292
-0.138896
1.14701
0.143781
1.54361
0.0682633
-0.316116
0.608733
1.47446
0.469228
1.32588
2.64031
0.0685711
-0.366745
1.59195
0.249487
-0.23814
1.10873
1.18531
0.687701
-0.594396
0.202093
0.0402321
0.193128
2.24382
0.491029
0.184971
0.18583
0.132195
-0.10772
1.61255
0.0978404
1.50976
1.53332
2.21611
-0.00174691
-1.36067
2.72213
0.0318146
-0.22118
1.69418
-0.925016
1.8119
0.066518
1.55532
-0.252664
-5.40193
-0.898019
0.00603671
-6.73934
0.841103
2.79979
-0.304879
-2.64827
-0.573494
1.65179
-0.192962
0.703214
-1.93968
2.76832
-0.530159
0.865953
-0.793391
0.917866
1.59852
0.556742
-3.20363
-0.14766
2.57846
1.6344
0.694536
1.45405
0.110576
1.27098
1.28751
0.933615
-4.82167
-0.149711
2.01141
0.386916
-0.0428865
1.34172
-0.216414
-0.294116
-0.00659784
1.74272
1.70393
-0.301321
0.201
-0.415777
-0.162101
0.201193
-0.306136
0.284609
1.55152
-0.13099
-1.61887
1.88258
-0.0292619
-0.362092
-0.169569
-0.708235
-0.289013
-0.814772
0.030622
-0.796441
1.53293
2.52766
0.0382417
-0.365089
2.60949
2.45084
-0.248112
-0.480311
1.66497
-6.63227
0.0725467
-0.176811
0.044778
0.899065
-6.53037
0.743375
1.07821
-0.628459
-0.229977
-1.26745
-0.182587
1.39348
0.658127
1.04871
-0.317419
1.3572
2.40061
-12.0213
-0.713727
1.80545
0.568752
1.06121
-0.00445801
-0.531326
-0.320103
-0.140762
1.64243
2.7498
1.7719
-0.744193
-0.168306
1.60011
2.33725
-0.482621
1.72262
1.59035
2.43658
0.414027
0.0314599
0.23934
-0.242432
2.42829
0.201572
-0.217577
1.1161
-0.153544
0.398133
-0.112111
-1.385
1.52118
1.14159
1.11195
0.750477
-8.26895
-0.342919
-0.28177
0.906064
-1.68852
-0.932905
0.0700644
-1.18305
-3.75365
0.836416
-0.541646
-5.49504
-5.37112
-0.335638
1.19335
-7.56243
-0.501039
1.80764
-0.214434
2.50368
-0.284403
-5.59247
1.90333
2.26194
0.0582423
0.0805251
0.374619
1.64664
0.914794
-2.57448
-0.101557
0.037137
-0.222346
1.56446
0.0780483
0.938875
0.047006
1.61993
-6.75971
0.0655688
0.0174521
1.95955
-0.960819
-5.87909
-0.931316
2.48175
-0.164072
-0.388524
-7.94688
1.59451
-0.358294
0.0534056
0.392403
0.771373
-0.595401
1.11154
-0.500935
1.29298
1.58127
1.86572
0.717783
0.0187438
-0.340994
1.2081
-0.633914
1.93209
1.07345
-0.137072
-0.0249576
-0.181447
-0.0791073
0.0372835
1.81826
0.652035
0.24756
1.59495
-0.0161161
1.28944
2.83789
-0.110793
-1.93817
1.09598
-0.70734
-0.00221462
-0.196961
-0.194323
1.595
0.0690448
0.0316781
0.0566773
-0.000753347
2.05915
-0.420384
0.00601031
1.60046
-0.896482
2.27688
1.84211
2.14723
0.418413
0.981651
0.495129
0.131882
1.20337
1.58284
-0.186487
-0.299443
-5.87802
-0.475518
-1.18968
1.60597
-2.53881
-1.35063
-1.15417
-0.180398
0.0243058
1.60834
0.0253224
0.306612
-5.04927
1.62464
2.79799
-1.09751
-3.35642
0.887066
-0.017417
1.56153
0.100074
0.00560257
1.93744
-0.0499338
2.6484
1.11468
1.58682
-0.526834
2.08943
0.0790474
1.85186
0.0475638
-1.28258
-0.578915
-0.681843
1.096
-0.517127
-0.118578
2.49784
1.61756
1.72695
2.27617
1.76236
1.9545
-0.27411
1.67902
1.6328
1.64939
-0.255282
-0.490108
-0.77564
-1.5983
0.41165
1.80434
-5.49932
2.40612
-1.61358
0.0710034
2.72765
2.29874
-0.296109
-0.783381
1.62531
0.815933
0.0865877
1.51327
-5.42708
-0.643783
1.58658
2.22374
0.00613573
1.77524
2.06828
0.00595405
-0.575769
2.07725
0.719925
0.0418378
-3.75083
0.177142
-1.32138
1.49427
1.087
0.0538854
-0.0862937
-0.605646
0.419754
-0.00766184
0.398306
2.34583
-0.0244659
3.03338
1.61589
0.540712
1.81049
-0.492609
-5.09271
-0.331511
1.59274
-0.00302312
-4.70951
-0.143958
0.786852
0.926093
0.0292273
1.14406
-5.40124
0.836809
-0.226264
0.0502759
1.29803
0.502187
2.08665
1.63374
1.67782
1.55143
-0.300159
-1.11858
-0.965358
0.193671
-0.291025
-0.31013
1.27332
-0.197877
0.015084
0.0586691
0.193249
-1.93589
1.1432
0.736904
0.126235
-0.630425
0.782769
-0.835351
-0.934327
0.21054
-0.524712
1.77233
1.18603
2.06198
-5.07172
1.45004
0.0643285
2.24572
-0.271203
0.837518
-0.0541732
-0.214391
2.60506
2.68377
1.34381
0.880126
1.08451
1.4761
2.63285
1.10296
-1.24107
-1.64189
0.322807
-1.58209
-8.21409
1.61246
1.56008
-0.759955
0.430932
1.3448
1.46998
2.8642
-2.89161
1.25421
-6.2483
-0.357211
2.30072
-0.175382
1.34197
-0.208939
0.492486
0.63411
2.98568
0.0336821
-0.776091
0.804754
0.237093
-1.21527
-5.38142
0.00957894
1.77774
0.10539
0.887709
2.44894
2.25351
-0.101162
-3.00268
0.060147
0.264045
1.88228
1.53648
2.23236
0.982757
-7.61475
2.34061
1.46128
-2.31432
1.23749
1.63616
2.02188
-3.10857
-0.171029
0.00209874
1.36149
2.56566
0.869903
0.19005
-1.30297
2.8774
-11.112
-1.15877
2.67628
1.4087
-1.88209
1.28747
-0.214246
0.895018
-0.399631
-10.7557
0.0279757
-0.372034
0.0846032
-0.327843
-6.73461
-6.7906
-5.44215
0.223178
-6.02739
-0.279369
1.25126
1.47897
0.845077
-5.96205
0.426061
0.229421
-0.303867
3.01833
1.06367
-0.873712
1.40548
-0.407462
-0.40712
1.31923
1.30714
1.56257
3.05386
0.00794174
-0.173528
-1.12337
0.195592
1.09742
1.56975
-0.62325
2.3656
1.09287
1.69777
-0.18459
-0.103746
0.0900393
1.66462
1.60563
1.71825
1.59759
2.80445
2.74736
-0.424541
1.41355
2.04725
-0.843153
2.22485
-0.00520286
2.71524
2.2037
0.0755452
1.8186
0.777632
1.22739
0.116111
1.62044
-1.09371
1.40803
0.600026
1.08376
-0.189633
1.56015
-0.00282042
0.400741
2.62309
2.6157
1.07565
-5.12221
0.412398
0.101947
-0.158596
1.28893
2.35026
-5.16591
1.65084
1.54003
0.793152
1.65526
-0.759884
-0.2166
0.0569664
2.84786
0.487055
0.0747929
1.84169
-0.187072
0.0823476
0.806822
0.316115
1.21738
0.643404
-0.535752
0.963508
1.29035
1.0614
1.2028
2.7724
2.27444
1.99659
1.87526
2.56549
0.777618
-0.0154564
-0.0234008
-1.87314
2.59552
-0.203934
1.60502
1.44465
-0.458224
0.847718
1.77724
-0.763248
0.809733
0.998761
3.09179
-4.63781
0.718795
-1.96907
1.83201
0.163075
-0.228317
2.55183
2.17735
1.55475
1.58381
-0.453635
0.760666
-9.04275
2.7417
0.0474465
2.96395
-0.126232
0.172213
-5.67541
0.859075
-5.55743
0.271431
-0.0437971
0.577185
-0.229703
0.54385
-0.239047
0.00281627
-0.275606
-4.9937
-0.702078
-2.76453
-0.191906
-0.0941438
-0.194224
-3.78008
1.63965
1.67172
2.02261
1.58504
0.65474
0.630233
3.25066
1.56603
-7.21287
0.00660993
-0.160677
1.22591
1.42007
2.37032
-1.20589
-1.18271
1.30567
0.00108394
0.432211
2.00193
-5.22423
-0.704388
-8.56808
2.77302
-0.211128
1.12529
2.05
-0.184041
1.275
0.0114398
-4.54597
-3.28487
0.0956678
1.06906
1.90821
2.01241
-2.72128
-5.06854
1.05657
-11.9606
-0.545232
-0.304242
0.311355
-0.379226
-0.0301273
-0.234982
-4.25631
-1.13468
2.45987
-0.188333
2.68725
-1.46827
-0.214358
0.6177
-0.274553
2.27312
1.57026
1.88017
-0.492849
-0.405864
-5.14149
2.18772
-4.97119
1.17011
0.0371305
1.92476
2.26933
0.0272129
1.58242
2.58006
1.76415
1.72863
-3.37766
-0.0832765
0.676086
-0.876184
-0.0363232
0.975926
1.14146
0.167486
-6.85139
0.392174
0.0942141
1.39688
1.18846
-0.626763
2.70639
0.195422
0.00428351
0.22197
1.57352
-0.470374
0.00914365
1.74474
-0.873563
0.139005
-0.309066
1.69226
1.57691
1.50359
-0.0171166
1.4999
1.84567
1.80993
-0.410782
0.0736093
0.352517
1.38966
-1.25752
-4.08795
-0.373073
-2.05923
-0.213848
0.0411391
-0.0324367
0.0676909
-5.53443
-0.864172
-2.21076
0.0955797
-0.401963
0.593168
-1.58166
1.70074
3.27411
0.536811
-0.27693
0.709614
0.17683
0.413944
0.0302573
-0.513493
-1.04055
0.212692
2.11495
0.00587569
2.53441
0.0339671
1.49939
1.31604
0.714438
-5.53758
0.929032
2.79337
-0.197956
1.60194
1.53671
2.36025
0.212856
2.1683
1.71802
-5.74921
1.82878
-5.04842
-11.0218
2.21554
1.41129
-2.50376
-0.0358867
2.07619
0.180889
-0.632826
0.06757
0.0637869
1.22717
0.865712
1.59929
1.50093
1.37346
-3.27327
-0.708018
-0.380998
1.56189
2.96007
-0.568787
-11.5384
-5.32862
1.60202
0.202124
0.204515
0.703371
0.0510416
1.24893
-0.195677
0.378962
2.46379
0.717376
-0.0561705
-0.147751
-0.213067
-0.85147
-6.46604
-1.13731
-0.750898
1.8993
0.862026
-0.760734
2.57129
0.00807546
-3.92013
-0.299788
-11.1791
1.73578
-4.80547
0.53072
1.60144
-0.00443975
-0.423057
-0.19057
-7.48028
-0.240836
1.74082
-2.27804
0.00793425
-8.56779
1.5401
1.7221
-0.212089
2.03086
1.87906
2.43795
2.50257
1.78535
0.277934
2.84957
-9.06968
1.5603
0.330074
-1.70747
1.94193
-0.326486
2.44518
0.752906
-1.70796
-4.35418
-7.07576
1.70723
-0.388199
-0.401963
0.0750026
-1.38973
-0.0440059
0.990353
0.279016
1.17182
2.77036
-5.27121
-1.05319
-0.952847
1.66293
1.19955
-0.712901
3.23436
-0.00635037
0.0901869
1.01853
-1.65254
1.53188
1.65213
1.84465
1.85618
-0.038055
0.87428
1.54
0.37136
-0.239357
0.0197844
1.73528
1.79714
2.2087
-0.174976
0.160876
0.826258
0.97572
0.243569
-1.48575
1.31963
-0.251051
1.39432
1.64626
-7.01061
2.52464
-0.702937
2.74013
1.82626
-1.61385
0.00803804
0.0510148
0.585137
1.68208
-1.03463
2.17542
1.51305
0.828306
0.0539107
0.358106
-0.41774
0.827303
-7.65487
0.993633
-0.230939
1.56024
-3.77304
0.0254999
-0.366404
1.97685
2.29134
0.751584
-3.87965
0.78065
-0.111437
0.184801
0.900326
-0.18273
-0.146176
2.68821
-0.855685
-0.158479
-1.03621
-10.3692
-0.0643009
1.64147
-7.31395
-0.319321
1.67295
1.03385
1.72128
-0.236323
0.741413
2.71525
-3.14941
1.53927
0.503237
-0.162256
0.562764
0.384406
-1.19327
2.77211
1.83542
-1.23794
2.684
2.08431
1.95752
-11.5618
-3.7871
1.02722
-1.90956
-0.0435632
-2.99158
-1.69797
-2.81919
1.27018
0.619027
0.972483
1.07774
-0.183317
1.20792
1.5664
-9.7411
1.67196
0.997204
1.58923
-0.113536
0.0296075
-0.216268
-6.65538
-0.218283
-0.37698
1.54921
-1.79584
2.44887
-0.442223
1.54027
0.990483
0.0615937
0.299845
1.64517
0.722758
0.378915
1.44495
0.0890302
-0.0103383
2.31859
1.8846
-0.738946
-2.42622
0.0663555
1.41106
0.0191952
0.728208
-2.55844
0.0372724
-0.137071
0.0761999
1.39916
1.34438
0.143963
0.713825
-0.0317826
0.0117321
-1.35444
1.97333
-0.217328
1.55957
0.00513804
1.37424
1.70338
0.911433
1.49098
0.119624
-0.24619
0.0651643
-4.57303
-0.333301
-0.689844
-0.323629
-0.0907825
1.27442
-0.0582739
1.56395
-0.0389013
0.0326644
-2.52613
-0.0012834
1.66816
-3.56095
1.56352
0.412007
-1.01313
-0.0942173
-0.215062
1.14569
1.68567
0.014897
0.311522
-5.2663
1.8775
0.14016
0.491698
-0.796617
2.01161
0.801408
0.0306496
1.70931
1.66223
1.9431
0.229975
1.96097
-3.32059
0.0957034
-0.204026
1.5457
1.03227
0.437068
0.190662
-1.4046
-0.827918
0.887079
0.148393
-0.964642
2.49424
-3.67966
1.91114
1.16061
-0.402562
-0.0245937
0.118826
-0.0876967
0.192905
0.2426
1.49855
0.0680873
1.60147
-2.63059
0.662275
-0.136112
0.40626
-1.46971
1.99311
2.72455
1.7463
0.907143
0.345362
1.03968
-6.65507
0.0496146
0.0212498
-0.148108
-0.782675
-1.86607
-1.42413
-0.729428
1.4272
1.57564
-3.68828
0.431014
1.8055
-0.724743
-2.18838
1.71396
-0.0214413
-4.88127
0.0542399
-0.279294
0.00846691
2.54677
0.0317492
1.53917
-1.5926
-0.967487
-0.706566
1.56522
0.428838
1.32595
-1.36113
-0.938143
0.123811
0.337817
1.8436
1.41168
0.293006
-0.163898
-0.415746
2.83233
-0.166184
1.81952
1.99072
-0.152888
-0.0437141
0.748655
-5.0087
-0.93884
1.38965
0.916843
1.54759
-0.383355
1.74081
0.199818
2.28094
0.345112
1.40827
2.01953
1.31914
0.288601
-0.538051
0.526285
-10.1376
1.37979
0.724676
1.93545
0.16064
2.43025
0.287978
2.58433
-0.462569
2.01576
-0.21785
1.20795
-4.38995
1.53176
0.780334
0.655133
2.39225
1.58075
0.388777
-0.709107
0.929148
1.51241
-0.000160112
-6.25215
1.1773
0.104136
2.07941
-0.212169
2.47465
0.405648
3.28584
2.4936
1.17696
1.04207
-4.4925
0.10945
2.65604
0.0535848
-0.050346
-0.121008
2.62314
0.780874
1.37522
2.22412
-1.00053
1.73475
-0.308565
1.9059
0.0840508
1.80059
1.62933
2.21117
-0.021804
-10.6048
0.477754
-0.212732
0.75482
0.270829
0.0692242
2.03634
2.33043
0.028953
0.548873
-0.2872
2.08746
1.32297
1.47313
0.994185
-0.196962
-4.3201
-0.194815
1.63491
-2.61274
-0.065127
0.0433987
1.13812
0.77429
-0.738128
2.80213
-0.0948106
2.44877
0.485043
2.49025
-0.501119
0.369538
0.0632002
0.0829191
1.35685
1.57197
-0.267263
-0.0690805
-0.365356
-0.0655467
2.31338
-0.530688
0.0347569
-0.147506
-0.0867981
0.555124
1.9557
0.773847
0.0945445
0.0514902
1.58458
2.96925
-0.213137
0.123406
1.55959
0.0511006
0.821845
0.0358483
1.14442
-0.0749085
-4.58772
-0.485347
-0.243888
-0.190268
-0.0783545
-2.64749
-0.638217
-0.0342276
1.2511
1.70796
1.39011
2.88324
-5.13969
2.60747
-4.76745
2.45992
-1.0493
-1.10208
2.78625
0.654847
-0.35438
1.61983
-0.0224642
1.74784
-0.267181
-8.11962
0.28827
-0.683646
-0.780036
0.00915615
-0.165519
0.640459
1.98648
-1.2827
0.716756
-2.56949
0.40444
-0.125322
0.00311691
0.202241
-0.112147
-2.04052
2.07918
0.0313535
2.29361
0.619055
-3.92109
0.531398
-1.4159
0.065944
1.37499
2.0029
2.89404
1.20491
1.34213
0.768095
-5.27696
2.79217
2.98432
1.73944
-0.957802
-0.364222
-10.3674
1.48504
1.05628
0.598245
1.27766
-0.162292
0.0146461
-9.13117
2.38361
0.124691
0.208427
-0.24062
1.5428
0.299967
3.19428
2.99057
1.42574
0.0837625
0.456337
-3.80362
0.603593
3.06962
0.213718
0.0632298
1.18407
0.00838782
0.319656
-0.190361
-0.370316
0.383974
0.139965
0.736636
0.0419353
0.504952
2.2335
0.504402
1.69677
-0.263192
-0.450543
2.6932
-2.19748
0.284338
0.429691
0.68681
0.21431
-0.217351
0.341595
0.102597
0.228817
3.22208
-5.69975
-3.35571
-0.918746
-1.12107
0.197792
0.426092
-0.210241
-2.59357
0.0295368
-3.5771
-1.30947
-0.871158
0.211239
0.138211
0.162977
3.14621
0.152919
0.478714
-0.19286
0.319444
-5.04759
-0.385987
2.18459
1.57415
0.482455
-0.0995558
1.53549
1.70435
0.0680851
-1.63117
0.0358328
2.17634
-0.757133
1.49268
0.0802134
2.45364
0.107105
-0.292405
-0.0182428
1.73752
-0.614482
1.41635
-1.02439
3.03575
-0.217419
-0.328159
-7.59833
0.703883
-0.227384
-1.10908
-0.222152
0.233275
0.726095
-0.451045
-0.14776
-0.0858644
0.290979
-0.675606
-1.32488
1.29527
-11.2321
1.39318
-0.234012
1.75875
2.77823
1.50028
-5.23757
1.61643
0.215725
0.301041
-0.0998779
-0.502664
-8.20638
0.0584242
-0.417078
0.707291
0.00248987
-1.19651
-0.0798592
-3.88166
0.833998
1.61788
-1.76758
-0.214476
-0.545605
0.0393767
-0.103533
0.96036
-3.38072
-0.225531
1.60966
-0.0605469
0.918741
-1.20047
-5.12825
-1.84402
-4.92551
3.15496
0.517692
-0.87635
0.410162
2.61186
2.69937
-0.327402
-0.321662
1.58317
0.0160845
0.0378248
2.68624
0.907522
1.4121
3.21272
-0.498848
0.487832
0.252147
2.39643
1.64699
1.65603
1.99075
1.13487
0.0553283
0.104394
0.744896
0.386328
-6.14786
2.75106
-0.856257
-0.936974
0.0414564
-0.666664
0.804287
-0.246628
-0.351228
0.380484
1.6732
1.72099
1.83252
-6.74481
2.35562
2.67902
-3.25996
1.01889
-0.140473
-0.164755
0.291469
0.932763
-0.0984304
-0.740836
-1.05701
2.97229
-5.53135
1.8517
1.60777
2.11611
1.2119
1.2721
-0.0913899
0.0471058
0.947722
-0.0366495
-11.7939
-2.37253
0.149874
-0.214093
1.9718
-0.429355
0.0414852
0.32709
-4.97384
-0.260763
-7.61316
1.42068
-0.314279
-0.0274885
0.756338
-1.12833
0.582102
-3.90034
-0.132879
1.72228
-4.08982
2.73869
0.0384536
2.91313
0.00413137
0.0125778
0.249968
1.3991
1.37506
-3.3535
-0.137604
-0.345981
0.242908
1.13851
3.22037
2.12314
0.562094
-0.725556
0.863253
-0.0533791
1.83455
-0.131948
0.941205
-0.201565
-0.229302
-4.8261
0.597227
0.0536726
-4.93934
1.05293
1.03099
2.64881
2.84157
-6.56032
-8.00015
-0.205089
-1.49708
2.76035
0.193257
-0.710596
0.702089
1.15693
-0.22518
0.148453
0.0790094
-0.019026
1.46802
-0.188631
0.493733
-1.55708
-1.08941
-2.96737
-0.435636
-2.95748
-2.66413
1.77475
-0.368717
-0.271615
-0.332847
0.0356254
3.01574
1.19052
1.49828
-0.352219
0.837135
-0.0480834
0.679225
0.49159
-0.213421
-3.93466
2.75114
1.6988
-0.0138708
-5.80688
3.12605
-0.254632
-3.99041
-0.192183
0.83464
-0.23456
-0.211422
2.38601
-0.105519
1.48243
0.647874
-0.208942
0.170255
-0.0224356
0.803213
-3.15393
0.0291379
0.494364
1.57799
-0.217091
-4.51272
0.167228
-0.467917
-1.74446
-1.56957
2.93632
1.05128
-1.14621
0.79183
0.416732
2.58485
0.922487
-4.43034
0.980354
2.02777
1.74149
-0.692512
1.41362
-0.0820029
2.72814
0.0493207
1.63259
-2.20828
-0.643633
0.0452134
-0.220782
0.965961
0.552344
-5.0691
-0.245439
1.89259
-0.0333052
-0.0938039
2.23799
1.26547
2.1787
1.4943
-0.986514
0.0261673
0.0659816
1.59086
0.00347356
1.98747
1.25298
2.70822
-0.21797
2.12115
0.814898
2.73576
-0.207998
-0.990707
2.79986
-0.22014
1.22436
-6.32208
2.40962
2.69755
1.72894
-2.64368
1.58553
2.07293
-0.648541
0.686383
-0.295219
2.21341
-0.22644
-0.119181
-8.67097
-9.29626
2.036
0.798535
-12.4411
0.852608
2.69468
-0.871955
-0.265558
-10.0379
-1.18249
1.35235
-0.20094
1.5253
1.50728
-12.6165
3.02054
-0.0459296
2.28625
2.26815
0.129003
0.0215398
1.42583
-2.24837
-0.259339
1.41285
1.21677
-0.57076
1.51422
-0.195647
2.36523
1.73008
0.644583
0.0487062
1.77846
-0.145472
0.973936
2.1221
0.384833
0.0374211
2.05707
1.71624
-0.822185
-5.17332
1.23086
1.79569
2.72566
-5.60453
2.87837
2.82966
2.92563
-0.155882
1.99755
-1.68773
1.59814
2.15123
2.09619
1.77829
2.35199
3.19059
1.38713
-5.21466
0.194711
-3.90843
3.15926
0.882844
-0.0790233
-0.216003
1.5005
2.37059
1.53406
0.570791
-0.119534
2.3576
-3.08614
1.71593
-0.219969
0.741755
0.0120822
0.523802
1.05983
-0.644554
-0.534678
-0.0966323
-0.450911
-0.171591
1.95825
-0.348272
0.205045
1.49877
-3.76097
1.00712
0.0419375
-3.27245
-2.42676
-4.69787
2.25027
2.42236
-0.242055
0.60481
2.06625
1.86094
0.0310165
-0.86098
1.75607
-5.93166
2.21288
-2.86153
2.1548
1.005
0.24076
2.00559
1.08673
2.10453
0.604407
0.752875
-0.621747
-5.25206
-7.21075
-0.0623401
2.0654
-1.27182
-0.264635
-1.29997
2.28637
2.08318
0.569408
1.20149
2.32007
-2.56112
1.5315
-0.218499
-0.712574
1.52488
-0.302417
-6.44962
-1.45256
-7.05962
-0.352202
-1.37915
-0.163057
-11.6603
-5.53925
1.32256
2.75936
3.01158
2.62106
-1.2213
1.73461
-2.67612
1.48834
2.30956
0.237473
2.02809
-1.30772
0.589735
-0.664922
-0.0908662
2.20621
-1.20881
1.81804
-7.87644
-0.406951
-7.94779
1.84887
1.80357
1.5937
-5.48915
1.51723
-0.160812
-11.7154
-10.735
0.54869
2.77095
-3.2089
-0.347372
-0.234
1.55882
1.5291
-0.0414782
1.00903
-7.2221
2.3539
2.12395
-0.238617
-0.327645
2.29539
-0.319839
-4.22501
0.0226598
2.09834
2.36051
-1.38769
1.15011
-0.231458
2.7108
-12.4537
-0.613884
-0.0930289
2.54468
0.0122958
-0.591286
-0.0778932
2.1898
1.26764
2.17257
-0.149106
-2.86439
1.78226
3.1245
-5.49928
1.4446
-0.0295219
-12.094
-0.0143789
0.607264
-0.21468
1.12344
-0.200225
1.05533
-0.165139
-0.818659
1.98961
2.37999
1.50787
-2.07904
-0.634761
1.85538
-7.24323
0.62471
-0.740123
0.811994
-10.8186
1.72523
1.86109
-0.0609561
1.74635
2.67403
-0.279109
1.31214
1.82088
-9.63256
0.98384
-0.588468
0.808554
0.606389
1.25808
0.00775619
0.567736
-0.256616
-3.39419
2.23901
0.665139
0.223925
-0.357451
-0.24464
1.65677
-9.27005
2.91335
-4.66949
-8.2617
-0.103419
2.04298
1.81403
2.14117
-4.73492
2.57319
-2.03263
1.2707
0.0422283
-4.12985
1.47497
0.748741
-0.296613
1.10764
-3.98869
1.29671
-6.92635
-0.338364
0.00865674
-2.51212
-3.02123
1.43605
2.64228
0.00340232
-1.9843
2.05753
-2.68635
2.4023
0.749369
0.0612135
0.880294
1.60602
0.854313
-0.109607
0.217201
-0.0116317
0.404963
0.588488
-4.61288
-0.258051
0.0995156
0.958838
-0.253314
3.17605
1.72875
1.58441
2.42526
0.266897
1.78743
-1.28856
-6.41512
-0.424337
1.60519
3.0976
1.49454
-1.11591
2.24187
1.51052
1.535
0.013318
-0.0553525
0.866625
2.92741
0.158166
-0.824578
2.14602
2.2877
1.68999
1.58696
1.9493
1.13514
-0.180506
-0.599793
1.75993
-5.68504
-5.06047
1.55363
-0.49201
0.023611
0.550204
1.73876
1.80141
1.8306
-0.160186
2.13655
2.18746
0.339019
1.92149
1.68081
1.32263
1.2089
1.09412
0.836912
-0.0458239
2.04208
1.90662
-0.0574044
1.46545
-0.178585
0.0503794
2.62023
1.98172
0.007746
-0.900262
0.121236
2.04028
1.15642
0.318024
0.0142772
0.239788
-0.330348
0.319589
-0.233167
-0.234352
1.18524
-0.242902
-2.08649
-6.13223
2.47263
-0.206204
-4.24603
-0.324777
2.65388
-0.211408
0.37958
0.328528
-10.7074
1.25385
1.49595
1.02103
2.33435
1.28949
0.0418588
-4.26957
-0.661554
0.0314032
1.85183
0.0178007
-1.88933
-12.4167
-0.371499
-4.14317
-0.285918
-3.42523
-0.227347
0.605578
1.5684
2.08188
-0.321309
-0.184549
2.34384
1.78168
-1.19551
-0.264244
-3.9604
0.996025
0.0361139
0.893595
1.35975
-0.0238334
-0.234819
-0.278989
0.432402
-1.70766
-4.84211
0.185094
-0.915758
-6.53412
-11.7108
-0.480241
0.182196
-4.42894
0.833237
-2.09165
1.57319
1.41292
0.453659
2.06707
-1.18081
2.65411
-0.680494
0.0997265
-1.38731
1.58907
0.983726
-5.07147
-5.1504
1.6246
1.93253
2.75302
-1.2661
-6.13481
-0.929903
-0.192404
0.00979859
-5.7204
0.603954
-8.0046
0.95773
-2.27945
1.22913
0.214222
-0.0733877
2.41075
1.42269
-1.22191
0.0246299
-1.8977
-5.41665
2.07099
3.01437
-5.13399
1.95935
1.51095
0.0048837
-0.18575
2.01261
1.92693
-3.76878
-0.197074
-0.447457
-1.19713
-1.30476
-8.05504
-1.19002
1.05438
-0.17243
1.75727
-4.59072
-12.1259
1.49012
-1.20037
-9.10256
0.0912452
1.21548
-9.85053
-0.690574
-12.6748
-4.29946
-8.51144
2.79365
-5.56935
-0.265118
-2.42442
1.74565
-8.9895
-0.136385
-2.86245
-5.42233
-0.659299
1.81286
0.0187055
-5.90674
1.3955
0.0155474
-0.567765
-3.89081
-7.05733
1.14819
1.32139
1.60199
-8.08479
2.39044
-0.431288
0.007228
0.126171
-2.6597
-0.65608
-6.57281
-1.42462
0.359342
0.693486
-0.0201308
-0.352365
-1.23352
1.50392
-3.37943
1.67648
-3.50128
1.01416
-0.339898
-0.0731528
-0.0805032
3.12514
-0.248889
-10.6271
-5.92377
-1.05788
1.5999
0.0439002
-0.0857704
0.0793555
-11.5864
-1.03974
-5.37818
-7.39609
1.74652
-10.6119
0.236204
-12.4874
-0.0435664
1.40227
0.126491
0.736051
-0.539752
2.10042
-7.14742
-0.83444
2.24851
0.661843
-8.03734
-0.354686
-3.37151
-1.13203
-0.42304
2.0532
-0.341767
0.684385
-6.01502
-2.95875
-8.10283
-9.39124
-4.06506
0.960038
-0.258775
1.56768
0.606403
-2.65512
-0.449164
-0.821494
1.97352
2.3707
-10.9897
0.0860116
1.70883
1.57194
1.26497
-1.1012
-2.04991
-2.15105
1.60309
0.467204
-1.14048
-4.81878
0.928859
1.89904
-0.281504
0.0189435
0.0796893
2.22208
-1.77958
-1.94426
0.0399585
1.37554
0.0880217
-0.0832328
2.40558
1.98821
-0.00193998
-1.22861
2.02743
0.796568
-0.110905
1.47876
-0.465561
-1.57204
-2.59886
-1.24953
1.9463
1.70863
-0.127606
-0.744374
-0.189231
-0.000358015
1.75074
-1.18692
1.21373
2.11547
2.26498
-0.301561
1.60113
1.41606
1.77429
1.88127
-0.194393
1.89376
0.00802528
1.59775
0.877481
1.73196
-0.577608
2.01114
1.91963
1.43978
1.05177
-0.730334
1.14191
0.0994941
-0.893024
2.16573
2.13211
-0.789035
1.81177
-1.24655
-5.73996
1.73411
1.73285
-2.45029
-0.0956093
-6.2396
-1.08025
-1.42634
-0.269865
-2.51855
-0.440153
1.46532
2.90334
2.01638
-0.345181
-0.208988
1.70401
0.852019
-0.138671
-1.53597
-0.601436
-1.91954
-5.46806
-5.31762
1.5251
-0.417092
0.808212
0.0460862
0.0412692
-0.0935915
0.0398327
0.37093
0.841722
1.07204
-0.652416
0.774795
-2.66076
-2.53333
1.12326
0.884463
-0.0836339
0.188978
1.06407
-0.0209599
0.623829
-0.70814
1.57031
1.33713
2.54514
1.59912
-1.0616
-0.427282
-0.739677
-0.553458
0.0112671
0.0461547
-0.222002
-0.847151
2.96073
0.172781
0.0176465
2.36604
-0.224835
-1.03573
-0.175728
-0.60057
-5.92126
0.49872
-1.49401
1.56261
-0.271182
-0.959269
-0.104457
-0.349611
-1.0777
-0.117396
-0.13213
1.24679
-0.217906
-0.264949
-1.62342
0.642647
-1.16978
1.72356
2.42675
-0.525462
1.75741
0.927036
1.16581
2.68211
-0.219024
0.975558
0.855544
0.74761
2.29303
-0.488856
-0.189671
-0.120129
1.69976
2.42382
-0.378831
-0.181367
-1.2047
-1.00101
0.828155
-0.797301
-2.40325
-0.580149
0.635805
-5.85126
0.396948
0.531562
1.39719
0.309205
-5.31547
-0.953149
0.0129874
-0.212401
2.58581
2.90241
2.15331
3.0661
1.41745
0.836645
1.80445
1.5666
1.45086
-0.970604
1.64537
-0.396273
-5.45467
2.37234
-0.269075
-1.19556
2.78071
0.0449836
-1.36872
0.862129
0.74297
1.95266
-6.60982
1.47745
2.56167
-0.2189
-5.66329
-2.03135
1.14294
-2.50128
2.0596
-0.144598
1.95655
1.59
-0.255863
1.87705
-0.727214
-4.34555
-4.80896
-0.521978
1.93423
-1.07661
1.64381
-0.0328477
-6.67259
0.096628
-0.112465
-1.64184
-0.661705