/*--------------------------------*- C++ -*----------------------------------*\
| =========                 |                                                 |
| \\      /  F ield         | OpenFOAM: The Open Source CFD Toolbox           |
|  \\    /   O peration     | Version:  2306                                  |
|   \\  /    A nd           | Website:  www.openfoam.com                      |
|    \\/     M anipulation  |                                                 |
\*---------------------------------------------------------------------------*/
FoamFile
{
    version     2.0;
    format      ascii;
    arch        "LSB;label=32;scalar=64";
    class       volScalarField;
    location    "1.4";
    object      p;
}
// * * * * * * * * * * * * * * * * * * * * * * * * * * * * * * * * * * * * * //

dimensions      [0 2 -2 0 0 0 0];

internalField   nonuniform List<scalar> 
13486
(
20.6016
15.8565
0.98415
-2.21239
7.22814
-3.16783
3.59906
11.9121
14.0794
6.70498
-68.0555
2.99505
21.7961
-3.88605
5.32924
7.11422
-72.2356
-0.37687
4.11861
18.3975
-2.19518
21.5926
15.4736
-12.0925
5.58845
-11.3915
-64.0033
-7.24135
0.0436882
-6.04424
-1.82481
3.6942
-14.5079
-4.58904
11.9272
0.0158563
0.0593298
17.1039
-0.806198
13.8029
2.64506
22.6635
0.304276
5.86231
5.65544
2.74229
-105.372
0.0194763
0.0543909
-8.38834
11.1505
-1.02153
1.43343
17.3539
-0.699045
7.5455
0.46556
-1.00391
-13.6051
0.173967
-46.4382
0.179128
-42.17
-2.09598
-5.53587
0.0942997
-2.49087
20.4212
14.0129
-0.290596
-2.53235
-1.23807
14.0229
-50.1016
0.136715
0.468055
0.137773
5.22832
-127.873
-2.18266
0.0628241
15.8319
-46.8161
1.14533
20.6896
3.6349
-4.80031
10.4866
13.1193
7.56799
2.43605
10.4381
19.8074
17.2804
14.7554
0.0450511
-60.4459
-2.39083
13.787
-82.4752
0.109768
-3.16203
-2.49191
-0.967101
7.06973
-87.024
13.1557
-0.892117
-127.783
9.83912
14.0247
3.13364
17.3191
0.389765
24.2455
14.224
5.78076
-4.35888
14.0683
0.0117191
-0.761746
-46.7389
15.3878
-0.863364
13.6833
-0.868641
9.92418
1.98001
-3.73204
-5.01165
-0.814174
-109.639
-33.98
-44.3395
11.9598
10.3076
22.2683
10.043
0.00695941
12.2073
-12.2163
1.52674
3.5329
-2.1692
0.549368
-39.4207
-2.12567
16.5404
-8.93409
0.0556642
6.71488
5.19011
0.00748393
16.3315
2.61203
0.960272
8.19913
0.69555
15.5374
0.433081
-7.00586
15.5253
1.94962
22.5084
-1.00162
-6.55053
-1.51471
27.9615
-1.71041
-43.951
-38.41
2.69103
8.47688
7.38351
0.0349451
-5.61872
-6.25114
-14.6826
13.2821
3.56321
13.1806
0.417866
5.73027
-8.85623
1.00116
-7.38631
0.0148912
-5.66537
3.07553
15.1673
0.0639405
0.611058
-1.25148
17.3702
-1.47156
-71.088
-5.05254
-6.97929
19.0465
-5.34695
-1.91221
1.87401
17.0974
6.74812
0.40943
-1.5496
-0.733439
14.8632
-1.18665
1.05796
-6.3683
-8.28607
18.1435
13.1267
-3.07153
-3.37361
-6.52555
7.82419
18.7961
-21.1873
-77.7269
-8.99361
12.4395
-7.11279
0.0563728
20.2915
-5.60375
-3.14302
-2.88451
-3.66458
12.9954
-5.36313
-12.6233
23.1673
-2.57483
19.6184
-4.89997
0.772406
19.8372
5.92517
-13.9631
8.32021
0.357529
18.7346
-0.580268
15.3069
6.34797
-8.5933
-52.3936
6.82465
-3.01603
24.4475
13.5804
-0.972496
-2.28906
-6.7826
3.58147
-3.33529
0.312278
-13.9659
14.5374
-0.534495
5.2463
-6.16147
7.99267
-9.44458
-2.932
-2.0674
13.036
-2.47182
13.1911
12.8241
-6.72183
1.87297
20.3641
-8.33369
-2.32902
-2.3394
-1.04318
-2.4106
-2.50461
11.4485
13.3901
-21.0404
-40.003
-91.4085
-13.231
-4.04035
-0.0772878
13.0812
-2.49
0.0506449
14.9599
11.6415
-4.68166
-5.28461
-6.90399
1.59841
13.7231
3.10666
1.16132
-0.686186
-1.96376
3.91987
-0.0229287
6.13841
-1.69382
6.38228
-2.55092
0.0798682
-36.4235
-2.31096
-3.56692
3.16266
-48.5696
10.3727
0.137972
13.1219
14.897
-3.15982
0.074201
-0.0865767
13.0384
17.3814
23.2946
2.65131
8.87883
11.22
0.878827
8.31569
10.5747
10.0452
2.01603
18.5195
3.23272
13.9663
25.2924
5.4794
7.5523
-0.526364
-3.07895
17.1216
8.11861
5.88739
-9.50926
0.0513759
9.2083
24.353
-21.2741
0.0288282
8.94132
0.953965
1.69098
-52.0081
13.597
0.0718358
-50.4919
9.87562
-2.30516
-8.12363
4.47047
2.36934
14.8247
12.8579
-6.37656
0.0367664
-5.03132
-85.1571
18.6002
9.96773
0.0900498
9.38492
-0.560187
-3.58247
-2.44974
11.3097
13.0526
-0.172807
-46.3419
-28.9935
12.9051
9.7156
21.6308
13.6773
-88.9369
-2.43398
-0.186583
7.209
-54.8558
-1.35665
17.8075
-7.19176
4.59768
19.7942
19.8838
0.0281784
-2.5171
-3.11159
-57.6088
-13.4185
-55.5454
1.42509
12.2698
-1.97952
3.42971
-17.3387
17.1558
-14.2782
9.82585
14.9689
6.87537
-11.9858
-7.9729
13.6898
12.9495
16.1832
-6.95423
8.24715
-33.8232
6.10545
13.2965
1.47702
24.3932
7.93471
-6.23306
-5.44187
1.77355
13.3989
-67.9124
-0.834603
21.4251
12.0792
4.45107
-0.608992
6.80549
-9.4112
21.4856
-0.0144369
7.59891
20.0668
-80.8925
-6.94255
-46.2658
-7.99217
-0.82558
16.3315
15.5699
21.4722
-28.214
-0.00912275
-11.1016
7.75932
13.2777
-8.34929
-12.8636
12.6717
-2.35131
-5.69074
-21.1103
-35.4386
-2.73134
17.2617
0.00595814
-0.435646
-2.26428
12.4842
0.0308822
26.416
20.091
13.9494
11.4549
0.0670874
0.0342912
25.1848
-2.31449
-0.0062197
-6.49024
14.0367
-92.585
1.4194
8.66444
-0.113125
-7.59529
15.285
-18.4844
-61.3815
8.06551
-1.39437
27.6977
8.21169
11.3456
14.5393
-5.64245
1.38395
21.8618
7.25216
17.5403
3.38647
2.67137
-2.17653
-2.08189
0.335537
-97.838
13.5342
14.0488
-3.12537
0.00121092
-3.52675
20.1584
16.4248
-2.41242
14.2983
10.1445
-7.29032
8.21599
11.4183
-39.3809
21.2252
0.162821
-0.26821
22.4865
9.91423
-0.0682389
9.06857
-2.43159
-2.21832
5.12176
9.31037
15.529
19.9166
-23.0667
6.67241
-24.023
0.00263835
19.4567
2.66054
-7.27688
-2.61927
1.23588
0.717024
11.3363
-5.23247
-12.5897
14.3257
18.312
-2.36023
14.5027
-40.0284
-4.36088
-17.9005
4.34479
-15.0734
14.9846
1.2058
-41.3276
11.8713
16.3342
-13.7369
-19.7893
11.4437
19.3442
3.07298
20.7494
1.29102
8.27781
1.87316
14.9239
0.290857
18.852
-55.3064
2.0815
13.6737
-3.46651
-7.66892
13.0397
-74.9875
1.84967
15.9031
21.5917
-3.05105
-0.505162
2.62005
0.497924
12.2347
8.68426
5.20989
-51.5243
-0.947576
20.5819
1.04188
-0.288853
-10.3175
21.6548
-4.0014
0.369194
12.3812
11.0821
-2.05591
-6.43452
12.2696
0.789568
-10.3184
4.02573
-14.6658
21.0082
13.9832
9.57159
9.98654
-2.72404
-13.4539
23.4935
3.19629
23.577
-2.95514
12.9265
-0.11843
-52.9378
9.1379
6.73498
24.6343
-6.87509
9.38655
8.63456
-22.2595
6.5663
-0.451712
-6.98164
13.5488
-18.9908
-7.37754
-9.57859
-3.27023
-3.80973
14.4569
0.00989581
22.9738
13.7136
0.378051
-3.7501
-6.18083
3.32558
-42.1994
-4.78348
-92.0729
19.5109
0.0210314
0.472026
-15.2524
21.7741
0.0347747
1.75372
22.5069
11.3087
-4.86743
-2.31032
9.67042
-0.0201991
13.6475
0.40796
-3.55026
4.02795
12.3916
3.01156
11.2553
22.8046
0.347838
-4.07231
12.8616
1.09197
-3.50868
9.59129
9.28254
4.85828
-5.88704
1.26123
-0.240778
0.763419
19.4041
3.03329
0.701924
1.18967
1.70415
-1.72126
13.5209
0.482916
13.2437
12.965
18.6846
-0.765888
-12.6168
23.3588
0.223166
-2.17991
14.1622
-9.91626
15.0511
0.383841
12.4247
-3.40099
-48.5657
-9.81831
0.0143009
-65.1264
6.2767
24.018
-3.64811
-29.9641
-6.26201
13.6503
-1.91643
4.91803
-21.515
23.5949
-5.33343
6.87
-8.62683
6.93604
13.1408
4.03918
-26.7624
-1.92613
22.2651
12.8561
6.42754
12.1069
1.75587
10.8511
11.186
7.17001
-41.9343
-2.208
16.8505
3.37428
-1.10026
11.9285
-2.34263
-3.64296
-0.622971
14.5817
14.0387
-3.31786
1.05311
-4.07144
-2.01611
0.881174
-3.70599
2.03444
12.4445
-1.72936
-14.8912
16.3036
-0.877571
-4.27948
-2.29982
-7.52384
-3.22497
-9.28272
-0.351181
-8.76732
13.639
21.8003
-0.035674
-4.28663
22.5419
21.1301
-2.95275
-5.34158
14.5029
-75.2485
0.456053
-1.77973
-0.75366
7.80942
-61.2358
5.0114
8.22845
-6.84234
-2.85224
-13.7602
-2.88003
11.9456
4.75206
8.71377
-3.50372
11.0494
20.6262
-142.604
-7.70706
15.7594
5.68972
8.75543
-0.732271
-5.91904
-3.58814
-2.59861
13.5677
23.6362
14.9272
-3.08705
-2.55877
13.0672
20.0385
-6.74432
14.9258
13.4225
20.8149
3.60137
-0.282785
0.83201
-3.15617
20.5001
0.988736
-0.723683
9.42411
-2.26562
2.91392
-2.2177
-13.8879
12.407
10.575
8.7088
5.53647
-101.882
-4.43379
-3.44226
7.80576
-15.3735
-9.6179
0.351686
-12.5215
-40.2031
6.18403
-5.98848
-52.0244
-67.9761
-4.0117
10.5985
-82.2936
-5.42715
15.0975
-2.52302
21.681
-3.16661
-53.5128
16.596
19.5434
0.168477
-0.446144
3.99119
13.5679
8.28076
-25.9085
-1.86973
-0.0488333
-2.78759
12.4889
0.423299
7.0862
-0.0911943
14.0531
-70.6942
0.335732
0.0553778
16.8041
-10.3604
-61.7379
-10.2477
21.4708
-1.54865
-4.10656
-91.0829
13.3039
-3.97262
-0.0385402
2.62772
6.48207
-3.16885
9.64898
-5.52917
10.6035
12.5599
16.1104
4.9737
-0.289248
-4.04204
9.57481
-6.46157
16.8465
8.65249
-2.24831
-0.955041
-2.53709
-1.97295
-0.0142899
15.152
4.29796
1.97292
13.0435
-0.887076
11.0042
24.3687
-2.22453
-18.7821
8.33009
-16.9113
-0.61043
-2.68851
-2.29732
13.398
0.341544
0.0784383
0.291345
-0.193115
18.056
-4.27415
0.0107621
13.2207
-21.9094
19.0665
15.213
18.4467
2.84722
8.0558
3.82637
0.915407
10.5565
13.4118
-2.46908
-3.66306
-66.6422
-5.35233
-13.4974
13.4817
-28.7756
-14.7806
-12.5831
-2.5384
0.1013
13.2557
0.125161
2.44857
-42.8784
13.0503
24.1427
-19.7314
-37.0671
6.76667
-0.771212
13.1642
0.474879
-0.646927
16.5906
-1.13253
22.8779
9.3656
12.9726
-5.78388
17.7603
0.320122
15.3726
0.140759
-14.2194
-6.36148
-7.54568
9.08202
-4.62907
-1.68145
21.5925
12.8302
14.268
19.561
14.6605
16.7221
-3.44931
14.4853
12.8709
13.6194
-3.14076
-5.71795
-8.53589
-13.7616
3.26342
15.7333
-50.4537
21.6885
-14.9736
0.358656
23.3842
19.5966
-3.51412
-9.07269
13.7788
6.17325
0.930367
12.9866
-50.3756
-6.79467
12.9737
19.1291
-0.629721
15.4577
17.5727
-0.0470148
-6.61314
17.5703
5.7704
-0.00165598
-40.218
1.10446
-13.4604
12.1454
8.73582
0.0650913
-1.22925
-6.71111
3.34568
-0.546901
2.75765
19.8162
-0.899837
26.1421
13.5312
4.09939
15.2801
-5.16776
-38.5968
-3.66647
13.3829
-0.738256
-43.9361
-1.87319
5.6434
6.95907
-0.413563
10.339
-64.2686
7.26349
-2.42765
-0.0855639
11.0031
3.84047
17.9296
13.4974
13.8941
13.1582
-3.4758
-11.8897
-10.444
1.1451
-3.31163
-5.77109
10.8443
-2.34251
-0.386077
0.0964286
0.803329
-21.3103
9.636
5.31106
0.584535
-6.94885
6.38841
-9.06644
-10.0493
0.979631
-6.92882
15.4265
9.30998
18.0134
-47.5343
11.4695
0.347427
19.1132
-2.64584
6.19937
-0.739036
-3.091
22.3413
22.5531
11.0981
7.99646
8.5219
12.7699
22.6569
9.60288
-13.4527
-17.7555
2.21198
-14.7114
-100.26
13.0551
13.2027
-5.16018
4.32864
11.8802
12.3187
24.6969
-33.3259
9.9449
-60.3842
-12.8145
19.4434
-2.41634
11.4633
-2.59248
1.6152
5.05867
25.6382
-0.808868
-8.44047
5.75304
1.22517
-12.9644
-49.6104
-0.497421
14.7783
0.276447
8.00521
21.0656
19.1571
-1.67907
-26.9896
-0.702184
1.04874
16.4053
12.9201
19.2824
7.96332
-86.4671
20.2612
12.8024
-23.6699
10.7544
13.5363
17.5046
-36.2291
-2.33045
0.00687011
10.8268
22.2296
6.78692
1.50446
-13.4589
24.7521
-129.777
-12.2372
23.1059
11.3128
-4.38485
10.8785
-2.43975
7.82274
-4.78817
-122.862
-0.414784
-4.05609
-0.517276
-3.97709
-76.505
-64.8172
-67.9505
4.0219
-55.8069
-3.09925
10.3642
11.9025
7.91404
-71.9978
3.36722
0.738716
-3.72768
25.9387
9.29147
-9.49111
11.3531
-4.75941
-4.54596
11.6871
11.6187
13.074
26.2447
0.0305824
-2.31707
-12.0169
0.985144
9.55141
13.8659
-6.59636
20.5067
8.55472
14.1209
-2.25462
-1.91444
0.474133
14.3988
13.1988
15.0791
13.0982
23.8958
23.765
-4.89798
11.3443
17.3055
-9.11593
19.3958
-0.622028
23.4471
19.297
-0.537223
15.1233
5.71387
10.643
0.771793
13.3744
-11.6621
11.9138
5.20597
9.65532
-2.9886
13.1606
-0.484982
3.0842
22.6549
22.5823
9.19834
-45.8374
2.94721
1.99838
-2.18118
10.0774
20.2333
-49.2729
13.7192
13.2907
6.41894
14.2836
-8.4806
-2.59348
0.0581243
24.2413
3.96038
-0.342673
15.3085
-3.09059
0.423536
5.53693
2.02715
9.58472
6.29855
-5.88082
7.91354
11.2782
9.42859
10.5389
23.7976
19.3686
17.391
18.3872
22.3369
6.50942
-0.738114
-0.796483
-17.1263
22.3125
-2.42291
13.5781
12.3979
-4.86088
7.30379
14.9675
-8.28921
6.57461
7.76998
26.5439
-48.0727
5.78341
-5.44324
15.9831
0.941518
-2.62014
21.9918
18.8288
13.3753
13.3556
-5.21288
6.74623
-99.3328
23.6901
0.164651
25.4544
-0.930544
0.570458
-52.8603
8.05361
-47.437
2.02279
-1.12725
3.43615
-5.22019
3.39524
-2.72574
0.0530857
-3.3051
-46.5581
-7.34026
-27.9689
-8.78381
-1.60247
-2.39906
-39.6434
14.3166
14.5673
17.1319
12.7876
5.32711
5.17547
27.6685
13.2445
-76.105
0.0225374
-2.60074
9.69715
11.9933
20.5215
-12.6128
-12.6191
11.6207
-0.0503941
2.8702
16.7739
-48.0231
-7.79946
-93.4981
23.9886
-2.48957
9.54195
17.4625
-0.643911
10.8548
-0.417748
-46.4848
-33.7257
0.442765
8.32265
16.4316
17.1353
-29.0319
-44.969
9.53784
-144.18
-6.13916
-3.57497
2.64848
-4.42974
-1.53579
-2.65648
-44.3503
-12.2264
21.1623
-2.24715
23.0162
-15.3054
-2.83949
5.00995
-2.24258
19.6565
13.8759
15.8379
-15.0929
-4.85337
-51.199
19.1703
-45.9466
9.21786
-0.230978
15.9809
19.4801
-0.327085
13.2005
22.1527
15.2181
14.5089
-29.5048
-1.23593
5.49589
-9.45334
-1.10758
8.47315
10.3409
1.02973
-70.9495
2.70994
0.442838
12.2432
10.543
-6.61326
23.3624
1.01159
0.0220806
1.06606
12.7185
-5.32786
0.0318669
14.9705
-8.80157
0.980645
-4.01081
14.8426
12.7311
12.1668
-1.81631
12.1958
15.3663
15.5066
-4.74999
0.400253
1.86441
11.8005
-13.1352
-38.6868
-4.12036
-20.1543
-2.47684
0.0471369
-1.01978
0.454181
-51.1939
-9.28554
-24.5147
0.497596
-4.76563
3.88284
-16.3464
14.1216
27.9931
3.47099
-3.27928
4.99678
0.260499
2.82981
0.165261
-5.83232
-11.1369
1.51495
18.2064
0.0198427
21.8186
0.0731122
11.9339
11.4128
5.82429
-54.4959
8.72003
23.7205
-2.43525
12.7256
12.48
20.433
1.37539
18.7529
15.0527
-51.901
15.9511
-53.0457
-124.842
19.2638
11.2856
-25.3937
-0.796639
17.5531
2.05177
-6.90281
0.420771
0.279308
9.86849
6.31583
13.2605
13.0709
11.481
-28.4334
-7.55629
-4.49698
12.8003
25.5393
-6.34781
-139.82
-52.4187
14.1192
1.20211
1.23104
6.54934
-0.124063
10.7496
-2.49873
2.92297
20.9826
4.80414
-1.19051
-1.96152
-2.27402
-9.13711
-64.2214
-12.1647
-8.2739
15.8245
6.31365
-8.16754
21.5051
0.0354615
-38.9216
-3.54356
-127.16
14.9082
-41.5496
3.31469
13.7551
-1.9208
-4.86778
-2.38402
-79.5397
-2.82848
14.4045
-25.1367
-0.449926
-93.2689
12.5337
14.4181
-2.35669
17.2527
16.0466
21.011
21.4306
15.4014
1.63767
24.0292
-100.374
13.4427
3.23132
-19.7234
16.1626
-3.67441
20.6927
5.43317
-17.0809
-51.0311
-84.1236
14.1367
-4.09881
-4.63264
-0.726411
-12.9033
-0.918253
7.46573
1.38815
10.2305
23.9582
-49.6769
-11.2786
-10.0034
14.5811
9.58853
-7.98661
27.7363
-0.604842
0.413853
7.89352
-15.2583
12.1635
14.1615
15.8001
16.1445
-0.710891
7.58182
13.0187
2.52521
-7.58178
-0.102082
15.1235
15.1612
19.0917
-2.28072
0.997342
7.73436
7.24775
1.49207
-16.7172
10.5484
-2.97518
11.175
13.5591
-67.7177
21.8364
-7.94812
23.1381
15.8433
-17.6917
0.0369181
0.140298
4.27692
13.9675
-11.5233
18.671
12.2704
7.5063
0.422345
2.45331
-4.70307
7.5124
-80.8631
8.80848
-2.72183
12.7333
-34.0181
-0.436305
-4.37911
16.5744
19.8297
5.58876
-31.3501
5.60479
-1.88973
0.98663
6.68731
-2.59287
-2.02999
23.0579
-8.67153
-2.13205
-11.1469
-115.968
-1.97329
12.8455
-74.7003
-3.79031
13.8162
8.84195
14.4014
-2.40723
5.98924
23.1856
-28.2224
12.6657
4.00063
-3.46819
3.41941
2.52853
-8.70518
23.6691
15.7619
-18.9192
22.6465
17.8939
16.4413
-141.116
-39.1009
9.65584
-18.6509
-1.71241
-35.5937
-16.9225
-32.128
10.7907
5.02314
8.45136
9.26599
-2.5466
10.7107
12.7252
-109.594
14.7402
7.55264
12.798
-1.89124
0.144145
-2.42277
-68.2456
-2.32602
-4.38266
12.5705
-18.963
21.3142
-4.72918
12.3818
8.96995
0.163116
2.75889
13.9057
5.25839
2.09312
12.3363
-0.1129
-0.787712
20.0972
15.5299
-8.18959
-27.0295
-0.474231
11.3588
-1.02634
6.67908
-27.5091
-0.96375
-1.89847
0.113834
11.8167
11.9356
0.898566
5.15384
-1.45036
-0.430818
-15.8967
16.4416
-2.15187
13.2465
0.0448134
11.0608
14.3415
6.84551
12.7537
0.0845303
-2.76449
0.104476
-30.1844
-3.65432
-7.82916
-2.52533
-2.50634
10.002
-1.78434
12.6004
-0.931725
-0.315362
-24.6085
-0.583726
14.1212
-36.7459
13.2382
3.04985
-11.2373
-0.427036
-2.34082
9.4959
13.1107
-0.381889
2.025
-35.226
16.3472
0.836387
3.94515
-8.86435
17.0701
6.40955
0.107217
14.3195
14.2415
16.5864
2.64281
16.2937
-28.1468
0.455549
-2.50185
13.6009
7.95113
3.22585
1.36663
-15.2589
-9.07417
7.65485
0.848866
-10.8707
21.4888
-32.3544
16.4372
9.66963
-4.62691
-0.717862
0.419578
-1.73477
0.379092
1.30096
12.178
0.118442
13.0011
-25.7954
6.58905
-1.86024
3.33668
-16.3615
17.3273
23.2848
14.6208
8.23895
3.44223
8.03371
-67.9602
-0.0602744
-1.0395
-2.13096
-8.78566
-21.0126
-16.1281
-7.87767
12.1493
13.8326
-42.645
2.93448
15.0103
-8.12545
-22.5122
14.2504
-0.813455
-52.1959
0.309326
-3.88879
0.0316528
21.4569
-0.881787
13.3094
-15.8098
-10.1667
-8.06066
13.4159
3.60363
11.3065
-12.7217
-10.1547
0.63692
2.42312
15.2537
11.8756
1.42864
-2.18086
-4.70838
24.2856
-2.30455
15.5651
17.3482
-2.36648
-1.04159
5.92881
-51.3272
-20.1464
11.2048
6.95014
13.0547
-4.10838
14.4472
0.39529
19.1969
3.13721
11.4626
17.0481
10.5446
1.80256
-5.52621
3.25341
-112.907
12.156
5.17455
16.471
0.109735
20.8796
1.80579
22.3496
-2.31789
17.4526
-3.08786
10.1191
-52.4676
12.4039
6.34018
4.75593
20.0721
13.0276
2.80381
-7.52726
7.53295
12.1368
-0.492847
-57.9328
9.7111
0.354111
17.6402
-1.9716
21.3527
2.25713
27.7023
21.2145
10.423
9.63638
-52.9996
-0.166062
22.8126
-1.33881
-1.78645
-1.93842
21.8944
5.82584
11.6953
17.7032
-10.6028
14.555
-3.68545
16.4299
0.45266
15.6626
13.7914
19.3255
-0.740336
-128.562
3.51951
-2.28856
6.15954
3.06437
-0.209943
16.9842
19.942
0.139553
4.99024
-3.30109
18.2022
10.9902
12.5415
7.39752
-2.52535
-30.3646
-2.28865
13.434
-25.0465
-1.20239
-1.51371
9.8676
6.21359
-8.06399
23.8785
-1.48692
21.2608
4.74131
21.2777
-5.68719
2.86341
0.180942
0.478528
11.3821
12.7337
-1.56807
-1.20246
-1.97758
-1.16941
20.0732
-5.5695
-1.00409
-2.22255
-1.46706
5.39924
16.9597
6.97727
0.387489
0.136787
12.9762
25.5588
-2.2626
0.554335
13.4282
-0.0324756
5.65078
-0.303669
10.2205
-1.20422
-51.7648
-3.92553
-2.86501
-2.68697
-4.27183
-28.8337
-6.97863
-1.34582
10.0501
14.3003
11.0978
24.8734
-54.5585
21.7415
-34.5828
20.8937
-11.3835
-11.5277
24.0762
4.57452
-3.99148
14.021
-0.859049
15.2113
-3.86996
-87.1844
1.75586
-7.13005
-8.47469
0.0626586
-2.40672
4.27266
17.2964
-14.2662
4.79843
-25.7548
3.17883
-2.22648
-0.4848
1.49735
-1.53031
-20.2841
16.9015
-0.284541
19.2732
4.95444
-40.9419
3.47325
-13.861
0.202279
10.9779
17.0211
24.5347
9.54465
11.1178
6.80252
-49.0121
23.7061
25.7223
14.4473
-9.81519
-3.9743
-115.82
12.6426
9.16108
4.8263
10.3361
-2.02552
-0.35106
-106.125
19.8635
0.731311
0.367179
-2.75805
13.3345
1.40564
27.2694
25.5414
12.1228
-0.76013
3.83848
-31.6952
4.44018
26.1242
2.49378
0.171502
10.2733
0.098834
1.97973
-3.16361
-5.03263
2.57274
0.717702
5.93109
0.161019
3.18299
19.1413
5.10367
14.2728
-2.97419
-5.622
23.2701
-24.408
2.15644
4.09698
4.80752
0.803233
-2.32675
3.32001
0.404576
1.72111
27.2603
-53.2593
-35.6424
-10.0513
-10.6652
2.55629
4.26472
-2.40066
-28.2087
0.095614
-40.8532
-12.6285
-9.40829
1.11455
0.635227
0.275675
26.9206
0.144562
3.60857
-2.71654
1.64799
-48.1754
-4.45003
18.5356
13.2176
3.70678
-1.46117
12.8805
14.2522
0.0620889
-18.1612
-0.702749
18.3403
-8.12316
11.9005
-0.463647
21.0837
0.0922077
-3.2646
-0.451793
14.5532
-6.50406
11.4451
-10.7892
26.1301
-2.46012
-4.27917
-81.0633
5.15902
-2.48445
-11.6908
-2.53813
1.24802
6.99606
-4.69011
-1.94027
-1.4353
1.88408
-7.32821
-12.6202
10.9155
-129.255
11.8951
-2.66507
14.6879
23.6247
12.9885
-50.4425
13.9708
1.30049
2.19075
-1.65867
-6.14701
-88.4917
-0.707215
-4.85349
6.86616
-1.23321
-11.4406
-0.660527
-45.6525
6.63966
13.1132
-14.8125
-2.30555
-5.92207
0.0675647
-1.37242
8.10115
-31.1891
-2.57893
13.1937
-1.07019
8.53328
-12.8547
-60.9218
-19.5414
-53.3198
26.1467
4.11973
-9.49978
2.74493
22.1656
23.3268
-3.61788
-3.8188
12.9042
-0.396554
-1.20299
22.6954
7.38801
12.4728
27.4777
-5.63276
4.75366
0.963165
20.2974
13.5134
14.3607
16.6948
9.03042
0.284116
0.669584
5.38908
2.66003
-59.6568
23.4841
-8.19632
-8.91334
0.156723
-7.34998
6.64954
-2.78496
-4.10287
2.73323
14.3818
14.2584
15.9471
-72.8466
19.9271
22.8957
-35.7241
8.57622
-2.28091
-2.48605
2.11102
6.98184
-2.9382
-8.27186
-16.278
25.5023
-57.6718
15.937
13.4527
18.4646
10.6383
10.5832
-1.42168
0.255444
8.71704
-0.966668
-139.118
-23.4957
0.847607
-2.39904
16.7776
-4.71699
-0.0927703
1.59406
-46.5528
-2.93576
-81.4428
11.8709
-3.73374
-2.34545
4.87293
-11.9708
4.65992
-45.4421
-2.22341
14.3857
-42.8319
23.341
0.13088
24.4989
-0.047415
-1.28312
1.86533
11.2635
11.7446
-32.3345
-2.08258
-4.17776
1.63569
9.78591
27.7592
18.4585
4.72763
-7.89807
7.39186
-1.14873
15.9547
-2.03669
7.09929
-2.40861
-2.61655
-47.7649
5.79675
0.278036
-47.5596
7.98807
8.71569
22.7086
24.1632
-65.033
-86.9478
-2.50763
-14.678
23.8708
2.37272
-7.26998
4.77372
9.13081
-2.66436
1.19323
-0.360562
-0.768599
12.853
-2.2945
4.41737
-19.1802
-11.2052
-29.1352
-5.0061
-29.301
-26.9095
15.2788
-4.05523
-3.03929
-4.00249
-0.254937
25.7837
10.7172
12.0501
-4.19367
6.92301
-1.76737
5.72344
2.92945
-2.30433
-41.5244
23.7888
14.1717
-1.43543
-52.0496
26.8375
-2.88272
-28.8022
-2.26547
7.41637
-2.65272
-2.48349
20.3495
-2.1262
12.7018
4.33348
-2.31742
0.847222
-2.95709
6.29892
-29.5506
-1.04235
3.33083
13.3718
-2.4166
-27.5665
2.2301
-5.32779
-16.183
-15.4412
25.1371
8.14416
-12.8894
7.09736
2.35861
22.1603
7.87816
-49.9063
8.52757
17.0997
15.2052
-7.422
11.419
-1.35955
23.623
0.21723
13.4167
-22.9702
-6.98903
0.0755946
-2.57138
8.75539
3.51723
-52.8451
-2.79475
16.26
-0.902936
-2.20193
19.0446
10.0549
18.5217
11.889
-10.607
0.119408
-0.735239
13.6576
0.0262383
17.1024
11.1536
23.276
-2.50187
18.0023
7.58454
23.2159
-2.42154
-10.2623
23.9805
-2.49528
11.002
-65.4214
20.8809
22.982
14.386
-22.2221
12.7707
17.7788
-7.14853
4.74737
-3.29943
18.9785
-2.5438
-1.72342
-93.9188
-101.626
17.4102
7.21792
-146.33
7.1578
22.991
-8.46368
-3.4227
-112.126
-12.1894
12.0088
-2.78841
12.4485
12.8056
-150.603
25.8834
-1.06929
19.3681
19.745
0.550018
0.0244099
12.3255
-22.9292
-3.29539
12.2873
10.4772
-6.46947
12.9279
-2.30405
19.8562
14.3647
5.24721
1.3687
15.5462
-1.88526
7.51685
18.3648
2.55753
0.111706
17.6496
14.6886
-8.94207
-46.3043
10.9245
15.4349
23.4922
-52.5164
24.8761
23.5783
25.1564
-2.06017
17.0731
-17.5766
13.0817
18.7575
17.7828
15.2418
20.2805
27.3028
11.2974
-49.39
2.24323
-38.1587
27.0621
7.37669
-1.27139
-2.34569
12.2101
20.056
12.713
4.60204
-1.921
19.947
-34.1222
14.8826
-2.46855
5.01881
-0.413503
5.23619
8.88197
-6.74685
-5.89601
-2.79144
-5.20468
-2.21575
16.7098
-4.0593
0.946029
12.6844
-44.1674
9.30529
0.0343374
-37.902
-25.7819
-47.1313
19.2947
20.6561
-2.73904
3.88248
17.5109
15.2152
0.14888
-9.1442
15.0271
-54.8038
18.8315
-32.3826
18.2724
7.80368
0.661169
16.9151
9.25097
18.0619
4.85773
5.42768
-6.47927
-49.5348
-82.7892
-1.59601
17.7032
-13.9408
-3.01126
-13.9002
19.2793
17.9201
3.91209
10.4006
19.7701
-25.4051
13.0962
-3.54477
-7.7026
12.9857
-3.33008
-67.1962
-14.3592
-74.1237
-4.05016
-15.2848
-2.80201
-134.376
-54.1838
11.1982
23.6258
25.9186
22.4365
-13.3302
15.0239
-28.4644
12.5686
19.5411
0.809718
17.3399
-13.7067
4.76005
-7.09451
-2.17857
18.9062
-10.8415
15.6539
-84.4098
-4.84492
-86.957
15.4698
15.499
12.7374
-57.2469
12.8743
-2.69995
-137.441
-122.837
4.40428
23.9541
-31.8779
-4.12502
-2.57633
13.2093
12.3918
-1.02845
7.66244
-75.3783
20.0806
17.9588
-2.75816
-4.0876
19.6626
-3.558
-45.522
-1.15649
17.7985
20.1959
-14.4729
10.1926
-3.01763
23.1751
-150.463
-6.78601
-2.22817
21.8408
-1.29282
-6.10853
-1.27127
18.9191
10.0261
18.6519
-2.62194
-28.7892
15.2578
26.5897
-50.2837
12.762
-1.58538
-146.438
-1.4497
4.88994
-2.36726
10.0131
-2.40463
7.99458
-2.05597
-8.82465
16.9838
20.5927
12.7525
-21.2083
-6.93887
16.1866
-76.3386
5.46157
-8.28101
6.63626
-127.007
14.1929
16.1664
-1.7505
15.2777
23.088
-3.36491
11.5358
15.2643
-107.96
7.57205
-6.56687
6.63334
5.46425
10.0347
0.0233665
4.5564
-3.07338
-28.5595
19.4703
5.94343
1.58229
-3.95995
-3.21384
13.7364
-100.917
25.0915
-48.2303
-92.5357
-1.71086
17.2339
15.814
18.6898
-56.1415
22.2367
-23.01
11.3352
-0.827986
-50.7952
12.0417
6.08904
-3.70781
9.46675
-29.6875
10.4485
-70.2983
-3.66268
0.010452
-27.9581
-34.682
12.4211
22.7135
-2.49987
-21.2863
17.64
-29.1868
20.6663
7.03944
-0.851071
6.88358
13.2698
7.18606
-1.5829
2.97783
-1.46113
2.44226
3.97667
-56.4312
-2.96245
0.582953
8.89102
-2.45523
27.2153
14.9441
12.9985
20.9962
1.13262
14.8668
-13.7418
-77.677
-4.58741
13.0244
26.6854
12.6315
-11.3602
19.3501
13.3103
13.5025
-1.37181
-1.69168
7.0822
25.2727
2.44544
-8.93314
16.1961
19.8803
14.809
13.4092
16.6169
9.66679
-2.3843
-6.40074
15.04
-48.7903
-46.459
13.1373
-5.26126
1.37011
5.12731
15.1086
15.7195
15.8989
-2.53525
18.4915
19.0298
2.5542
16.655
14.3887
10.8335
9.81337
9.98393
6.8988
-1.01272
17.2839
16.6229
-1.24518
12.8518
-2.65136
-0.00674318
22.4919
17.1565
0.068121
-9.9458
0.352354
17.7853
10.1385
1.91984
-0.372182
1.35144
-3.74434
2.01549
-2.47432
-3.33013
10.6775
-2.98071
-23.2114
-63.3362
21.4244
-2.3583
-29.0608
-3.60945
22.7528
-2.55231
2.92726
1.6308
-121.633
10.3395
11.9873
8.88451
20.2317
10.7325
-0.784323
-47.6748
-7.33732
0.112178
15.4273
-0.220159
-19.8239
-149.959
-4.2866
-35.7187
-3.20406
-37.4064
-2.93394
3.99957
12.7937
18.1778
-3.7854
-2.55388
20.2252
14.9966
-12.3117
-3.26995
-40.1866
8.50713
-0.723172
7.21379
10.8229
-0.765994
-2.79761
-3.25015
2.69027
-19.0658
-54.1246
0.933862
-9.77854
-67.3345
-134.459
-5.39152
1.09467
-44.8704
6.87705
-22.4102
12.8939
11.3575
3.77124
17.4178
-13.143
22.9168
-7.5229
-0.481375
-13.5839
13.4189
8.02087
-44.9977
-59.8235
13.3089
16.1051
23.7544
-14.0684
-60.7296
-10.1602
-2.3969
0.0450615
-59.3667
5.43706
-85.3725
7.71359
-24.1186
11.0152
2.17932
-1.53173
20.5728
12.1009
-11.5788
-0.211093
-18.7909
-49.6857
17.3883
25.9634
-34.8362
17.0558
12.9089
0.0343252
-2.11485
16.9393
16.1645
-41.1298
-2.41443
-4.7725
-13.2401
-12.8533
-87.5555
-11.4287
8.3044
-1.9246
14.5359
-48.633
-141.69
12.0207
-11.7318
-99.795
-0.469926
9.94463
-109.724
-7.43556
-151.17
-43.7678
-92.1199
24.1445
-65.9728
-3.69031
-25.3431
14.6432
-100.095
-1.84727
-31.6747
-59.092
-6.89001
15.512
0.0485751
-61.8508
11.7565
0.0491474
-6.34132
-46.7066
-74.2791
9.98327
11.2896
13.1587
-95.6496
20.7423
-4.92118
0.0296232
0.554349
-23.2521
-7.01304
-68.2109
-15.5225
2.73146
4.62294
-1.72586
-4.29343
-13.094
12.9067
-37.5562
13.0669
-40.8806
7.58984
-4.05819
-1.25797
-1.44565
27.7224
-1.42534
-120.69
-67.7045
-11.4116
12.8582
-0.456287
-1.45104
0.422635
-141.614
-10.8844
-51.9195
-80.633
15.2706
-124.251
0.84094
-152.705
-1.71617
11.8887
0.565731
6.37222
-6.44628
18.196
-75.0719
-9.08239
19.5996
5.43793
-87.0139
-4.20942
-39.448
-11.9446
-5.15036
17.6158
-3.6809
4.84771
-56.2973
-33.6421
-91.3277
-108.57
-33.4909
8.75991
-3.16685
13.1616
4.10344
-29.0582
20.6542
-8.82915
16.6008
20.4498
-124.659
-0.388319
14.3695
12.4811
11.2404
-11.7462
-22.7114
-23.7993
13.0041
2.78104
-12.535
-59.1478
8.07402
15.8248
-3.66955
-0.39751
-0.562873
19.1884
-17.5863
-19.5427
-0.110253
10.9796
-0.270056
-1.13162
20.8115
16.757
-1.25124
-13.7661
17.4111
5.84553
-2.05928
13.0443
-5.32861
-17.4119
-29.0564
-13.7286
16.2488
14.8783
-1.98174
-8.20665
-2.08074
-0.46385
15.095
-13.6303
11.1293
18.3018
19.733
-3.44774
13.3989
12.2328
15.4846
16.4124
-2.92115
16.4373
0.0232776
13.0904
6.98078
14.4735
-6.03744
17.0254
16.3502
11.4801
8.15302
-8.13204
9.92661
0.462026
-9.51946
18.8418
17.8384
-8.50499
15.5873
-13.6119
-51.0213
14.807
14.5359
-27.0225
-2.26601
-61.8573
-11.5861
-13.5083
-3.00745
-27.7258
-4.7034
12.4484
24.8173
17.5765
-4.0187
-2.45729
14.7064
6.23703
-1.86937
-17.2688
-6.72504
-18.6765
-51.878
-50.6237
12.3767
-3.00309
5.18644
0.207071
0.158716
-0.945524
0.184987
2.76668
7.46117
8.42845
-7.22393
7.41492
-39.6036
-28.3165
9.36939
6.47857
-1.56546
1.67878
8.37912
-0.776126
4.43362
-7.56143
13.2858
11.1187
21.9491
13.1787
-11.4863
-4.9064
-7.87444
-6.17981
-0.393238
-0.0190911
-2.92543
-9.20226
25.1189
1.08786
-0.415966
20.4341
-2.45255
-10.0511
-3.81244
-6.47733
-72.6357
4.51892
-14.8639
13.5662
-3.43245
-10.4967
-1.26989
-3.94441
-11.5217
-1.57691
-6.08179
9.91615
-2.44948
-2.96069
-16.2118
5.15835
-12.6465
14.4345
21.0544
-5.86427
14.7039
7.94133
9.04013
23.0221
-2.35504
7.40477
6.90738
5.02635
19.8509
-5.25034
-2.43731
-1.64363
14.2603
21.073
-4.10551
-2.4553
-12.9647
-10.7545
6.12028
-8.74931
-25.8381
-6.44731
4.51982
-51.7702
2.78698
4.24065
11.3369
1.88282
-50.1018
-19.84
-0.572172
-2.67457
22.3868
25.103
18.6426
25.9271
11.4263
12.5423
15.7563
13.6928
12.0581
-10.3199
13.9796
-4.73765
-50.6968
20.2716
-3.17441
-12.5959
23.7769
-0.849879
-15.1144
6.31055
5.14372
16.3985
-78.4184
11.9952
21.676
-2.37902
-49.1111
-20.9374
9.548
-25.849
17.85
-2.60356
16.4257
12.9694
-2.84262
16.0062
-7.77642
-42.6897
-47.5719
-5.63442
16.781
-11.5997
12.8954
-0.968113
-70.1587
-0.688116
-1.36506
-15.4138
-7.35915
-88.0359
16.8636
1.85489
-90.5833
-6.965
8.0443
3.19166
-10.3407
5.682
-0.511267
5.79539
-106.711
7.28245
2.67087
9.14114
-1.91093
12.9246
8.25629
3.10177
-79.3766
26.0902
-11.3221
-144.199
12.8812
11.096
-86.5821
-11.7338
-4.66537
8.87654
7.38952
-10.6107
-2.32636
-3.83655
25.9548
-3.14775
-2.82917
-0.125373
-6.57915
9.86594
-3.7008
12.4455
8.01872
-28.3534
8.77095
-56.5914
11.2477
5.33543
13.8534
8.78386
0.034622
0.0745971
6.85309
14.5555
2.36288
0.968521
-115.584
-8.55728
-6.55717
11.0363
-131.214
6.86019
-106.088
16.8359
-79.2893
-4.19119
18.1246
16.2318
5.4723
-2.50426
-42.6129
14.8495
0.10518
16.8207
6.64865
-0.761067
13.3983
3.85237
3.04023
1.8384
-6.41571
-9.08253
8.48271
-1.00011
18.5714
3.83694
26.2927
-1.37055
2.75515
16.4075
0.876694
3.47779
14.3023
11.7785
8.34947
-12.7431
-0.637744
12.8641
8.90948
4.9299
-16.0035
-2.74564
-5.7238
-89.2396
-7.06759
11.634
0.562282
10.4443
-2.03057
22.2778
16.6322
4.2019
11.3131
3.85559
-92.8253
12.2235
9.86044
-0.209695
5.60831
16.7753
15.0606
-1.15938
-16.3025
-23.2987
12.2559
6.3291
-0.817271
14.1934
-15.3004
12.7986
-34.7118
13.2632
5.66393
-1.1111
5.1442
15.7487
-1.87302
13.9987
18.018
1.92972
-4.7263
6.90692
0.360291
21.055
-48.6225
19.0503
15.9714
-79.3233
-6.91014
0.107537
-6.32915
-27.7833
-3.50061
12.4167
19.1919
14.9245
19.5466
8.75625
17.6883
4.96138
1.01895
5.45617
0.569369
0.451628
11.3717
0.391914
20.209
3.29344
-145.328
9.18351
20.0743
21.0516
-43.5495
7.87526
-9.93816