/*--------------------------------*- C++ -*----------------------------------*\
| =========                 |                                                 |
| \\      /  F ield         | OpenFOAM: The Open Source CFD Toolbox           |
|  \\    /   O peration     | Version:  2306                                  |
|   \\  /    A nd           | Website:  www.openfoam.com                      |
|    \\/     M anipulation  |                                                 |
\*---------------------------------------------------------------------------*/
FoamFile
{
    version     2.0;
    format      ascii;
    arch        "LSB;label=32;scalar=64";
    class       volVectorField;
    location    "1.4";
    object      U;
}
// * * * * * * * * * * * * * * * * * * * * * * * * * * * * * * * * * * * * * //

dimensions      [0 1 -1 0 0 0 0];

internalField   nonuniform List<vector> 
13486
(
(4.25121 -0.586845 1.02133e-20)
(4.99966 0.944563 4.49949e-21)
(6.7372 0.1238 0)
(2.82585 -1.30001 -1.62706e-21)
(6.66745 -1.66035 3.56772e-21)
(7.19206 0.332452 6.13033e-22)
(7.37368 -1.40198 3.14898e-23)
(5.70339 -2.12097 -5.57762e-21)
(5.61305 -1.16751 0)
(6.02691 2.19864 0)
(-1.33718 -5.77565 -2.67527e-20)
(7.49124 -0.0470559 0)
(3.78878 -1.20095 -1.02444e-20)
(7.41252 2.18104 1.06862e-21)
(7.08606 -1.25345 1.79706e-21)
(5.94335 2.3135 -2.48861e-21)
(-7.34918 5.48692 2.6596e-20)
(4.25671 -1.23288 -4.78338e-22)
(7.008 -0.0207491 4.22367e-23)
(4.77449 -0.0482211 -1.01055e-20)
(3.82473 -1.99131 -6.84614e-22)
(3.83488 -1.22954 1.31975e-20)
(5.06902 0.937762 -3.60444e-21)
(6.92145 -2.57471 0)
(6.34948 1.66328 7.31344e-22)
(6.89772 -2.4319 -2.02468e-21)
(-8.19822 2.93014 2.53744e-20)
(7.11323 -0.332223 6.52846e-21)
(6.03836 0.0608187 0)
(6.43862 -0.935668 -3.71068e-21)
(3.68203 -1.92112 -4.87979e-22)
(7.43584 -0.967738 -2.09557e-21)
(8.22804 -1.2288 6.31064e-21)
(6.05315 -0.230863 0)
(5.73495 -2.05442 0)
(5.76811 0.0369674 1.65077e-23)
(5.8089 0.255404 5.13114e-23)
(4.61535 -2.16614 5.37133e-21)
(5.32534 0.191443 -1.27676e-22)
(5.76321 -0.737114 5.11846e-21)
(6.97162 -2.43993 0)
(3.14699 -1.5114 -1.21137e-20)
(6.13402 0.037764 0)
(6.22258 1.33173 -3.72e-21)
(6.29004 1.30951 1.49726e-21)
(7.49731 -0.0735056 1.26462e-21)
(2.79526 5.77519 6.87571e-20)
(6.00189 0.0686207 -1.17918e-23)
(5.80306 0.26677 -3.7911e-23)
(7.68609 -0.0879893 3.60645e-21)
(5.99644 0.0769281 5.30878e-21)
(5.47829 0.0728249 0)
(7.94679 -0.39098 -1.19325e-21)
(4.75942 -1.72345 -7.75836e-21)
(4.04767 -1.42745 0)
(6.6159 -1.69115 -2.35725e-21)
(6.17507 0.274914 -1.73168e-22)
(5.35008 0.096614 -5.83912e-22)
(8.10209 -1.18107 7.26073e-21)
(5.85899 0.389392 0)
(-0.0620698 -6.8421 -1.94842e-20)
(5.84478 0.360348 0)
(11.7692 -0.421417 -1.26676e-20)
(3.92653 -2.04806 -7.96331e-24)
(4.84626 -2.55317 0)
(5.82414 0.253738 3.05307e-23)
(2.96333 -1.4269 -1.61407e-21)
(4.23285 0.249481 3.36148e-21)
(5.62582 -1.23755 -2.97986e-21)
(5.77259 0.0353376 1.01419e-22)
(2.56558 -1.12785 1.86371e-21)
(4.81332 -1.38747 -6.3655e-23)
(5.74741 -0.349706 3.76657e-21)
(-1.27241 -0.925049 -1.46869e-20)
(5.86171 0.319297 1.30878e-23)
(6.19417 0.285277 3.98811e-23)
(5.8671 0.306392 -3.56604e-23)
(7.09531 -1.30112 -7.38456e-22)
(2.74507 4.03007 -4.56319e-20)
(4.84905 -0.70878 0)
(5.9898 0.00669432 1.75067e-23)
(4.86516 1.28649 -2.88822e-22)
(12.8918 -0.781683 3.66976e-22)
(7.01592 0.234858 -1.72396e-22)
(4.22645 -0.622308 -1.98998e-20)
(4.43699 5.33611 0)
(2.8384 1.20474 -1.9336e-21)
(6.05645 0.190249 -7.93767e-21)
(5.64465 0.659375 -3.64129e-21)
(5.46234 3.1195 -2.4984e-21)
(7.72602 -0.929027 -9.98789e-22)
(6.11423 -1.86461 -2.90194e-21)
(4.39446 -0.904349 2.6261e-21)
(4.89544 0.396234 2.5817e-22)
(5.30334 -1.67655 1.23155e-21)
(6.01994 0.0660402 3.16274e-24)
(-7.7273 2.85742 0)
(3.66388 -1.9543 7.90131e-22)
(5.74475 -0.718698 -9.77223e-21)
(-8.56131 6.48962 8.4637e-22)
(6.05124 0.0609608 0)
(7.32937 2.18279 3.47134e-22)
(3.40845 -1.88428 6.1474e-23)
(5.44559 0.130085 6.79156e-22)
(4.09149 5.1802 0)
(-7.69926 6.1175 8.62725e-22)
(5.80111 0.14279 5.54628e-23)
(5.28169 0.179937 -3.01578e-22)
(2.82361 6.44247 5.43676e-20)
(5.70333 -2.62414 0)
(4.58977 -2.1733 0)
(7.44681 -1.21172 -1.98023e-21)
(4.77977 -1.66506 6.85733e-23)
(6.21759 0.202062 1.31183e-23)
(3.14971 -0.0768626 0)
(4.49285 -2.15376 -4.70531e-21)
(6.29276 1.83953 0)
(6.15308 -0.181239 0)
(5.71297 -0.322178 0)
(5.8694 0.20174 6.73816e-24)
(4.40863 -1.3839 3.79022e-22)
(-0.567306 -7.04085 0)
(5.21858 -1.52273 0)
(5.28475 0.170902 4.24477e-22)
(5.44827 -1.95432 0)
(5.5134 0.125357 0)
(6.398 -0.843323 1.1248e-22)
(6.50884 0.175352 9.57661e-22)
(5.82533 -0.0600842 -5.89023e-22)
(5.02097 -2.24364 -1.04346e-21)
(5.46027 0.085217 -6.73707e-23)
(4.17504 6.04361 -1.78781e-20)
(-2.55278 1.05562 1.66586e-20)
(-1.5733 -0.891074 1.8569e-20)
(5.98635 0.0411963 -8.88313e-22)
(5.68588 1.36523 -3.86239e-21)
(2.52336 2.3821 -2.75006e-21)
(5.68744 -2.60176 0)
(5.84091 0.186168 -6.67202e-26)
(5.7949 -1.7374 -1.9596e-21)
(8.13033 -0.588119 -6.79936e-21)
(7.93195 -0.470859 9.85627e-22)
(7.49604 -0.673566 0)
(4.8556 -0.641623 0)
(6.15644 0.0191493 7.33179e-23)
(11.1637 -3.20091 -2.02815e-20)
(7.9344 1.66176 4.91301e-22)
(-2.12057 4.76154 0)
(7.68621 -0.13752 0)
(6.03021 0.0606706 0)
(6.02696 0.0624804 7.15488e-23)
(7.04324 -1.44446 0)
(6.00042 -0.0266991 -1.8322e-23)
(4.80105 1.24499 -2.44563e-21)
(6.49421 0.886933 0)
(6.85441 0.135137 0)
(5.44421 -2.47003 0)
(1.15568 -0.719593 -2.16952e-22)
(5.04937 -2.03573 1.11703e-20)
(6.11128 0.796356 2.68116e-22)
(7.61247 -0.00971618 2.35048e-21)
(5.07468 -1.98602 -1.6783e-20)
(7.2343 -0.918927 4.71899e-22)
(2.87716 -1.41763 5.33936e-21)
(5.4624 0.105552 0)
(7.75174 2.1393 -2.10323e-21)
(7.13278 1.98349 -9.88321e-22)
(1.30542 -0.270217 -1.28348e-20)
(7.86438 1.74348 -1.26413e-21)
(-1.64648 -1.70008 5.05872e-21)
(-2.85055 2.19214 1.15585e-21)
(6.49518 0.804757 9.08791e-22)
(6.01722 0.24376 -6.09632e-21)
(6.856 -0.769449 1.71142e-22)
(5.93984 0.0285834 -2.76129e-24)
(2.73952 -3.33406 0)
(7.54634 3.17697 3.04578e-21)
(8.54201 -0.602098 9.80064e-21)
(5.85218 0.145908 -9.08431e-21)
(7.504 -0.606793 0)
(5.85163 -0.856335 1.04697e-20)
(6.12998 0.148765 2.65931e-23)
(7.10222 -0.70416 -7.50573e-23)
(-1.07908 -0.158617 0)
(7.26874 0.497555 3.42756e-22)
(6.90474 -0.234488 -2.98504e-21)
(6.0764 0.0586712 -4.72886e-24)
(6.43553 -0.585017 -1.15955e-21)
(6.85974 -2.45069 0)
(4.13922 -1.99468 -6.29084e-21)
(5.82708 0.2153 0)
(6.49718 0.109887 0)
(5.35667 0.0597694 0)
(4.38058 2.73053 -5.08391e-21)
(5.26899 -0.0371634 0)
(-2.78612 -6.46404 -5.36811e-21)
(4.89524 -2.3233 2.4519e-21)
(7.64297 -0.0458843 1.27638e-21)
(3.98165 -1.96499 -2.41786e-21)
(7.66017 1.98678 -1.00303e-21)
(3.7039 -1.97693 5.31459e-22)
(6.54936 0.273287 -2.74846e-23)
(4.55206 -2.19463 -6.22419e-21)
(5.84357 -2.49175 1.18183e-21)
(6.07017 0.770641 -3.32007e-22)
(5.34466 -0.0333798 -6.00252e-22)
(4.1619 -1.41247 -3.02018e-22)
(5.48959 -0.0250934 7.62578e-21)
(5.29463 0.0600229 0)
(7.14341 0.454392 0)
(6.90644 -0.366485 4.22881e-21)
(6.13714 -2.3369 2.95486e-21)
(4.82118 0.0289079 9.27943e-21)
(5.69116 0.188409 1.07036e-23)
(7.25611 0.467935 -7.06963e-22)
(5.32494 -1.11669 4.13186e-22)
(6.58954 -0.88526 0)
(5.56124 2.95783 7.05007e-21)
(4.62984 -0.979027 0)
(9.58688 1.66059 0)
(-7.04263 5.84904 -4.73575e-20)
(7.76377 -0.102801 0)
(5.76436 -1.71005 4.60641e-21)
(7.54676 0.0587098 0)
(8.40447 -0.175594 -1.13968e-22)
(3.895 -1.78138 3.78614e-21)
(7.61284 0.909484 -1.39154e-22)
(3.68764 -2.25525 3.8214e-22)
(5.37725 -0.666203 6.87585e-23)
(3.26069 0.95093 4.48675e-22)
(5.86103 -0.848393 -3.35275e-21)
(5.03805 -1.30154 2.50848e-21)
(8.1455 -0.725333 8.57341e-21)
(3.11034 -1.47781 4.14697e-21)
(3.48282 -1.96947 0)
(3.69877 -1.79266 4.49228e-22)
(6.22284 -0.436374 1.95193e-21)
(6.52493 0.0834868 -1.0852e-22)
(3.61851 -1.72985 1.23402e-20)
(7.14478 -0.428075 0)
(7.99677 -1.48861 0)
(6.01071 0.118303 9.35023e-21)
(6.30975 0.140043 0)
(3.50606 -1.73413 4.10319e-21)
(5.20456 0.371921 -2.09918e-22)
(5.38635 0.253644 0)
(7.22572 -0.211661 -6.97105e-22)
(6.72323 -1.72386 6.81122e-21)
(3.13254 -1.30713 3.68265e-20)
(6.05476 1.31984 0)
(1.97749 -2.17876 -3.46956e-22)
(3.06203 0.0105063 1.48929e-21)
(4.10716 -2.0143 6.02399e-21)
(5.21543 0.169126 0)
(5.11902 -0.576063 4.94162e-22)
(2.56517 -3.86167 4.53611e-22)
(7.39452 -0.962655 1.65534e-21)
(5.29045 -1.119 -5.22115e-22)
(1.61899 -1.29437 2.27186e-22)
(8.03809 -1.41595 4.73947e-21)
(5.33488 0.644204 0)
(5.22382 0.40968 -8.90858e-24)
(7.10786 -1.26203 -4.18464e-21)
(2.49992 -3.67541 -5.66392e-22)
(6.38638 -2.16492 -3.70691e-21)
(-1.34041 -0.494665 0)
(5.46365 -0.655355 -1.10793e-21)
(3.66633 -1.96446 -7.40365e-22)
(6.04399 -5.82754e-05 -4.36401e-21)
(5.39464 -1.57374 0)
(4.57481 2.87461 3.57061e-21)
(5.83567 0.130219 -2.44076e-21)
(6.60345 -0.925841 0)
(7.75115 -0.0752385 8.18827e-22)
(3.957 -1.84273 5.05828e-21)
(6.67331 -1.58272 -3.797e-21)
(5.16291 -0.498066 0)
(4.52131 -1.69773 0)
(5.13741 0.113133 -3.49202e-22)
(8.19361 1.40789 -1.06198e-21)
(4.54257 -1.70025 1.20944e-21)
(6.22066 -0.614843 -3.74523e-21)
(5.81375 0.225823 5.38634e-21)
(7.84657 -3.69863 -5.58555e-21)
(-1.54511 -6.26414 1.91555e-20)
(-9.27141 4.1824 5.85693e-20)
(8.32588 -0.404241 8.39069e-21)
(5.8718 -0.0934752 7.74547e-22)
(8.39802 -0.222909 -8.85206e-23)
(5.9322 0.00519999 0)
(3.54497 -1.93363 0)
(5.63768 0.578499 -3.40815e-23)
(4.48261 -2.14966 4.69854e-21)
(6.04582 0.131819 -8.53615e-22)
(6.20228 -0.425359 1.83096e-21)
(6.31899 -0.504881 0)
(7.3035 -0.0466528 -2.99282e-21)
(7.7034 0.0321048 -5.65219e-22)
(5.71861 0.204878 -4.94626e-21)
(7.27324 -1.79555 1.3901e-21)
(6.15573 -0.824814 -5.99677e-22)
(3.94802 -1.38741 6.83337e-23)
(8.15148 1.46097 9.05013e-22)
(7.36021 -0.957134 1.98256e-21)
(5.81507 0.221459 8.57535e-24)
(5.08181 -2.42307 0)
(0.636652 -0.520107 0)
(6.90562 -0.237885 1.37569e-21)
(3.42647 0.760976 1.17278e-21)
(5.81724 0.230913 0)
(6.77863 4.42843 -3.07276e-20)
(2.42225 -1.2087 0)
(7.2182 3.1647 -8.7702e-22)
(7.54629 -1.15556 -1.93475e-21)
(7.35421 -7.82716 0)
(5.72768 1.21097 -2.32417e-21)
(5.64041 0.618426 5.48119e-23)
(5.66366 0.654757 -3.10838e-22)
(5.5482 -0.0269269 -8.37568e-21)
(5.5267 -0.714282 0)
(5.86428 0.292329 -6.20714e-23)
(5.54956 0.499265 1.39516e-23)
(5.91792 0.168865 1.13793e-21)
(4.71467 0.529916 -4.82296e-21)
(2.11253 2.31642 5.16146e-21)
(7.63206 -0.879167 1.95096e-21)
(6.54861 -1.2158 -1.0695e-20)
(6.21979 -0.617959 0)
(7.6747 0.342071 6.15582e-23)
(6.61854 -1.23951 -2.0248e-21)
(6.01606 0.0835016 1.15012e-20)
(6.18078 -1.87735 0)
(7.51608 -1.00435 -4.04839e-22)
(4.38374 1.29444 0)
(7.2964 -1.51295 -3.55776e-21)
(5.50642 -1.56532 -3.34507e-21)
(2.35368 -1.07622 5.01556e-21)
(6.9731 -1.47641 -2.95373e-21)
(6.03472 0.501668 0)
(5.22744 0.461326 -2.85487e-22)
(5.43049 -0.675395 1.2104e-21)
(4.80808 0.521958 4.56078e-21)
(6.65527 -1.26531 7.72682e-21)
(7.10913 -0.693498 3.35407e-21)
(-1.31476 -2.03937 -3.71902e-21)
(6.00555 0.0577593 1.03151e-24)
(6.58628 -0.662421 0)
(3.04028 -0.980002 1.18605e-20)
(9.64285 1.66568 0)
(5.57954 0.580543 -8.51814e-24)
(6.51588 -0.37839 6.12186e-21)
(7.81787 0.181004 -3.84947e-22)
(7.7546 -0.0682932 5.48384e-22)
(-7.09807 2.4541 -2.22399e-20)
(5.76935 0.207923 6.19409e-21)
(5.95343 -0.0257428 0)
(-2.57423 -1.85957 -1.17041e-20)
(6.40873 -0.847679 -2.23656e-21)
(3.71646 0.751818 -4.14261e-22)
(6.12065 -2.15969 2.78746e-21)
(7.63844 -0.0454636 0)
(7.96898 -0.870188 1.12077e-21)
(5.37371 0.457207 9.56581e-21)
(5.86318 0.190894 7.38289e-21)
(6.46365 -0.981118 0)
(6.02504 0.00897362 1.98047e-24)
(6.28347 -0.49646 -1.83324e-21)
(4.62125 5.58047 7.82154e-21)
(4.6596 -0.0146517 1.29251e-21)
(6.44188 -0.787658 2.13327e-21)
(6.2224 0.0449428 -1.38172e-23)
(6.55553 -0.62671 0)
(8.47471 -0.0753992 2.84777e-22)
(1.50795 -2.30395 4.17725e-22)
(7.18761 1.03975 1.12875e-21)
(5.95717 0.0867662 4.47194e-21)
(4.85302 0.014151 0)
(5.48036 0.546395 -1.2678e-22)
(8.51566 -7.52822 0)
(10.0893 2.88852 -6.31989e-21)
(6.07517 -0.0325117 0)
(6.11134 -2.09299 -9.98337e-23)
(4.00041 -0.273576 -2.80389e-21)
(4.56224 2.46174 8.60991e-21)
(3.74732 6.33813 -3.39248e-20)
(5.29419 -0.511523 0)
(6.86123 0.187337 -2.31219e-25)
(6.03437 0.56315 -2.34635e-21)
(-0.372107 1.09448 -1.10907e-20)
(3.86314 -1.96831 6.8155e-23)
(4.91337 -0.0435397 -1.39504e-20)
(6.77584 -0.893669 1.93855e-21)
(6.23467 0.593752 1.4417e-21)
(4.30391 -1.27669 0)
(4.1822 1.02019 5.26281e-21)
(5.91214 0.176401 1.29073e-23)
(2.74453 -1.34031 9.51407e-22)
(1.58582 -2.20375 -1.38879e-21)
(-3.52631 4.71549 -2.38884e-20)
(8.32284 -0.45474 0)
(-1.8404 3.02713 0)
(6.30505 3.55964 0)
(6.13211 -0.264528 0)
(1.26853 -1.43015 -7.00083e-22)
(7.30756 -1.45221 0)
(6.42467 -1.56888 0)
(4.97331 0.429217 1.8956e-21)
(8.50371 -0.614864 -1.00698e-20)
(6.4785 -0.622445 -5.02056e-21)
(5.10484 1.04296 1.53992e-20)
(6.02203 0.0664306 -1.17412e-21)
(7.334 5.10174 0)
(7.05388 -0.784533 0)
(5.72359 0.282034 5.25996e-21)
(6.02172 0.049198 8.99983e-22)
(3.82788 2.95015 0)
(-0.407144 -0.347303 2.59455e-21)
(6.3247 -2.20284 4.15809e-21)
(-1.81422 2.02526 0)
(7.10116 -0.43156 3.25185e-21)
(5.93042 0.161652 -6.06592e-21)
(3.07583 -0.965666 -4.25435e-22)
(3.02733 -0.934716 0)
(5.98077 0.597118 4.51688e-21)
(7.61322 0.432813 0)
(6.37628 -0.58355 0)
(6.56246 0.618588 -1.25461e-22)
(5.78599 0.237484 2.80498e-21)
(-8.37616 3.34262 -3.32803e-20)
(6.99095 1.93498 -7.3994e-23)
(3.93543 -0.948955 -5.01617e-21)
(6.06385 -0.260422 6.40641e-22)
(6.27135 0.573115 1.083e-21)
(8.48714 -0.087855 -1.19539e-21)
(6.56619 -2.1671 0)
(6.97607 -1.58984 3.65086e-21)
(4.02404 -0.0610362 0)
(5.58987 0.572148 -2.48616e-24)
(6.80648 -0.772855 0)
(4.31448 0.252047 7.15122e-21)
(-1.93672 7.94128 -4.64442e-20)
(6.75647 -0.822464 0)
(0.0962551 0.707824 9.16542e-22)
(7.01473 -0.855393 -4.46848e-21)
(5.09772 1.77888 -4.65217e-22)
(5.18693 -0.734937 1.35264e-20)
(4.31563 2.40683 -5.34289e-21)
(3.93133 -0.90956 -1.42912e-20)
(10.6219 2.59681 0)
(5.85161 0.199508 3.21483e-24)
(-1.4678 -2.3987 -1.00224e-20)
(5.97226 0.574907 0)
(5.65287 0.73052 3.40556e-22)
(7.51692 -0.115061 -7.62827e-22)
(8.41915 3.17304 0)
(5.99192 0.00637723 0)
(2.00934 -1.1518 0)
(2.95242 -3.38055 1.91192e-21)
(7.61617 -3.96671 6.61537e-21)
(10.217 -3.32669 1.3446e-21)
(7.13975 3.00396 0)
(5.04245 -0.450286 9.10867e-21)
(5.97623 0.00773355 -1.11898e-23)
(6.95515 1.74716 4.02511e-22)
(4.08024 -1.99416 1.42651e-21)
(5.77554 0.519024 0)
(6.03968 0.0563944 0)
(2.23132 -0.253993 -7.92022e-21)
(4.22988 -1.25954 -3.54882e-21)
(5.68082 -0.476919 0)
(4.92386 -2.33117 -4.58411e-21)
(6.18028 -0.0150856 1.67115e-23)
(6.01052 0.0492477 -8.96574e-24)
(2.5803 -1.14743 0)
(5.6039 -0.0448624 7.56487e-22)
(5.86849 0.1991 3.73369e-24)
(7.62033 0.396836 2.80047e-21)
(5.4633 -1.62486 0)
(-9.02868 5.06897 -8.96586e-20)
(7.73539 0.126076 6.1728e-22)
(5.9736 0.306737 9.71367e-22)
(5.97311 0.0208282 -2.70678e-23)
(7.93129 1.98896 0)
(5.04349 1.05116 -4.09356e-21)
(9.31747 0.734367 -4.79791e-21)
(-5.41295 5.90331 4.47298e-21)
(5.92461 0.1442 0)
(3.71384 -1.91795 -6.9934e-23)
(1.46005 -0.133402 0)
(6.00732 0.229459 -3.7541e-21)
(5.97317 0.184705 1.76357e-21)
(5.51378 0.181645 -1.04708e-21)
(2.59673 -3.49192 0)
(7.0431 -0.00277522 -3.44838e-22)
(3.35149 1.57474 1.42875e-20)
(6.50934 -2.15418 0)
(4.84654 0.39319 5.85179e-21)
(7.18725 -1.81783 -1.59852e-21)
(6.45245 0.0104445 0)
(3.62117 -2.00053 3.59825e-22)
(4.87325 -0.620274 -1.00501e-21)
(6.21955 -0.0391725 0)
(-7.7834 5.76392 5.82492e-20)
(5.59504 0.629675 0)
(5.18884 -2.37688 4.60365e-21)
(2.03517 -2.35215 8.45318e-22)
(6.08327 0.0676188 4.6205e-24)
(7.28585 0.399671 -1.51398e-21)
(4.11923 0.9725 2.80393e-21)
(5.21579 -0.827659 -4.95471e-21)
(5.26183 -0.450595 -5.03418e-22)
(5.20869 -2.34325 4.45847e-23)
(6.40929 -0.784642 2.03803e-21)
(7.9252 1.99058 4.22831e-21)
(5.94214 -2.69117 0)
(5.98695 0.0314236 -3.96305e-21)
(-2.30719 2.86577 -8.94294e-21)
(4.06856 -0.0874079 0)
(5.90666 0.237719 2.8322e-23)
(5.59473 0.0379813 0)
(3.63575 -0.977263 1.2523e-20)
(6.00855 -2.2735 0)
(5.99886 0.0449561 -5.19248e-23)
(6.54017 -0.30913 -3.50401e-21)
(3.69907 -2.05992 6.83433e-22)
(2.60756 -1.35119 1.04276e-21)
(7.5038 -0.034444 -2.7557e-23)
(4.93948 -2.37837 4.4027e-21)
(5.19863 -1.51522 4.9697e-21)
(4.37875 -0.922069 0)
(-3.63737 1.21968 -5.92459e-21)
(6.62479 -2.05581 -8.37242e-22)
(-4.24785 0.682416 -6.86325e-21)
(6.00591 0.0519323 1.12934e-24)
(4.30468 -1.59806 0)
(6.54825 0.0299793 -1.36655e-23)
(-0.793373 -0.53566 0)
(3.22567 -1.93796 4.16461e-23)
(3.4977 -1.1492 6.37104e-22)
(-0.359212 0.0640459 0)
(5.97772 -1.61175 1.45281e-21)
(4.81477 -2.45044 0)
(8.35342 2.99603 0)
(4.88703 -2.31974 -6.05007e-21)
(4.47771 1.15625 4.24123e-21)
(4.59137 -1.04188 0)
(5.35629 0.496246 -2.60495e-21)
(11.0152 -3.36085 2.41559e-20)
(1.06574 -2.51387 2.43646e-21)
(8.5916 4.10315 0)
(6.26433 -0.0102863 0)
(-2.05629 -2.70574 -5.59484e-21)
(5.551 -0.295739 0)
(7.10771 0.239171 0)
(0.564335 -7.33947 -1.06892e-21)
(5.95407 -1.23325 -6.82068e-21)
(5.1127 -1.2163 4.21411e-21)
(7.86796 -1.65296 6.72801e-22)
(-3.55419 0.50074 1.06029e-20)
(5.991 0.13702 2.04387e-21)
(4.49801 -1.00254 0)
(6.58075 1.39654 -4.58912e-22)
(4.21365 -0.516147 0)
(6.98057 0.0682233 0)
(5.91673 0.321789 0)
(6.5493 0.604431 -1.00584e-22)
(5.46099 -0.0138875 3.8702e-21)
(6.29154 0.0838747 -8.98674e-23)
(4.61699 -1.03645 0)
(-7.4268 2.58426 -2.00001e-20)
(6.27309 3.36751 3.06588e-22)
(5.44078 -1.98162 4.78776e-22)
(5.68695 -0.0972931 -1.21342e-21)
(6.5401 -1.57061 5.99568e-21)
(6.08983 0.127366 -3.49663e-21)
(-1.2074 8.5033 0)
(7.72038 0.0140665 0)
(4.24573 2.78416 0)
(3.67156 -1.60865 -9.17842e-21)
(4.17857 -2.18593 -1.02629e-21)
(-0.0648336 -0.735294 0)
(6.59839 1.40047 0)
(8.27969 -0.565632 3.65988e-22)
(5.91797 -0.0232911 -1.01136e-21)
(5.77285 1.93449 3.77056e-21)
(5.93861 -2.50228 0)
(-6.04131 -1.00467 -7.6223e-21)
(6.92051 0.186938 -3.95447e-22)
(4.12216 -1.16249 -8.43955e-21)
(6.56558 0.237964 -3.50865e-22)
(6.9777 1.77168 8.76398e-23)
(5.78999 -3.31767 2.38e-21)
(3.62931 -1.59064 1.58193e-20)
(5.25258 -1.57373 1.82461e-21)
(6.23873 0.203374 3.06777e-23)
(5.92754 0.0517864 -1.02085e-21)
(4.44436 -2.15453 -1.40517e-21)
(4.8517 -0.526339 4.5373e-22)
(5.19554 6.82637 5.12421e-22)
(4.82811 -2.30674 2.3841e-21)
(7.48729 0.457332 0)
(3.05893 2.22483 1.04346e-21)
(6.33709 -0.0278408 -2.57973e-21)
(8.81184 1.90762 2.60563e-21)
(4.02824 -1.05652 -7.69433e-21)
(5.40774 -1.91881 -5.11501e-21)
(6.14472 -0.0910278 9.81779e-21)
(7.18794 -0.124346 -5.64225e-21)
(5.14792 -1.68427 1.10785e-21)
(8.36255 -0.280923 -4.35395e-21)
(3.39623 -0.347086 -1.67899e-20)
(6.43116 0.0166367 -1.92448e-21)
(3.34233 -0.541771 0)
(3.71235 -2.18712 -1.60276e-21)
(6.03922 -0.0134486 8.94678e-21)
(5.60027 -0.000745244 6.15207e-24)
(-0.865847 0.050181 0)
(5.32849 -2.47322 0)
(6.10689 1.23527 3.12519e-21)
(3.00473 -0.314554 1.04356e-20)
(4.68221 -3.06101 -2.71059e-21)
(6.18378 -2.07946 -2.58311e-21)
(6.57668 -1.24727 5.86636e-21)
(9.70715 1.42473 0)
(6.13507 1.27878 1.66279e-21)
(4.04774 -1.30305 -8.51231e-23)
(7.67038 2.98043 3.08415e-21)
(5.83697 -0.811906 -5.90848e-21)
(-3.22401 0.502085 -1.60546e-20)
(6.49629 -1.47556 -5.86278e-21)
(6.9748 -1.71103 1.97458e-21)
(6.9815 3.61126 0)
(5.79959 -0.725452 -8.23028e-22)
(5.51698 0.1622 9.58592e-22)
(5.98786 0.000516132 1.86658e-24)
(2.88771 -1.40197 1.46726e-20)
(5.75379 -0.823826 8.89858e-21)
(6.04107 0.716569 -1.19016e-22)
(1.15726 -2.36099 -1.24615e-21)
(6.4485 -0.383744 -2.11439e-21)
(6.43382 0.075088 1.72083e-21)
(-2.85495 -5.01552 -2.54658e-21)
(7.40972 2.98136 -3.63999e-21)
(-8.48123 6.23942 -6.32898e-20)
(3.73054 -1.80084 -4.8647e-21)
(5.99007 0.02973 0)
(6.18372 0.247436 -1.49584e-22)
(0.722792 -5.43871 -2.50611e-21)
(3.96916 -0.365172 1.50156e-20)
(6.11098 0.0488405 0)
(6.36661 -0.84698 4.49449e-22)
(3.50883 -1.39809 3.5855e-21)
(5.93682 0.147332 -8.64719e-21)
(0.134641 -1.32615 -1.75545e-21)
(4.48685 -1.00594 -3.41734e-22)
(6.49706 -0.647675 3.44065e-21)
(6.7063 0.222292 -8.79869e-23)
(5.25059 -2.40453 -6.38327e-21)
(6.22766 0.140072 1.22278e-22)
(4.20197 -2.33297 -2.59873e-21)
(6.28004 -0.0134278 2.42384e-21)
(6.02397 -0.186005 -2.77553e-21)
(6.34914 0.353333 -8.48508e-23)
(6.6529 -0.153 -6.02446e-21)
(3.37724 -1.44837 -6.92283e-21)
(6.20849 0.157308 0)
(3.1321 -2.65153 1.1601e-21)
(6.27756 0.0998216 6.73094e-22)
(2.44788 -0.93632 -7.32381e-22)
(7.12171 0.0574956 -1.16315e-21)
(6.40978 -1.2712 -3.63383e-21)
(5.98461 0.0448331 -6.50435e-21)
(6.27401 0.872933 8.43196e-22)
(-0.163653 -0.352287 -2.66682e-21)
(7.19481 0.229917 0)
(5.42224 0.516475 7.28017e-23)
(7.8429 0.267124 3.94549e-22)
(4.32708 -1.55358 0)
(6.34953 0.276562 1.31274e-21)
(7.60309 0.436568 4.27224e-22)
(6.93248 0.222298 8.20075e-26)
(7.26409 -2.73473 -4.51036e-22)
(5.3948 -0.0545435 0)
(5.28449 1.19086 7.38477e-21)
(6.12347 0.622983 1.89045e-22)
(4.75841 -2.25435 5.18999e-21)
(5.89627 -0.508869 0)
(4.41695 1.11806 -1.22926e-20)
(4.49239 -1.28523 3.28745e-22)
(7.7864 4.45449 -7.05997e-21)
(3.42057 -0.391048 1.64279e-20)
(6.23847 -0.0176143 1.03238e-22)
(2.46221 -1.37559 8.06449e-22)
(5.72582 -0.244493 -6.04635e-21)
(7.14887 -1.44051 -5.42306e-21)
(5.33933 0.437427 -5.51853e-21)
(6.20192 -0.00100065 0)
(5.95853 0.0533433 -3.8745e-21)
(-0.868657 -0.526013 3.08364e-21)
(-2.53368 -2.26468 0)
(6.42324 -2.47684 0)
(5.98305 0.038754 0)
(-6.97733 6.48372 0)
(6.10078 0.930629 0)
(3.2258 -0.312723 0)
(5.45439 -1.13092 -4.45759e-23)
(9.49866 -3.23952 -9.45387e-21)
(7.71099 0.948008 0)
(5.12707 1.12841 1.09864e-20)
(4.79695 -1.32414 -1.7216e-21)
(6.18144 0.632183 1.00424e-22)
(0.534264 -6.01635 -2.1397e-21)
(3.30084 0.357818 -5.33955e-23)
(0.0655934 -0.833269 1.72305e-21)
(6.50529 -0.0652209 -2.16077e-21)
(7.65848 -0.13958 4.8854e-22)
(6.03607 0.89756 -2.19542e-21)
(5.61845 0.68027 -7.3115e-21)
(6.05734 3.15106 -1.86286e-21)
(10.4204 2.96146 0)
(4.01778 -2.08477 2.49869e-22)
(3.67836 -1.03025 -1.37115e-20)
(6.14558 0.0206623 -1.18342e-20)
(6.68574 -2.03717 -4.97303e-21)
(6.20662 -0.000674877 9.59451e-22)
(7.76317 -2.01049 5.63037e-22)
(6.23332 -0.965043 -7.71319e-22)
(6.01776 -1.58595 -5.0344e-21)
(6.0365 0.526513 2.43198e-21)
(7.15661 5.03745 0)
(5.26119 -0.372406 -4.53496e-22)
(5.10838 0.346572 -1.71446e-21)
(7.33222 -1.38513 0)
(5.21616 0.0931116 0)
(5.49967 -2.52126 -4.62805e-23)
(2.57437 -1.50734 8.95021e-22)
(5.41774 -1.14433 -2.0486e-21)
(5.57934 0.127108 0)
(5.6715 -0.0614577 -7.91742e-21)
(5.45778 0.620061 -1.42431e-21)
(3.37637 -2.33336 6.51691e-22)
(7.36502 0.450738 3.80139e-22)
(0.611208 -0.975884 0)
(3.87036 -2.01483 2.92284e-22)
(7.57076 0.446345 0)
(5.6943 -0.753054 8.73762e-22)
(7.77781 -0.972551 -1.00304e-21)
(6.00946 0.0902627 -1.67862e-23)
(7.12885 2.02752 1.76209e-21)
(8.46752 3.61518 -6.9589e-22)
(5.05638 -1.43249 1.02909e-20)
(3.75148 -1.6893 0)
(4.79227 -2.14932 -2.33485e-21)
(4.56279 -1.36157 0)
(7.88276 0.881356 -1.20714e-21)
(3.28433 -2.26093 1.19974e-21)
(6.39318 -2.41128 3.84692e-21)
(5.35535 0.454711 -1.13522e-22)
(2.43984 -4.42284 -3.74391e-21)
(4.27109 -2.00495 -5.9942e-21)
(3.79783 -1.04591 -7.96798e-21)
(5.85207 0.16159 6.96148e-25)
(4.90195 -2.09482 1.90175e-21)
(3.43707 -1.47158 5.676e-21)
(3.97709 -1.14102 8.63116e-21)
(4.14026 -2.1239 1.22079e-21)
(5.10731 -2.32234 -1.222e-21)
(5.34968 -1.68682 5.08911e-21)
(1.53985 7.02572 3.09695e-20)
(6.26925 0.0301546 7.54394e-23)
(4.04699 -1.31084 1.53654e-21)
(6.98902 1.18586 7.25933e-23)
(6.56953 -1.73677 0)
(-4.28849 4.44512 -4.82017e-20)
(6.15216 -0.00927973 -3.25503e-21)
(5.97472 0.347356 0)
(7.78328 0.846035 0)
(4.57396 -1.78103 -1.48566e-21)
(7.64005 -2.04844 -6.09483e-21)
(7.17585 0.604052 2.33315e-21)
(5.9266 -1.1914 8.9656e-21)
(6.01229 3.06541 1.90469e-21)
(5.32586 -0.0614923 6.32076e-21)
(3.16173 -2.41279 -7.521e-23)
(5.36193 1.96412 0)
(4.08809 -1.23877 8.23026e-21)
(1.73013 -3.96094 1.40627e-20)
(2.39431 -4.23151 2.72957e-21)
(5.04063 -1.94686 1.72715e-21)
(5.3142 -2.42386 -1.39222e-21)
(6.45462 -0.0346238 3.1001e-21)
(5.31373 0.274337 1.20038e-22)
(6.37733 -0.916122 3.94928e-21)
(3.0819 -2.47198 -8.35497e-22)
(7.06565 0.550197 -1.72462e-21)
(5.76207 0.157616 3.09658e-21)
(3.33022 -0.51514 -6.75761e-21)
(5.55199 -0.216073 4.97199e-21)
(5.79594 -1.60515 0)
(7.22509 1.02359 -1.78402e-21)
(5.88814 0.103286 6.85207e-22)
(4.35845 -0.819978 -2.63136e-21)
(6.09259 5.50277 2.2568e-21)
(5.27096 -1.65779 3.78076e-21)
(5.99525 0.0313512 1.35291e-21)
(4.08954 0.533386 -9.65135e-21)
(7.34893 -1.38677 0)
(5.43501 0.423932 -1.76033e-22)
(6.63167 0.262398 4.78758e-22)
(5.65117 -0.206416 0)
(4.23384 0.229828 5.56579e-21)
(7.33205 0.446809 0)
(5.2149 5.62995 -5.78163e-22)
(7.04742 -0.154639 0)
(5.29973 -0.414747 0)
(7.50471 0.00745913 6.6061e-22)
(7.1443 0.406084 -9.48904e-22)
(8.58134 0.11555 -7.33012e-21)
(5.82546 0.389607 -3.26747e-21)
(4.69111 3.47125 -2.11826e-21)
(6.08843 0.344681 -1.19006e-21)
(6.22281 0.870818 0)
(11.3635 -0.996141 -4.97078e-21)
(7.37817 0.429673 1.98766e-21)
(5.63437 -0.737888 -1.80224e-21)
(6.56978 -1.72553 0)
(8.88773 1.81597 3.89987e-21)
(6.80619 5.17095 5.01387e-22)
(6.28233 0.031232 2.87126e-22)
(4.53341 -4.67296 0)
(1.35638 -7.53003 1.27704e-20)
(6.07969 0.472166 0)
(6.48458 -0.80485 -2.00801e-21)
(2.59375 -1.50113 0)
(12.725 -1.34033 0)
(5.21039 -1.64666 0)
(5.89595 -2.25152 0)
(-3.81001 -4.50082 -5.2381e-21)
(3.04365 -3.19594 -4.00814e-22)
(5.51661 -0.0172797 -5.78327e-21)
(3.6785 -2.07548 -8.34161e-22)
(3.68995 -1.53979 0)
(3.76069 -2.27412 -6.91041e-22)
(1.93688 -0.741615 -3.65283e-20)
(4.68992 -2.21588 0)
(4.3249 -1.44698 -8.87875e-21)
(5.88566 0.329163 1.6423e-23)
(6.93737 1.10672 -3.48116e-22)
(7.04276 -2.46418 1.36359e-21)
(5.44615 0.601001 0)
(6.36379 -2.08393 0)
(10.1183 -0.0283707 4.17828e-21)
(4.86755 -0.396905 1.05694e-22)
(5.7986 0.214122 -1.18777e-23)
(4.58904 -1.78792 6.18863e-24)
(6.00002 0.00397929 2.86931e-22)
(6.17946 0.283948 1.75064e-24)
(6.02753 0.578352 3.46825e-21)
(5.51431 0.509662 4.80719e-23)
(5.50354 -1.53546 0)
(-8.79293 2.5311 0)
(6.30318 0.103185 0)
(5.82135 0.0303627 0)
(5.093 -0.899081 3.67735e-21)
(7.79221 -0.407011 0)
(-0.925949 -6.90858 4.09751e-20)
(5.55935 -3.25485 -1.51856e-22)
(3.88522 -1.18913 -1.30455e-20)
(4.03461 -1.5873 7.49133e-22)
(3.19924 -2.69369 -6.3146e-22)
(2.10105 -8.49475 -2.89921e-20)
(5.95677 0.0733415 1.0683e-21)
(2.6502 -2.72316 -8.72206e-22)
(5.58094 0.534605 2.79812e-23)
(7.48838 0.0412882 0)
(6.92014 -1.23215 0)
(3.91516 -1.74934 0)
(6.36592 -1.32094 1.92542e-21)
(4.97962 -2.42563 0)
(5.47052 1.91389 0)
(5.99742 0.0352312 0)
(5.17382 -1.20683 3.94377e-21)
(6.18939 0.612035 -2.87027e-21)
(5.60039 0.0314581 0)
(5.57125 -1.17387 -1.9602e-21)
(5.91166 0.583492 -3.63261e-21)
(7.59609 2.81888 -6.59529e-21)
(4.74835 -2.19644 5.41241e-21)
(5.73198 2.14866 2.05061e-23)
(4.85103 -0.792309 -8.70991e-23)
(5.17656 0.173607 3.43196e-22)
(5.26758 -0.623568 -9.49362e-22)
(7.03409 0.462276 1.35303e-21)
(5.8121 0.159331 -3.17117e-24)
(5.43017 0.271338 -5.43893e-21)
(6.23664 -0.0428338 0)
(3.20684 -1.04272 5.42334e-22)
(5.82121 0.190092 5.4886e-21)
(4.32727 -1.46663 3.00912e-22)
(6.24374 -0.933425 -2.2471e-21)
(3.09415 -0.372225 -1.13512e-20)
(7.06428 0.341363 -2.42485e-22)
(9.35712 0.867811 6.94089e-21)
(6.03185 0.335135 0)
(5.74371 1.98143 5.02818e-21)
(5.49423 0.168319 -1.05739e-22)
(5.28583 -0.64282 1.86633e-21)
(3.8731 -1.92577 -1.62771e-21)
(5.92064 0.0896931 2.92997e-21)
(6.22708 0.163483 -3.0287e-23)
(6.08708 0.0245984 -8.96135e-23)
(6.24172 0.0943917 0)
(4.58454 -1.10874 0)
(4.43054 -2.11091 6.72198e-21)
(0.454146 -1.11681 1.89608e-21)
(5.99119 0.00244383 4.47436e-24)
(5.85326 0.187916 1.09854e-20)
(6.43698 0.862064 -1.58154e-20)
(4.39345 0.983628 0)
(5.39738 0.360554 0)
(4.7154 -0.969652 -4.06875e-23)
(7.41533 0.0555417 9.89031e-22)
(5.85952 1.9939 4.88418e-21)
(7.44314 -0.578802 0)
(6.40648 0.08074 0)
(6.12325 -1.79667 7.1369e-21)
(5.78335 -0.441858 4.71374e-21)
(0.31808 -0.0709777 -3.61096e-22)
(5.72894 -0.0338906 0)
(12.7595 -0.423874 7.83731e-21)
(5.92775 -1.46593 -7.58685e-22)
(0.726474 -5.16765 -3.41232e-21)
(5.91076 -0.0275957 -6.33058e-21)
(9.69147 -2.61368 0)
(7.80265 -2.10861 4.79516e-21)
(4.91089 -4.4403 -4.67057e-21)
(0.195954 0.0730803 0)
(5.85296 0.0376355 1.74139e-24)
(5.72064 0.387485 -3.57798e-21)
(6.06192 -0.014996 7.29003e-26)
(7.85205 -0.932155 5.72025e-22)
(5.02887 5.19866 9.1594e-21)
(6.30623 0.0889992 0)
(3.08596 -1.04987 -7.23747e-23)
(6.50879 -0.270932 1.39431e-20)
(7.28801 -7.20643 -1.77978e-20)
(6.07176 0.930842 2.59972e-21)
(3.85242 -1.68076 3.82231e-22)
(6.07842 -0.00115107 -1.37208e-20)
(5.97681 0.75748 7.95462e-23)
(5.17398 0.316846 2.31065e-22)
(5.07526 -1.10785 0)
(5.44468 0.0419569 -6.81593e-22)
(3.34428 -1.50343 4.58936e-21)
(6.53246 -0.354977 -6.80848e-21)
(5.85934 0.159479 -4.95138e-21)
(6.39254 -0.756191 1.83824e-21)
(4.96431 -0.378449 1.32603e-20)
(6.29897 0.0494473 -6.86462e-23)
(5.34531 0.408781 3.11994e-21)
(5.89314 0.231933 7.04929e-23)
(7.91014 -1.68749 -7.73558e-21)
(7.62007 3.19656 -5.16069e-21)
(4.76817 -3.16874 2.1126e-21)
(6.07736 -0.15131 0)
(2.75832 -1.41609 0)
(3.10197 -1.27289 0)
(3.87373 -1.0634 1.00272e-20)
(6.10252 0.0612069 -7.8872e-21)
(5.4063 0.674408 0)
(4.46349 -0.874729 -7.79469e-21)
(5.36333 0.610166 0)
(5.14098 -0.795609 -6.03972e-21)
(5.52815 -0.732121 -1.91343e-21)
(5.45801 -1.44345 -5.54598e-21)
(6.4364 0.0467677 0)
(5.72576 0.0808863 0)
(5.71439 -0.179176 1.09794e-21)
(7.61208 0.787453 1.38439e-22)
(7.55436 -0.238778 3.41958e-21)
(7.23084 5.37292 -3.36381e-22)
(7.54624 -0.790049 0)
(5.06702 -1.88183 -2.86162e-21)
(-3.78207 -3.13076 0)
(2.54145 2.63566 -4.96626e-21)
(8.5301 3.54683 0)
(6.2331 0.157733 6.09303e-23)
(3.43075 -0.292796 4.35642e-21)
(4.44524 -0.253662 4.304e-21)
(5.75888 -0.0541382 -1.10225e-21)
(5.46306 -2.99659 -8.74652e-21)
(5.72361 -0.499387 1.19341e-20)
(6.17278 0.950792 -1.26149e-22)
(7.19668 -1.97801 -6.61118e-22)
(5.83167 -1.2857 -2.77066e-21)
(-0.599282 -0.133064 1.51077e-20)
(7.84248 1.33335 0)
(5.91849 0.171225 1.29404e-23)
(4.54279 -1.05082 0)
(5.25306 0.325113 -2.55613e-22)
(5.12026 -1.88932 -1.48884e-21)
(5.00863 -0.287183 -4.36123e-21)
(6.03588 -0.0226813 -2.19876e-24)