/*--------------------------------*- C++ -*----------------------------------*\
| =========                 |                                                 |
| \\      /  F ield         | OpenFOAM: The Open Source CFD Toolbox           |
|  \\    /   O peration     | Version:  2306                                  |
|   \\  /    A nd           | Website:  www.openfoam.com                      |
|    \\/     M anipulation  |                                                 |
\*---------------------------------------------------------------------------*/
FoamFile
{
    version     2.0;
    format      ascii;
    arch        "LSB;label=32;scalar=64";
    class       volVectorField;
    location    "5.1";
    object      U;
}
// * * * * * * * * * * * * * * * * * * * * * * * * * * * * * * * * * * * * * //

dimensions      [0 1 -1 0 0 0 0];

internalField   nonuniform List<vector> 
13486
(
(1.39642 -0.183623 6.11617e-19)
(1.66381 0.305473 2.85104e-19)
(2.43872 0.0277778 0)
(0.441291 -0.25807 -4.02302e-20)
(2.27906 -0.544394 2.112e-19)
(2.45694 0.128092 2.18482e-20)
(2.50132 -0.464339 4.72813e-21)
(1.94352 -0.715263 -3.3034e-19)
(1.89271 -0.383884 0)
(2.02526 0.775935 0)
(-1.12559 0.216761 -2.13545e-18)
(2.55185 -0.0639954 0)
(1.25084 -0.401776 -6.05433e-19)
(2.51575 0.718596 4.01566e-20)
(2.39775 -0.389019 1.12466e-19)
(1.98246 0.768167 -1.66671e-19)
(0.39796 -0.178309 8.79528e-19)
(1.34729 -0.428135 4.84987e-20)
(2.2547 -0.0095096 3.01571e-21)
(1.59988 -0.0234893 -6.17737e-19)
(0.78469 -0.541759 -1.55497e-20)
(1.27046 -0.416311 7.80947e-19)
(1.68789 0.302697 -2.27898e-19)
(2.70959 -0.965108 0)
(2.06518 0.60601 5.47712e-20)
(2.65784 -0.894764 -1.56396e-19)
(-1.98098 1.4356 1.31272e-18)
(2.55657 -0.135323 4.18152e-19)
(2.04087 0.0329683 0)
(2.3227 -0.365315 -2.40494e-19)
(0.938972 -0.64568 -1.05903e-20)
(2.48648 -0.27936 -1.42177e-19)
(2.97851 -0.32907 3.965e-19)
(2.05723 -0.0767288 0)
(1.95262 -0.689771 0)
(1.83531 0.00461796 -2.97869e-21)
(1.92686 0.124394 8.7736e-21)
(1.43839 -0.681715 3.12495e-19)
(1.72018 0.0220434 -7.1227e-21)
(1.9275 -0.225768 3.1357e-19)
(2.30215 -0.798649 0)
(0.839187 -0.416658 -7.0159e-19)
(2.01001 0.00654365 0)
(2.07925 0.507101 -2.64523e-19)
(2.10015 0.501709 1.09016e-19)
(2.55219 -0.0590615 9.14669e-20)
(0.0330579 2.12272 1.56085e-18)
(2.03493 0.0351485 -7.54779e-22)
(1.93063 0.119951 -6.58679e-21)
(2.66542 -0.0306318 1.99046e-19)
(1.99983 0.0344724 3.49235e-19)
(1.79809 0.0192894 0)
(2.61819 -0.157428 -1.20771e-19)
(1.59618 -0.595227 -4.56325e-19)
(1.36347 -0.487882 0)
(2.25004 -0.549487 -1.40467e-19)
(2.10757 0.157062 -1.22221e-20)
(1.7919 0.0124414 -3.27895e-20)
(2.9532 -0.312401 4.56054e-19)
(1.93812 0.19887 0)
(-0.772925 -0.67713 -2.23247e-18)
(1.94237 0.19062 0)
(3.73405 0.28859 -5.25581e-19)
(0.819541 -0.550997 -1.54227e-22)
(1.65228 -1.20656 0)
(1.93299 0.138642 4.86306e-21)
(0.37734 -0.263379 -5.00481e-20)
(1.38848 0.0972036 2.05515e-19)
(1.89305 -0.408149 -1.8131e-19)
(1.82526 0.00721977 2.7258e-21)
(0.300032 -0.188743 5.74068e-20)
(1.37053 -0.465396 1.25511e-21)
(1.95797 -0.0939397 2.31114e-19)
(-0.945733 -0.570892 -7.04535e-19)
(1.95465 0.152893 1.37497e-21)
(2.1103 0.153292 2.85167e-21)
(1.95947 0.145877 -4.52274e-21)
(2.40028 -0.408692 -4.59391e-20)
(0.168549 2.36204 -1.06915e-18)
(1.70598 -0.34293 0)
(2.02251 0.00164313 2.24296e-21)
(1.60097 0.405159 -1.80949e-20)
(4.03283 0.245488 4.12671e-20)
(2.528 0.0706126 -9.9713e-21)
(1.38962 -0.199609 -1.19738e-18)
(1.35614 1.76356 0)
(1.37874 -0.584324 -8.08711e-20)
(2.00038 0.0490172 -5.23753e-19)
(1.86523 0.231933 -2.31084e-19)
(1.88196 1.04823 -1.73495e-19)
(2.55749 -0.269429 -7.91681e-20)
(2.06717 -0.620771 -1.73948e-19)
(1.4604 -0.296271 1.58226e-19)
(1.63343 0.106951 1.60077e-20)
(1.80251 -0.572405 7.36181e-20)
(2.029 0.0300505 2.29551e-22)
(-2.40304 1.64234 0)
(0.25164 -0.462693 4.59462e-20)
(1.94462 -0.227458 -5.98537e-19)
(0.0607195 0.338079 -8.36214e-22)
(2.00834 0.00945047 0)
(2.47731 0.718929 1.13285e-20)
(0.23973 -0.52667 8.54933e-21)
(1.79327 0.0189562 3.81176e-20)
(1.32818 1.71589 0)
(-0.397723 0.990677 -2.3815e-21)
(1.96851 0.0702062 7.75461e-22)
(1.69838 0.00227529 -1.66343e-20)
(0.0720654 2.42969 1.21367e-18)
(1.70401 -0.777998 0)
(1.20367 -0.580565 0)
(2.51647 -0.342431 -1.29071e-19)
(1.60445 -0.575991 3.26216e-21)
(2.11567 0.0895273 1.00116e-21)
(1.03265 -0.012101 0)
(1.1532 -0.572818 -2.76906e-19)
(2.06562 0.626751 0)
(2.14338 -0.0593969 0)
(1.94756 -0.0936973 0)
(1.94347 0.095889 4.47294e-21)
(1.36923 -0.418848 -1.80873e-20)
(-1.02309 -0.464714 0)
(1.7741 -0.514219 0)
(1.71512 0.0147727 2.36089e-20)
(1.8458 -0.664548 0)
(1.8014 0.0258616 0)
(2.17191 -0.283489 6.94749e-21)
(2.20233 0.0670081 9.26813e-20)
(1.90326 -0.0317255 -3.55746e-20)
(1.72153 -1.02652 -7.33023e-20)
(1.80226 0.0260366 -3.57681e-21)
(0.0310554 1.94668 -3.89591e-19)
(0.516755 0.0326872 1.15896e-18)
(-0.472035 0.185167 9.24714e-19)
(1.99827 0.0176011 -5.7374e-20)
(1.90566 0.438788 -2.56393e-19)
(0.596468 0.808013 -1.65494e-19)
(1.73112 -0.777187 0)
(1.94478 0.0881869 -1.3543e-21)
(1.96939 -0.579345 -1.17539e-19)
(2.86979 -0.113693 -4.14468e-19)
(2.60828 -0.171768 1.01041e-19)
(2.5062 -0.208232 0)
(1.70805 -0.331049 0)
(2.09816 0.00322798 4.03096e-21)
(4.26627 -0.44223 -1.18662e-18)
(2.72871 -0.105726 4.21936e-20)
(0.233808 1.81659 0)
(2.68703 -0.0327689 0)
(2.04116 0.0308038 0)
(2.01178 0.0237961 5.12592e-21)
(2.39421 -0.473641 0)
(2.02725 -0.00561998 -2.35453e-21)
(1.58027 0.403782 -1.53551e-19)
(2.20733 0.311846 0)
(2.47189 0.0634438 0)
(1.50553 -0.691318 0)
(0.157334 -0.156772 -2.47516e-20)
(1.70052 -0.694741 6.54007e-19)
(2.05256 0.460591 9.30503e-21)
(2.54828 -0.00928405 1.1951e-19)
(1.707 -0.674166 -9.93464e-19)
(2.34583 -0.27079 4.97992e-20)
(0.744436 -0.355262 3.08322e-19)
(1.79693 0.0154365 0)
(2.61489 0.681128 -9.33215e-20)
(2.4193 0.667449 -1.86387e-20)
(0.385924 -0.0912288 -7.31707e-19)
(2.80861 -0.0531111 -1.27612e-19)
(-0.464654 0.138095 2.46935e-19)
(0.0473421 -0.151917 1.02932e-21)
(2.20169 0.289111 8.007e-20)
(1.99821 0.0942223 -4.19104e-19)
(2.31882 -0.228833 1.05828e-20)
(2.01529 0.0167831 5.57798e-22)
(0.0632199 -1.80432 0)
(2.5149 1.04871 1.20101e-19)
(3.00813 -0.112538 5.78934e-19)
(1.97448 0.0627506 -5.7629e-19)
(2.50452 -0.194012 0)
(1.97311 -0.283205 6.36191e-19)
(2.11424 0.0872933 1.97328e-21)
(2.39477 -0.214625 -4.80427e-21)
(-2.08381 0.899484 0)
(2.6005 0.130429 1.90495e-20)
(2.44605 -0.128701 -1.90635e-19)
(2.06091 0.0274058 -4.33997e-22)
(2.32376 -0.222948 -7.53381e-20)
(2.3543 -0.790005 0)
(1.03214 -0.500002 -3.54507e-19)
(1.94079 0.109932 0)
(2.23312 0.0282785 0)
(1.77449 -0.0159082 0)
(1.28212 0.896881 -3.14269e-19)
(1.78762 -0.0496893 0)
(-1.26952 0.612943 -5.46116e-19)
(1.67415 -1.08843 1.7352e-19)
(2.44497 -0.0176766 6.6433e-20)
(1.05485 -0.523046 -1.35099e-19)
(2.58339 0.646925 -4.33545e-20)
(0.931886 -0.678871 1.30306e-20)
(2.21552 0.0832523 -2.72327e-21)
(1.31377 -0.639145 -3.61106e-19)
(1.57709 -0.694198 6.37186e-20)
(2.04741 0.430492 -1.12818e-20)
(1.80033 -0.046037 -3.45222e-20)
(1.25235 -0.478157 1.65093e-20)
(1.8735 -0.0303707 4.69772e-19)
(1.7682 -0.0196245 0)
(2.57943 0.133629 0)
(2.50353 -0.130685 2.75576e-19)
(2.29122 -1.00458 2.24393e-19)
(1.61793 -0.00870796 5.65335e-19)
(1.9589 0.0690512 1.12812e-21)
(2.46064 0.170532 -2.51707e-20)
(1.89257 -0.463729 2.3651e-20)
(2.37364 -0.330785 0)
(1.87674 1.03342 4.57132e-19)
(1.54236 -0.322859 0)
(3.22859 0.607647 0)
(0.267942 0.0231398 -1.68861e-18)
(2.71739 -0.0135451 0)
(1.95254 -0.573549 2.73679e-19)
(2.5497 0.0105836 0)
(2.67341 -0.164427 -1.70449e-20)
(1.22763 -0.579626 2.18683e-19)
(2.59285 0.283978 -6.45713e-21)
(0.785882 -1.00118 2.05686e-20)
(1.88009 -0.302837 3.28999e-21)
(1.2442 -0.473932 9.44157e-21)
(1.98135 -0.273798 -2.0424e-19)
(1.11908 -0.231956 1.06389e-20)
(2.89359 -0.163786 5.20281e-19)
(0.862429 -0.417788 2.39894e-19)
(0.523242 -0.679097 0)
(1.02874 -0.502572 2.5912e-20)
(2.23179 -0.163985 1.24663e-19)
(2.24979 0.0150595 -7.18301e-21)
(0.895392 -0.434315 7.00637e-19)
(2.38774 -0.133146 0)
(2.96352 -0.393575 0)
(2.00432 0.0712626 6.39323e-19)
(2.1463 0.0737615 0)
(0.900577 -0.448926 2.34426e-19)
(1.63698 0.0590793 -1.3727e-20)
(1.7926 0.0954636 0)
(2.30978 -0.0143728 -4.46884e-20)
(2.47976 -0.651962 4.65213e-19)
(0.0938984 -0.475488 1.53827e-18)
(2.04655 0.489123 0)
(-0.742873 -0.54592 -6.50366e-20)
(0.994951 0.0197572 8.75419e-20)
(0.965732 -0.475174 3.51171e-19)
(1.69866 -0.0102552 0)
(1.79749 -0.280131 2.6422e-20)
(-0.102047 -1.96816 8.77463e-20)
(2.49142 -0.277722 1.14592e-19)
(1.86775 -0.471453 -2.99179e-20)
(0.0838789 -0.126151 2.59475e-20)
(2.9268 -0.385318 3.02556e-19)
(1.76594 0.251672 0)
(1.64934 0.0760256 1.27637e-23)
(2.40163 -0.397052 -2.6375e-19)
(-0.0341615 -1.86645 -1.10203e-19)
(2.17476 -0.734239 -2.18865e-19)
(-2.08419 0.872057 0)
(1.89482 -0.293388 -6.25684e-20)
(0.8636 -0.668158 -1.76391e-20)
(2.07399 -0.0108894 -2.67027e-19)
(1.48844 -0.379956 0)
(1.5465 0.964169 2.18477e-19)
(1.97093 0.0742153 -1.55756e-19)
(2.39105 -0.342185 0)
(2.60366 -0.0905721 6.97565e-20)
(1.15317 -0.556895 2.89873e-19)
(2.44728 -0.610004 -2.59133e-19)
(1.80155 -0.260079 0)
(1.4663 -0.653146 0)
(1.69029 -0.0430477 -2.00829e-20)
(2.65958 -0.144333 -6.34555e-20)
(1.48052 -0.681605 4.79607e-20)
(2.09488 -0.199527 -2.31065e-19)
(1.93687 0.094515 3.40074e-19)
(3.36204 -1.25607 -4.98422e-19)
(-1.56517 -0.180298 2.39549e-18)
(-1.57505 1.78131 1.94488e-18)
(2.88724 -0.0586831 4.52348e-19)
(1.85248 -0.0434614 4.66561e-20)
(2.72618 -0.154964 2.25552e-20)
(2.06375 -0.00148374 0)
(0.567244 -0.642723 0)
(1.78476 0.264241 -6.88303e-22)
(1.18806 -0.575505 2.70453e-19)
(1.99761 0.025636 -5.65251e-20)
(2.22505 -0.156434 1.15458e-19)
(2.27755 -0.193453 0)
(2.01011 -0.0374249 -1.53281e-19)
(2.61504 -0.0602874 -5.11703e-20)
(1.92432 0.0755289 -3.12806e-19)
(2.47754 -0.584432 8.7158e-20)
(1.95844 -0.234419 -6.10177e-20)
(1.26989 -0.47527 2.28569e-21)
(2.75233 -0.0908204 5.46671e-20)
(2.47285 -0.283554 1.34864e-19)
(1.92435 0.0888869 -9.59664e-22)
(1.28763 -0.592965 0)
(0.376237 -0.0979624 0)
(2.28928 -0.0328262 9.19249e-20)
(1.3505 -0.412351 5.84147e-20)
(1.93711 0.116203 0)
(2.15789 1.41464 -1.6801e-18)
(0.373715 -0.211493 0)
(2.4041 1.03976 -2.28746e-20)
(2.52124 -0.338388 -1.30305e-19)
(3.08424 -1.71658 0)
(1.89155 0.429866 -1.57035e-19)
(1.80405 0.289489 1.46217e-21)
(1.8667 0.218856 -1.97832e-20)
(1.8741 -0.0269045 -5.16278e-19)
(1.93938 -0.305372 0)
(1.93639 0.132567 -8.99353e-21)
(1.76667 0.1992 2.89959e-22)
(1.98239 0.0631867 7.27723e-20)
(1.61342 0.144776 -2.98877e-19)
(0.705054 0.781638 3.09202e-19)
(2.54092 -0.26862 1.48282e-19)
(2.20735 -0.39296 -6.57009e-19)
(2.1069 -0.198144 0)
(2.67558 0.00807223 3.46783e-21)
(2.24259 -0.404103 -1.20838e-19)
(2.00052 0.035927 7.59621e-19)
(2.09202 -0.62527 0)
(2.53845 -0.289246 -3.42226e-20)
(1.43667 0.407614 0)
(2.50146 -0.475394 -2.11287e-19)
(1.87041 -0.536714 -2.01497e-19)
(0.65773 -0.306331 2.84816e-19)
(2.37266 -0.488653 -1.81931e-19)
(2.0267 0.197919 0)
(1.63108 0.102876 -1.81157e-20)
(1.91916 -0.304786 6.79293e-20)
(1.62086 0.153245 2.82217e-19)
(2.25797 -0.41201 4.70092e-19)
(2.38755 -0.218748 2.15993e-19)
(-2.18934 0.279651 -8.83721e-19)
(2.03636 0.0340185 1.21104e-22)
(2.21916 -0.213975 0)
(0.985931 -0.334571 6.88668e-19)
(3.2346 0.583534 0)
(1.75965 0.264863 8.2468e-23)
(2.24116 -0.118989 3.82073e-19)
(2.66172 -0.0375437 -4.25128e-20)
(2.61622 -0.0852076 5.04336e-20)
(-2.51798 1.62099 -1.5291e-18)
(1.93141 0.0753336 3.90788e-19)
(2.0099 0.0118007 0)
(-0.858757 -0.432816 -6.41626e-19)
(2.18296 -0.287945 -1.36588e-19)
(1.29386 -0.340565 -2.66806e-20)
(2.2867 -0.922421 2.05861e-19)
(2.49307 -0.0117284 0)
(2.62205 -0.269791 9.12477e-20)
(1.7916 0.173114 6.00693e-19)
(1.96772 0.0801919 4.73423e-19)
(2.34282 -0.376457 0)
(2.03038 -0.0021909 -4.35273e-22)
(2.26784 -0.185667 -1.17089e-19)
(-0.0797327 1.47946 2.0564e-19)
(1.58088 -0.0232892 7.85886e-20)
(2.18064 -0.248736 1.2984e-19)
(2.04032 0.012389 -2.0798e-21)
(2.20939 -0.202499 0)
(2.66613 -0.165392 -5.10385e-20)
(-1.02617 -0.522894 1.08581e-19)
(2.45426 0.37243 3.85472e-20)
(1.99765 0.0312279 2.9531e-19)
(1.37209 0.0307552 0)
(1.69706 0.200965 -1.04519e-20)
(3.3792 -1.72267 0)
(3.53449 1.0129 -3.46926e-19)
(2.07174 -0.0286601 0)
(2.08206 -0.708602 -6.05634e-21)
(1.30174 -0.0768688 -1.68028e-19)
(1.53325 0.889859 5.31133e-19)
(-0.00639033 1.57039 -7.42936e-19)
(1.8294 -0.255815 0)
(2.37413 0.0556058 -3.8761e-20)
(2.03421 0.206132 -1.63034e-19)
(0.737751 -0.224318 -5.49491e-19)
(0.97531 -0.551688 3.56219e-22)
(1.64132 -0.0194618 -8.53313e-19)
(2.45281 -0.313506 1.26856e-19)
(2.10191 0.194707 1.09905e-19)
(1.43887 -0.440345 0)
(1.35955 0.349577 3.19726e-19)
(1.95554 0.0833328 4.85854e-21)
(0.389418 -0.238217 2.39433e-20)
(-0.97549 -0.386895 -3.31211e-19)
(0.603785 -0.246802 -1.05815e-18)
(2.90178 -0.0671448 0)
(0.760701 -0.220594 0)
(2.073 1.20129 0)
(2.07135 -0.0789965 0)
(0.630232 -0.162753 -1.66665e-20)
(2.49074 -0.445207 0)
(1.72381 -0.472159 0)
(1.64901 0.123887 1.16406e-19)
(2.9825 -0.10686 -5.99632e-19)
(2.18373 -0.189351 -3.12556e-19)
(1.70163 0.350355 9.6652e-19)
(2.00505 0.0242923 -8.42758e-20)
(2.47733 1.75435 0)
(2.54239 -0.283702 0)
(1.91875 0.0800617 3.33688e-19)
(2.02107 0.0535616 5.90647e-20)
(1.29612 0.953365 0)
(-1.88459 0.766123 7.26823e-19)
(2.15865 -0.747002 2.46316e-19)
(-0.53869 -0.668625 0)
(2.37875 -0.135243 2.11465e-19)
(1.97303 0.0657064 -3.85713e-19)
(0.633303 -0.174451 -4.38478e-20)
(0.97997 -0.317488 0)
(2.01482 0.20824 3.08479e-19)
(2.59674 0.128258 0)
(2.29975 -0.217283 0)
(2.2277 0.188188 -1.2362e-20)
(1.93172 0.0975373 1.77965e-19)
(-2.11793 1.48773 -1.71637e-18)
(2.37282 0.666191 1.0773e-20)
(1.31822 -0.321688 -2.99973e-19)
(2.07354 -0.0675175 3.97888e-20)
(2.10602 0.189983 8.48964e-20)
(2.74852 -0.151348 1.17652e-19)
(2.24592 -0.733857 0)
(2.59358 -0.584086 2.53098e-19)
(1.30707 -0.00792502 0)
(1.75081 0.242216 1.16947e-21)
(2.29838 -0.233679 0)
(1.41396 0.109165 4.34279e-19)
(-0.374197 1.25904 -1.44267e-18)
(2.42177 -0.300516 0)
(-0.174596 0.299151 4.29126e-20)
(2.53654 -0.313161 -2.94192e-19)
(0.961801 0.321402 -2.05188e-19)
(1.75132 -0.243339 8.22303e-19)
(1.42109 0.880357 -3.35182e-19)
(1.30938 -0.308633 -8.51832e-19)
(3.60866 0.979066 0)
(1.93688 0.0967236 -3.58701e-21)
(-2.16345 0.116871 -2.29615e-18)
(2.02081 0.21782 0)
(1.84495 0.245013 2.15399e-20)
(2.71263 -0.0457565 -4.16932e-20)
(2.84652 1.07306 0)
(2.00328 0.0214355 0)
(-0.652717 0.14236 0)
(0.201 -1.8845 3.01973e-19)
(3.34055 -1.49104 6.02315e-19)
(3.93036 -0.586649 8.01003e-20)
(2.36275 0.997378 0)
(1.694 -0.138298 5.56095e-19)
(2.00762 0.0154037 -1.36927e-21)
(2.36139 0.606207 -1.21081e-20)
(0.730082 -0.452358 2.72795e-20)
(1.91099 0.175822 0)
(2.03602 0.034339 0)
(0.704316 -0.0753454 -4.64397e-19)
(1.41215 -0.431377 -2.10266e-19)
(1.93403 -0.163388 0)
(1.23846 -0.603206 -2.67658e-19)
(2.04902 0.0144935 2.54545e-21)
(2.02932 0.025101 -3.82967e-22)
(0.74321 -0.34278 0)
(1.87001 -0.0277514 4.43213e-20)
(1.9497 0.0841937 -3.9763e-21)
(2.589 0.113389 1.32396e-19)
(1.85661 -0.555525 0)
(-1.65962 2.00916 -3.012e-18)
(2.62941 -0.0593311 5.58046e-20)
(2.00393 0.096237 6.66054e-20)
(1.96844 0.0256328 -1.6642e-21)
(2.6702 0.653914 0)
(1.67463 0.343749 -2.57408e-19)
(3.14667 0.363506 -2.52432e-19)
(0.513816 -0.278508 2.29297e-19)
(2.00912 0.0573547 0)
(0.952409 -0.565302 -3.63056e-22)
(0.432444 -0.0559186 0)
(2.00679 0.051735 -2.55412e-19)
(1.98941 0.0779326 1.15998e-19)
(1.86943 0.0609913 -6.52898e-20)
(-0.0807743 -1.78843 0)
(2.27598 0.0335038 -1.93236e-20)
(1.07498 0.523319 8.72145e-19)
(2.21899 -0.728452 0)
(1.61939 0.10922 3.6396e-19)
(2.45376 -0.592109 -9.92587e-20)
(2.19249 -0.0201195 0)
(0.84026 -0.704701 1.11499e-20)
(1.70268 -0.311093 -5.00275e-20)
(2.05491 0.0070239 0)
(-0.959478 1.8322 1.72066e-18)
(1.83207 0.230423 0)
(1.65452 -0.760501 2.68019e-19)
(-0.736867 -0.642407 1.84485e-19)
(2.06478 0.0370531 4.51332e-22)
(2.47352 0.138948 -6.32802e-20)
(1.34828 0.335504 1.69875e-19)
(1.74405 -0.27288 -3.03338e-19)
(1.83208 -0.23359 -2.80916e-20)
(1.69937 -0.771623 2.61224e-21)
(2.16084 -0.251429 1.25671e-19)
(2.66178 0.661182 1.92893e-19)
(1.76591 -0.791617 0)
(1.99701 0.0279357 -2.6185e-19)
(-0.493548 -0.501147 -6.01559e-19)
(1.32965 -0.0184536 0)
(1.97702 0.101391 2.38691e-21)
(1.78374 0.00409532 0)
(1.20031 -0.336453 7.3508e-19)
(2.05288 -0.769685 0)
(1.91581 0.00491333 2.96699e-21)
(2.25171 -0.113102 -2.17562e-19)
(0.840648 -0.783791 2.36024e-20)
(-0.402905 -0.00408211 1.67719e-19)
(2.39137 -0.0176629 -1.83889e-21)
(1.26154 -0.599372 2.47445e-19)
(1.75985 -0.508188 2.93915e-19)
(1.45565 -0.30489 0)
(-2.40172 1.16017 -7.63198e-19)
(2.26652 -0.679714 -5.10859e-20)
(-2.60301 1.32103 -9.49219e-19)
(2.03202 0.0316513 1.84401e-22)
(1.42878 -0.55577 0)
(2.2282 -0.0216923 -1.15489e-21)
(-1.94103 0.750127 0)
(0.174265 -0.586337 8.63277e-21)
(0.800085 -0.238566 5.61952e-20)
(0.0214367 -0.096906 0)
(2.02902 -0.542096 8.75075e-20)
(1.61456 -1.15417 0)
(2.85699 0.978028 0)
(1.42243 -0.675749 -3.53393e-19)
(1.46568 0.373925 2.58777e-19)
(1.6333 -0.416112 0)
(1.804 0.197906 -1.63981e-19)
(4.13355 -0.379782 1.36016e-18)
(-1.24688 -0.533456 6.7086e-19)
(2.87898 1.38032 0)
(2.17937 -0.0444027 0)
(-2.24368 0.255155 -1.13727e-18)
(1.8596 -0.0849892 0)
(2.59189 0.074939 0)
(-0.521792 -1.03849 -7.92785e-20)
(2.03222 -0.395202 -4.15832e-19)
(1.72178 -0.411495 2.5312e-19)
(2.90451 -0.474279 4.31809e-20)
(-2.45679 1.12416 1.57371e-18)
(1.98908 0.0654587 1.32917e-19)
(1.49275 -0.337339 0)
(2.20301 0.473484 -3.86902e-20)
(1.38125 -0.163079 0)
(2.31236 0.0351216 0)
(2.00232 0.122875 0)
(2.22107 0.172817 -1.0185e-20)
(1.85918 -0.0219148 2.4002e-19)
(2.13251 0.0474433 -6.10002e-21)
(1.53549 -0.343539 0)
(-2.18364 1.36634 -1.21566e-18)
(2.10345 1.14497 4.11686e-20)
(1.84282 -0.678259 2.82273e-20)
(1.95287 -0.0594513 -7.46952e-20)
(2.40817 -0.599121 4.10438e-19)
(2.03796 0.0636692 -2.22747e-19)
(-0.201306 0.919962 0)
(2.60911 -0.0690826 0)
(1.43851 0.897308 0)
(1.1905 -0.539207 -5.28655e-19)
(1.18907 -0.919756 -4.95689e-20)
(0.221249 -0.0810447 0)
(2.22553 0.483549 0)
(2.65698 -0.182901 6.92411e-20)
(1.94712 -0.0255092 -6.27271e-20)
(1.93069 0.644534 2.53102e-19)
(1.56682 -0.682842 0)
(-2.57457 1.48401 -5.87017e-19)
(2.40958 0.0585526 1.19156e-21)
(1.37966 -0.394107 -5.02337e-19)
(2.25721 0.0584882 -5.07801e-20)
(2.35318 0.612565 5.22645e-20)
(2.32585 -1.50423 2.27122e-19)
(1.18886 -0.542422 9.2348e-19)
(1.84023 -0.674089 1.09135e-19)
(2.12516 0.0875473 2.29175e-21)
(1.99931 0.0167117 -6.67969e-20)
(1.11988 -0.525968 -8.51497e-20)
(1.70183 -0.295165 2.20858e-20)
(1.69503 2.21452 4.44718e-20)
(1.25802 -0.603333 1.36927e-19)
(2.67118 0.0515787 0)
(1.49929 -0.869855 3.66915e-20)
(2.20906 -0.0432581 -2.09822e-19)
(3.00033 0.660765 1.40315e-19)
(1.34822 -0.356952 -4.57697e-19)
(1.82843 -0.651823 -3.05633e-19)
(1.96343 -0.0149873 6.11584e-19)
(2.38443 -0.0620199 -3.49144e-19)
(1.63845 -0.255522 -1.21758e-20)
(2.8963 -0.0351513 -2.33273e-19)
(1.12018 -0.124675 -9.93412e-19)
(2.12946 -0.0258658 -1.57169e-19)
(1.10207 -0.192698 0)
(0.798719 -0.935204 -8.37297e-20)
(1.9316 0.0165627 5.54288e-19)
(1.70037 -0.00458045 -1.69508e-21)
(-1.02426 -0.730343 0)
(1.47977 -0.682557 0)
(2.05375 0.454767 2.20131e-19)
(0.980838 -0.11557 6.16148e-19)
(1.57294 -1.56505 -2.56189e-19)
(2.10401 -0.705295 -1.5417e-19)
(2.2227 -0.407986 3.58615e-19)
(3.28578 0.54714 0)
(2.06693 0.487597 1.16739e-19)
(1.29475 -0.440734 -2.97221e-21)
(2.57422 1.04121 1.40474e-19)
(1.95454 -0.255711 -3.61164e-19)
(-2.42347 1.13535 -2.48372e-18)
(2.38327 -0.564817 -3.97922e-19)
(2.59422 -0.624665 1.39519e-19)
(2.34166 1.23259 0)
(2.03711 -0.298557 -4.99328e-20)
(1.87487 0.0588697 6.00548e-20)
(2.01712 0.00886343 1.34814e-21)
(0.77516 -0.375013 8.45616e-19)
(1.93367 -0.251781 5.40794e-19)
(1.99291 0.40634 -4.55942e-21)
(-1.23444 -0.36401 -3.64675e-19)
(2.24058 -0.120769 -1.36892e-19)
(2.27041 -0.0254178 1.39679e-19)
(-1.6875 -0.0759522 -3.08495e-19)
(2.47087 1.00188 -1.33549e-19)
(-0.777369 1.4318 -1.86097e-18)
(0.926594 -0.454165 -2.81276e-19)
(2.02383 0.00621112 0)
(2.11554 0.142007 -1.09863e-20)
(-0.928305 -1.60404 -5.49483e-19)
(1.29488 -0.108635 9.04878e-19)
(2.07651 0.0234951 0)
(1.98629 -0.245908 5.33238e-20)
(1.15241 -0.478357 2.09124e-19)
(1.99259 0.0484938 -5.68288e-19)
(-1.68657 0.318748 -5.55715e-19)
(1.63284 -0.411512 -1.33044e-20)
(2.19379 -0.203471 2.1275e-19)
(2.34278 0.0553765 5.24016e-20)
(1.67217 -0.768404 -3.72646e-19)
(2.14785 0.0688218 8.49351e-21)
(1.18948 -1.03448 -1.58211e-19)
(2.12127 -0.0440928 1.96808e-19)
(2.0632 -0.0572078 -1.71864e-19)
(2.1625 0.0942865 -6.82598e-21)
(2.12356 -0.0309762 -3.7686e-19)
(1.09121 -0.48614 -4.03925e-19)
(2.12591 0.0806474 0)
(0.274195 -1.3733 1.23894e-19)
(2.10874 0.0715663 4.29194e-20)
(0.691433 -0.110086 -6.02179e-20)
(2.42007 0.02788 -4.38659e-20)
(2.16614 -0.420692 -2.19871e-19)
(2.00012 0.0204595 -4.3739e-19)
(2.11675 0.323691 6.42181e-20)
(-1.74101 0.584256 -7.50228e-19)
(2.57698 0.0741088 0)
(1.69817 0.172757 5.40669e-21)
(2.6748 -0.0334462 4.35103e-20)
(1.43725 -0.540158 0)
(2.15604 0.073299 1.11365e-19)
(2.68723 0.0251204 4.20266e-20)
(2.52424 0.0695632 4.97116e-24)
(2.33128 -0.788449 -2.65018e-20)
(1.81739 -0.0535766 0)
(1.78216 0.381582 4.63901e-19)
(2.06755 0.322856 1.09696e-20)
(1.23188 -0.596876 2.98529e-19)
(2.00478 -0.167619 0)
(1.45904 0.332932 -7.49469e-19)
(1.40068 -0.385077 -2.18022e-20)
(2.62768 1.52039 -3.54026e-19)
(1.13025 -0.15031 9.65853e-19)
(2.08574 2.12436e-05 9.77762e-21)
(-0.588051 0.0401638 1.67141e-19)
(1.93099 -0.0727048 -3.74751e-19)
(2.65082 -0.509536 -3.68655e-19)
(1.77744 0.169893 -3.46973e-19)
(1.99511 0.0101972 0)
(1.99929 0.0358841 -2.52658e-19)
(0.107548 -0.108694 7.98015e-20)
(-0.70871 -0.100846 0)
(2.46065 -0.995519 0)
(2.01615 0.00809147 0)
(0.481446 -0.275399 0)
(2.06599 0.327304 0)
(1.05664 -0.115334 0)
(1.94501 -0.470511 -3.54263e-21)
(3.75112 -0.716261 -6.1488e-19)
(2.62015 0.302025 0)
(1.76221 0.382663 7.00139e-19)
(1.53299 -0.407644 -2.08971e-21)
(2.09467 0.205305 6.58221e-21)
(-0.773029 -1.50193 -3.79384e-19)
(1.07399 0.139882 -2.90402e-21)
(-1.73695 0.61558 5.32976e-19)
(1.88936 0.000531387 -1.42633e-19)
(2.67249 -0.054963 2.77736e-20)
(2.04264 0.311742 -1.53954e-19)
(1.87164 0.210614 -4.62459e-19)
(2.02992 1.0724 -1.43178e-19)
(3.48307 1.00033 0)
(0.874934 -0.53629 2.41767e-21)
(1.22095 -0.351627 -8.05491e-19)
(2.01115 0.0281569 -7.82398e-19)
(2.27865 -0.687832 -2.96657e-19)
(2.00119 -0.0245034 5.92228e-20)
(2.55124 -0.653473 3.96563e-20)
(2.11438 -0.32309 -4.73418e-20)
(2.04399 -0.53177 -3.02995e-19)
(2.03449 0.184313 1.6974e-19)
(2.17618 1.31695 0)
(1.82066 -0.199299 -2.56322e-20)
(1.67451 0.106384 -1.06837e-19)
(2.51421 -0.41754 0)
(1.71862 -0.032012 0)
(1.72102 -0.790702 -3.48697e-21)
(-0.405417 -0.0953808 1.54851e-19)
(1.9197 -0.481268 -1.21378e-19)
(1.8171 0.0458952 0)
(1.89669 -0.0357462 -4.907e-19)
(1.79447 0.241236 -8.9823e-20)
(0.44583 -1.09674 5.69376e-20)
(2.61285 0.102225 2.27647e-20)
(-1.51882 0.470157 0)
(0.836914 -0.530646 4.37908e-21)
(2.65965 0.057475 0)
(2.01186 -0.313682 5.24954e-20)
(2.57625 -0.27108 -7.38121e-20)
(1.99942 0.032941 -3.26629e-22)
(2.43874 0.680514 3.40193e-20)
(2.84005 1.24832 -3.85906e-20)
(1.71266 -0.483866 6.09503e-19)
(1.07073 -0.553111 0)
(1.58859 -0.962993 -1.41533e-19)
(1.54683 -0.507114 0)
(2.67436 0.276604 -6.08689e-20)
(0.39472 -1.03981 8.24963e-20)
(2.39788 -0.982892 2.78837e-19)
(1.68843 0.134246 -7.46856e-21)
(-0.0878306 -2.13861 -7.76879e-19)
(1.05688 -0.5213 -3.44718e-19)
(1.26597 -0.360579 -4.67637e-19)
(1.95435 0.0885739 -1.67733e-21)
(1.63813 -0.933705 1.16099e-19)
(1.13341 -0.501116 3.32101e-19)
(1.3274 -0.38883 5.13555e-19)
(1.18417 -0.879017 5.49381e-20)
(1.78179 -1.05028 -8.65857e-20)
(1.8206 -0.575038 3.04183e-19)
(-0.345756 1.17351 9.25027e-19)
(2.16049 0.0112926 4.9386e-21)
(1.51538 -0.418379 4.34694e-21)
(2.37411 0.410116 -1.90086e-20)
(2.22278 -0.56965 0)
(0.479375 -0.267803 -2.0833e-18)
(2.10635 -0.038894 -2.62121e-19)
(1.99946 0.131031 0)
(2.64406 0.259404 0)
(1.4814 -0.741625 -6.37347e-20)
(2.88037 -0.681065 -4.234e-19)
(2.45078 0.194779 7.78357e-20)
(2.02867 -0.384263 5.45216e-19)
(2.00527 1.02787 1.37391e-19)
(1.46931 -0.0122905 3.92073e-19)
(0.26267 -1.17161 -1.50567e-20)
(1.81221 0.67219 0)
(1.36026 -0.421999 4.92024e-19)
(0.191799 1.72171 4.92583e-19)
(-0.0973144 -1.98634 5.64945e-19)
(1.69735 -0.65844 1.00903e-19)
(1.38073 -0.627127 -7.47528e-20)
(1.78839 -0.00722225 2.03383e-19)
(1.70462 0.0386531 6.89145e-21)
(2.30142 -0.344537 2.55479e-19)
(0.155916 -1.17934 -8.12321e-20)
(2.43237 0.191058 -5.52643e-20)
(1.93844 0.0736912 1.94887e-19)
(1.09737 -0.180277 -3.96725e-19)
(1.86362 -0.0612374 3.06507e-19)
(1.62332 -0.267097 0)
(2.45764 0.370128 -5.57087e-20)
(1.97866 0.0667968 4.3474e-20)
(1.44229 -0.270195 -1.57621e-19)
(1.94742 1.97538 9.56033e-20)
(1.78987 -0.560753 2.26005e-19)
(2.06456 0.019896 8.34702e-20)
(1.34921 0.195568 -5.86441e-19)
(2.49399 -0.426125 0)
(1.72442 0.142059 -1.08258e-20)
(2.26711 0.0784056 6.90072e-20)
(1.99241 -0.0608255 0)
(1.3706 0.0889377 3.36491e-19)
(2.62209 0.102456 0)
(1.83825 1.98152 -4.87731e-20)
(2.3462 -0.0389423 0)
(1.82185 -0.220812 0)
(2.56747 -0.0226524 4.69381e-20)
(2.42428 0.148178 -2.31688e-20)
(2.96327 0.118478 -4.01973e-19)
(1.91824 0.164228 -2.10234e-19)
(1.60733 1.28625 -1.26711e-19)
(2.00421 0.105387 -8.02051e-20)
(2.09561 0.332378 0)
(2.43576 1.01222 -1.69728e-19)
(2.50909 0.124606 8.69004e-20)
(1.98571 -0.298776 -1.07873e-19)
(2.22275 -0.565165 0)
(3.02975 0.647648 2.10802e-19)
(2.31261 1.76138 2.3594e-20)
(2.14776 0.0102535 2.09776e-20)
(1.72974 -2.6111 0)
(-0.217716 -1.23103 1.67691e-18)
(2.05399 0.177975 0)
(2.32991 -0.303272 -1.28765e-19)
(0.139476 -0.354745 0)
(3.39051 0.629683 0)
(1.81387 -0.715897 0)
(2.01103 -0.762776 0)
(-1.63885 1.13984 -3.40281e-19)
(0.324496 -1.79511 -5.87434e-20)
(1.84501 -0.0162804 -3.60012e-19)
(0.795926 -0.806738 -3.12158e-20)
(1.21758 -0.530131 0)
(0.862999 -1.01875 -3.81723e-20)
(-0.0609903 -0.509388 -1.52061e-18)
(1.45503 -0.689055 0)
(1.43894 -0.50179 -5.27029e-19)
(1.96027 0.159797 1.8056e-21)
(2.35823 0.395934 3.79026e-20)
(2.35931 -0.81256 7.78552e-20)
(1.85726 0.196927 0)
(2.17036 -0.706908 0)
(3.42291 0.20628 2.09736e-19)
(1.69669 -0.257577 5.6126e-21)
(1.91906 0.0950693 2.06247e-21)
(1.4831 -0.731307 -6.42358e-22)
(1.99808 0.00878605 1.87865e-20)
(2.11255 0.136951 3.75696e-22)
(2.03286 0.18541 2.44446e-19)
(1.74354 0.198334 3.384e-21)
(1.86694 -0.514603 0)
(-2.40133 1.82833 0)
(2.13837 0.0574402 0)
(1.92317 0.0127137 0)
(1.71249 -0.289264 2.23298e-19)
(2.75938 -0.0911557 0)
(-1.00129 -0.0230102 4.04928e-18)
(2.16313 -1.54915 -2.71273e-20)
(1.2922 -0.405609 -7.71188e-19)
(1.51615 -0.386117 -2.41895e-21)
(0.404817 -1.44635 -7.12691e-20)
(0.0938407 0.229486 -2.23046e-18)
(1.89868 0.03315 6.65452e-20)
(-0.155138 -1.2905 -1.35082e-19)
(1.77171 0.225636 1.78257e-21)
(2.57815 -0.013792 0)
(2.33764 -0.397047 0)
(1.64229 -0.425797 0)
(2.16215 -0.436899 1.16409e-19)
(1.72943 -1.13112 0)
(1.84954 0.677618 0)
(2.00159 0.0124215 0)
(1.74329 -0.415728 2.36022e-19)
(2.09056 0.202682 -2.20545e-19)
(1.83994 0.019099 0)
(1.99738 -0.481313 -1.20091e-19)
(1.98098 0.194324 -2.43112e-19)
(2.57557 0.935436 -2.94286e-19)
(1.498 -0.705572 3.15865e-19)
(1.92695 0.721403 -1.24517e-22)
(1.70794 -0.363297 -4.10757e-21)
(1.68623 -0.0239592 1.98119e-20)
(1.83831 -0.293456 -5.27331e-20)
(2.4073 0.155365 3.57865e-20)
(1.93055 0.0869195 5.68644e-21)
(1.80178 0.0967553 -3.3925e-19)
(2.12333 -0.039394 0)
(0.717718 -0.129462 4.54614e-20)
(1.96144 0.076712 3.49744e-19)
(1.33914 -0.451342 -2.11308e-20)
(2.10991 -0.304848 -1.37956e-19)
(1.01209 -0.13827 -6.71706e-19)
(2.42094 0.126757 -6.92723e-21)
(3.1718 0.368082 3.62678e-19)
(2.00128 0.0851374 0)
(1.93988 -0.851041 4.07702e-20)
(1.80085 0.0562597 -5.28377e-21)
(1.85075 -0.303136 1.03703e-19)
(0.744759 -0.490345 -3.11656e-20)
(2.04801 0.0218152 1.81697e-19)
(2.13524 0.0783561 -2.45963e-21)
(2.09032 0.0106162 -7.50287e-21)
(2.13038 0.0473672 0)
(1.45479 -0.337872 0)
(1.31739 -0.635701 3.8526e-19)
(-1.55462 0.358932 6.00974e-19)
(2.03711 -0.00122412 4.70921e-22)
(1.95901 0.0740692 7.00138e-19)
(1.78838 -0.682975 -1.01694e-19)
(1.42554 0.319318 0)
(1.78666 0.118519 0)
(1.56889 -0.325215 -3.02843e-21)
(2.5121 0.0141684 7.36283e-20)
(1.97758 0.697578 3.3171e-19)
(2.49252 -0.183114 0)
(2.04983 -0.00253224 0)
(2.06338 -0.600933 4.21017e-19)
(1.97951 -0.145846 2.89504e-19)
(0.0805764 -0.0788496 -4.88873e-21)
(1.79683 -0.0325955 0)
(3.30755 0.58687 2.56601e-19)
(2.13307 -0.606458 -5.06922e-20)
(-0.944274 -1.34429 -7.28071e-19)
(2.0043 -0.011104 -3.90667e-19)
(3.62978 -0.492132 0)
(2.95385 -0.672964 3.35275e-19)
(2.03364 -2.42625 -6.30951e-19)
(-0.000523308 -0.0330499 0)
(1.9501 0.0226171 4.82049e-21)
(1.90829 0.129142 -2.27617e-19)
(1.94387 0.00374832 8.92962e-24)
(2.59489 -0.28495 4.33948e-20)
(1.49694 1.25356 5.2609e-19)
(1.86629 0.0453858 0)
(1.00222 -0.358275 -4.2785e-21)
(1.91269 -0.583525 7.68889e-20)
(3.23725 -1.99751 -2.05282e-18)
(2.05775 0.307835 1.82714e-19)
(1.09176 -0.538688 -7.21117e-21)
(2.00854 0.00208911 -8.44811e-19)
(1.99566 0.438691 2.53628e-21)
(1.65443 0.0378984 1.50991e-20)
(1.70745 -0.373863 0)
(1.82006 0.0214543 -3.61222e-20)
(1.06043 -0.49007 2.65405e-19)
(2.22398 -0.113771 -4.20509e-19)
(1.98543 0.0666565 -3.16602e-19)
(2.31441 -0.281793 1.18645e-19)
(1.65553 -0.126599 8.14161e-19)
(2.14312 0.00822029 -5.50204e-21)
(1.77787 0.119647 1.97301e-19)
(1.97562 0.10796 7.69708e-21)
(2.92839 -0.477653 -4.93167e-19)
(2.51494 1.07321 -2.09055e-19)
(1.63157 -1.64208 1.98165e-19)
(1.90727 -0.0253163 0)
(1.55021 -0.4465 0)
(0.921536 -0.199416 0)
(1.29182 -0.36779 5.96831e-19)
(2.1481 0.0727125 -5.15688e-19)
(1.77722 0.262844 0)
(1.48303 -0.287325 -4.68716e-19)
(1.77624 0.233869 0)
(1.72233 -0.261282 -3.66729e-19)
(1.96642 -0.31318 -1.12446e-19)
(1.8425 -0.482822 -3.34001e-19)
(1.94802 0.0448346 0)
(1.94291 0.0617765 0)
(2.00884 -0.0670976 6.5293e-20)
(2.58311 0.249508 6.44183e-21)
(2.63765 -0.104505 1.96552e-19)
(2.52475 1.85209 -4.79982e-21)