/*--------------------------------*- C++ -*----------------------------------*\
| =========                 |                                                 |
| \\      /  F ield         | OpenFOAM: The Open Source CFD Toolbox           |
|  \\    /   O peration     | Version:  2306                                  |
|   \\  /    A nd           | Website:  www.openfoam.com                      |
|    \\/     M anipulation  |                                                 |
\*---------------------------------------------------------------------------*/
FoamFile
{
    version     2.0;
    format      ascii;
    arch        "LSB;label=32;scalar=64";
    class       volVectorField;
    location    "1.2";
    object      U;
}
// * * * * * * * * * * * * * * * * * * * * * * * * * * * * * * * * * * * * * //

dimensions      [0 1 -1 0 0 0 0];

internalField   nonuniform List<vector> 
5098
(
(2.60386 0.571125 0)
(2.16893 0.0574976 -1.55832e-20)
(2.17742 0.0328546 -2.01915e-21)
(1.72248 -0.769187 6.07992e-19)
(1.84848 -0.120972 0)
(1.11692 -0.538944 0)
(2.27346 -0.0289603 -2.79568e-20)
(2.02646 -0.258601 6.6084e-22)
(2.03321 0.0772659 -5.78068e-20)
(2.60078 0.657507 -4.93747e-20)
(1.43403 -0.705563 0)
(2.23962 0.0251957 1.28515e-19)
(2.82172 -0.190419 1.95894e-21)
(1.13896 -0.556616 0)
(1.96916 -0.0331758 4.07083e-20)
(1.9676 0.0560048 9.39501e-22)
(1.38682 -0.782926 -1.42655e-19)
(1.55224 -0.737331 0)
(0.00249562 0.27335 6.52742e-19)
(1.38354 -0.761125 1.61021e-19)
(1.84026 0.340712 -5.80751e-20)
(1.93351 -0.00537844 5.83277e-21)
(2.34377 -0.862937 0)
(0.992617 -0.121975 2.48782e-20)
(1.02974 -0.510452 0)
(1.65754 -0.672238 0)
(2.0324 -0.0893701 8.97922e-20)
(2.04998 -0.850235 1.48179e-19)
(0.313091 0.110065 -1.99393e-18)
(2.19851 -0.945759 0)
(2.3674 0.0146904 -7.92548e-20)
(0.897633 -0.439671 0)
(1.91824 -0.041685 -1.06759e-19)
(1.24572 -0.790553 0)
(2.39328 0.108839 -3.70481e-20)
(2.51613 -0.50024 7.03401e-19)
(2.03386 -0.483785 1.16378e-19)
(2.1824 -0.0875913 -8.88765e-21)
(1.51859 -0.534432 4.54136e-19)
(1.7776 -0.811221 0)
(1.74884 -0.79182 -2.84466e-19)
(1.78247 -0.649365 -1.68514e-19)
(1.67607 -0.676465 0)
(2.14727 0.189313 7.33918e-20)
(2.36794 0.294032 5.77122e-20)
(2.04616 0.202654 4.41687e-21)
(1.45109 -0.792295 4.75402e-20)
(1.28702 -0.482125 0)
(2.39569 0.0218023 0)
(1.71755 -0.729187 6.48487e-20)
(2.10856 0.00609215 3.87187e-20)
(1.72304 0.284061 -3.66903e-19)
(0.956643 -0.453201 1.6033e-22)
(2.13685 -0.0324475 1.37429e-19)
(1.18026 -0.583431 -2.75215e-19)
(1.65656 0.102989 0)
(1.87904 0.264593 -2.00228e-19)
(1.82112 -0.74339 0)
(1.05518 -0.519059 0)
(2.07478 -0.05499 -8.03773e-21)
(1.94986 0.0871261 -1.08249e-20)
(0.979066 -0.50139 -1.48867e-19)
(2.35433 0.076245 0)
(2.79062 -0.0929928 0)
(1.03589 -0.477556 3.91083e-19)
(1.00649 -0.505096 3.49099e-19)
(2.08894 0.0414051 2.12122e-21)
(2.25435 0.157294 5.78146e-23)
(2.23294 -0.213226 1.29021e-19)
(1.85784 -0.772872 1.85853e-19)
(1.91494 0.0225333 2.08913e-20)
(1.72069 0.279687 2.86474e-21)
(2.14642 -0.870725 0)
(0.279145 -0.110183 0)
(1.95381 -0.0348382 1.46193e-20)
(1.39818 -0.680515 -3.1223e-19)
(1.94326 0.0751106 0)
(1.57702 0.0687593 3.5529e-19)
(2.25297 0.289298 5.28598e-20)
(1.75666 0.0646884 0)
(1.92068 0.0429991 0)
(1.95976 -0.64855 1.23311e-19)
(1.82809 -0.352769 4.1909e-19)
(1.12486 -0.74231 -2.47418e-20)
(1.55327 -0.711577 6.86275e-20)
(1.97898 -0.856687 1.19972e-20)
(0.319869 0.0786573 -2.37412e-19)
(1.9583 0.106346 -8.5109e-21)
(2.11099 0.00311813 2.56389e-20)
(1.93541 0.0542627 -2.06012e-20)
(2.29402 -0.056381 -5.38123e-21)
(0.612885 -0.561349 2.239e-19)
(2.28384 -0.0970475 -1.60179e-19)
(1.73447 -0.750881 -3.24031e-19)
(1.50608 -0.559924 8.02365e-20)
(1.72544 0.495801 -2.0313e-20)
(1.33367 -0.661273 -2.54064e-19)
(1.63063 0.174576 2.57895e-19)
(1.94386 0.118646 -6.80582e-21)
(2.22042 -0.506523 -8.58674e-20)
(1.73635 -0.347563 -3.90315e-20)
(1.25095 -0.609377 -3.26415e-19)
(0.777533 -0.544427 -1.10368e-19)
(2.04016 0.0944772 -1.22753e-20)
(1.58274 0.0694085 -4.03879e-19)
(2.47371 0.761653 0)
(1.87203 0.0827015 2.07785e-19)
(2.30365 0.0139506 1.69606e-20)
(1.23919 -0.529563 6.31317e-20)
(1.45187 -0.737724 0)
(1.3111 -0.629712 -6.89486e-19)
(2.95898 0.652162 9.67765e-19)
(2.00658 0.00565403 -2.08087e-19)
(1.19441 -0.844544 3.76119e-20)
(1.86436 0.480173 8.10007e-20)
(-1.91107 1.10475 0)
(1.96547 -0.617279 2.31146e-19)
(2.78417 0.93695 0)
(2.0439 0.0562699 1.23231e-20)
(1.03051 -0.162242 -3.80867e-19)
(1.73977 0.217236 3.0132e-19)
(1.70108 1.56189 -1.19609e-19)
(2.45711 0.575298 2.71859e-20)
(1.77405 -0.762622 -1.37708e-19)
(0.742963 -1.05429 -3.78617e-19)
(0.973116 -0.519558 1.98084e-20)
(2.15798 -0.144998 1.07237e-19)
(2.32552 -0.827866 -1.36314e-19)
(1.52896 -0.266125 -9.59211e-20)
(1.15395 -0.853528 -7.81477e-20)
(1.69335 -0.76451 -1.36799e-19)
(1.33597 -0.594021 -4.62161e-19)
(1.35521 -0.591507 3.86328e-19)
(2.71241 1.02199 -1.4135e-19)
(1.55519 -0.241186 -9.71975e-20)
(1.97741 -0.283534 1.14553e-19)
(2.15008 2.03632 4.32362e-19)
(2.032 0.167838 1.35054e-19)
(1.07465 -0.526574 0)
(1.96721 -0.0343209 -4.40321e-19)
(1.72544 0.338021 -2.45118e-19)
(2.13656 -0.435483 1.76038e-19)
(2.04255 -0.916977 2.71649e-19)
(2.25866 -0.0046779 -1.40838e-20)
(2.20487 0.0720821 -2.63202e-20)
(2.00037 0.0205046 0)
(2.21496 -0.233242 1.33396e-19)
(1.73459 -0.0933722 0)
(2.15027 -0.0581547 1.98819e-19)
(2.02318 -0.914436 9.1294e-20)
(1.84344 -0.546775 -8.4878e-20)
(3.80497 -1.06045 0)
(1.72065 -0.159004 2.7286e-20)
(2.12901 -0.0361391 0)
(0.315375 0.00284893 -2.92459e-19)
(1.04064 -0.43373 -1.56761e-19)
(1.82117 -0.734974 -3.35098e-19)
(1.61008 -0.298007 -2.45553e-20)
(1.74445 -0.808658 -2.33848e-19)
(-0.332631 0.220816 2.23386e-18)
(2.09541 -0.465064 -2.95881e-19)
(1.92133 0.0162663 -5.04917e-20)
(4.27417 -1.09695 -7.21984e-19)
(1.84186 -0.273807 -2.53642e-19)
(1.57321 -0.767423 -6.97488e-20)
(2.36213 0.0503221 -7.57124e-20)
(1.70276 -0.0998388 -1.09649e-19)
(2.64922 -0.490585 0)
(1.30792 -0.646434 9.50194e-20)
(1.86935 -0.620368 -3.65422e-19)
(1.76526 0.425125 1.44457e-20)
(1.7248 -0.701758 -2.20934e-19)
(2.18036 0.331116 5.97649e-20)
(2.04663 -0.819539 2.61837e-19)
(2.03013 0.11709 0)
(2.04452 -0.0534463 0)
(1.86713 -0.350366 -1.60153e-19)
(2.55379 -0.476666 -2.40496e-20)
(1.87482 -0.234101 3.51557e-19)
(0.501466 -0.0814906 0)
(2.15808 2.40584 0)
(1.94598 -0.576596 -1.94924e-19)
(1.91673 -0.610263 4.47933e-19)
(1.57128 -0.776466 0)
(1.82458 -0.18373 0)
(2.58067 0.294321 5.14508e-19)
(1.62898 0.181285 0)
(2.05888 -0.446176 3.88503e-19)
(1.22861 -0.599155 6.04298e-19)
(1.61537 -1.01669 -8.71043e-20)
(3.64809 0.735316 0)
(3.18083 0.19268 -5.5985e-19)
(2.1683 -0.884328 0)
(1.99098 0.117891 -1.02945e-21)
(2.38027 0.0634316 8.13656e-21)
(0.836738 -0.56273 -1.94036e-19)
(2.12792 -0.601942 1.35733e-19)
(2.04409 -0.308942 0)
(1.9964 -0.0490887 -1.26162e-20)
(1.89332 -0.605905 -6.62525e-20)
(1.69882 -0.785192 -2.57855e-19)
(1.68762 0.201911 4.61236e-21)
(2.41411 0.37478 2.1515e-20)
(2.13138 -0.0239359 2.46599e-21)
(1.85935 -0.0900027 1.57021e-19)
(1.00956 -0.439351 -1.1199e-19)
(2.38969 -0.208694 -1.16331e-20)
(1.40924 -0.650717 0)
(2.22745 -0.0291205 0)
(1.63347 -0.781855 -2.64281e-19)
(2.11888 -0.192175 -1.26593e-19)
(1.76413 0.17335 2.40999e-19)
(3.40146 -0.0532143 5.23686e-19)
(2.07596 -0.0028949 -8.73717e-20)
(2.07124 -0.0387878 -1.2092e-19)
(2.10414 0.423404 -5.43166e-19)
(1.93015 -0.0300216 0)
(1.47363 -0.724448 -1.40726e-19)
(0.618837 -0.844558 5.11311e-20)
(2.00405 -0.0266225 7.3927e-20)
(2.40525 -0.116558 -1.93251e-20)
(1.74677 -0.425868 0)
(1.87982 -0.0936753 1.15893e-20)
(2.46852 -0.229575 9.31557e-20)
(1.02001 -0.520927 4.41508e-20)
(2.03277 -0.184234 0)
(0.612759 -0.217704 0)
(2.15267 -0.0379266 0)
(2.14262 -0.468443 0)
(2.24748 -0.853745 -8.89865e-21)
(1.95262 0.211004 0)
(0.812535 -0.368775 -4.13446e-19)
(2.0324 -0.575738 -1.43448e-19)
(2.11277 -0.0683629 1.57659e-20)
(2.29702 0.0544868 -5.29412e-20)
(2.08582 0.060295 0)
(1.60123 1.18571 -1.36289e-19)
(1.75329 -0.802166 -3.53549e-19)
(2.22871 -0.352081 0)
(1.9064 -0.0684095 2.55599e-19)
(1.90895 -0.723903 -4.09021e-19)
(2.2482 0.379863 0)
(2.04176 0.0361728 0)
(1.23371 -0.358983 6.83516e-19)
(1.93803 0.397162 -2.97332e-19)
(2.26878 -0.102536 -1.32445e-19)
(1.27235 -0.608325 7.41194e-20)
(1.47769 -0.723401 -1.12516e-19)
(1.43161 -0.80058 0)
(2.29334 -0.0580821 3.73116e-20)
(2.21726 0.476513 -1.10869e-20)
(2.07166 -0.854664 2.65419e-19)
(-0.849806 -0.375663 9.66649e-19)
(1.74696 -0.791932 1.60203e-19)
(1.87355 -0.0130274 -1.90915e-19)
(1.73591 -0.823083 3.28528e-19)
(1.58992 -0.200927 8.38483e-20)
(2.17445 1.57257 3.05026e-19)
(1.31455 -0.49462 -2.84688e-19)
(1.989 -0.0594531 3.26219e-21)
(2.62828 0.196556 7.42649e-20)
(1.12602 -0.529229 1.81459e-19)
(0.958063 -0.461452 1.5008e-19)
(2.11611 -0.898006 0)
(2.1382 0.00466281 -5.1848e-21)
(1.35942 -0.685926 5.0751e-20)
(-0.262371 0.248983 -2.6705e-18)
(1.42618 -0.678524 0)
(1.91168 0.52845 0)
(1.84032 -0.0988993 -2.37863e-20)
(1.61828 -0.943188 1.08373e-19)
(1.98799 0.109363 2.70893e-20)
(0.0807126 0.0144491 -1.18183e-18)
(1.94186 0.469351 0)
(1.33421 -0.547088 2.48456e-21)
(1.11591 -0.842994 -9.89815e-20)
(1.75984 -0.633372 -1.60073e-19)
(1.84584 -0.485128 0)
(2.53123 -0.720287 0)
(1.92552 -0.109037 0)
(1.69168 -0.76752 -8.59843e-20)
(2.07355 -0.0909798 6.77317e-20)
(1.20428 -0.592869 -1.88491e-19)
(1.98476 -0.157151 -7.52993e-20)
(2.88097 -0.66806 -1.65616e-19)
(1.17616 -1.05422 0)
(1.95811 -0.0429622 0)
(2.04607 0.0295807 -4.08091e-20)
(2.32092 0.144085 6.11795e-20)
(2.03942 0.0663872 -1.98113e-19)
(1.80879 -0.73499 0)
(1.51597 -2.14623 4.86357e-19)
(1.226 -0.15084 -2.00606e-19)
(2.30808 0.259384 5.02261e-20)
(2.17337 -0.661264 2.77375e-19)
(2.3981 0.844935 6.57026e-20)
(2.41437 -0.0619373 0)
(2.35649 0.075215 -7.49204e-20)
(1.98257 0.0975565 0)
(2.0227 0.15743 -1.21197e-19)
(2.09269 0.0561101 3.35925e-20)
(2.44507 0.0287429 6.90115e-20)
(1.73852 -0.489499 4.33193e-19)
(1.903 0.313084 1.69643e-19)
(1.22556 -0.626069 -8.06528e-20)
(1.96943 -0.784122 -1.71896e-19)
(2.7578 1.54327 -1.65537e-19)
(1.93307 0.0235054 0)
(1.94442 -0.47639 0)
(1.45682 -0.777472 0)
(2.40597 -0.198109 2.63733e-20)
(-0.722818 -0.572382 9.71592e-20)
(1.03589 -0.509388 3.60966e-19)
(2.04588 -0.0435973 2.4796e-21)
(2.82972 -0.132223 1.52104e-20)
(0.377998 -0.0767045 5.75981e-19)
(1.97383 2.05269 -4.86696e-20)
(2.13005 0.122625 -7.64355e-21)
(2.16564 0.00585066 3.77791e-19)
(1.08827 -0.485723 0)
(2.22248 0.248294 -7.40637e-20)
(1.65523 -2.17239 -1.36086e-18)
(2.2484 -0.366838 -2.12111e-19)
(-0.187067 -0.455275 4.67841e-20)
(1.8651 0.0842303 6.48905e-21)
(1.50142 -0.511539 3.0694e-19)
(2.22001 0.492628 0)
(1.92892 0.0592355 -6.7256e-20)
(1.24725 -0.531366 -6.66797e-19)
(2.01294 0.0170721 -1.16871e-20)
(1.5703 -0.752792 0)
(2.28074 -0.0125547 -1.06289e-19)
(1.2425 -0.599461 2.06242e-19)
(2.58073 -0.720441 -2.08167e-20)
(1.88616 -0.779186 -2.49724e-19)
(2.01157 -0.0925306 -2.05043e-20)
(2.57075 -0.124779 8.25005e-21)
(1.18356 -0.582757 3.94928e-19)
(2.31701 -0.108351 1.86667e-19)
(1.98414 -0.406459 0)
(2.05281 -0.92236 -2.56881e-19)
(1.83902 -0.772982 -7.60055e-19)
(2.29785 0.221057 1.64009e-20)
(1.96635 0.0389897 3.0071e-20)
(3.61496 1.603 0)
(1.97061 -0.0136852 0)
(2.19065 -0.0747454 -1.33067e-19)
(1.92692 0.74597 5.45855e-19)
(2.85073 0.820706 0)
(2.33028 -0.0884808 1.17458e-19)
(2.02993 -0.89006 -4.00781e-21)
(1.096 0.219618 -5.03182e-19)
(1.07329 -0.484279 -3.60029e-19)
(1.69435 -0.784398 9.36975e-20)
(1.88911 0.0435243 1.03053e-20)
(1.67629 -0.781796 3.22722e-19)
(2.01879 -0.30406 -1.18035e-19)
(2.32542 0.019962 0)
(1.56797 -0.226534 -8.26238e-20)
(1.82498 0.179074 0)
(1.90882 0.204487 -3.33306e-19)
(2.15389 -0.465962 0)
(2.34817 -0.128607 -1.07557e-19)
(1.96895 0.062604 -1.47841e-20)
(2.08896 0.214058 -6.6451e-20)
(1.30933 -0.528601 3.75556e-19)
(2.03098 0.0263823 -2.86382e-19)
(1.97904 -0.165827 -2.16312e-19)
(2.39193 -0.999484 0)
(1.73414 -0.842292 0)
(1.37653 -0.559705 -3.68762e-19)
(2.20468 0.21252 0)
(2.86355 -0.294662 -6.04646e-19)
(1.95079 0.0125713 0)
(1.67373 0.28619 -3.83568e-21)
(1.1589 -0.59203 1.31583e-19)
(1.90424 -0.637689 5.32051e-19)
(2.89264 -0.394434 2.96042e-19)
(2.60321 -0.457198 0)
(2.00435 0.060599 1.46394e-20)
(2.13599 0.058805 -1.64866e-19)
(1.05246 -0.568224 -2.12302e-20)
(1.95489 -0.0538087 -1.57335e-19)
(2.1659 -0.0193728 -4.49742e-20)
(2.1744 0.150356 -3.78941e-20)
(3.13784 0.198117 3.54873e-19)
(2.34765 0.150158 -7.28527e-20)
(1.74522 -0.797216 -7.12285e-20)
(1.83243 -0.543908 0)
(0.668251 -0.694038 9.36227e-20)
(2.07966 0.0753079 -1.1547e-19)
(2.43298 0.197877 0)
(2.12499 -0.000827333 1.01772e-19)
(1.3994 -0.673121 -2.59307e-19)
(1.75901 1.00278 1.11683e-19)
(2.31296 -0.716166 0)
(1.60652 -0.753162 9.65478e-20)
(2.2378 -1.16116 0)
(2.22631 0.0660436 1.62637e-20)
(1.89287 -0.0694206 -5.09555e-20)
(3.88522 -1.37822 1.64252e-18)
(1.19983 -0.177628 0)
(1.67528 0.126993 1.76732e-19)
(1.92134 0.0690774 1.04007e-19)
(-1.92005 1.232 0)
(1.93897 0.0161897 0)
(2.06494 -0.169171 0)
(0.267169 -0.128686 1.64956e-19)
(3.10528 -0.413042 1.98238e-19)
(2.20601 -0.0860673 0)
(1.93142 -0.0357386 0)
(1.66036 0.0506854 2.36911e-20)
(1.67831 -0.784648 0)
(2.32271 0.358584 -2.95394e-21)
(2.95896 0.623812 1.97411e-19)
(2.02956 0.00374312 8.69862e-21)
(1.8984 0.309224 -9.53583e-21)
(1.1026 0.28492 5.78489e-19)
(3.10392 0.760321 -2.19977e-19)
(2.4197 -0.0397425 4.50001e-21)
(2.02214 -0.0357452 1.16768e-19)
(1.67378 -0.243095 -1.95658e-19)
(1.99515 0.180681 1.83626e-21)
(2.06498 0.109557 0)
(1.67438 -0.77045 -3.14544e-19)
(0.679652 -0.681241 0)
(0.452185 0.654752 -4.09855e-19)
(1.77433 -0.0333796 0)
(2.12095 0.204794 0)
(1.60118 -0.762742 -1.99397e-19)
(2.02294 -0.078528 6.8145e-23)
(-0.21903 0.0460974 -2.29001e-18)
(1.99085 -0.0113368 1.61762e-20)
(1.97521 -0.755551 2.78471e-19)
(3.07768 0.457252 2.21909e-19)
(-0.204046 -0.667863 8.2736e-19)
(2.10221 0.0333124 2.71029e-20)
(2.30282 -0.890923 7.60361e-20)
(1.96452 0.0346769 -1.65154e-19)
(2.20038 -0.851446 0)
(1.82189 -0.197466 -3.65345e-19)
(1.95083 -0.523896 2.95621e-19)
(2.09611 0.295747 -4.02728e-19)
(1.28025 -0.7549 -1.31596e-19)
(1.67214 0.978607 -1.13712e-19)
(2.89781 0.700847 3.0759e-19)
(2.03258 -0.325901 0)
(1.98113 -0.0429894 0)
(3.0904 0.456757 -8.64012e-19)
(2.12318 -0.16767 7.29664e-20)
(1.44583 -0.783263 0)
(2.11649 -0.0275158 -9.70078e-20)
(2.00084 0.0058455 -2.28381e-19)
(1.37069 -0.821658 -7.80467e-20)
(1.40439 -0.743985 2.64055e-19)
(2.16914 0.102877 -3.41781e-21)
(1.7592 -0.681492 1.99846e-21)
(2.55101 -0.177988 -1.46768e-19)
(2.08078 -0.459315 1.97761e-19)
(3.26993 0.19827 7.41361e-19)
(1.68829 -0.693329 2.80965e-19)
(2.00129 0.0365305 -1.18444e-21)
(1.17712 0.142883 4.16754e-19)
(2.13923 2.11884 0)
(1.8467 -0.518133 1.73926e-19)
(1.5088 -0.720684 0)
(1.37882 -0.810229 -4.91203e-19)
(1.83541 -0.633357 0)
(0.942854 -0.46438 -3.20652e-19)
(1.78187 -0.760652 -3.88704e-19)
(4.0905 0.232203 -5.03112e-19)
(2.41209 -0.962276 0)
(0.931481 -0.374455 0)
(2.26801 -0.300093 0)
(1.98506 0.117823 8.05741e-20)
(2.23295 -0.986225 -5.66552e-19)
(2.00981 0.250955 1.68696e-18)
(1.72008 -0.385174 -7.99698e-21)
(3.30568 -0.0314337 -8.22857e-19)
(1.99654 0.205667 0)
(1.35026 1.55969 2.4644e-19)
(2.57987 0.905402 1.45428e-19)
(2.13723 -1.28276 -1.45946e-19)
(1.90587 -0.877007 2.01442e-19)
(2.11195 0.288583 5.18311e-21)
(1.444 -0.694353 4.25648e-19)
(2.19125 0.291272 0)
(1.99582 -0.0260902 4.9359e-20)
(1.99043 1.48069 -2.40031e-19)
(2.05127 -0.177288 1.98421e-20)
(3.08175 -0.201469 -3.66827e-19)
(1.75691 -0.0794499 0)
(2.48606 0.368667 0)
(2.1681 -0.791232 0)
(0.220093 -0.490946 0)
(1.9808 0.0369185 0)
(1.57442 -0.607664 1.22588e-19)
(3.37759 -0.247982 5.71101e-19)
(1.61732 -0.67476 3.36881e-19)
(2.03865 -0.024173 1.88683e-19)
(1.54955 -0.726404 0)
(2.30413 -0.937134 2.72093e-21)
(0.203313 0.953081 0)
(1.54409 -0.694987 -1.3015e-19)
(-0.433191 0.90344 9.8246e-19)
(3.1047 -0.796366 -2.75415e-19)
(2.0159 0.139551 2.10323e-19)
(2.06218 0.380223 -4.50991e-20)
(2.40347 -0.608165 -1.70687e-19)
(2.25235 -0.0396128 0)
(0.730636 -1.23145 3.5646e-19)
(2.02894 -0.0530905 0)
(1.64857 0.668556 1.98744e-20)
(2.27822 0.100152 0)
(2.08594 0.129654 -6.39148e-20)
(2.16104 -0.0920804 0)
(1.1173 -0.457204 -2.5381e-19)
(1.40288 -0.674405 3.08329e-19)
(1.96864 -0.0862667 -4.93807e-20)
(1.47448 0.214677 3.63432e-19)
(0.459659 -0.230012 -3.37957e-19)
(1.86701 -0.103256 0)
(1.20724 -0.330632 -9.67301e-19)
(2.03269 0.048761 4.83109e-21)
(2.73419 -0.684727 -7.14397e-19)
(2.12672 -0.0350291 -1.94939e-20)
(2.0419 -0.569291 3.35466e-19)
(3.87731 -0.347712 0)
(2.00779 -0.889941 -5.78356e-20)
(1.86618 -0.841506 0)
(2.36812 0.168987 9.13765e-21)
(0.672903 -0.253147 6.39798e-20)
(1.61332 -0.739577 0)
(2.34672 0.390324 0)
(1.55801 -0.292396 -6.47007e-20)
(2.44552 0.418554 0)
(1.859 1.43546 9.6494e-20)
(2.95277 0.240876 -3.51322e-19)
(1.02099 -0.602845 -1.61003e-19)
(1.41751 -0.819253 -1.17295e-19)
(2.18337 0.0659127 -3.05302e-21)
(1.28061 -1.13091 -4.99474e-20)
(1.03768 -0.497496 -1.99884e-19)
(1.98627 -0.0996832 3.84591e-19)
(1.38021 -0.808727 8.86224e-20)
(0.754027 -0.381196 0)
(2.42825 0.115073 -7.16021e-20)
(1.47024 -0.312185 1.00745e-19)
(0.613604 0.0484042 6.99273e-20)
(2.82683 -0.577544 6.35727e-19)
(2.98955 1.18239 0)
(1.94959 -0.55578 -2.9724e-19)
(1.98061 0.0459495 1.28793e-21)
(4.24143 -0.0733005 -1.20692e-19)
(2.09752 -0.00476503 -1.96058e-19)
(1.36714 -0.700268 6.36242e-20)
(1.69036 -0.745813 1.82911e-19)
(1.63039 -0.662219 -8.13002e-20)
(1.44105 -0.765719 6.23009e-22)
(2.10581 -0.111341 -1.42121e-19)
(1.39873 -0.732555 -7.1292e-20)
(1.80484 -0.104586 0)
(1.9453 -0.211997 -3.4907e-19)
(1.96174 -2.25363 0)
(1.11695 -0.916996 -2.04586e-19)
(2.92195 -2.00989 2.92562e-19)
(-0.178798 -1.06983 1.31098e-18)
(1.99792 0.0305619 -2.88521e-21)
(0.881226 -0.432999 1.8616e-20)
(0.100303 -0.944034 0)
(2.43301 -0.840015 1.70302e-19)
(2.51842 -0.951136 1.14084e-20)
(0.849357 -1.66994 -1.2177e-18)
(1.91936 0.292055 0)
(1.78098 0.267384 0)
(0.403471 0.166861 0)
(1.49948 0.0309472 -1.69148e-20)
(1.89502 -0.058213 -3.44327e-19)
(1.4303 0.0345937 0)
(1.73536 -0.328483 0)
(2.20795 0.222553 -6.71911e-23)
(1.81415 -0.518169 -2.82434e-21)
(2.22167 0.190924 -2.09319e-19)
(2.40817 -0.347207 -2.74088e-19)
(1.95693 0.0584497 2.47012e-20)
(1.9624 -0.0486919 -1.11038e-20)
(1.99676 0.024462 -1.6763e-20)
(2.01091 0.322435 -1.84433e-20)
(1.96522 0.950347 0)
(1.02659 -0.488352 3.08981e-21)
(1.02482 -1.62707 0)
(1.19531 0.0120488 0)
(2.48201 -0.118418 -3.16708e-19)
(1.5807 -0.748002 0)
(2.32871 0.0414884 0)
(1.94154 -0.118893 5.33481e-19)
(2.18971 -0.94491 0)
(2.09731 0.143944 2.37882e-19)
(2.90762 -0.321401 3.6184e-19)
(2.89547 -0.154151 1.13489e-19)
(1.99422 0.0384679 1.48562e-21)
(1.31595 0.968623 2.09558e-19)
(2.48504 -0.903559 1.04459e-21)
(2.48934 -0.954477 4.51505e-21)
(1.35664 -0.541948 3.6085e-19)
(1.30635 -0.987503 0)
(1.14484 -0.566395 0)
(1.46903 -0.726788 -2.3423e-19)
(1.38979 -0.677454 -4.061e-19)
(0.930485 -0.49213 0)
(1.32936 -0.942294 2.07348e-19)
(0.921558 -0.438095 0)
(0.409098 -1.29514 6.06721e-19)
(1.32119 -0.61592 -4.6612e-19)
(2.74044 -0.358953 -1.33068e-20)
(3.04706 0.033858 3.31836e-19)
(1.40046 -0.507114 7.27689e-20)
(2.00753 -0.0496353 8.69081e-20)
(2.32061 0.669059 0)
(2.3975 0.473824 0)
(1.24822 -0.0985102 0)
(-1.56165 0.649074 -1.21412e-18)
(1.57668 -0.612489 0)
(2.31694 0.390045 0)
(2.03676 -0.0135779 0)
(2.94394 0.030981 2.00124e-20)
(1.19562 -1.02448 8.55517e-20)
(2.22894 -0.825033 -1.27684e-19)
(1.45399 0.0341223 4.37787e-20)
(1.9745 0.181972 0)
(1.65298 -0.726652 0)
(2.17174 -0.600263 -2.52883e-19)
(1.68177 0.370118 5.24989e-19)
(1.2504 -0.614864 -1.31487e-19)
(2.02343 0.0633242 -7.56053e-21)
(1.85727 -0.506301 3.19203e-19)
(1.16997 0.303576 -9.03307e-19)
(1.58739 -0.768078 0)
(1.34804 1.10849 -5.15263e-19)
(0.573498 0.156139 -5.80043e-19)
(2.75424 -0.218063 0)
(2.0769 0.0403057 0)
(1.88943 0.0548202 0)
(1.94133 0.0739297 -3.27809e-19)
(1.51812 0.135434 -3.7112e-19)
(1.73229 -0.0233683 0)
(4.25206 0.892033 1.9889e-18)
(2.0069 -0.882906 2.72329e-19)
(2.67785 0.015495 2.93665e-20)
(1.35305 -0.680545 1.00279e-19)
(2.16927 -0.251067 0)
(2.16713 -0.0842479 3.36587e-20)
(1.87711 -0.45219 0)
(1.43333 -0.349319 -9.64295e-20)
(1.94937 -0.87183 0)
(2.35963 -0.792319 2.5206e-19)
(2.49457 -0.311003 6.67616e-21)
(2.01301 0.025507 -9.90505e-21)
(2.67958 -0.0303058 0)
(1.99425 -0.835409 0)
(1.755 -0.749603 -4.08788e-19)
(2.21329 0.129893 3.26223e-21)
(1.5127 -0.667292 6.16858e-20)
(1.04539 -0.50402 3.68132e-19)
(2.03404 -0.112989 0)
(1.67024 0.0820713 -5.51496e-19)
(2.16585 -0.0327789 -2.49734e-20)
(1.60488 -0.0539672 -1.85668e-20)
(2.02861 0.0152027 -1.25746e-20)
(2.02627 0.0212374 0)
(1.37405 -0.449641 5.11968e-19)
(1.15445 0.072507 -5.76456e-19)
(3.12188 -0.469597 7.97918e-21)
(1.91382 0.0778917 -6.03469e-19)
(1.36938 -0.690885 9.07813e-20)
(3.4348 -1.56579 -2.37627e-18)
(2.70722 -0.223166 1.76216e-19)
(1.94885 0.0222255 -2.9811e-20)
(3.39868 0.137209 1.82551e-18)
(-0.246839 0.461231 -3.16348e-20)
(1.50875 -0.748314 1.65031e-19)
(1.51563 -0.695233 1.32847e-19)
(1.89797 0.016436 1.33991e-20)
(2.41027 -0.0131757 0)
(2.28743 -0.952539 5.97282e-19)
(1.44868 -0.701824 1.91329e-19)
(1.76462 -0.319727 1.9252e-19)
(0.25378 0.960342 0)
(1.77634 -0.470802 -5.17971e-20)
(2.0841 -0.043567 3.70062e-22)
(1.90604 0.104205 0)
(1.5577 -0.738331 1.44481e-19)
(1.52809 -0.551025 3.39283e-20)
(1.9659 0.120671 0)
(1.23885 -0.500733 0)
(1.64393 -0.0168334 -2.29143e-20)
(1.58145 -0.174835 -7.88381e-21)
(2.38482 -0.140704 1.14811e-19)
(-2.07952 1.5838 0)
(2.05018 -0.0224106 -2.98663e-19)
(1.87343 -0.19213 -3.17484e-20)
(2.44455 -0.754681 1.12052e-20)
(1.40078 -0.559931 4.52252e-19)
(1.56229 -0.761253 -1.27751e-19)
(1.57895 -0.70878 7.71163e-20)
(3.1393 -0.437992 -6.90713e-21)
(1.78278 -0.454921 0)
(3.52596 0.424046 -1.53221e-18)
(1.75062 -0.69862 2.05538e-19)
(2.18347 1.61015 1.67615e-19)
(0.971614 0.43362 0)
(1.33495 -0.342309 -4.56424e-19)
(1.40989 -0.607408 -5.48797e-19)
(1.59018 -0.778305 1.569e-19)
(0.965448 -1.10765 -3.00159e-19)
(2.98659 1.70475 0)
(1.33472 0.763826 -1.05999e-18)
(2.29232 0.37871 0)
(1.47792 -1.9823 -4.3375e-19)
(3.66274 -0.639076 2.61537e-18)
(1.69183 -0.944918 0)
(1.59672 -0.757262 5.48366e-20)
(1.77597 -0.210889 -7.9983e-20)
(0.96121 -0.739617 8.93939e-20)
(1.85025 -0.724276 3.66674e-19)
(1.39537 -0.69048 -3.89997e-19)
(1.39071 -0.640017 0)
(1.98413 -0.00788498 1.09738e-19)
(3.31523 -1.53693 0)
(2.26283 0.158904 -4.44882e-22)
(-0.581423 0.534417 -3.00568e-18)
(0.760404 -0.327265 2.46888e-19)
(2.03624 0.0472889 0)
(2.08143 -0.811672 -2.56793e-19)
(2.20034 -0.382297 5.87922e-20)
(1.60633 -0.727041 2.01019e-19)
(1.4925 -0.510144 0)
(1.58841 -0.725897 -1.78927e-19)
(3.38855 -0.701571 -8.76054e-19)
(1.6923 0.073943 7.0017e-19)
(1.85532 -0.102127 0)
(2.05806 -0.0488706 1.08193e-19)
(2.81138 -1.42299 1.93467e-18)
(1.40637 -0.896322 -4.30045e-20)
(2.40626 -0.546259 8.22939e-20)
(1.42555 -0.722306 0)
(1.84618 0.00383897 -1.10953e-20)
(1.99895 0.0163955 5.47154e-22)
(2.76962 0.0680065 1.46074e-20)
(2.13164 0.00785097 0)
(1.66083 -0.7296 8.76463e-20)
(1.80293 -0.513693 -1.23166e-21)
(1.45703 -0.47467 5.59567e-20)
(3.75587 -1.02663 0)
(2.25849 -0.845333 -9.25524e-20)
(1.57639 -0.768417 2.71795e-19)
(1.87675 -0.440097 -3.98948e-19)
(1.06801 0.0686262 0)
(2.07336 0.458383 -2.00731e-20)
(2.28737 -0.811546 7.94426e-20)
(1.49124 -0.746256 -1.66919e-19)
(1.94726 0.0672731 0)
(0.773132 -0.48875 3.34685e-19)
(1.64795 -0.00684836 0)
(1.70675 -0.765213 1.77892e-19)
(1.59746 -0.225517 0)
(1.9059 -0.168322 -1.96496e-19)
(2.24048 -0.197865 -1.89305e-19)
(3.69905 0.700856 -1.01801e-18)
(1.68094 0.095786 0)
(2.27931 -0.950604 -1.37103e-19)
(1.84407 -0.00134538 0)
(2.24411 0.146911 0)
(2.501 -0.991777 4.73309e-21)
(1.68098 -0.741641 9.76386e-20)
(0.791527 -0.193058 1.56276e-19)
(2.31637 -0.564131 -5.31097e-20)
(1.7103 0.199324 2.26215e-19)
(1.27746 -1.11448 -1.48085e-19)
(2.04428 0.290072 9.78945e-20)
(1.70352 -0.807042 -3.27371e-20)
(1.83541 -0.618982 0)
(2.2556 0.0573741 0)
(1.47326 -0.71481 0)
(1.29092 -0.666597 2.7793e-19)
(1.36821 -0.507303 -3.18671e-19)
(1.66901 0.0176696 0)
(1.21778 -0.640726 3.10915e-19)
(2.20847 -0.0457719 -1.22388e-19)
(1.38155 -0.708214 -1.06479e-19)
(1.5602 -0.588481 -1.01925e-19)
(2.47067 -0.934075 0)
(1.08837 -0.631409 2.77694e-19)
(1.4157 -0.666908 -3.3021e-19)
(1.66779 -0.99444 0)
(0.158745 1.38301 -1.65711e-18)
(2.02993 0.134081 -3.568e-21)
(2.10895 0.206941 1.18423e-19)
(1.91013 0.0143019 2.01525e-19)
(2.81738 0.464242 -3.88699e-19)
(2.23522 0.0358912 7.49709e-21)
(2.82343 -2.20623 0)
(2.14845 -0.816824 0)
(1.08412 -0.584126 3.25974e-19)
(1.00719 -1.48935 0)
(1.75153 -0.422506 -5.23958e-20)
(2.40753 -0.80511 -1.11248e-19)
(1.19182 -0.559707 3.85372e-19)
(1.98167 -0.0109914 -3.17284e-20)
(1.66388 0.242951 -2.2122e-19)
(1.71195 -0.682198 -2.03e-19)
(1.79833 -0.716402 -3.72308e-19)
(1.56117 -0.0933179 0)
(1.90219 -0.734415 3.45795e-19)
(1.9466 0.00616662 0)
(2.83869 -0.0474971 -1.43707e-20)
(2.14292 0.964627 5.60107e-21)
(1.9702 0.542607 2.39567e-20)
(2.41567 -0.265975 -1.49194e-19)
(0.379274 -1.06115 -3.98108e-19)
(1.29549 -0.62982 0)
(1.5929 -0.35556 -2.81562e-20)
(1.71547 -0.663478 -1.3993e-19)
(1.97585 0.365815 -9.76759e-20)
(2.02177 -0.793192 3.06786e-19)
(2.02689 0.0279295 -2.28664e-21)
(0.966663 -1.00928 1.2471e-19)
(2.31712 -0.944717 2.29579e-20)
(0.57524 -0.029959 0)
(1.42005 -0.734061 3.15968e-19)
(1.88771 -0.426288 2.08512e-19)
(2.02531 -0.0508814 -1.0985e-22)
(1.38826 -0.612143 8.05895e-19)
(0.638756 -1.4037 9.82841e-20)
(1.81151 0.405351 0)
(1.28033 -0.712151 -1.19524e-19)
(1.63297 -0.724505 -1.34326e-20)
(1.28492 -0.446561 -6.12227e-19)
(1.16128 -0.655642 1.41071e-19)
(4.06748 0.0988547 -4.53815e-19)
(2.16628 0.253365 3.42388e-21)
(1.16887 -0.504928 2.79054e-19)
(1.95411 -0.4255 0)
(2.37681 0.0944108 -9.46302e-20)
(2.09042 -0.0146586 -2.46468e-21)
(2.9121 0.188618 -3.3711e-19)
(2.59952 -1.70046 0)
(3.24831 -0.0178329 6.33678e-20)
(1.49463 -1.84897 4.08855e-19)
(1.79416 -0.771177 7.875e-19)
(3.07775 -1.77267 1.12598e-20)
(2.12264 -1.13971 -2.31933e-19)
(1.2618 -0.691551 5.28204e-19)
(2.20941 -0.80318 2.74341e-19)
(2.03086 0.0958372 -4.59754e-21)
(-1.33906 0.0439702 -7.11318e-20)
(2.31982 0.0220024 1.98066e-20)
(3.69926 -1.02815 0)
(1.99454 -0.0280957 0)
(2.33812 0.229833 0)
(1.95048 -0.74006 -2.95676e-19)
(1.60941 -0.278654 5.80976e-20)
(0.856745 -1.11023 0)
(1.42471 -0.473892 -1.31593e-19)
(1.72736 -0.865921 0)
(2.24678 -0.604259 0)
(2.34955 -1.9124 0)
(1.96854 0.000603737 0)
(0.823794 -0.472009 -1.01755e-19)
(1.76484 -0.821766 0)
(1.99807 -0.569462 1.59712e-19)
(2.00595 -0.0446617 0)
(1.99307 0.0234268 0)
(1.91206 0.173342 5.80637e-21)
(1.52288 -0.72977 0)
(1.80768 -0.41109 0)
(-0.750171 -0.0824583 0)
(1.98639 0.00702592 2.04002e-20)
(2.05563 0.0910731 0)
(2.60128 -0.961526 6.81304e-22)
(1.96778 0.234339 2.14351e-21)
(1.04781 -0.506501 -9.28914e-20)
(1.91239 0.116361 4.72697e-19)
(-0.392781 -0.0765599 -1.82392e-19)
(1.16372 0.622003 -4.81698e-19)
(1.50185 0.493766 0)
(2.58676 -0.0912154 4.4639e-21)
(1.74115 -0.274454 -1.8799e-19)
(1.74162 1.32718 1.16661e-19)
(1.99802 0.197323 3.00328e-19)
(0.999547 -0.392801 -5.94707e-19)
(1.69786 -0.735857 -3.13378e-19)
(1.87028 -0.617217 2.20891e-20)
(1.56458 -0.472877 0)
(3.08695 -0.368976 -7.18802e-20)
(1.5681 -0.442107 3.32219e-20)
(2.42675 0.0669671 -6.26293e-20)
(1.35174 -0.666025 0)
(1.91026 -0.0304433 -2.29176e-19)
(3.79152 -0.529293 -1.15342e-18)
(1.53654 -0.631303 4.12467e-19)
(1.44811 -0.657915 -5.00527e-19)
(1.91557 -0.873668 0)
(1.9638 -0.848983 0)
(1.87304 -0.50947 1.58817e-19)
(2.45441 -0.261501 -8.2449e-20)
(2.57851 -0.44649 -3.31515e-19)
(1.91756 0.0344847 -6.65914e-22)
(1.40395 -0.447049 -1.22455e-19)
(1.88188 -0.580801 3.34325e-19)
(2.31929 0.115657 0)
(2.24674 0.12201 2.81119e-20)
(1.58197 -0.783012 -4.17835e-19)
(1.72413 -0.408496 1.37935e-19)
(1.68374 -0.385546 -1.91579e-19)
(0.0738608 -0.287307 1.76154e-18)
(2.57561 -0.26614 2.76727e-19)
(2.51482 0.306141 8.8097e-20)
(2.24674 0.240735 0)
(1.47048 -0.656073 0)
(2.54661 -0.906426 4.05834e-21)
(1.34349 -0.366537 0)
(2.02771 -0.484059 1.36186e-19)
(1.73171 0.165365 3.9155e-19)
(1.71996 0.241198 -1.13436e-19)
(1.76664 -0.723754 8.07949e-19)
(1.99849 0.0310101 -3.10078e-22)
(1.92699 0.0246849 0)
(1.93935 -0.0323232 -2.09849e-21)
(2.33065 -1.89038 -1.21417e-18)
(2.1479 0.105159 0)
(2.93235 0.0510571 0)
(2.11473 -0.832786 1.0536e-19)
(1.9793 0.443009 1.52439e-19)
(1.2706 -0.277949 0)
(1.98013 -0.412125 -1.44319e-20)
(1.96837 -0.0861969 1.08919e-19)
(2.16341 0.144725 1.27768e-21)
(1.84414 0.356461 3.38335e-19)
(1.40305 -0.781898 -1.44123e-19)
(1.7073 0.160243 0)
(0.0518795 -1.06057 -1.54399e-18)
(0.70835 -0.327696 8.94718e-19)
(2.06948 0.0467295 1.26567e-20)
(0.844182 -1.65513 -5.10978e-19)
(1.9906 -0.80689 2.20008e-20)
(2.3261 0.0776055 1.70507e-19)
(1.80471 -0.619904 0)
(2.07077 0.0996933 2.81229e-21)
(1.86224 -0.0736464 7.18502e-20)
(2.22518 -0.0147355 -1.10453e-19)
(2.15211 0.333969 -6.62447e-20)
(2.48035 -0.836956 0)
(1.39097 -0.839252 0)
(2.32217 0.0511501 0)
(2.2247 0.0918401 -2.68633e-20)
(1.27481 -0.595291 6.03151e-19)
(2.62567 1.38413 -1.19345e-19)
(1.60832 -0.184098 0)
(1.39617 -0.67913 -6.71747e-20)
(1.36446 -0.673521 1.11163e-19)
(1.7511 -0.790274 0)
(1.94627 0.207074 -9.64064e-20)
(1.7467 0.130294 -1.33134e-19)
(2.19866 -0.271402 -3.5136e-20)
(2.01992 0.0227956 -9.53353e-21)
(0.897009 -0.354795 0)
(2.05164 0.0759261 -1.09725e-19)
(2.16747 -0.414213 0)
(2.15471 -0.272122 8.40585e-21)
(1.15492 -0.0436982 0)
(2.21301 0.530025 1.23761e-20)
(1.87323 -0.745902 -3.53855e-19)
(2.3643 0.451973 0)
(1.88028 -0.0988512 -3.44739e-19)
(2.02731 0.0376763 1.33542e-20)
(1.85962 0.0110659 0)
(1.36514 -0.646505 0)
(0.736061 0.0339692 -7.76169e-20)
(2.31667 0.147196 -8.5672e-21)
(1.48792 -0.42554 -4.1578e-20)
(1.64542 -1.22624 1.85077e-19)
(2.27864 -0.104202 6.2251e-21)
(3.52452 -1.50854 8.52386e-19)
(1.78612 0.218557 -1.45637e-21)
(2.09432 0.319242 0)
(3.04864 -0.232826 4.45197e-19)
(1.96517 -0.884097 0)
(1.71005 -0.774587 -3.41629e-19)