/*--------------------------------*- C++ -*----------------------------------*\
| =========                 |                                                 |
| \\      /  F ield         | OpenFOAM: The Open Source CFD Toolbox           |
|  \\    /   O peration     | Version:  2306                                  |
|   \\  /    A nd           | Website:  www.openfoam.com                      |
|    \\/     M anipulation  |                                                 |
\*---------------------------------------------------------------------------*/
FoamFile
{
    version     2.0;
    format      ascii;
    arch        "LSB;label=32;scalar=64";
    class       volScalarField;
    location    "4.9";
    object      p;
}
// * * * * * * * * * * * * * * * * * * * * * * * * * * * * * * * * * * * * * //

dimensions      [0 2 -2 0 0 0 0];

internalField   nonuniform List<scalar> 
13486
(
17.5232
14.9956
4.75888
-1.90166
3.60657
1.56734
-0.536398
8.43779
11.495
9.44595
-36.0609
5.48038
18.2222
1.93019
2.21553
9.8841
-32.6189
-40.6935
5.98083
16.0971
-9.99817
18.0351
14.7604
-5.85646
8.23572
-4.14557
-33.0223
1.51513
0.533311
4.27669
-26.3092
1.24607
-5.84133
6.44396
8.50881
0.336735
1.1539
13.7013
-20.4031
11.7707
-4.39567
18.8221
1.52383
8.25269
8.15018
5.5145
-35.5686
0.547122
1.12374
-1.55404
11.3947
-6.23099
3.89077
14.0827
-62.8899
4.0856
1.84033
-8.87671
-5.34231
1.15373
-29.9755
1.26351
-21.0327
-10.9307
-39.4889
1.1802
-1.61993
17.9588
11.391
-0.467674
-1.06006
-50.7011
12.3859
-25.2318
1.31678
1.76333
1.39671
1.95487
-41.8014
-23.331
0.199943
15.3755
-22.6034
5.12929
17.5677
13.4796
-8.31214
10.9683
12.8227
11.2385
0.204546
7.04758
16.6759
15.595
11.6468
0.131071
-32.5917
-2.73766
11.8147
-33.5808
0.375632
2.3833
-3.64642
-7.72924
15.3
-33.9307
12.5672
-32.8565
-38.2396
5.83087
10.6781
-1.64433
14.068
1.41597
20.8106
10.6877
8.5272
6.91868
12.4796
1.17146
-39.411
-30.3381
12.369
-24.1383
10.4089
-6.38962
8.06013
5.12422
6.90294
-52.8826
-5.88967
-34.4974
-20.6427
-26.2072
11.7554
11.2418
23.1007
5.99541
1.11932
9.05131
-4.42918
4.21166
3.41295
-25.5705
2.1816
-21.6555
6.45774
21.9054
-2.03744
0.179708
8.43453
1.44611
0.166858
15.6992
5.6728
4.77212
3.54724
0.807564
12.2429
2.0117
-0.733353
12.2393
-7.05993
18.5983
-6.98634
-0.0398362
3.36421
24.3448
6.29632
-26.22
-21.6841
5.71743
9.59528
5.98827
0.25854
-18.9124
1.415
-6.40257
12.5898
3.51695
11.0043
1.22774
4.83781
-20.4749
5.75388
1.35207
-0.141513
5.25562
-3.74226
11.8132
1.17211
3.6108
-13.0414
17.9961
-15.7965
-35.5239
-48.1666
-0.423839
15.6187
0.613287
-28.7667
5.0104
13.6634
1.82675
2.16797
-13.1933
-49.9932
13.3591
-15.0789
5.647
3.39843
-8.17712
15.9247
12.5569
1.51418
10.3631
3.67582
11.2875
15.7834
-10.2179
-32.8994
-2.24046
9.33748
-0.718153
4.40192
16.6838
-0.16736
-28.4682
11.3587
-10.9238
10.8957
-15.5147
-4.73387
19.3483
-6.93136
16.0911
6.61583
3.87262
16.3392
5.80468
-5.60334
9.51798
1.84233
15.3105
-31.9472
14.0992
6.64805
-0.732934
-26.1522
8.89774
-11.1726
21.0623
9.92066
-36.028
-3.61455
-20.6705
1.1778
5.30429
-5.88398
-5.05744
13.9041
-22.4414
2.17823
-19.6734
3.76554
-20.8724
9.37525
-21.6602
11.9276
-21.9741
15.1098
12.3844
3.69424
5.34952
16.7936
-0.194109
-5.99057
-135.592
-57.3616
6.36502
-128.154
9.77775
12.7417
-11.6799
-27.9251
-35.6273
-5.0121
6.33653
4.66851
11.9959
-6.74131
-1.24951
11.6011
11.7865
7.05928
6.01403
-0.737901
5.70684
12.9432
-2.16059
-7.81312
-50.7236
6.57785
1.3218
1.01259
0.722463
-14.9593
6.61164
-15.8
1.22864
-16.4773
-2.1866
3.36792
-1.6147
-32.318
11.4011
-1.02028
12.8585
13.4374
7.97739
1.15965
-2.64344
12.5053
15.7412
22.633
0.0134169
6.39233
9.59041
6.1795
5.72676
11.0258
6.555
-1.09642
17.3364
-2.41973
10.9589
21.2845
1.74228
8.98745
-23.0309
10.8593
15.6082
5.41283
4.87595
-20.479
0.265685
7.73285
20.4766
-10.3339
-2.28552
7.94275
6.02817
5.46663
-31.4781
12.8572
0.682901
-25.2876
8.05569
-23.0949
-0.750272
5.95311
0.211273
13.9537
12.4193
3.91373
0.0526983
6.50705
-30.455
16.2535
8.18905
1.16688
7.88279
4.58902
-13.4071
2.12304
11.4909
12.5294
-7.04647
-30.5698
-15.3929
11.7035
5.93264
18.569
15.3728
-29.6582
1.09362
3.54608
8.8525
-28.3799
-18.2144
15.6476
2.25044
6.97895
16.4529
18.2197
1.19848
-2.00367
-12.5816
-29.6963
-5.1909
-28.886
7.77059
10.8791
-12.6799
-0.205478
2.58952
15.4747
-6.03389
8.3584
14.4661
8.51598
1.0423
0.686697
12.9705
12.4668
17.6619
-19.1453
4.03786
-23.0475
5.86739
12.5936
-12.9889
20.555
9.29134
-0.628746
5.88354
4.93093
12.7587
-33.4638
3.81469
17.9763
10.9445
6.85695
4.99065
2.35395
-2.34479
18.5716
-2.55748
6.15341
17.6985
-29.5401
3.17165
-27.0582
0.718684
-2.40615
13.8619
16.8964
18.0519
-15.4646
1.11238
-21.0815
9.14953
13.026
-1.38568
-3.33009
12.3275
-9.14343
-20.0594
-11.5812
-19.0209
3.82816
14.8975
0.289261
3.9491
-6.15905
12.348
0.17078
22.7589
16.7285
12.0534
7.60382
0.584693
0.382658
21.1956
2.9715
1.16209
-0.726546
11.0183
-35.6407
5.69609
9.81629
0.864079
-0.974803
14.6662
-8.62354
-30.6239
9.30976
-16.5268
24.1384
9.39777
11.4675
13.4612
-18.8575
5.37955
20.3904
2.83885
15.7401
-1.71352
5.62774
-23.0795
-34.4111
1.42842
-35.4582
13.1685
10.5887
-11.7387
0.211975
1.2541
18.3134
13.9126
-0.808028
10.8565
8.36088
-0.731996
3.63214
11.5324
-21.43
18.3482
1.30072
-0.420132
18.8745
6.03374
0.222197
8.10185
-26.2692
-6.36539
5.98645
5.02982
12.515
16.7363
-25.8897
2.22628
-26.156
0.408236
16.0297
5.27538
-19.4556
-4.53161
-11.5821
-0.158852
8.28352
-45.8442
-3.27159
10.8584
17.1246
-24.9864
13.7769
-21.5693
-15.3547
-5.44424
6.74104
-22.6545
13.2627
5.35618
-28.9562
9.38044
13.4511
-5.08928
-24.8885
11.5145
16.2347
6.25211
17.684
5.19256
9.404
5.01091
13.4545
1.80894
15.7976
-32.0108
7.88693
10.3689
6.90177
1.89551
12.445
-28.6432
5.51459
16.6902
17.899
-66.5458
-3.34447
5.93757
3.26404
11.0436
10.7188
-0.53567
-31.2466
2.97324
17.1889
4.44742
4.09649
-13.2385
17.9611
-19.6413
1.47954
12.1773
7.07091
-28.3693
10.1668
8.65
6.17368
-0.205222
6.4951
-5.86217
17.6052
10.734
8.16661
9.0872
1.54989
-5.2106
20.0067
5.85381
19.9493
-26.9193
12.1664
0.450633
-25.0949
4.93354
8.79808
20.9911
-24.0155
5.57725
6.05488
-11.0004
8.74702
-46.2169
0.735525
11.4173
-24.6515
0.645414
-1.55013
4.19236
11.2542
13.3988
0.218821
19.1598
11.5939
1.7033
-14.5029
3.61775
5.9746
-29.113
2.2711
-34.7241
16.0585
0.0332256
1.91239
-22.2701
18.6291
0.44882
-6.42073
18.7722
11.4646
-17.031
-24.6093
8.15166
3.69964
10.1914
1.8451
-60.3643
6.40467
11.1515
5.71699
10.0762
19.0123
1.56932
-16.7235
12.3926
-13.0637
1.36483
7.01408
10.0997
7.27228
-18.1149
5.35872
-6.08768
6.08116
15.9949
5.78984
6.27256
5.1398
-6.18188
-7.89223
13.4062
2.07638
9.65118
11.2528
17.2541
-27.6356
-0.930444
19.854
1.23545
-8.13359
12.5946
-1.4779
14.1082
2.13907
12.199
-16.6231
-25.8791
-4.38338
0.180213
-31.5404
8.25302
20.453
14.5368
-15.6596
-0.58911
13.6025
-23.2995
7.19032
-23.5962
20.5738
-17.6669
7.23018
-1.65109
8.68357
12.8436
9.06445
-13.6794
-11.9384
18.6606
12.4731
1.93712
11.1518
-4.40118
8.72603
8.20343
8.70795
-22.7925
-6.97733
15.2514
-2.01218
-35.1765
8.25717
-6.67103
10.1861
-3.92011
13.1091
13.5382
-15.6752
5.8542
-15.9899
-9.91161
6.00443
10.8997
0.0504371
12.1632
3.25539
-4.04238
13.2789
-36.9518
-71.7915
-55.9646
-1.4531
-12.9873
-2.6741
-9.38172
-20.9767
10.2228
18.28
1.19437
-65.842
18.7726
17.6843
-66.6122
-36.212
11.436
-27.7129
2.42698
-25.8553
3.37805
4.23882
-30.7826
7.1363
9.47909
-0.980397
-134.688
-5.08548
1.71877
9.49131
9.25953
8.04382
-12.9736
12.4319
17.2055
-54.5599
-20.5737
12.4918
0.154972
8.8652
-22.1061
5.82512
-12.6417
1.85588
12.8442
20.0571
13.2167
0.64315
2.02737
12.5302
16.9163
7.65511
11.8533
12.4797
18.4909
-1.71083
-5.74459
4.29543
6.01105
18.0353
5.86201
11.0641
8.62559
-3.18577
5.63168
2.12678
-5.76734
12.2979
14.3195
9.72935
7.69466
-44.5247
0.62092
10.5826
4.2276
-6.3899
3.29309
2.12244
-17.7247
-28.4016
8.04623
4.975
-26.0428
-30.4574
-23.3761
6.85438
-37.3017
-20.0567
13.5746
-24.1365
18.0053
-34.1271
-26.0283
13.1851
16.171
1.47669
3.58901
-1.98647
13.1184
4.29484
-13.2427
-41.8172
1.05076
-133.017
12.1934
1.81418
8.67366
-4.34537
11.1018
-33.9613
1.87976
0.705614
14.1582
-2.74294
-34.8013
-9.89376
17.9267
-21.432
-19.3294
-45.1617
12.4236
-13.7064
-2.53935
5.62727
3.70647
-9.86236
6.9645
-39.0193
12.1527
12.2846
13.2827
7.30938
-1.36108
16.205
10.3832
0.906912
13.4342
10.779
-26.9342
-49.2855
7.32843
2.34213
1.08869
14.003
6.72131
-11.6043
12.5072
-44.1962
8.94522
20.7405
2.09146
-8.99333
9.53981
3.10868
-4.06345
3.73386
-6.34399
12.4197
1.66378
1.25637
1.70868
-18.9062
14.6046
-16.144
0.0895956
12.5382
2.92895
17.5394
14.1362
15.4968
5.57478
10.2962
3.78821
4.51722
7.26625
11.6907
-13.6445
6.65675
-31.7184
7.79238
-21.5514
12.3104
-15.7463
-6.46915
-15.7563
-14.8841
0.836517
12.7342
0.779685
-1.06852
-26.4041
12.517
20.2815
3.46051
-25.5201
8.5538
-37.3229
12.3065
1.66015
-31.6053
13.7787
-4.7489
19.0552
8.30122
12.4697
5.22615
15.3752
2.481
14.2126
1.28087
-5.41453
1.50192
-21.6846
7.75118
-9.01628
-13.1329
18.0843
12.5015
13.7332
16.4907
13.9494
14.1751
13.9472
11.6001
12.5281
12.8496
5.42267
-0.217465
-1.03772
0.945452
1.70977
12.4946
-26.4994
22.0806
-4.35397
1.69929
19.9729
16.9113
6.62611
-8.53234
11.9667
8.16164
-5.5149
10.3983
-27.5938
-0.855221
12.4497
16.0237
-27.329
12.2321
15.2464
0.135908
-0.598644
15.4856
5.97774
1.14236
-29.0709
5.13663
-5.46448
12.1103
13.1977
0.52581
-44.1075
3.07558
1.56634
-4.04274
5.63028
17.604
-5.61677
22.2171
12.3763
6.00321
13.6078
-17.3004
-22.4407
-12.6297
12.45
-27.2233
-25.5101
-39.0311
7.59197
8.96124
-14.9395
6.31412
-25.6945
4.40129
-15.8019
-4.25143
9.44768
4.16174
15.0337
12.8237
13.4223
11.3855
6.45308
-3.78503
-2.84456
5.29506
-61.2623
7.75602
9.27162
-35.2657
-0.564427
0.550027
-7.82888
-23.1475
8.65545
8.0873
3.41343
2.37585
5.43001
-2.23806
-1.80906
5.7057
-7.28134
12.2305
10.1312
14.5727
-27.2475
11.654
1.82316
16.4259
4.87737
8.05909
-19.2769
1.63225
18.8544
20.8303
9.74353
3.60868
9.69373
10.1665
19.0305
6.49893
-5.07867
-22.5945
5.57535
-2.20698
-41.9294
12.4746
12.0621
-5.83869
-1.51606
8.12642
11.0936
20.833
-18.2279
10.6777
-29.5708
10.5987
17.3094
3.45541
8.92851
-79.496
12.672
6.15271
21.7892
-3.62419
-0.66015
7.71033
5.67475
-22.0576
-26.4016
-26.598
13.9437
2.11533
4.02542
17.6885
16.5099
-10.8631
-13.3794
-3.94074
4.69646
13.0081
11.7704
15.9368
7.91101
-45.5755
16.782
9.62245
-11.8298
7.70347
13.0927
14.2647
-24.2298
-11.8113
0.509075
11.1952
18.4775
7.12088
-8.31284
-5.4668
20.9159
-52.4753
-4.39228
19.2449
11.4258
1.0334
8.91562
-1.81437
5.11149
5.59969
-49.5352
-15.1964
-14.4686
3.28662
12.1175
-28.6989
-31.6957
-32.2743
-2.66456
-29.0625
-11.671
17.3803
12.0383
3.35633
-26.2473
0.628388
4.53333
7.11674
22.0884
6.02689
-2.17208
11.4394
11.7328
-15.4911
8.15115
7.90111
12.0667
22.5578
0.497594
2.68411
-5.25106
5.75274
6.52703
10.434
-0.723885
16.9163
10.5662
13.1921
-25.5559
-46.9889
2.73421
11.4753
12.5686
11.6553
12.6618
20.7699
19.8972
12.4701
11.4723
15.3638
-2.04531
15.9092
-3.98021
19.6069
15.8256
3.21404
14.0923
7.87936
7.72014
3.96688
13.1125
-3.78409
10.1571
1.58458
5.81095
1.62776
12.1427
-3.79841
1.77472
18.9066
18.7263
6.71317
-26.1349
5.56951
-4.84496
-0.794127
11.1444
16.893
-26.7465
12.8826
10.8343
6.01856
11.4451
-19.7473
-94.9266
0.444838
21.708
0.299402
-1.29188
14.5707
1.41762
1.81957
7.64238
5.50375
10.4065
0.998955
5.01413
7.95708
8.2174
6.17759
7.3916
20.2518
16.7703
13.938
23.259
18.6453
3.81615
-5.02649
-53.7113
-5.27396
18.7799
-40.4314
11.8749
9.98566
-16.7065
4.5201
13.4214
-5.71468
6.28519
9.82278
22.767
-30.966
5.84004
-0.32851
12.5948
4.78423
-9.95394
18.4542
15.5054
10.9663
12.4034
8.8472
1.23122
-35.2376
19.8243
1.3465
21.65
-11.1122
-8.27257
-25.4048
3.49817
-25.2169
-1.163
-45.527
6.12766
-7.47287
6.08409
-7.18455
0.0744441
-118.774
-28.1345
1.14023
-14.4263
-0.0767748
-1.57189
-7.21477
-27.7566
11.0931
11.368
17.2088
12.3358
4.42711
5.98938
24.8455
11.6425
-34.5623
0.335986
1.95952
10.4667
10.2879
16.8628
-4.89407
-4.90293
7.8726
0.065605
5.63592
15.5571
-26.8669
-19.2203
-33.8692
20.0723
-1.88542
8.57266
15.0635
-11.1818
8.34812
-2.34141
-30.469
-28.4443
1.92946
9.59386
13.4464
14.821
-15.1962
-27.7015
5.54807
-46.2554
5.05847
6.41904
0.502063
-14.4584
-29.0654
-5.30752
-30.3061
-4.28199
17.6603
-8.61316
19.6704
-22.6809
-23.0728
3.15826
-15.9238
16.3073
10.4197
15.1862
0.643911
2.38636
-31.4701
15.7169
-26.5252
10.0919
-6.73189
15.6987
16.4637
-10.1761
12.3153
18.7084
12.3817
13.0594
-14.1349
-43.6887
4.4991
-1.15197
-62.0826
5.29294
6.39356
4.8545
-34.9245
5.64403
2.01129
8.8796
6.91741
2.81888
19.5589
5.60415
0.475347
5.9011
12.2737
-38.6011
0.436255
12.3927
-1.93891
4.58204
0.872239
11.4119
12.3067
11.9338
-39.5425
12.1531
14.169
12.9973
10.0916
1.8782
5.27597
9.80263
-5.22268
-22.4833
-19.6136
-9.80074
-2.0953
0.441409
-33.3096
1.3025
-26.3614
-2.3628
-23.6513
2.02084
-20.0208
6.43686
-23.7695
13.2645
24.468
6.47235
-111.161
7.42536
4.07197
5.5117
0.794955
5.36877
-17.1574
5.31186
15.2574
0.668815
18.353
0.802028
11.9051
8.53521
5.00394
-25.3823
4.41615
21.2377
-6.41062
12.3495
12.2081
16.8373
5.027
15.4643
11.652
-25.3282
12.5743
-31.6183
-42.1223
15.7724
11.4414
-12.8721
5.16949
15.5448
-5.14792
-21.1636
1.3898
1.85505
10.9279
8.1499
13.0067
9.88396
10.1575
-14.9241
0.980734
14.463
12.7968
21.5894
4.43887
-56.9175
-25.0738
10.6851
5.27702
5.12968
2.07867
-38.7466
8.32503
-15.4477
-1.68401
21.5681
7.07118
-32.7369
-24.9375
-4.12658
-2.16442
-30.2403
-4.97245
-19.4968
14.8709
8.08107
0.332812
20.006
0.371537
-29.211
-85.488
-42.5255
12.2917
-24.0859
6.0384
11.2336
-12.1457
8.788
-114.569
-35.2027
-28.3404
13.7389
-24.5194
-2.19922
-34.2708
12.224
13.1028
-2.16342
14.9866
13.6415
17.5105
18.4119
12.5156
5.77893
21.881
-34.6889
10.5163
-1.01402
-16.4782
15.1318
-15.8939
18.4423
7.56799
-7.77549
-23.0885
-29.9601
13.4706
-22.2449
-51.1774
6.23818
-1.45682
-41.8253
8.92088
4.58418
7.62636
20.0703
-26.3194
-4.57571
6.53584
11.1729
10.723
-5.37446
24.2838
-5.01582
1.90361
10.0035
-6.40515
12.083
11.7049
13.3675
12.7584
-30.3697
4.93439
11.3481
5.56016
-23.9177
0.430611
12.1468
13.5548
15.7413
-10.572
4.72824
2.83249
8.76173
-0.0697616
-11.2662
11.0636
-102.53
11.3789
12.9487
-32.1454
18.1557
-13.1138
20.9185
13.0088
-22.0674
0.810053
1.27708
9.43813
13.321
-21.5248
15.6172
12.2456
3.38169
1.6962
5.59321
1.27798
3.12311
-32.8276
5.39587
-30.4862
12.3236
-20.9941
-10.5568
12.9615
15.0429
16.2541
10.3271
-22.1263
7.69192
-25.4832
5.47554
8.37269
-14.9107
-10.2574
19.6016
-1.73385
-58.2711
-3.00779
-41.8359
-2.09793
12.4961
-32.3343
9.80871
13.3033
6.43779
13.2402
-9.66977
5.92447
20.2261
-14.791
12.6494
2.69262
-12.5766
6.09876
5.40754
6.08266
20.4616
13.1975
1.10186
20.5051
15.0383
15.1081
-43.4845
-20.6427
5.47649
-8.85432
-6.35721
-18.6285
-7.61856
-17.1634
8.78762
6.09621
5.33821
6.68322
-10.9783
7.04086
12.9659
-51.3758
11.3646
8.97304
12.3818
-24.942
0.836943
-2.86829
-30.3918
-7.34955
9.07846
12.8962
-16.9246
17.6625
-16.4982
12.1246
5.05434
0.467681
-1.15279
12.3395
7.74713
5.36056
10.1685
5.53656
-50.0419
16.5267
15.3629
-4.43165
-15.1358
-1.63935
11.6058
3.08925
1.49436
-14.0879
3.00315
3.36353
-0.617132
10.1669
8.27836
-7.64897
7.69464
2.82387
-1.80207
-18.1268
15.2838
-3.03752
12.2118
0.0949699
11.2639
12.7372
8.49348
10.64
-5.46965
-8.91456
-0.417457
-20.9586
-15.2887
-8.22748
-13.176
-8.36462
10.7318
2.39696
12.2409
-19.5097
-43.4044
-12.5331
-3.67141
12.6559
-28.9797
11.5615
5.56173
-16.0099
-9.02878
-4.3976
8.42151
12.6898
-1.33794
5.65682
-23.8653
12.9176
-9.35714
2.04312
-19.9192
14.8895
6.43764
0.978433
13.1081
11.831
14.1103
12.053
15.7153
-15.3686
1.89255
-120.729
10.088
9.14376
5.59707
-4.89207
-8.41853
-19.94
5.07414
4.39466
-20.9368
20.8287
-15.9003
13.6702
8.29996
-52.1084
-7.26363
2.77132
-57.9911
3.95508
5.84139
12.1083
0.17445
12.5307
-13.1759
1.49404
-9.46132
-1.16079
-10.3751
13.8817
20.1777
13.411
3.86242
-2.22595
9.99763
-33.7291
-19.9543
-25.5072
-5.15683
-4.90221
-23.3427
-11.2648
0.857809
10.0654
10.5363
-21.6955
5.64746
13.859
-0.93055
-11.2406
13.4716
-5.5408
-31.1296
1.69397
1.1072
0.731053
20.0849
-22.6316
10.4423
-6.90941
-3.23971
-0.730179
11.2372
-0.33128
8.72686
-4.13103
-2.39604
3.30856
-1.62115
14.2279
10.2887
4.73646
-121.201
6.76346
20.7861
-8.93073
13.2014
13.9457
3.78646
-5.67589
6.09613
-24.0925
9.98003
11.476
8.83728
11.5127
-16.1304
13.617
4.04497
17.198
-2.75366
11.6465
15.1558
11.0838
4.16298
-17.7587
5.98319
-39.2588
8.44083
7.44357
14.0758
3.84097
17.4275
5.68535
18.5928
-9.59431
14.2541
1.65573
8.61143
-32.5369
12.1409
5.36212
7.41808
19.6851
12.5579
4.33222
0.74638
7.01769
11.9689
-3.23377
-29.8769
8.51564
1.91816
15.3651
-1.81173
17.8495
5.28396
24.7946
18.5757
6.72365
5.5115
-33.307
3.54886
19.4238
6.31815
2.47045
-16.8199
21.8881
8.14712
9.66167
19.4419
-3.54956
13.1597
10.505
13.5403
1.83888
12.4888
12.2115
15.8301
-7.01677
-42.0736
5.82762
-4.77466
4.9977
-3.40656
-0.420232
16.4705
16.8779
1.45675
0.250409
6.07104
14.7656
9.69565
10.4987
8.88459
-99.6245
-20.0526
-8.79331
12.8668
-12.8457
-58.0922
9.46922
7.36625
6.30835
-0.117296
20.6831
-9.77548
17.6377
-0.384556
20.3572
5.20736
-1.80951
0.974669
2.62613
10.0878
12.3554
2.62036
-71.3637
-11.7385
-47.5702
16.5386
0.269191
3.00245
-14.9585
-83.853
-0.237665
13.7667
3.40795
1.57896
1.39963
12.474
21.657
-5.65392
2.91913
10.8976
-26.0255
7.72484
-10.6997
6.36865
-78.7943
-23.4247
6.58527
-87.272
-9.64627
5.79336
-15.0648
-24.5605
3.21037
10.6014
12.7673
11.3258
20.8987
-33.3814
21.18
-21.2191
19.7097
-21.2262
-4.16604
20.1923
7.01512
-67.9336
10.4365
-7.0374
11.9649
-19.0805
-33.656
5.76903
2.06964
-0.423645
0.29353
1.51887
6.73178
13.896
-17.0977
7.1127
-13.0256
1.57653
-17.2771
-2.82677
-10.5294
-9.8134
-9.82162
17.7289
-1.30103
18.7763
5.86034
-29.7274
6.50485
-5.12196
1.13797
11.2721
14.6641
21.7415
10.3296
11.6682
3.37076
-25.941
21.069
21.795
13.6124
-2.98829
-14.8754
-40.2422
10.6332
6.12782
3.06055
13.0277
-37.3581
-1.04674
-51.7983
19.2241
-6.84499
4.06658
-10.2836
10.3853
11.2049
23.805
22.3718
10.728
5.71661
-0.148641
-17.5099
7.8434
22.8271
-10.5286
0.940647
7.32653
0.39078
5.34852
1.67035
-0.0245986
5.56741
2.98251
6.72237
1.26155
6.05177
16.1907
-0.618793
12.7497
-13.2984
-0.174335
19.4303
-13.3842
-4.51026
-1.21451
7.23799
6.53395
-2.32917
-2.76826
2.02978
0.122399
24.1682
-26.0417
-18.8217
-5.49712
-1.96077
1.26328
-0.938966
-1.20279
-14.7743
1.01116
-20.3763
-4.37627
-1.32228
6.37438
4.29387
3.87178
23.5742
3.92909
5.75621
-14.3809
4.71941
-27.4464
8.86076
16.9743
12.4441
5.94807
-82.2091
11.8205
12.96
-21.4316
-22.9644
-24.2776
16.9379
-0.414776
11.8504
3.24488
17.8306
5.50956
-16.7112
-9.10481
13.3791
3.07372
11.632
-3.65189
22.2971
-2.68255
0.707123
-37.6879
8.22305
-4.55892
-4.26797
-3.76409
5.89418
1.8997
-19.4964
-9.86436
-2.46188
1.11169
-9.23452
-4.46996
9.91311
-42.0374
9.79713
-5.38725
13.4754
20.7356
10.0078
-26.4864
11.1292
5.06008
-3.74532
0.26147
-0.462005
-34.914
2.36033
14.9849
2.00603
2.94727
-0.727707
-3.73913
-27.985
7.00029
12.4683
0.275033
-3.83149
-0.287768
1.22459
-89.5602
6.17562
-14.2143
-5.48758
13.2471
-18.0951
4.13747
-4.60736
-37.7105
-24.5869
-33.0477
24.4853
2.04592
-1.20881
7.96423
20.0921
19.4837
-20.5386
9.43629
12.4169
-1.33971
1.90138
20.3145
6.71118
8.83528
24.5697
0.382988
-0.371695
4.42316
17.7411
12.92
11.3272
16.1597
9.9016
1.3958
3.2156
7.46797
5.30155
-29.2281
20.1735
4.49083
-1.17107
1.28432
-9.51125
4.93005
-12.6884
10.4082
4.10343
11.794
13.4773
12.7499
-33.9546
17.9512
19.6548
-18.4831
7.74702
-16.0279
-28.9843
-4.00366
8.69086
-8.37808
-1.16101
6.27604
21.747
-32.3248
13.2034
12.4375
15.0189
7.48807
9.25605
-86.681
1.35608
4.24662
-10.4176
-52.6253
-11.7914
4.57823
-2.51884
14.4744
-19.6307
-0.623225
5.04462
-26.03
-9.7645
-32.4866
10.7743
8.49493
-12.8832
7.14707
-8.10753
3.23634
-23.5051
-20.2971
13.1961
-29.726
20.6564
1.19295
22.3351
0.12896
-22.431
5.44404
11.4099
9.59129
-16.9288
-10.0688
1.38602
5.84946
7.3685
25.1023
14.9848
1.43416
-0.179059
4.87268
-47.9067
12.723
-100.342
8.77558
-12.3055
-6.34326
-27.9146
0.311072
1.42784
-30.9052
9.28393
7.7544
19.2438
21.3696
-30.6441
-34.899
1.55713
-6.13187
19.9924
-0.886253
0.0808828
7.06042
10.0337
-42.2665
-10.2089
5.57792
-7.52548
9.54214
-43.7994
-0.528646
1.38188
-3.94858
-15.152
0.521771
-15.0609
-13.5653
12.4876
-23.8718
-15.8681
14.7926
-34.8827
22.1453
6.87472
11.9694
-9.82731
5.31412
2.36104
2.91376
5.79703
-1.74624
-22.289
19.8946
13.0287
2.77445
-26.9793
23.1572
-7.83425
-21.026
-11.8888
4.13249
-5.61947
-33.2314
17.6846
2.305
10.286
6.78876
-2.81765
-18.3043
-0.580392
6.77801
-15.5038
2.99087
6.27951
11.5933
-5.39391
-24.0581
-5.22607
7.9879
-7.07085
-6.67223
21.9766
9.37661
-21.8719
3.63308
5.50366
18.7811
5.3931
-23.5718
5.11447
15.3536
11.8332
1.63993
11.6455
-78.9064
19.7538
1.47628
12.9992
-25.3476
2.40882
1.26101
-10.1855
4.88137
6.22427
-24.8023
-7.22405
13.7303
-45.1497
2.01052
16.4877
10.6154
16.086
11.852
-2.90085
1.56882
3.19934
11.2603
-0.0201954
14.1081
7.58552
19.6907
-2.13313
15.7069
2.78122
20.5141
-2.99352
-3.32028
20.5149
-3.16792
7.12274
-33.3351
17.2771
19.9953
13.2871
-10.7013
12.365
15.0373
-5.07137
7.55496
-26.2553
15.9776
-4.65824
-12.9746
-35.3922
-36.1437
14.789
3.02659
-46.0402
5.89268
19.8443
-0.740678
1.82875
-37.0672
-4.65206
8.34279
-2.21821
12.086
10.9146
-49.3337
22.5424
-6.24715
17.4251
16.2292
3.50561
0.681813
9.71883
-11.3994
8.20996
9.24748
7.89547
-0.557528
10.9235
-8.00027
20.5096
13.624
3.51892
-6.50923
12.1668
-45.8958
9.31666
15.0552
5.46962
1.18522
14.7273
12.1712
-1.91995
-26.2597
7.38364
12.7668
19.6938
-25.0198
20.9328
22.7
21.3391
-118.625
14.5638
-23.6856
12.5078
15.2916
15.7886
12.675
16.8817
23.6497
11.5018
-24.4021
-4.52449
-20.524
23.6257
6.18889
-67.3133
-3.03524
12.6177
18.0605
11.7504
2.60616
-15.4219
17.4645
-17.7118
12.0108
-4.44397
7.26154
-1.5788
-0.512973
7.56581
-18.7661
-17.6056
-12.9479
9.3528
-44.4924
14.3064
1.2313
6.08976
10.9091
-26.268
5.17252
1.24668
-21.8769
-26.2455
-23.826
16.2389
17.9328
-6.88902
11.9213
15.333
16.081
1.61578
-18.2835
12.5581
-28.4008
16.3495
-18.4884
15.9304
9.48078
4.24192
15.2
8.21515
15.2622
3.28027
7.49314
3.00584
-27.4582
-47.7114
-77.0933
15.0163
-13.831
-36.904
-11.5738
18.4458
14.9551
6.91253
7.98116
17.2182
-12.9392
11.0579
-15.3196
0.728646
11.0396
-19.3117
-33.6178
-5.96916
-31.1054
9.48138
-22.3741
-23.5056
-45.4349
-26.0526
9.24271
20.2352
22.13
19.0948
-16.1503
12.0773
-26.2906
10.8897
17.5986
4.44916
14.7935
-10.1126
3.63712
2.01349
2.17192
15.9574
-2.39743
12.9269
-35.4391
0.465049
-32.5513
13.9825
12.8931
12.4013
-32.2583
11.0437
-16.8639
-42.0554
-38.4945
2.51871
20.0999
-16.4128
-8.40058
-6.04837
12.1369
12.1509
-5.87085
9.01539
-34.8048
17.4744
17.725
-38.2089
0.941348
16.6528
-26.5592
-31.003
2.89966
15.5711
17.1454
-22.9366
6.55461
2.22782
19.9485
-54.0542
-20.5941
2.19761
18.4313
2.8019
3.87016
-54.3689
15.6363
10.6072
15.7425
1.90569
-14.635
12.7413
23.1043
-26.3528
9.1762
2.61459
-51.7419
2.7168
4.08444
-4.94505
6.1955
-5.26214
9.28456
-46.931
-0.0379239
14.5252
17.0006
11.0212
-10.4317
-17.2085
12.818
-34.8321
1.72162
-0.804133
5.54361
-55.7289
13.8503
12.9904
2.52716
11.8893
19.3176
-94.8218
8.07253
13.8067
-36.0054
9.09913
-0.814992
5.08338
0.887062
10.6967
0.428007
3.53609
5.72453
-10.8061
15.9821
1.50823
-7.51826
-30.55
4.60386
12.8708
-39.9471
21.2427
-30.8941
-32.1554
-8.48408
15.3592
12.9271
15.2448
-23.472
18.5363
-15.4773
7.59749
6.3973
-28.6868
11.9455
5.30298
6.4745
7.05401
-21.505
10.8797
-31.7251
-24.0942
0.0351152
-14.7832
-19.2433
9.44503
19.1823
-0.36212
-24.4764
14.7535
-15.6834
17.2979
1.95485
3.11131
10.3106
12.6916
5.99348
-51.185
-0.0139364
2.752
5.66726
6.83239
-33.3521
-7.73921
2.11476
4.7242
4.48739
23.9307
12.1076
12.4641
17.386
4.71292
13.7597
-7.51432
-28.2542
-22.8678
12.4394
23.2345
10.9917
-4.02301
16.0401
9.80082
10.2406
-14.2048
2.59476
6.61453
21.3236
0.0286682
-0.587739
19.418
16.3732
11.4198
11.8085
14.2828
8.50133
-10.1477
-21.0844
12.6363
-26.2709
-27.4515
12.2968
-22.0782
-6.41766
0.310943
11.9314
12.3433
12.9621
2.53402
15.2294
15.5507
-2.94068
13.4814
11.8736
14.8448
11.4644
5.92312
5.53771
-5.37887
15.1949
13.2471
-24.1472
9.71945
2.35746
0.421782
19.0609
13.9826
0.558518
-20.2967
-4.49908
14.3626
6.96357
6.79194
-1.93972
5.91135
-77.3177
5.71219
-9.36166
1.43397
6.73827
-104.844
-12.9571
-33.1313
17.799
-4.34685
-19.4744
-13.1647
19.4121
-112.208
1.21765
5.13614
-39.6644
11.7017
11.9766
5.59707
16.6864
9.40508
3.0601
-22.5495
-18.7462
1.10327
14.6004
-27.9786
-24.5282
-54.6056
-53.4919
-19.8814
-11.0268
-19.2325
5.22297
6.5108
12.3417
14.7309
-71.2873
-25.0924
16.8095
13.3281
-22.1586
3.04316
-21.2809
6.11551
6.10954
6.85609
11.0991
-47.2196
-111.14
-93.1437
5.87659
-14.6313
-23.8252
5.52515
-16.886
-29.9337
-42.6908
-16.8795
5.1294
-22.3344
5.81306
-25.3995
12.4991
11.4937
-0.216585
15.5367
-21.5784
19.15
2.00395
3.32085
-5.36745
11.8699
7.38077
-26.6109
-24.7988
12.8342
14.969
19.9207
-21.9106
-28.7467
-21.4864
4.51393
0.718871
-32.5483
0.996337
-34.9988
7.19015
-25.3571
7.21566
-4.03074
-0.857779
17.7422
10.1065
-1.20914
0.0347862
-8.97278
-24.4021
16.4981
22.0444
-24.4323
13.6668
11.5984
0.291088
-16.5901
15.1685
14.9338
-21.561
-122.174
-21.7086
-21.7537
-4.7801
-36.0764
-3.39982
10.0706
-37.5295
13.7961
-30.4512
-45.591
12.0354
-3.91038
-36.1292
3.50071
11.3562
-37.2622
-1.29923
-49.0803
-30.2203
-35.4421
20.2123
-25.2773
1.22873
-25.3248
13.1188
-34.2834
-109.428
-16.8626
-36.4016
2.3678
13.0689
0.670799
-32.9079
10.3902
0.138545
-18.6499
-26.8262
-34.7827
6.93771
8.81261
12.529
-34.2083
17.1407
-34.8724
0.202673
3.36899
-11.7033
-20.4279
-33.9289
-8.54523
1.53179
6.94305
-20.1872
1.02369
-4.76049
10.4755
-28.4599
12.6377
-25.7778
9.02047
11.4528
-23.3309
-33.4169
25.1296
-11.8387
-38.6284
-29.8648
-3.39812
12.4168
-20.7232
-33.1798
1.87513
-56.5306
-21.0657
-26.1161
-35.0579
11.8776
-53.6014
4.28561
-52.351
2.41978
10.5244
3.37474
2.76424
-0.63154
14.8799
-31.585
-7.9955
16.0965
3.60489
-32.9407
0.99011
-23.0857
-4.13015
0.177678
14.8122
-19.0675
7.41482
-28.645
-19.1859
-48.5943
-54.1835
-20.8771
4.69962
-98.6011
12.4371
7.01618
-20.1331
20.5387
-21.3197
15.1162
16.778
-39.7896
4.33326
12.9076
12.2535
7.70933
-5.21382
-12.3846
-12.494
12.4597
5.71104
-3.79673
-35.6352
4.95645
14.791
1.42474
-44.0188
3.43336
15.8798
-8.17013
-9.28809
-0.51051
11.2295
5.27083
-51.3827
17.2034
14.9962
-34.8948
-13.1564
14.5591
7.93186
2.41184
9.49469
3.76363
-9.58444
-16.1197
-11.7591
14.9602
11.6746
3.8829
-0.346443
-28.2446
-22.0784
12.359
-14.1187
7.34805
15.032
16.231
-85.8081
12.4219
9.31426
12.0933
13.0318
2.02223
13.2428
0.266127
12.634
9.4844
13.2901
-18.1406
14.986
14.0766
11.5715
9.75721
-10.9184
7.2411
2.15464
-1.53614
15.364
17.5083
-21.9283
19.8374
-9.57704
-26.684
12.4549
13.0405
-14.1278
2.11536
-29.149
-15.0143
-2.68074
-12.1775
-15.2224
0.811042
10.5155
21.9955
14.1569
-71.8544
-10.5218
11.9156
7.95202
-10.6213
-9.8079
-18.4897
-8.67669
-26.2284
-28.7638
12.083
-14.0393
7.41903
1.2775
1.26979
-67.2328
1.60135
2.26531
4.30024
11.5139
1.22863
2.9718
8.38064
-25.2569
8.04861
8.28055
-1.2553
-0.396301
10.0105
-7.6826
7.20903
1.41981
12.4808
9.77403
18.3789
12.5109
-8.55825
0.543696
0.100433
-24.916
-1.41747
-0.0754699
-14.4811
-18.0374
22.3888
4.99413
-35.6722
16.9513
-5.84137
-2.29002
-12.1795
-18.3855
-26.4911
-0.361755
-6.40062
10.5673
-17.8682
-7.87252
-24.6327
-61.5364
-3.96396
-26.218
5.43305
10.6483
-2.37224
-9.24912
-7.20805
4.63162
-4.49472
13.1678
17.4018
-29.2431
13.3406
5.61306
10.0061
19.5072
-7.40856
9.0057
6.74622
7.15434
16.2712
1.66396
4.78832
-43.1351
12.8803
17.4104
-28.0455
-26.1055
-5.04671
-2.85631
8.07384
-4.54046
-12.9208
-27.6658
7.19702
-27.8319
5.58851
2.9236
11.5025
5.76214
-23.7266
1.43581
-11.8844
-103.82
18.6326
21.1356
15.313
23.0006
11.9704
20.1245
12.3773
10.3137
13.3027
-4.64742
12.0485
0.539705
-25.7013
17.2911
6.00697
-4.58768
20.456
3.20295
-21.5574
8.13282
7.29576
14.8096
-34.7159
11.9749
19.6474
-6.07026
-26.5054
-10.32
8.4581
-26.2312
14.5873
1.85263
14.9807
12.4573
-7.5448
13.6744
-1.14746
-22.549
-22.9494
-21.449
13.5523
-3.35754
12.5327
-7.03629
-34.0317
6.23459
-90.1004
-3.72051
-16.0291
-29.9401
13.9793
4.94482
-34.8176
-0.60949
9.84274
5.60718
-17.4106
8.00447
-28.5676
7.79297
-36.2524
9.51586
5.64487
4.8295
-3.94123
11.6582
7.60177
5.99138
-31.4395
22.5378
-3.84922
-44.2927
11.7273
9.84084
-35.5413
-3.75459
-16.6483
5.72052
4.99341
-2.72869
2.15377
1.26717
23.12
-10.9287
-8.07442
6.09081
2.5734
6.6375
10.855
10.8695
9.9202
-27.011
7.86993
-28.0934
7.42247
6.1799
11.3988
9.9373
0.601362
0.388916
4.38132
13.2422
-3.16289
5.30557
-36.9818
-0.990378
-0.953503
11.7679
-40.4029
5.10958
-36.636
13.4429
-35.4122
0.869944
15.2733
13.9005
9.16463
-10.3143
-22.0684
13.4681
-27.2963
14.9203
8.30988
-14.6404
12.5125
2.45084
5.89143
4.50867
3.62625
-5.20737
9.96037
-23.0596
15.7223
5.83712
23.4321
2.65921
5.64633
14.2146
4.23418
5.69607
13.0853
8.91582
7.19217
-4.48916
-14.8196
11.3022
7.64805
1.64559
-17.5896
-0.344809
-17.429
-36.1633
1.86151
11.6949
2.40276
10.8561
2.74925
19.9536
16.6876
6.76332
8.9582
6.54148
-32.8606
12.405
8.71364
3.64406
4.93371
14.6625
12.7655
-98.6939
-11.8206
-11.7293
9.9185
3.77371
-9.19523
13.1501
-21.1566
9.97307
-17.7052
11.7482
7.66588
-106.885
7.30089
13.4589
-2.9375
11.6552
14.7773
5.7734
10.9181
9.32705
4.18175
17.8561
-28.4993
16.1546
13.2989
-35.7213
-8.48439
1.23289
4.00356
-26.316
-32.9545
12.2059
16.7167
13.8903
16.5965
9.82954
15.279
7.24746
6.03448
7.63689
4.0852
4.1241
10.1893
1.90231
18.0664
3.76079
-54.0312
10.1572
17.0829
18.3268
-30.1756
5.86282
-3.72573
-25.9283
7.97269
-6.97246
-6.29563
9.12303
19.5108
-29.3375
-23.4835
-23.6016
7.33537
4.3626
4.63703
10.7717
10.996
-11.9728
5.92401
-11.2378
-23.069
12.1503
11.9747
12.8505
5.09586
-3.22393
6.18976
4.24179
-12.928
3.12209
9.92667
6.71787
7.12139
-2.24585
9.34211
1.08147
12.089
-56.5616
5.62886
14.2614
8.64922
-0.721114
-32.7016
-15.745
0.176795
9.89134
5.31426
-23.6732
12.5871
10.6842
-6.59972
1.57525
-4.13842
2.5504
-23.2436
10.0855
6.29131
1.53985
7.90988
-8.56636
9.02164
1.21788
3.13068
12.8904
10.5287
13.3134
5.09083
8.44667