/*--------------------------------*- C++ -*----------------------------------*\
| =========                 |                                                 |
| \\      /  F ield         | OpenFOAM: The Open Source CFD Toolbox           |
|  \\    /   O peration     | Version:  2306                                  |
|   \\  /    A nd           | Website:  www.openfoam.com                      |
|    \\/     M anipulation  |                                                 |
\*---------------------------------------------------------------------------*/
FoamFile
{
    version     2.0;
    format      ascii;
    arch        "LSB;label=32;scalar=64";
    class       volScalarField;
    location    "0.9";
    object      p;
}
// * * * * * * * * * * * * * * * * * * * * * * * * * * * * * * * * * * * * * //

dimensions      [0 2 -2 0 0 0 0];

internalField   nonuniform List<scalar> 
5098
(
-0.540543
0.40559
0.194559
1.69154
-0.05126
1.91339
0.146744
-0.162827
0.290049
0.187186
-0.56025
0.735447
0.0595125
2.17377
-0.0320478
0.0900087
-0.791472
-0.5821
-7.56719
-0.797686
1.24246
0.141602
0.536075
2.74919
-0.680206
1.84215
1.1739
1.12723
-7.03348
0.103654
0.538116
2.34618
1.33532
-0.643706
-0.102606
-1.09254
1.33731
1.37829
2.07498
0.742635
1.65492
-0.617763
1.81378
0.357361
-0.0618202
0.673619
-0.708737
2.38401
0.560219
1.72616
0.312584
1.6145
-0.884043
1.27646
1.91562
1.82195
1.32158
1.56817
2.35265
-0.0318817
0.142688
-0.703131
-0.1789
0.131976
-0.911082
2.20484
-0.0562582
0.282876
1.03097
1.47738
1.30209
0.158773
0.932706
-0.47927
0.133739
1.73452
-0.0310348
1.89766
0.335444
1.7442
-0.0214548
-0.744455
1.65895
-0.552565
-0.563872
0.000929296
3.14373
0.10193
-0.249779
0.11439
0.752397
-1.03245
0.761635
1.6912
2.08798
0.219045
1.44558
1.92252
0.150488
0.981094
-0.179138
1.85966
-1.09059
0.127074
1.88917
-0.327509
1.25739
0.289024
2.42428
-0.594874
1.57803
-7.1571
1.30002
-1.01425
1.196
-6.93821
-0.662712
-1.43375
0.121029
2.71587
1.55554
0.606936
0.239725
-0.767644
-1.14923
-0.814139
1.17493
0.597715
2.12261
-1.03209
-0.687451
2.2828
2.25171
-1.18848
-0.101129
-0.275096
-1.10164
1.24729
2.10691
1.24278
1.62527
-1.78119
1.03145
0.324602
0.64709
0.182944
1.04337
-0.0706145
-0.342602
0.759621
-0.543963
-3.7917
-0.0689082
1.36022
3.15306
2.64091
1.57285
-0.20154
1.66058
-7.59849
1.20774
-0.0271709
-4.98092
1.51309
-0.622852
0.510097
-0.0970071
0.196678
-0.679103
1.56847
0.222234
1.72947
0.281918
1.14147
0.672051
0.862093
1.62875
-1.0236
1.59218
3.08938
-2.46149
-0.613635
1.44555
-0.629569
1.4732
-0.717829
1.81198
1.32813
1.7058
-1.07081
-6.60267
-0.672327
0.873015
0.144696
0.5387
-1.02236
-0.801579
-0.363563
-0.00119019
1.52991
-0.720099
1.57546
0.0115496
0.470769
1.08126
2.63682
-0.447609
2.13787
0.804866
0.841058
1.35555
1.53168
-0.550278
0.571267
-0.240645
-7.62146
0.0914248
-0.559087
-1.11287
0.651691
0.660522
1.83304
0.120303
0.653038
-0.990534
1.24466
2.9666
1.2755
1.0665
-0.518815
1.37511
2.7939
-0.746622
-0.146415
0.339404
0.421342
1.10047
-0.876623
-0.640646
1.50643
-0.758564
0.320644
0.124406
2.4678
1.20157
0.767564
2.12929
-0.591854
-0.73784
0.694303
0.379632
1.06945
-4.45334
-0.795109
1.43542
-0.898937
-0.0910812
-0.0818178
2.3415
0.046741
-0.659425
-0.947193
-0.710622
0.947829
0.0405659
-0.655829
-7.71159
-0.511554
0.233121
1.53544
-1.03742
0.0624666
-7.16603
0.273905
2.31262
-1.60059
-0.57432
-0.419969
0.254037
1.25321
-0.690695
-0.155452
-0.994336
-0.237335
-1.36823
-1.241
1.44103
0.114291
0.527842
0.641269
-0.757479
-2.15497
2.47185
-0.0481047
1.0514
0.171943
0.0870044
0.564862
1.0748
1.33403
0.157759
-0.0816714
1.79158
1.12654
-0.663435
1.29321
-1.96707
0.868884
1.42242
-0.692623
0.753132
-4.54312
1.87763
0.102242
-0.0485136
3.10815
-1.24569
0.0622377
0.913835
2.56729
0.360351
-2.46399
-0.51225
-1.39299
0.0388097
2.11292
0.428082
1.31377
2.39476
0.138733
1.45038
0.917477
2.11022
0.114074
1.4332
0.235058
0.443861
1.7607
0.973003
1.43455
0.982622
1.50934
0.326496
1.30009
-6.8978
0.223902
1.19672
-7.80452
-1.38189
0.761101
-0.260067
2.58554
2.53916
-0.702018
0.0848397
-0.68836
-0.250154
0.531725
2.07649
0.157768
1.24921
1.14044
0.80106
0.123336
0.342279
2.33775
1.25356
0.828842
0.158895
-0.899835
2.25282
0.332744
-1.59048
0.170133
0.191235
-0.697042
1.47591
-1.63007
0.281754
0.124494
1.09014
-0.834085
1.39989
-0.0309774
0.334004
-2.00727
-0.0946149
-0.850579
1.60767
-1.07387
1.05515
0.441173
1.27808
1.58902
1.00341
-1.03968
1.76421
-1.38037
0.355284
-0.11396
-4.99888
2.51539
1.76136
1.26714
-7.17683
0.440613
1.25138
-0.647241
-1.58757
-0.285195
1.3762
0.0665606
-0.923833
0.077496
-1.55697
0.106328
1.11097
2.56368
-2.05523
0.622748
1.23642
1.80889
0.273662
0.727355
-0.68027
-1.04875
-0.299915
-0.0138913
0.309427
1.15882
-0.0272336
-7.24669
0.153679
1.30509
-1.79231
-1.55149
0.209153
0.586388
0.960186
-1.06572
1.54313
1.43837
0.889368
-0.886888
1.22965
-1.64636
-0.469996
-0.00763832
-6.83729
1.15685
-0.688699
0.912105
1.33164
-0.848488
-0.623899
0.364978
-0.640961
0.484546
1.23547
-2.3724
1.78482
0.114418
2.52899
-2.40298
1.59858
-0.561902
-1.016
-0.649227
-0.677069
1.61381
-6.31916
0.100422
-0.220957
-0.601621
1.18935
-1.24843
-7.9368
1.83955
-2.49029
0.771873
1.05311
-0.750392
-1.44262
0.866878
0.333899
1.3896
0.266384
-0.0571662
0.0950291
1.21098
-1.89944
-0.0652515
-0.311348
-0.973679
-1.11031
-0.0498899
1.97966
-2.50344
1.9044
1.41502
-0.592495
0.540558
-9.14883
-0.542341
-8.01044
-2.22304
0.862715
0.707116
-0.99375
0.00529974
-1.25672
1.27768
1.47668
0.510327
0.575188
1.20595
2.56731
-0.802908
-0.0980209
2.03354
-0.646562
-0.04083
2.5043
0.129531
-1.55207
-0.0476346
-0.624107
-3.40477
1.13121
0.165935
0.444461
2.93642
-0.603745
0.00564295
-0.136847
-0.169123
0.330123
-1.37768
-1.00251
-0.729074
1.23382
-2.36448
-0.84494
1.52719
-0.841567
-0.69726
0.0454291
-0.134771
3.01143
-1.7166
-2.19924
1.42424
0.260144
-4.80946
-0.299768
-0.545886
-0.668146
1.88848
-0.643603
-0.241072
-0.574975
-0.0132068
1.46343
-3.29731
-1.25521
-3.15729
-3.78848
0.125952
-0.663902
-5.64156
0.355803
-0.0454843
-4.41407
1.20676
1.59201
3.08071
0.0868688
1.49094
2.1648
-0.215478
0.238729
-0.522527
0.587886
-0.953083
0.435042
0.118711
0.123446
0.916116
0.613358
-0.825718
-1.53242
2.50411
-0.662938
-0.59326
-0.156383
1.43579
0.573243
0.857661
-1.61688
-1.43306
0.124076
1.98819
0.176915
-0.456577
2.28245
-1.17376
2.15587
-0.652405
-0.786723
-0.301975
-1.02461
-0.881113
-1.50085
2.21424
-1.38727
-1.75692
2.2447
-0.299251
-0.0240399
-0.160904
2.47317
-7.33493
1.97733
0.27197
0.0779709
0.00805751
-1.06864
0.795471
0.0627729
0.141821
-0.612179
1.0817
1.70096
-0.704017
0.200032
1.56282
2.45417
-0.814877
1.59511
3.01899
-1.23063
0.8395
-0.192858
1.44221
2.01053
1.70238
-5.6468
1.17496
0.359655
-0.643013
1.15841
0.0317942
1.5179
-0.1829
1.25341
0.556307
-0.66292
0.120743
0.286434
1.2325
1.65753
0.197219
-0.522748
2.37041
1.4323
1.81194
0.370735
0.0424859
0.121474
0.132849
2.29577
2.54664
-2.17831
1.44643
-0.648275
-3.87171
-0.511883
1.18912
-7.21284
-7.55196
-0.628824
-0.543349
0.157074
0.616789
-1.24165
1.33651
1.6937
-8.14212
1.77944
8.0469e-05
1.36484
-0.922384
-0.33794
0.286291
2.42746
0.0608161
-0.032286
-0.549627
-8.5917
1.04407
-0.135546
0.416854
2.22172
-0.61053
-0.563339
-2.1171
-0.407819
-6.23703
1.69774
-0.58516
2.54976
2.36414
2.19495
-0.635262
-1.13743
-6.52707
-9.11535
0.280156
-1.72085
-6.7729
-1.0201
-0.609634
1.83069
-1.02697
1.5336
-0.669899
2.16489
1.27143
-2.84957
0.244127
-8.94483
2.82794
0.128372
1.08931
-0.611361
-0.587576
-0.306717
-0.581836
-2.78654
1.66804
0.000167906
-0.11155
-5.35452
-1.02904
0.630306
-0.654018
0.0864771
0.105384
0.1881
0.430284
-0.629127
1.67636
2.18934
-3.22222
0.714784
-0.644891
1.58278
-6.98432
0.299743
0.67788
-0.633434
0.265661
-1.00703
0.0529479
-0.705676
-0.136195
1.46429
1.01122
-4.96407
0.0974693
0.601529
1.23245
0.194822
-0.0222836
-0.652845
2.89625
0.76921
1.58028
-2.2
0.664543
-0.858235
-0.597203
0.0551587
-0.783278
-0.467765
2.27697
1.95732
-0.737929
0.781846
-0.66938
2.01106
0.198862
-0.994407
-0.940229
-1.06937
-9.94783
-0.00808869
0.387777
1.40825
-1.20307
0.0793845
-2.88823
0.962882
-0.78418
-1.35032
1.79369
0.446208
2.33074
0.036826
1.48691
1.7592
1.6179
-0.0108751
1.4407
0.0844563
0.116005
0.370641
0.258553
0.71554
-1.30465
-0.853386
-0.23285
-0.594839
0.719681
1.20657
0.418413
-1.07554
-0.204677
3.05287
-0.669262
1.54901
0.00778547
2.22106
-3.74456
1.33119
-0.538685
-0.598188
2.39243
-0.447889
-5.01877
0.685646
2.48642
1.49524
-0.0653361
-0.23812
-1.3892
-2.15382
-2.30481
-1.55768
1.57928
-2.79483
-1.28624
-1.00228
0.853055
-0.032616
-3.8038
-0.358298
-5.50594
0.974468
0.277218
1.35028
-0.194958
-5.36605
2.23261
-0.944338
-0.854803
-4.03582
0.402913
-0.99273
-0.899837
-0.567788
0.0889793
0.107847
1.14849
-0.843039
-0.34177
-6.66964
0.139184
0.247443
-0.189528
0.25366
-0.989399
1.24884
-1.65803
2.24766
1.81859
0.447626
1.72281
0.641749
1.16741
2.68222
1.75442
-0.566311
-0.279
-0.567556
-0.258237
-0.309845
-0.694946
1.47372
-3.71955
2.018
2.11086
1.29411
1.26849
-0.489234
0.591919
-1.13157
0.0669259
2.26229
1.59743
-0.00516797
0.172466
-0.988447
-0.37827
-1.79763
-7.91575
-1.02761
-0.309531
0.0399709
-0.500298
0.0602818
2.33823
1.38562
1.62418
1.58223
1.65849
0.106922
0.0516777
-0.0051797
-4.40169
0.490744
-0.00421645
1.00989
0.955188
2.43653
-0.330962
-0.332635
0.20859
1.30787
-0.668174
0.110894
-1.65597
2.78312
1.45094
-1.62617
1.24654
-0.224839
-0.557891
1.12892
1.58944
0.745366
0.432432
0.253191
-0.794227
0.0104788
0.216317
2.28127
-1.39516
1.9762
-0.771132
-0.491284
-0.810505
1.07854
1.62634
-0.420194
0.113376
2.76451
0.556643
1.08867
1.20468
2.53457
0.256175
1.48782
-0.163388
1.51933
0.120408
0.0877643
2.03141
2.93574
0.488764
-0.232345
-3.8486
-0.242469
-3.26382
1.54645
0.78105
-1.93284
1.20929
1.71994
1.17988
1.30496
0.1145
1.45972
2.04381
-0.240524
2.60389
1.68218
0.434479
-0.0455705
-1.0101
0.198567
1.39269
0.340236
1.43423
1.6807
1.27467
-0.423828
-0.401106
1.73711
1.1194
1.94644
0.097953
1.25016
1.53137
0.942544
1.78875
1.80405
0.120675
0.207848
1.30891
1.76485
-0.34057
-0.16465
-0.609977
1.69853
0.463272
1.5343
2.52672
-0.657653
2.438
2.72607
-0.509763
-0.154883
-0.335203
2.99317
-3.49552
1.65301
2.56247
0.721025
-0.978136
0.7905
1.07783
2.71856
0.886977
1.00064
2.83921
1.98344
0.208243
2.80821
2.21619
0.25234
-0.685964
-2.32256
0.0379696
0.25936
1.63002
2.18658
-3.26193
0.0790279
0.925369
0.380024
1.99898
-0.808797
2.43916
-0.4459
-0.554375
1.04111
-1.86538
1.70625
-0.0116733
1.09508
-0.633686
2.19151
1.38772
1.42436
1.46723
-0.560625
0.0518129
0.00432907
0.557462
0.766008
2.33768
1.55367
0.0373886
0.840072
0.268011
-0.641797
2.16703
0.223449
1.77767
-0.0368981
-1.12806
-0.594478
0.436335
0.658533
2.48581
0.155394
0.963664
-0.615874
-0.15865
2.0898
2.13647
-0.649182
2.04024
0.528499
-0.619482
0.325196
0.629216
2.93539
0.1076
-2.86691
1.84314
-1.69668
1.62556
-1.01458
-0.688951
0.173634
-1.04692
-0.887787
-0.0885017
1.48176
0.0963295
-0.882774
0.0222407
-0.250085
-1.43651
0.774528
2.36539
1.1176
1.00146
-0.70161
-0.653582
0.283588
1.01936
-0.0650593
0.0333344
0.102579
0.0024826
-0.820562
1.11143
0.528977
0.70212
1.04925
0.711584
-1.23776
-5.85696
0.275327
-0.376903
2.76856
0.868332
0.603435
-0.678451
-0.169705
-0.288901
0.114076
-0.582822
-0.537722
-0.0102503
-0.229491
1.46242
-0.0288932
0.11374
1.61628
-0.91096
-0.608818
2.30413
-0.906891
-1.24234
0.364535
1.33848
-0.4931
0.449126
-0.291881
0.159098
-0.833028
-0.0467858
1.67485
-0.662545
0.711543
0.13086
-0.624886
-0.518632
0.0401575
1.11976
0.369042
-0.676688
2.31118
-0.965509
1.47693
-0.573598
-1.54536
-2.26495
-0.00544563
-1.11977
1.32504
1.33923
1.4303
0.0854654
-0.773447
2.0207
-0.542548
-2.09829
0.0239589
-0.686517
0.125769
0.274935
2.07035
-1.02562
-7.02674
-0.214678
0.975091
0.902714
-0.571287
0.863559
0.175735
-0.122262
0.548464
0.843849
0.492902
-0.584103
-0.61913
2.18499
0.0958564
-0.0248517
0.675648
0.028938
0.950253
-0.663034
-0.0301531
-0.074268
1.06659
-0.0177839
0.176793
0.605633
0.0364337
0.241961
-0.224744
1.44961
0.123325
-0.111697
1.25578
1.21696
0.0571815
0.782548
0.831051
1.43074
1.73735
1.4965
0.134637
2.42889
1.13378
-1.07373
0.817488
-0.704381
0.191731
0.0961686
0.67371
-0.601865
2.43185
0.342371
0.585336
-1.27926
0.543669
-0.735138
0.317682
-2.83135
1.14514
-1.0448
1.19585
0.770178
1.32067
-0.754762
1.75684
-0.771758
1.23805
1.41983
0.560703
-0.417035
-0.394157
-0.741313
1.59836
-0.580171
-9.56476
1.58896
0.759632
0.178857
1.63331
1.30433
-0.183093
2.20254
-1.87276
-0.253463
-0.445114
-0.534891
0.195646
-0.0379864
-0.116724
2.45585
-0.0934647
0.473825
0.0171592
-0.462204
1.52124
1.75109
0.0255237
0.109672
1.25247
-7.66457
1.16105
1.3774
0.057698
-0.014042
0.735308
0.126573
2.4919
-1.20896
1.12909
0.0981192
-1.12805
2.5276
1.45265
0.108525
1.94932
-0.22291
1.77064
1.72276
0.225011
1.24453
1.17831
1.26177
1.2901
-0.74898
1.41541
-0.567939
0.369547
0.00767245
-8.6353
1.61437
-0.951221
-1.12437
0.107047
0.0604433
0.845978
-2.09561
1.28136
0.270691
0.792832
1.30285
0.932437
-0.281994
0.217043
-0.355567
1.28288
0.490008
-0.817122
-0.351111
-0.929289
1.3855
-0.787935
-0.747536
1.21311
-0.766394
1.71272
0.837083
-0.852219
-1.11417
1.58646
1.82262
-0.0194742
1.3209
-1.8943
-0.181595
-2.51443
0.486501
-0.173535
-1.04938
2.68429
0.302102
-2.93985
0.0758558
-0.22417
1.28019
0.663536
-0.304978
-1.02206
-0.648795
-0.260977
-1.7166
0.822622
2.17342
0.00469476
-0.573113
0.0143451
-0.951313
1.98571
2.72279
-0.9486
0.813674
1.36937
-0.989413
0.481577
2.40508
-4.12112
-0.338373
1.2044
1.3832
1.25312
-0.115087
0.685318
0.0189898
0.614266
-1.73276
0.110345
1.32914
0.0699892
0.436631
0.775805
1.23683
0.886256
0.146905
0.621442
1.38532
1.12161
1.1398
2.50718
-0.663367
2.33165
0.210705
2.26259
2.90553
-0.947296
0.369675
0.459691
1.26631
-7.18313
0.692631
0.723723
0.117585
1.43049
2.00401
1.49137
1.54222
0.527239
0.733509
-0.712971
2.79953
-0.80894
0.0830378
-0.658533
-0.339234
-0.835281
1.42963
1.54069
0.917048
1.62152
-1.96256
0.139996
1.69774
1.19864
0.127966
-0.0356784
0.160891
-2.97144
0.46053
1.40298
2.65435
1.28122
1.84047
1.76056
1.44843
2.51929
0.931766
1.33996
0.204106
-0.531367
0.368433
0.980518
0.876538
2.84196
-0.0996818
0.692624
0.00944437
0.13443
2.6847
0.784696
-0.0324757
-0.449557
0.994792
-0.347226
0.0758759
1.92002
1.39092
1.128
1.4406
0.25254
2.04839
-7.37165
1.10706
0.324223
0.335444
0.0150906
2.1639
0.266179
0.158713
1.41671
1.21275
-0.228118
1.19205
2.23551
0.0204894
-0.6843
-0.802642
-7.61576
-0.0750427
-0.754608
-0.131688
1.26602
0.414758
0.104797
1.3665
-2.73965
-0.000212202
-0.405431
-1.73389
-0.349119
0.382812
-0.851763
-0.963591
1.27596
1.27774
1.85954
-0.763017
0.664299
-0.0445049
1.21321
2.17851
-0.560182
0.0532679
0.133187
2.24559
0.967695
-0.446446
-0.22632
-10.1013
0.112772
0.213436
2.40825
0.128208
0.00936107
0.708208
0.332881
0.034759
0.70026
0.391004
0.567432
-0.596654
-0.731659
0.0949132
-0.892725
0.0985807
0.374853
-1.79361
1.44028
0.798643
2.60081
0.564074
2.35421
-0.447171
1.56699
-0.685552
0.110066
-0.188918
2.09733
-0.070192
0.147479
0.402163
-1.62309
-0.282538
0.0356484
0.0889012
0.00910171
0.0919008
0.0726175
0.247571
0.894121
1.65294
-5.8819
0.246564
0.27332
0.143155
0.0330113
1.46856
-0.0418391
0.782184
0.119036
0.0856269
1.94246
-0.410852
0.492388
0.00740895
0.086428
0.010965
1.91325
-0.488643
0.263977
0.0704689
-3.79845
-0.0615972
0.153718
2.28509
1.59406
0.00827843
-5.80857
-0.468272
1.30432
0.189084
0.0587899
0.0146268
0.584743
0.174416
0.128853
-0.119651
0.017208
0.686225
-0.359244
1.36178
-0.255774
-0.182711
0.246122
0.60085
0.30399
0.257502
1.35801
0.263847
0.017219
-0.0237308
0.0516482
-0.475908
0.000644786
1.46438
-1.68894
-0.929592
0.249016
0.133356
-1.89546
-1.02431
0.164592
0.0941021
2.03842
1.05501
-9.71827
0.248661
-0.690709
-0.62613
-0.136575
0.0749535
1.46751
0.456568
1.23012
1.22347
-4.19921
-2.599
-0.18193
-6.52743
-1.07132
1.54992
0.157025
0.448423
-0.955201
1.63585
0.099001
1.42483
0.210446
0.227923
1.82138
0.0555832
-0.0409533
-0.751469
1.98626
-0.0565076
1.20699
1.35384
-0.34028
0.111954
1.27139
-6.859
1.93986
0.00203027
1.88511
-0.343316
-0.118039
0.217385
1.42341
1.8294
-0.811225
1.30298
0.627561
0.0574993
2.10633
0.567146
-0.650307
1.29111
0.133434
0.217714
-0.18122
-0.612953
0.156686
-0.776973
0.00583554
1.26431
0.884485
0.0574921
0.107797
0.628693
0.190192
1.39922
-0.225072
0.0492602
-0.269848
-0.112574
0.137054
-1.7927
1.03139
-0.378112
0.1333
-3.12264
1.43516
0.0728053
-0.768597
0.114271
0.525041
2.25815
-0.408046
0.00512309
0.813022
0.38939
-0.057317
-0.552567
-1.31859
0.281694
0.106927
0.198358
1.38474
0.0161948
0.173949
-0.912083
0.121412
0.0679525
0.0713194
1.41754
0.0771747
0.038508
0.0573075
-0.71362
0.205379
0.132677
0.644015
-0.638884
0.332876
0.242587
0.173922
0.149076
0.031093
0.0259994
-0.571341
-0.0161134
-0.0722877
0.412032
0.641316
0.147119
0.68653
0.709695
0.122827
0.0415079
0.892166
0.239018
0.0491516
0.00517382
0.219229
0.418997
-0.760838
-0.63175
0.0423218
0.343984
0.243369
0.876618
0.932284
0.147898
-0.341783
1.42229
0.127708
-0.646552
0.132839
-0.845348
1.83558
1.29543
0.176965
0.0622948
0.0903899
0.150412
0.0665031
0.196882
-0.677224
0.225668
1.34332
0.426756
0.129031
1.34271
0.141722
2.12864
0.193177
0.210049
0.264741
0.149323
1.95534
0.130017
0.0807619
-0.270133
0.0793732
0.881562
0.600163
0.116504
1.34202
0.138895
0.963981
1.79854
0.478968
0.758287
0.113987
0.794969
0.116697
0.123072
-0.911397
-0.495181
0.115385
1.72022
0.553715
1.18028
0.7095
-0.00338629
0.0937365
0.150207
-0.237558
0.796204
-0.460659
0.0731148
0.00523637
0.0866075
0.14503
0.0577043
-0.674606
2.30115
-0.51683
-0.965383
2.14955
0.2539
0.081836
0.101099
0.0903492
1.15085
0.102286
0.103052
-9.46191
-0.25075
0.0970775
1.35229
0.145379
0.0985077
-0.735841
0.0406206
0.207906
0.0357462
0.1316
0.112055
1.42773
-0.634652
-0.920009
0.805426
0.109977
-9.06315
0.173416
-0.55071
0.0950861
1.42238
-6.4617
1.68789
0.086124
0.126588
-0.998603
0.0788076
0.118894
0.152625
-0.635023
-0.894452
2.17269
-0.651735
-2.13652
0.0185831
-0.859816
0.0733271
0.153481
-1.08502
0.0275287
0.112933
0.0818192
0.122975
0.084439
1.66614
0.464909
-0.0284237
0.185201
0.0896543
-0.68306
0.142045
-1.29289
0.147303
0.0556944
1.57878
0.183011
1.4755
0.0143528
0.155929
0.131605
0.0181993
0.0382746
-7.2561
-0.589368
0.139477
0.801492
1.10788
0.588733
0.0574973
0.0993557
0.120649
1.54065
0.15277
0.366455
0.867531
-0.0267002
0.122475
-0.629298
0.1299
-0.00587542
0.148695
1.43169
0.00365713
0.906767
0.0705456
1.41712
0.0926905
0.688668
0.0144425
0.0587918
-0.986125
0.107981
0.0861698
0.116101
0.180828
1.0221
0.0964013
0.146853
0.17732
0.106274
0.438189
0.0958514
0.101412
-0.728824
-0.999037
0.073447
1.73517
1.21527
0.0605814
0.125054
-0.330545
0.055466
0.437545
-1.78921
0.0160258
1.94101
0.241683
0.0460153
0.047561
-2.62786
1.4233
0.168228
0.0809513
0.0409959
-1.31181
0.208776
0.0747096
-0.779817
0.700891
1.05044
0.10885
0.0600359
0.165731
1.44207
-0.0114097
0.040319
0.0198065
0.0442259
-1.39515
0.143587
0.105787
-0.0268813
0.0906545
0.0505914
0.187663
0.0271584
0.0932438
0.0606339
0.151994
0.0658797
0.130947
2.62157
0.0959894
0.262519
0.0163962
0.19798
0.447731
0.110834
0.185094
0.419328
0.0804063
0.118239
0.0918717
0.0313832
1.46237
0.0191048
0.125175
0.241835
0.0481325
0.0487929
0.237836
0.043184
1.53003
0.124611
-0.344496
0.915406
0.093483
0.0647315
0.100786
0.240823
-0.995702
-1.7945
0.371754
0.0867468
0.199804
0.0517361
-0.364249
1.47179
1.51357
0.0508971
0.153259
0.145385
0.140574
1.40875
0.0126802
0.11726
1.44562
0.0695871
1.40145
0.0858576
0.0674666
0.188367
0.0665762
0.00383949
1.62069
0.129568
0.00862656
0.145179
0.0544962
1.2887
1.98385
0.0237473
0.100728
0.0776184
0.0489526
0.00255514
1.33631
-0.864245
0.00206946
0.0620949
0.162312
0.129173
0.0983561
0.0974585
-1.22951
0.00837907
0.0464134
-0.453117
1.37709
-3.59542
0.0605436
0.112449
0.835421
0.978259
0.0486148
0.00754328
-2.34914
-0.699789
0.027235
0.0684669
0.0134878
0.0631044
0.00866551
-2.50616
0.0295527
0.295998
0.0607973
1.46813
0.0387232
0.154223
0.0780901
-0.579569
0.0338858
1.2948
0.261682
1.58567
0.188275
-0.791938
0.0553614
0.121897
0.0832756
0.106432
0.156085
0.0433798
0.0598249
0.144714
0.00708995
0.0322332
0.119378
0.0514891
0.0238976
0.0620419
1.39624
0.105881
-0.0529517
1.5868
0.0451314
0.114592
-0.22746
0.502795
0.0625233
-0.254084
0.0534315
0.0587141
-1.23354
0.156313
0.0620398
-0.265376
0.0662127
0.163891
-1.55224
0.00617497
-0.832747
0.118345
0.0662768
-0.316212
-1.24282
0.0449676
0.0493066
0.0706438
0.401337
0.120647
0.135587
0.370949
0.0310231
0.0395899
0.0308379
-0.132731
0.0487527
0.0142914
0.0614346
0.100103
0.116507
0.0685075
-0.0197859
-0.639103
2.24474
0.0703224
0.038363
0.066183
-0.572159
1.58939
0.131362
0.3357
0.00298895
1.51305
0.0403293
0.555971
0.182786
0.013117
0.0464245
0.175688
-7.17177
0.138819
0.41788
1.12565
0.0550634
0.0468772
0.125842
1.54254
0.0864897
0.0709039
-0.0537973
0.139475
1.20132
0.169376
0.0541653
0.0428573
0.0707105
0.0530691
0.0581049
0.720145
-0.323344
1.91688
0.00831438
-0.690831
0.0962477
2.55607
0.806202
0.0632925
0.0509575
0.0991236
0.101548
1.234
0.0548238
0.0985827
0.124667
-0.828826
0.0641933
0.161825
0.0583178
2.95072
0.89631
1.333
0.0827069
1.38577
0.00764546
-0.461852
-0.800139
1.81454
-0.752918
-0.774574
0.0434237
0.910795
0.0923583
0.0722823
0.0455043
0.101155
-0.94395
-0.121126
-1.72537
0.0546664
1.27268
0.124931
-0.0157277
0.0545601
0.0601031
0.078437
1.38337
0.0591376
-0.442751
0.0466591
-6.85183
-0.000215326
0.0948731
0.105428
2.30479
-0.733297
0.120626
0.116096
0.0565873
0.0634744
0.981874
1.36136
0.0448228
0.0899877
-1.1871
0.085972
0.46958
2.60114
0.706322
0.34835
0.134964
0.11439
0.0566183
0.527673
0.0926673
0.107515
0.0521317
0.580283
1.31758
1.20717
-0.86752
0.875049
0.10328
0.23717
-0.776741
0.158671
0.0934228
1.46204
0.137868
-1.09419
0.0516485
2.20281
-0.0339711
0.00780295
0.123589
-0.0981098
0.147996
-9.43701
2.38779
0.155492
-0.0425754
-1.0426
0.118375
0.195634
0.26582
-0.0255566
0.14992
-0.318157
-0.934731
1.34166
0.0674174
0.281656
0.101969
0.583953
0.162814
-0.96962
0.0632761
-0.929454
2.71747
0.064078
-1.01096
2.41449
0.0160865
0.175723
0.131796
0.0281248
1.4753
-0.608171
1.39165
1.43681
0.161546
0.117366
1.40114
0.693661
0.171757
-0.453372
-0.642458
-1.29753
1.44644
0.0753598
-0.105518
-1.86555
0.197646
0.0145249
0.0934787
0.132558
1.3691
0.124682
0.100511
-2.14928
0.0545935
0.0511466
0.0585182
-1.53238
-0.439138
0.26685
0.0877742
0.189913
0.0105867
0.103234
2.60312
0.153858
-0.789752
0.527677
0.0490994
1.40108
0.0754501
1.4286
0.0889557
1.24073
-1.39635
0.151074
2.03293
-0.599536
-1.02845
1.57639
0.106764
0.137815
0.0560608
1.37129
1.46379
0.0844375
1.52282
2.38813
0.698069
1.56756
-0.966651
0.097505
2.12524
-6.03731
0.381575
0.161287
1.33083
-1.85958
1.58291
1.49995
1.66404
-0.372911
0.0765962
-0.614407
0.055633
0.162082
-0.440432
-0.662964
0.0840672
0.0572105
-0.298753
0.130019
0.0868293
-0.143937
1.72909
1.87975
1.79801
0.190078
0.822265
0.145047
0.453442
0.1823
0.161585
2.52217
0.221698
0.176487
0.280747
-1.42231
1.96856
0.122524
0.0539114
-1.53147
0.240951
-0.326333
-0.112034
-0.72622
0.952259
0.042539
1.05141
1.43695
-0.485146
-0.173223
0.316734
1.40954
-0.703804
0.0251234
0.104525
0.0051449
1.06452
-0.0327909
0.0866678
2.90833
1.97002
0.0992605
0.137222
-2.11714
2.27749
1.16484
0.119283
2.62543
0.048722
1.26315
0.524588
2.36118
0.413767
-0.562557
0.754258
-1.88594
-0.000556249
0.124114
0.267292
-0.661821
2.41632
0.256078
0.173078
0.237558
-0.235328
0.828909
2.71388
0.230695
0.138459
0.146962
1.01854
0.0768528
0.220041
0.219903
1.24036
0.158281
0.131426
-0.190661
0.310032
0.436338
1.19111
0.156915
2.35023
0.0331606
0.104656
1.31666
0.0521264
0.0116142
0.272481
-0.473229
0.663737
0.040991
0.591276
-0.348842
0.111942
1.07392
-0.259777
0.0590227
0.302416
0.238746
0.0998191
1.05863
0.047773
0.183416
-0.0032887
-0.0525267
0.129461
0.0555965
-1.31816
-0.0385981
0.466625
0.436069
0.163889
0.393042
0.126228
-0.74939
0.125765
1.48812
0.0555902
0.147791
0.272736
0.124418
2.06134
0.102856
0.206642
0.281491
2.93237
2.61013
0.166611
-0.390683
-5.96449
5.96467e-05
1.12
1.40674
1.29692
0.1695
0.0284022
0.256337
2.21141
0.286089
0.279643
0.484101
-0.160059
0.319559
0.152932
1.13271
2.17791
0.133995
-1.46686
0.138113
1.10922
1.85919
-0.199933
0.436223
-0.487051
2.65411
0.00383094
0.14198
1.00533
0.255901
0.0350664
0.0417727
1.34895
0.0110548
0.00381207
-0.225128
-5.19014
0.16121
-0.00149645
2.13548
0.696745
1.63917
0.220681
-1.95974
2.8162
0.121479
0.252901
0.507687
0.0691131
1.1301
1.20167
1.35661
0.00444729
-0.566086
0.0265924
1.38341
0.0190466
0.0397921
0.152658
1.4067
0.280261
0.051706
0.143479
0.40932
-0.00737478
0.0396989
0.260685
0.161436
0.0597708
0.159692
0.932854
2.15562
-0.78645
1.6082
1.12586
-0.609619
0.0322571
-0.687169
1.36819
-1.1265
0.257179
0.278599
0.170757
0.0952537
0.275399
2.87557
0.0127912
1.43994
0.84747
0.13568
0.0963068
-0.202336
0.111332
0.218086
-1.05876
0.147817
0.854102
0.184125
0.0679901
1.59835
0.14382
0.419194
0.370016
-0.648852
0.288827
0.554048
0.268173
1.04418
0.327021
-0.298058
1.99038
1.68897
-3.73347
1.08748
0.0263095
0.724624
1.29228
1.43748
-0.130158
-1.52468
-4.24246
0.165925
1.28944
-0.275701
1.88702
0.0462022
0.661607
-0.628847
-7.42184
1.36778
0.0485015
1.33769
0.38431
0.309206
0.279358
-0.269339
-0.968632
1.00905
0.182025
1.40159
0.337692
1.82163
2.00941
0.163466
1.71645
0.356443
-0.0128347
0.520215
1.96304
0.352607
-1.22461
1.4407
0.198704
0.280818
1.91363
1.28723
1.85645
0.113713
0.0812567
0.294806
-0.947693
0.21251
0.272966
1.01121
-0.647659
1.5361
-0.00100521
0.0247023
1.11877
1.48505
0.451998
1.26475
0.101872
-0.798389
0.0325273
0.0716959
-9.78446
0.78109
0.826718
-0.657644
0.0492455
0.405485
0.192915
0.766178
1.94377
2.07492
0.539064
0.529564
0.17077
0.400346
1.17686
0.0220514
1.64183
-1.32944
0.151567
0.0058065
0.0473226
0.79388
1.41102
1.64147
0.974927
0.165857
0.0791777
1.38269
1.36299
1.44994
-1.34043
1.70426
0.780695
1.37099
0.896385
0.309666
0.311188
1.38408
1.3018
-0.54393
1.4117
0.092781
0.230672
1.05151
0.0772618
-0.428134
2.30199
1.77845
0.319158
1.29304
0.433208
0.952556
0.346088
0.290904
0.096652
0.124265
0.0691321
-0.700805
0.024112
-0.00331006
0.0774312
1.3833
1.99138
0.346883
1.39784
0.324747
3.21006
-1.25329
1.57178
0.324561
-7.91116
-0.334686
3.16405
0.396237
0.10375
3.0942
0.273752
-1.05874
1.36478
3.03567
0.232237
2.96504
0.797076
0.303555
-0.69969
2.84247
0.106768
0.117705
-2.10341
0.266872
0.228252
1.54988
2.66415
0.0205275
0.464728
1.62995
0.0995037
1.45204
1.17236
0.12352
-0.839192
-9.91105
2.60611
0.485111
-0.784897
0.349739
0.312716
2.55991
0.917678
0.234892
-0.76353
2.50799
-0.506127
-0.734585
2.46048
1.57979
-0.70308
-1.05421
-0.683631
0.685238
1.64446
-0.703898
2.40251
1.39559
0.313454
-0.671162
1.88309
0.229132
0.458057
-0.0592366
-0.709519
1.1877
1.41078
-0.98928
1.38955
0.298452
-0.425276
-1.15406
2.26258
0.694366
1.23464
-0.0504268
-0.646566
-0.646571
-0.647589
-0.653994
-0.667409
-0.663243
0.0724578
-0.664115
-0.727126
1.84772
2.2236
0.746938
0.855775
0.430061
1.07568
-0.747242
2.1997
-0.000473333
-0.758843
1.74389
-1.19061
-0.767691
0.118179
2.10087
1.39983
0.867717
0.477573
1.44046
-0.804853
-0.786339
2.07651
-0.757652
0.311818
-0.154092
-0.927663
1.31125
2.03895
0.177733
1.75104
0.206844
1.09972
-0.838975
0.0175552
0.112076
2.00203
-0.0294152
-7.44464
1.96343
-0.85487
-0.476368
-0.000966105
-0.897932
1.9325
1.37015
0.5566
1.37629
0.327059
0.109829
0.0875153
-0.925573
-0.71014
1.88026
0.552101
0.122369
1.46556
0.623581
-0.547935
0.0240571
-0.939506
1.86355
-0.654879
1.34258
0.116248
-0.00751514
-0.974004
1.82319
0.661564
-0.726227
1.77893
-0.995415
0.114693
0.00513873
-7.41896
-0.232581
1.75292
-0.974566
1.67761
-1.01481
-0.80811
0.82771
0.0143328
0.844293
0.0689984
1.63539
-0.946954
0.504532
2.2465
1.54485
-1.03645
-0.327257
1.60342
-0.760159
-0.261935
1.1542
-1.0114
1.41056
1.56299
-0.00293473
0.35144
-1.88525
1.39502
0.857996
0.299362
-0.528881
-1.01412
-7.6418
1.50852
0.371599
-0.846778
0.195267
-0.911316
-1.16817
-0.566666
0.814756
1.47299
1.92369
1.36804
2.10637
1.40424
-1.09158
0.655732
0.0991879
-0.63734
0.903336
0.0757527
0.241666
0.796934
1.12822
0.123756
-1.19593
-0.662254
1.40521
-0.36244
-0.172418
1.66685
1.20892
0.00750534
2.45693
-0.527803
0.463753
0.445536
-1.39575
0.258138
-0.816005
1.34192
1.58183
1.49275
0.963732
-1.71128
1.27987
1.21104
1.17355
1.08892
1.03003
0.946797
-5.87879
1.22806
0.882132
1.4681
0.75545
-0.805888
2.08342
-2.23732
-0.289074
-0.734801
1.1433
-5.23361
1.90187
-2.94379
0.342917
-3.84084
-0.67995
-4.9242
1.38605
-0.460066
-1.91795
-6.13833
-1.20827
-0.220414
1.37321
-0.839957
-8.03422
1.44878
1.47569
-0.0653755
-0.51923
1.50387
0.406999
-0.64887
0.277391
0.590355
1.32686
-1.26413
0.325513
-0.325482
1.54147
-0.868364
-0.847496
-0.639706
0.750184
1.42046
0.299885
-1.05123
0.739734
1.58557
1.01316
-1.34601
1.47765
0.642204
1.12007
0.0728811
1.39429
-0.00115824
0.00742474
0.0155448
0.691398
-2.57369
2.08925
-0.0849741
-0.44977
-0.000428773
-8.3174
1.80717
1.46161
1.21302
1.42137
0.44008
0.220072
-0.140472
-0.862497
0.27311
-0.550784
0.330031
0.973527
-4.28844
0.1005
2.64092
-0.017716
0.788318
0.863133
-0.626306
0.188494
0.891052
0.331213
0.793577
1.14233
1.41896
1.42745
1.38008
0.29797
1.60654
-8.48114
0.165346
-0.0976502
-1.14107
0.115552
-0.413746
1.59853
-0.628187
1.27033
-1.03689
-0.754966
0.449616
-1.11573
-0.25809
-1.63406
0.434949
1.51546
-0.537753
-0.0126937
0.1312
0.433687
0.224137
-0.234009
0.0337486
1.34406
0.312814
-0.249217
1.03
0.323232
1.05237
-0.943603
0.328091
0.239598
0.00575706
0.30145
-0.652825
0.30939
0.1283
0.0643359
0.802274
2.11361
0.774902
-1.67807
1.37404
0.0163874
1.05198
-0.0221582
0.0830158
1.11604
-0.909955
-0.00705871
-0.740438
-0.607288
-0.889842
1.38193
-0.00258675
1.67072
0.0299336
-0.010906
2.1996
2.07721
-0.341722
0.576157
-0.0821857
-0.10195
1.52284
-0.518398
0.189968
-1.36977
0.0980824
-2.8951
-0.0682478
0.705326
0.296994
0.0782207
-0.85087
1.42813
-0.661421
-2.03359
0.714589
0.345682
2.05001
0.32217
0.586204
2.14937
2.18369
0.0498955
1.89468
1.07127
1.43212
0.366118
1.90001
1.51107
0.420295
-1.63268