/*--------------------------------*- C++ -*----------------------------------*\
| =========                 |                                                 |
| \\      /  F ield         | OpenFOAM: The Open Source CFD Toolbox           |
|  \\    /   O peration     | Version:  2306                                  |
|   \\  /    A nd           | Website:  www.openfoam.com                      |
|    \\/     M anipulation  |                                                 |
\*---------------------------------------------------------------------------*/
FoamFile
{
    version     2.0;
    format      ascii;
    arch        "LSB;label=32;scalar=64";
    class       surfaceScalarField;
    location    "0.9";
    object      phi;
}
// * * * * * * * * * * * * * * * * * * * * * * * * * * * * * * * * * * * * * //

dimensions      [0 3 -1 0 0 0 0];

oriented        oriented;

internalField   nonuniform List<scalar> 
7520
(
-0.971158
0.63627
0.334889
-1.24342
-0.256884
1.5003
0.0122254
-1.65299
1.64076
0.269952
-0.038064
-0.231888
-0.29103
1.44881
-1.15778
-0.122026
0.131617
-0.00959084
-0.274216
2.1058
-1.83158
-0.0970312
-1.38508
1.48211
-1.07833
1.09056
0.587525
0.339417
-0.926942
-0.211165
-0.0919728
0.303137
-0.240763
-1.81044
2.0512
0.684438
0.0522799
-0.736718
-0.129582
0.178034
-0.0484519
-1.83249
1.01297
0.819527
0.141079
1.61045
-1.75153
-0.174714
-0.0455542
0.220268
-0.0170701
0.276223
-0.259153
-0.129911
0.154242
-0.0243315
0.0840443
-0.258759
-0.526882
-0.184562
0.711445
-1.08056
1.22164
-0.0449036
-0.355134
0.400037
0.202399
-0.175876
-0.0265238
-0.0355696
0.126782
-0.091212
0.288622
-0.283619
-0.00500276
0.878658
1.17801
-2.05667
-0.0445828
0.360789
-0.316207
-0.0760324
-0.0538781
0.277165
-0.045425
-0.23174
-0.97966
1.68005
-0.70039
-0.0640001
-0.0248844
0.0888845
-1.77075
1.94907
-0.178317
-0.250582
0.265572
-0.0149899
-0.127571
-1.21646
1.34403
-0.587959
0.756984
-0.169025
0.297063
-0.605023
0.30796
0.913885
-1.63222
0.718339
0.0993812
-0.367759
0.268378
-0.0616231
-0.143482
0.205105
-0.0320981
0.30205
0.570161
-0.0993436
-0.470818
0.329112
-0.0404904
1.70747
-1.10694
-0.600533
-0.350715
-0.750654
1.10137
-1.45517
1.56049
-0.105317
0.0301437
0.134591
-0.164734
0.325654
-0.100631
-0.225023
-1.31854
0.338883
0.311972
-0.0870921
-0.22488
1.73687
0.0857076
-1.82258
-0.723068
0.176938
0.54613
-0.0971433
0.10169
-0.00454663
1.0268
0.546602
-1.5734
0.0176372
-0.139664
-0.799938
0.0628011
0.737137
0.323863
-1.28309
0.959224
-0.049552
-0.138031
0.187583
-0.154014
0.0900136
-2.44931
1.19101
1.25829
1.82798
-1.13683
-0.691151
-0.024375
-0.0696955
0.0940705
-1.11127
0.983702
0.970501
-0.286062
0.026077
-0.12322
0.0057002
-0.135282
1.12697
-2.26009
1.13311
0.194685
1.54219
-1.32905
1.0193
0.309744
0.357272
-0.267231
-0.0900413
-0.548563
0.872426
0.769377
-1.22052
0.451146
0.384031
-0.103865
-0.280167
0.484839
-0.039703
-0.445136
0.74343
-1.65431
0.910885
0.171302
-0.149882
-0.0214198
2.33217
-0.951082
-1.38108
0.509973
-0.816278
0.306305
1.38777
-1.20865
-0.179118
-0.895843
0.0959055
-1.61768
-0.831629
0.683563
-0.0308748
-0.652689
0.280887
-0.691726
0.410838
-0.00723583
-0.243346
0.303188
-0.320258
0.301357
-0.0241919
0.0477155
-0.0480356
0.00032009
1.32085
1.01132
-1.42121
1.65219
-0.23098
1.20791
0.620073
-1.06481
1.1709
-0.106093
-0.0260357
-0.0865474
0.112583
1.28172
-1.52248
0.273908
0.226986
-0.127605
0.997597
-0.103682
-0.893915
0.00860013
0.117728
-0.126328
-0.608745
0.369937
0.238808
1.49174
-0.748309
-0.805531
0.677708
0.127823
0.833027
-0.720931
-0.112096
-0.119066
0.149456
-0.0303894
0.212638
-0.327631
0.114993
2.13743
-1.3624
-0.775035
0.572775
-0.549088
-0.42207
-1.31656
0.767994
-1.76821
1.494
0.20917
-0.0958593
-0.113311
-0.286414
0.0752489
-0.212784
0.211729
0.00105518
-0.534334
0.636548
-0.102214
2
-1.08611
-0.28157
0.0764328
0.205137
-0.805537
0.278655
0.176061
-0.0508552
-0.125206
0.0762024
0.607361
-0.724543
0.32264
0.401903
1.17563
-2.07555
0.899928
0.0786425
0.123757
-0.113966
-0.609102
-0.289129
-0.00919576
0.298324
1.13814
-0.550612
-0.0475795
0.387919
-0.340339
-0.000549539
-0.238024
0.238574
0.146568
-0.140672
-0.00589673
0.740248
-1.85264
1.11239
0.431821
-0.476724
-0.350897
-0.0979566
0.448854
-0.135112
-0.146458
0.100479
0.291393
-0.391873
0.17713
0.0392715
-0.216401
-0.0755234
0.252653
-0.648061
-0.0764817
0.387477
-0.683264
0.295787
-0.71346
1.3398
-0.626345
0.318095
-0.370989
0.0528942
-1.07088
-0.245673
-0.0446473
-0.0668927
0.11154
1.41736
-0.390561
-0.632639
0.48946
0.143179
-0.0405919
0.26042
-0.219828
0.344441
-0.0910996
-0.253342
0.216075
-1.86906
0.35838
-1.81355
-2.02379
0.885866
1.13792
-0.900367
-0.428678
-1.24178
0.757437
0.484339
1.64556
0.16832
-1.81388
0.228621
-0.290244
0.257043
0.427422
-0.684465
-0.119242
-0.801468
0.92071
-0.233242
-1.00853
-1.81616
0.0454158
0.0424494
0.00526616
0.0821091
-0.16528
0.0831711
0.320022
-0.369574
0.576018
0.257009
-0.187247
0.155149
-0.110729
0.0548315
0.0558978
0.83574
-0.462261
-0.373479
-0.616936
-1.21556
0.52913
-0.648372
0.085912
-0.634276
0.548364
-0.174901
-0.0840918
0.258992
-1.45229
0.689134
0.763156
0.332224
-0.623254
-0.117238
0.541618
-0.42438
0.16396
-0.19953
0.575546
-0.263445
-0.312101
1.28055
-0.282952
0.268401
-0.355493
0.966367
0.168724
-1.13509
0.333918
-0.378501
-0.37634
-1.13605
1.51239
1.21669
0.727758
0.760974
-0.480087
-0.971561
0.383602
-0.682028
0.944218
-0.262191
-0.0322473
-0.0217204
0.0539677
0.273165
-0.339694
0.0665292
-0.713425
0.789627
-0.300235
-0.172521
0.472757
-0.2403
0.0653994
-0.892573
0.978485
0.297514
-0.888085
0.590572
-0.51291
-0.0958346
0.739722
-0.442659
0.186473
-0.0151709
0.228004
0.0494063
-0.277411
-0.0805197
-0.453814
-1.02816
0.0287487
0.999407
0.144013
0.240018
-0.789658
-0.864657
-0.86335
-0.58894
-0.0124803
0.123985
-0.111505
0.869005
-0.396656
-0.472348
-0.879675
0.166216
-1.13686
2.12355
-0.986693
0.399473
0.176073
0.308602
-0.26358
-0.0450221
-0.726991
0.613025
0.666832
-1.01755
1.80255
-0.0455742
-1.75698
-1.77105
2.20004
-0.428987
-0.0354112
0.11752
0.487342
1.09447
-1.58182
0.0425408
-0.203926
0.161386
-0.208248
1.74469
-1.53644
0.00034706
0.155859
-0.156206
-0.903164
1.26839
-0.365231
-0.0280925
-0.698899
-0.220614
-0.807542
0.31707
-0.233199
-1.69441
1.92761
-0.335502
0.489744
-1.78587
0.996212
0.297906
-0.0105392
-0.287367
0.165095
-0.165645
0.0581459
1.66292
-1.72106
-0.466744
-0.666406
1.13315
-0.564541
0.457703
0.106838
2.31469
-1.48972
-0.82497
0.552572
-1.01932
0.155223
-0.164417
0.00919423
0.126563
0.775249
-0.901812
0.0872197
-0.0882585
0.00103874
0.859249
0.799739
-1.65899
-0.268828
-0.536704
-0.0902782
0.247711
-0.157432
-0.994989
0.660329
0.33466
-0.112011
0.0562252
0.0557863
0.795692
0.073313
1.1168
-2.14684
1.03004
-2.48613
1.08279
1.40335
-1.07573
-1.4104
-0.391099
0.408761
-0.0176621
-0.331861
0.396449
-0.0645879
0.498308
-1.08929
0.590983
-0.00363863
1.1336
-1.12996
-0.517197
0.486322
1.08237
-0.115998
1.01332
0.96564
-1.97896
-0.236015
0.12536
0.110655
-0.0824164
-0.912572
1.77998
-0.357861
-1.42212
0.172639
-0.130098
0.0114924
-0.250188
0.204634
0.941764
0.838216
0.30505
0.536371
-0.84142
0.406551
-0.0457616
-0.12351
0.0850042
0.0385055
-0.289032
0.358646
-0.0696136
-1.78634
0.86667
0.919666
-0.0501077
-0.281753
0.909646
-0.522168
0.966547
-0.588062
-0.378485
0.16075
0.164903
-1.91996
1.86852
0.0514428
1.02367
-0.726161
3.97368e-05
-0.119025
0.118985
0.0082865
0.0966506
-0.104937
0.141239
-0.245103
1.59336
-0.466383
0.0629954
-0.2059
0.142905
-0.00993778
-0.100792
-0.373409
0.281437
0.896853
-1.00053
-0.677032
0.673394
0.327274
-0.0992699
2.1058
0.0253586
-0.0267945
0.00143592
-0.363015
1.25987
-0.247582
0.162369
0.0852128
0.445456
-0.232818
0.0914687
0.478692
0.826253
-0.56921
0.490626
-0.413008
-0.0776177
0.317065
-1.22023
-0.126904
0.227384
-1.55394
1.32074
0.144237
0.0109862
-1.65097
0.299286
-0.339878
-0.19983
-0.0368245
0.236654
-0.602958
-1.18338
1.1323
1.00514
1.55066
-0.861527
-1.81044
0.398951
-0.446531
-0.280359
-0.146349
0.426708
0.185791
-0.298223
0.112432
-1.26087
0.510217
-0.22712
-0.282953
0.510073
0.841263
-0.501847
-0.130482
-1.71796
1.84845
0.8167
0.149787
-1.45205
1.30226
0.843613
1.10545
-0.891488
1.36531
-0.877972
-0.0501856
0.428166
-0.37798
-0.861541
0.826032
0.0355083
0.121128
-0.0581322
-0.0970279
0.368076
-0.271048
-0.350536
-0.161516
0.512052
-0.501636
1.71832
-0.302538
-0.41159
0.714127
0.224888
-0.194745
0.201118
-1.26593
0.113032
-0.236541
0.0125508
-2.02494
1.12724
0.897699
0.526814
-0.474534
0.0102021
-0.0827226
0.400817
1.04315
1.27154
1.59139
-0.482255
-1.10913
0.155987
-0.0528809
-0.103106
0.819868
0.567898
-0.446537
0.166178
0.459256
-1.5266
1.06735
-0.163087
0.136989
0.0260978
0.545659
0.946079
-0.261244
-0.106515
0.770217
-0.465168
-0.559994
1.43865
0.196351
0.0128183
1.90866
-0.733032
0.184614
-0.176014
1.75703
-0.165643
0.127992
0.456246
0.0343796
0.0218821
0.33539
-1.68251
-0.961
1.00054
-0.0395363
0.00817328
-0.158056
1.83825
0.0837506
-1.922
-0.77791
0.475372
0.268151
0.0762906
-0.346805
0.079574
-0.216736
-0.991913
1.59432
-1.63138
0.0370609
0.131002
-0.462157
0.331155
-0.828398
1.37406
-0.874711
1.61496
0.216557
-0.085555
0.754317
-0.431677
1.7629
-0.481184
0.00327222
0.178844
-0.182117
-0.144568
-0.0412403
0.185808
0.153402
0.00258539
0.181698
-0.833927
0.145787
0.12118
-0.266967
0.565257
0.774548
-1.77629
1.39995
0.168293
-0.51919
-0.484057
1.25343
-1.14332
1.34413
-0.200815
0.566912
-2.04649
1.83824
2.17939
-0.858544
0.833555
0.873915
-0.0868316
0.288574
1.30575
-1.36086
0.296204
1.06466
0.307786
-0.353211
-0.390053
0.339945
-0.257875
0.182351
0.154928
-1.26187
0.690453
-0.97508
0.284627
-1.82214
0.864834
0.957303
-0.592624
-0.6279
0.116804
-0.141179
0.0992374
-0.839417
0.871329
-0.0319115
-0.624313
0.507075
1.25687
0.922526
-1.77105
0.0597207
0.0868478
1.61509
-1.40344
-0.211645
-0.212423
1.3069
-1.22322
2.03975
-0.816528
-0.817076
0.913087
-0.0960114
0.216749
-1.32802
0.15958
0.236869
-0.294347
0.471532
-0.177185
-0.234487
-0.0931445
1.3278
0.433686
-1.08555
0.651859
0.0168709
-1.62555
1.60867
-0.0678943
-0.14489
0.0967405
-0.493698
0.396957
-0.634595
0.944805
-0.310211
0.243489
-0.169996
-0.0734928
-0.165926
0.648192
-0.482266
-1.95575
1.69887
1.84475
-0.490827
-1.35392
0.577456
-0.859561
0.282105
-0.0254391
0.21123
0.174989
-0.6879
-0.836866
1.69611
0.200442
-0.0243807
1.80255
-0.975506
1.10207
-0.044544
0.044544
-0.810668
0.239553
-1.66076
2.20907
-0.876207
-1.33287
-0.453503
0.986546
-0.533043
-0.0197941
0.231484
-0.21169
1.09785
-1.08926
-0.00859369
-0.413716
-0.384072
0.797787
0.95145
-1.98472
1.03327
-0.00563923
-0.855901
-0.25855
0.113982
-0.340601
-0.445696
0.786297
0.620131
0.554588
-1.17472
-1.30603
-0.436577
0.736984
-0.300407
-0.598978
1.34425
-0.745273
1.39493
-1.33679
-0.0936825
0.239469
0.13906
0.485559
-0.000720549
-1.20724
0.729035
0.478204
-1.3301
1.63305
-0.302955
-0.0230656
0.179902
-0.156837
-1.44965
-0.810433
-0.0720513
-0.00398104
-1.60846
0.471608
-0.414265
0.317237
-0.42561
-0.391466
-0.0603953
-0.102692
-0.547617
1.56093
0.0546755
-0.409809
-1.54601
0.0977573
1.44825
0.436414
-0.671066
0.234651
-0.902716
0.220689
0.234485
-0.614704
0.380219
1.70627
-0.116219
-1.59005
-0.0240059
-0.132101
0.156107
-0.294359
0.456073
0.420716
-0.876788
-0.325999
1.33896
0.301046
0.706254
0.711103
-0.0252995
1.55389
0.203142
-1.37221
1.38908
-0.196263
-0.0467312
0.242994
-0.229406
-0.0443872
0.273793
-1.65776
0.434536
-0.355535
0.256191
-0.60854
-0.35246
0.277461
0.898798
-0.50502
-0.393777
0.217782
0.11133
-1.03671
1.88308
-0.846366
0.210993
-0.252233
-0.104073
0.377237
0.286628
-0.580975
-0.0571824
-0.230069
0.287251
-0.212383
-0.0358705
0.248253
0.628184
-0.648568
0.0203842
0.0106449
0.0732381
-0.083883
-0.325901
0.361537
-0.0356356
0.55828
-0.854087
0.295807
0.380449
-0.0726627
-0.144355
0.376118
-0.231763
0.957564
-1.10052
-0.956148
-0.41094
-0.0901232
0.501063
0.210767
0.278977
-0.326031
-0.238511
0.922102
-0.0233048
-0.0832386
-1.20265
1.28589
-0.312407
0.0232787
-0.171716
-0.476345
-0.336593
0.170667
0.216348
-0.216001
-1.17517
-0.0479319
-0.110278
0.15821
1.18717
-1.01844
1.04931
0.795437
0.298062
0.668486
-0.13162
-1.6034
1.73502
0.292836
0.688809
-0.981645
-0.449802
-0.943723
0.409075
0.534647
0.722205
-0.285791
-0.00258936
0.0921877
-0.0895984
2.23749
-1.19321
-1.04428
0.153069
-0.348289
0.19522
0.256999
0.669266
-0.926265
0.0818568
0.115574
-0.197431
1.64788
0.03842
-1.6863
0.2641
0.0121237
-0.293273
0.347948
-0.125547
0.163873
-0.0383258
0.349893
-0.0467051
0.0172198
0.149878
-0.167098
-0.707905
-0.258902
0.966807
1.15436
0.551907
1.02247
-1.10571
0.22147
-0.856065
-1.82072
1.69024
-0.0312774
-0.206747
0.334279
-0.61029
0.276011
0.795214
0.755448
1.146
-1.27804
0.132037
1.22463
-0.518375
-0.173711
0.12083
-0.0623537
0.219802
-0.157449
-1.39386
-0.301
1.69486
-0.385927
0.501755
-0.115828
-0.00251515
-0.0420289
0.575914
0.872896
-0.164271
-0.0717436
1.1812
-2.13946
0.95826
-0.858009
0.115516
0.742493
1.60981
-0.493016
0.082267
0.223657
-1.02512
-0.306878
0.00777485
0.299103
0.029062
-0.260802
-0.645385
1.07907
0.0296499
0.0575698
0.244087
0.0782111
-0.322298
0.17102
0.926831
-0.210252
-0.473013
-0.27689
-0.431432
0.422236
0.469958
-0.895568
0.180031
-0.103598
-0.0495144
0.254148
-1.99281
0.892293
-0.176685
0.343772
-0.167087
0.162842
-0.121059
-0.0417836
0.279604
0.853997
-0.0829835
0.013288
-0.0605985
-1.48795
1.54855
-0.246586
-0.351646
0.598232
-0.0795231
0.0908263
-0.0113032
-0.237903
0.928356
-0.267715
-0.274827
0.542541
-0.309677
0.544162
-0.813552
1.7008
-0.887251
-0.909574
0.333045
0.576528
1.68508
-0.0395257
-0.25875
-0.0411306
0.299881
0.351786
-0.0603925
-0.201762
-0.254706
0.942062
0.710126
0.537422
-1.35724
0.819813
-0.814791
-0.210322
1.02511
-0.0353883
-0.458819
0.494208
0.246329
0.0383171
-0.284646
0.620095
-0.0473509
-0.572744
-0.146783
0.259814
-0.894355
0.128976
-0.00219432
-0.183274
-0.0532673
-0.155142
0.450859
-0.295717
-0.276544
0.328857
-0.0523129
0.404674
-0.260417
-0.144257
0.743616
-0.455701
-0.0182867
-0.0297489
-0.556003
-0.339014
0.895016
1.23713
-0.957524
-0.0576385
-0.341161
0.398799
-0.241554
-0.479377
-1.26958
1.46426
0.638898
-0.211475
-1.25172
0.861045
0.390673
0.360096
-0.127584
-0.232512
1.77397
-1.77397
-1.68235
0.0646719
-0.882591
-0.122446
-0.694521
0.816967
0.523656
-0.577687
0.0540307
0.100489
0.321375
-0.0583193
-0.263056
-0.0531774
0.252736
-0.199559
-0.570841
1.12561
-0.554765
-0.257343
-0.0469165
0.304259
0.777515
-0.560767
-1.07815
0.26336
-0.0503283
-0.266732
0.317061
-0.131218
-1.22964
-0.682244
-1.00391
0.321671
0.871947
-0.0892567
0.25231
-0.163053
-0.311024
0.3895
-0.0784759
-0.307613
0.217335
-0.0955052
-0.232549
0.0327193
0.0479361
-0.0437183
-0.146116
0.189834
0.180825
0.0389769
-0.227499
0.083144
0.133995
-0.211126
0.0771309
0.0529184
0.0511495
-0.104068
0.286252
-0.202643
-0.0836089
-0.0787224
0.208826
-0.130104
-0.740052
1.02468
0.743119
-0.974037
0.230918
-0.186549
-0.086721
0.27327
-0.0198523
-1.92464
1.94449
0.828771
-0.634437
-0.194334
0.279683
-0.0999308
-0.198292
0.045346
-0.0962012
-0.0647515
0.21782
0.370343
-0.879186
0.508843
-0.424189
-1.49578
-0.446194
0.935842
-0.489648
-0.212075
0.0769631
0.456427
-0.311919
-0.144508
0.0199242
-0.575927
-0.61423
-0.310148
0.366879
-0.0567312
-0.585857
0.358737
-0.0689554
0.558415
0.164855
-0.156569
-1.36185
-0.000553331
-0.311867
0.598496
-0.0325365
-0.226014
-0.248567
0.0911187
0.246618
-0.335875
-0.0978098
-1.0252
0.285143
1.87646
-0.131771
-1.69441
2.15129
-1.07052
-1.08077
-0.165442
0.535378
-0.161314
-0.734529
0.502624
-0.583144
-0.282453
-0.024425
-0.458439
-0.561622
1.02006
-0.0606298
-0.129211
0.189841
0.0433332
-0.943701
-1.77856
-0.353181
-0.348729
0.701909
0.174192
-0.420778
-0.283494
-0.0454622
0.328956
0.536804
-0.104984
0.228392
0.131704
1.95272
-1.00127
-0.963132
0.504693
-0.279949
-0.0606829
0.340632
-0.0519933
-0.012272
-1.07699
-0.292711
-0.0487615
0.341472
-0.110051
-0.043963
0.908644
-1.22398
0.315338
-0.641289
-0.0576137
1.83158
0.47442
-0.813434
1.13396
-2.0263
0.892334
-1.97136
1.19368
0.777683
0.190672
0.117151
-0.307823
0.157816
0.945808
0.110012
0.805963
-0.915975
-0.0324236
-0.173477
-0.118482
0.695938
-0.0444903
-0.46943
0.51392
1.20713
-1.33875
0.769047
-0.187465
0.225474
-0.0380092
-1.4842
-0.198144
-0.698413
-0.690817
0.279877
0.149835
0.00386574
-0.153701
-0.686313
0.353467
0.332845
-0.432075
0.381889
-1.05891
-0.613562
1.67247
-0.168281
-0.181546
0.161752
0.455925
-0.476264
0.0203386
-0.797024
1.66186
-0.19649
-0.967951
0.514448
0.52259
0.387056
0.61232
-1.18316
-0.0172412
-0.162669
0.17991
1.32533
-0.131718
-1.02606
-0.381662
-0.101286
0.482948
-0.059432
0.241783
-0.045106
0.258578
-0.213472
-0.273437
-0.0468212
0.214013
0.612239
-0.553041
0.344056
-0.0756551
-0.411818
0.329096
-0.176326
0.0108304
0.165496
0.29454
-0.107936
-0.186604
-0.173931
-0.046618
0.220549
-0.20892
-0.0276924
0.236612
0.231954
0.00661982
-0.294979
-0.167178
0.44285
1.17489
0.367453
-0.30674
-0.0607125
0.330431
0.399924
-0.730356
-0.325582
0.426372
-0.100789
-0.341435
0.289511
-0.726088
-0.158939
0.404968
-0.0849458
0.222271
-0.0583113
-0.160374
-0.0435521
1.73187
-0.932133
0.621038
-0.673854
0.0528155
-1.5492
0.279626
0.0458658
0.076179
-0.122045
-0.0561142
-0.0558972
-0.82802
-1.14334
0.404046
-0.0701284
-0.748639
-0.777963
0.320353
-0.0762663
0.0861067
0.369819
0.892923
-0.802603
-0.791156
1.32858
-1.61356
0.219704
0.479882
0.173534
-0.653416
-0.00724538
-0.234213
-0.412751
0.646964
0.172107
-0.0292017
-0.738209
-0.644454
1.38266
-0.930044
-0.968541
1.89858
0.437974
0.591026
-1.029
0.0285835
-0.287474
-0.0226736
-0.284683
-0.296292
-0.211128
-0.109003
0.320131
0.792335
0.128375
0.304165
0.152261
-0.252638
-0.665048
0.156092
-0.130734
-0.597993
1.21053
-0.612535
-0.172559
-0.248095
-1.61058
0.135044
-0.0110596
-0.493531
-0.108319
-0.283554
-0.841642
0.319474
-0.169508
-0.961355
-0.322861
1.28422
-0.367752
0.870376
0.616438
0.370109
-0.343601
-1.03961
-0.953197
-1.27888
1.27029
0.103905
0.0643114
0.0473451
-0.115665
0.0683198
-0.703529
0.624439
0.0790897
0.754364
-0.782456
0.0854015
-0.262087
-1.20317
-0.0485447
0.181681
-0.232595
0.0509142
0.560066
0.0681179
-1.35195
-0.0378381
1.38979
0.0487798
0.132046
0.0347214
0.272666
-0.307387
-0.282054
0.488965
0.08381
0.106229
0.0422904
-0.148519
-1.20477
0.846911
0.1627
0.00940634
-0.203325
-0.144964
-0.383687
0.112993
0.0670382
-0.181506
-0.276176
-0.123491
0.0851657
0.340795
1.52773
-0.6599
1.49346
1.01213
0.434124
-0.818195
-0.0524319
-1.29952
0.584707
-0.361618
0.432649
-0.0710312
-0.111649
-0.0290229
0.290098
0.0256282
-0.0691103
0.159124
-0.0173326
1.43165
-1.41432
0.0898662
-0.788765
-0.137711
-0.292063
-0.0775116
-0.290844
-0.314927
0.401783
-0.0868562
0.0437461
-1.49185
1.4481
0.524307
0.177142
0.346514
-0.961008
-0.564126
1.00372
-0.439595
0.0795053
0.0668867
-0.187945
-0.591875
0.442982
0.148893
0.403961
-0.498471
0.0945095
-0.24227
-0.553387
0.795656
-0.307393
-0.0711075
-2.00133
0.019879
0.24076
-0.237488
0.0691059
0.190043
-0.0273427
0.369217
-0.717946
2.1697
-0.969915
-1.19979
0.257892
0.475766
0.276705
-0.241984
0.245622
0.121257
-0.216737
-0.00828622
-0.289626
0.28239
-0.613767
0.801554
-1.04382
0.176258
-0.115885
-0.0603736
-0.408692
-1.70091
0.817432
0.883476
-1.70914
1.68929
-1.04303
0.565969
0.477062
-0.587648
0.00566496
0.581983
0.238527
0.683576
0.309133
0.223506
0.573687
0.558069
0.0771225
-0.289197
-0.0227225
1.02359
1.14612
0.0192075
0.0657967
1.23301
-1.06469
-0.0504516
-1.36717
1.41762
1.08985
0.0850419
-0.326174
-0.0880906
-0.265624
-0.443691
-0.297849
-0.277688
-0.112365
0.232105
-0.969859
0.737754
-0.603077
2.22755
-1.38154
-0.846015
0.0314461
0.179793
0.0516912
0.610389
0.179238
1.62643
-1.56176
0.995431
-1.92547
-1.20744
-0.011381
1.21882
-0.82867
0.334647
0.494023
-0.205474
0.152207
1.9686
0.0184051
-1.98701
-1.01696
1.6155
-0.598542
0.0668528
0.262004
-1.26317
0.66419
-0.0119628
0.1562
-1.30496
0.161645
0.0151246
-0.0308586
0.015734
-0.167348
0.221396
-0.0540482
0.0636937
-0.428856
0.365162
0.657298
0.343238
-0.528554
-0.157759
-0.0226703
0.909259
-0.914898
-0.0823346
-0.0829456
-0.287135
0.062255
0.159191
0.616347
-0.775538
0.116407
0.448596
-0.565003
0.138755
-0.56498
0.426225
-0.475468
-1.38165
0.542805
0.838847
-0.0346743
0.800797
0.312402
-1.1132
-0.692079
0.257279
-0.284515
0.0272359
0.203638
-0.0422525
-0.289782
0.00628816
-0.325411
-0.769579
0.200369
-0.486007
0.852074
-0.366066
-0.743247
-0.228314
1.92584
-0.798602
-0.107177
0.208087
-1.25429
-0.0720491
-1.23998
1.31203
0.154562
0.0763947
-0.230956
0.770948
-0.452104
-0.318844
0.282258
-0.0218379
-0.159608
-1.08527
0.34202
-0.710532
1.11961
-0.0424765
-0.330933
0.337187
0.270413
0.0241275
0.885316
-0.409944
0.070711
0.683653
-0.931672
0.32257
-1.89422
0.925682
1.57655
-1.53281
-1.62661
1.60928
-0.123194
-1.51248
0.267594
1.24489
0.410209
0.525633
0.0424281
-0.889671
0.767225
-0.164644
-0.129953
0.294598
-1.13238
0.438098
0.694282
0.121856
0.651166
-0.773022
-0.0903554
-1.18853
0.841806
0.00331303
-0.845119
0.224279
0.693357
-1.17741
-0.263038
-0.0193036
0.0755287
1.61761
-1.57919
-0.346665
-0.982555
-0.399096
0.651535
0.0401658
-1.24761
1.10112
-0.300321
-1.83824
0.0277962
-0.172199
-0.962892
0.372383
0.207417
1.82072
0.285077
0.0108526
-1.08784
0.171406
-0.132135
0.10086
-0.451397
0.328727
-0.609805
0.281077
-0.167151
0.00596027
0.161191
0.273724
-0.314854
-0.00169765
-0.287335
-1.09433
1.19378
-0.099454
-0.731892
0.777992
-1.3435
0.565504
-0.850759
-0.0746951
0.130481
-1.35751
0.0376666
1.31984
-0.421434
0.988346
-0.689998
0.733331
0.152805
0.906713
0.654089
-0.93098
-0.826647
-0.225067
1.05171
-0.832621
-1.30009
0.561884
-0.155156
0.158796
-0.00364047
0.0992481
-0.110551
0.705164
-1.35055
0.118916
-0.534702
0.415786
-0.469488
0.381372
0.0881157
-1.03574
0.482352
0.0465026
0.0310133
-0.262901
0.442657
1.76763
0.200969
-0.768224
0.878237
-0.306199
0.102874
-0.725586
1.3296
-0.604013
-0.0905403
0.0824264
0.104047
0.419284
-0.0192467
0.950084
1.17347
0.48156
-0.913238
0.249592
-1.73931
-0.211789
0.163857
0.00624462
-1.02469
-0.245253
-0.978728
-0.253083
0.0658359
0.850553
-0.407896
-0.614657
-0.138772
0.751011
0.222069
-1.66492
0.315813
1.34911
-0.0372567
0.526221
0.361973
-1.37445
-0.396597
0.82852
-0.373488
-0.455032
0.961621
-0.338013
-0.623609
-0.219712
0.049716
0.720474
-0.67057
-0.0499031
-1.7274
0.788563
0.938838
0.909189
0.791613
0.00125926
0.148576
0.814646
-0.525134
-1.40482
0.615817
0.789
-1.92761
1.62661
0.582616
0.741262
-1.32388
0.833808
-0.737902
1.596
-0.733664
-0.862336
-1.0719
0.217609
-0.0967789
0.0761554
-0.107994
0.233354
-0.0627749
0.158888
-0.0961128
0.116367
-0.15607
-1.23046
-0.154618
0.171444
-0.215935
-0.0424287
-0.0458297
0.934768
-0.226451
-0.708317
0.861461
-0.507994
-0.172141
0.146702
-0.0827143
1.22872
0.210268
-0.0557063
-0.209646
-0.826093
-1.49476
0.53341
-0.0510724
-0.124803
0.143453
0.173321
0.150818
-0.103473
-0.551369
-0.990502
0.13747
-0.1008
-0.0366702
0.213838
-0.660786
-0.853236
1.51402
0.17129
0.0187526
-0.0139604
1.01358
0.973598
-1.98718
-0.577727
1.0157
0.261765
-0.106616
0.242689
-1.02239
-0.653709
1.6761
-0.904167
-1.01604
0.454418
0.289981
-0.111102
-0.178879
0.292846
-0.689502
-0.208863
1.17453
-0.396541
-0.223306
0.132206
-0.21362
-0.760417
-0.00424708
1.83924
-1.69024
-0.149
-0.930266
-0.564498
0.193051
0.195165
0.0756091
-0.990081
-0.232839
1.22292
0.258399
0.428833
-0.0248724
-1.54038
-2.08613
0.821383
1.26474
-0.219573
-0.00674196
0.226315
1.00035
-0.636524
-0.363821
0.131189
-0.200299
0.0995761
0.112152
0.949002
-2.00791
0.808371
0.153251
-0.45188
-0.511252
-0.165925
0.0367141
0.176997
0.727719
-1.38851
0.0240144
0.404152
-0.14465
0.630209
-0.386676
-0.0420988
0.428775
0.667562
0.928438
0.504497
0.046586
0.466038
-0.733404
0.267367
2.04649
-1.73067
0.220569
-0.561898
0.171379
0.0322591
0.122633
0.0258046
0.16403
0.0030769
-0.158232
0.629355
0.0455203
-1.74012
-0.0272776
-0.192296
-0.0889878
-0.0266772
1.16889
-0.552455
0.868572
-0.6246
-0.243972
0.00569174
0.143764
0.0138447
0.00127996
0.397972
0.0282831
0.21997
-0.312723
-0.335845
-1.95604
0.894271
1.06177
-0.102133
0.0155857
-0.0528016
0.133584
0.167773
-0.290319
-0.324384
0.505729
-1.52812
-0.135027
-0.957128
1.97071
0.630847
-0.184791
-0.446055
-0.772996
-0.407742
-0.169945
0.10952
-1.10571
0.392641
-0.705304
0.312663
-0.282176
0.224929
0.0572462
-0.0578967
1.03475
1.00501
-1.64692
1.73067
-1.47604
0.823673
0.652367
1.0142
-1.97133
2.11431
-1.07117
-1.00503
-0.96196
0.735717
0.135611
-0.160098
-0.3336
-1.48945
-0.023031
0.0118974
-1.28994
1.1776
-1.92708
0.749484
-0.0653888
0.29401
-0.573073
0.810902
-0.234374
0.89191
1.33564
-1.48495
0.759364
-0.0608281
-0.843339
-1.35742
0.258289
-0.0333596
1.70914
-1.74867
-0.0726647
-1.28014
0.0340311
0.761338
-0.305265
-1.48499
1.72262
-0.237634
0.288397
1.65609
0.465283
-0.0261118
-0.439171
1.89789
-0.902457
0.266415
0.187829
0.578349
-0.750065
0.120586
0.149827
0.111417
0.748388
-0.859806
-0.703525
-0.358742
1.05
-1.04369
-0.00631731
-0.342476
0.293715
-1.52987
0.794774
0.735096
0.575809
0.195139
-0.818211
0.143765
0.923234
-0.536178
0.325323
-0.610006
0.185877
-0.244189
-0.699021
0.464808
-0.987889
-0.919426
1.90732
0.263224
-0.290916
0.28889
-0.335595
1.11879
-0.604344
0.147936
0.985099
-1.645
0.131773
0.148683
0.256497
-1.21402
-0.0621849
0.698455
0.0703476
0.159525
-0.605221
-1.39959
0.608431
0.263166
-0.415009
0.151843
0.0781279
-0.349176
1.09608
1.05521
1.27086
-0.955527
-0.0577316
0.184217
0.174429
0.49702
0.293409
-0.34023
-0.71864
-0.957372
1.97157
0.172588
-0.207262
-0.828721
-1.04331
1.87203
-1.55253
0.53557
-0.0792134
-0.400207
0.299418
-1.49946
-0.046549
-0.264862
0.657503
-1.02881
-0.927226
1.83924
0.659139
-1.24808
1.05184
-0.708603
-0.330675
-0.378287
0.355614
-0.301904
0.244266
-1.69412
0.28902
-0.853145
1.01663
-1.974
-0.854163
0.312074
-0.372467
-0.0814317
-1.40356
0.886084
-0.566611
1.27536
0.891306
-1.76808
0.876775
1.72744
-0.938879
2.0512
-0.951452
-0.978712
1.93016
0.390837
1.28508
-1.02668
-0.795626
-1.2905
-0.944842
-0.531197
0.477074
-0.899483
1.72037
-0.820884
-0.156185
1.37436
-1.21817
-1.021
-0.970572
1.99157
0.896219
0.153785
0.286092
0.419828
-0.769902
0.104813
0.665089
0.0601782
-0.312412
0.511712
-1.44198
-0.800124
-0.418165
-0.285363
0.292317
-0.400636
-0.785819
1.23697
-1.95087
0.957508
0.993362
0.0258535
-1.71901
1.69316
0.154502
-0.294478
0.0949196
0.442334
-1.7335
1.7335
-0.154673
0.000100296
0.154573
-0.510942
1.06553
0.230362
0.0279274
-0.810622
-0.634021
0.762396
-1.64692
-0.0985538
-1.27572
0.30021
1.19075
-1.32197
-1.24434
0.25426
0.316242
-0.377202
0.0609605
0.179956
0.540518
-0.185334
0.0181827
-0.958651
-1.22126
0.136079
1.08518
-1.38054
-0.0169601
-0.401705
-0.941791
-0.0469617
0.153191
0.193871
-0.123917
0.369539
-0.169509
0.0460179
0.387486
-0.338586
-0.360435
-0.813784
1.64462
-0.830833
0.381374
0.228956
-0.220518
0.44865
-0.228132
-0.385329
0.223813
0.437398
-0.623277
0.18588
-0.839313
1.42827
-0.845653
-1.56209
-1.71766
0.225814
-1.07656
0.0629478
1.03472
1.20277
0.00502614
-0.967918
1.19239
-0.463358
-0.343003
0.300526
0.657229
0.587687
0.246121
1.96192
-0.945296
-0.980696
-0.924267
1.90496
1.17777
-0.0481396
-1.12963
-0.142422
0.542346
-0.240628
0.217563
0.15871
1.32385
-1.48256
-1.52785
1.53281
-0.00496094
1.52785
-1.60928
0.245395
-0.310783
-0.54035
1.23371
0.101725
-0.289823
0.296443
-1.64178
0.18973
1.74429
-0.852989
-0.461444
-0.132195
0.143026
-0.482199
1.00124
0.28802
-0.0928
0.738637
-0.589744
0.200647
-0.274139
-0.619884
-0.071842
0.49473
-2.15913
0.533586
-0.0837497
0.479292
-0.395543
-1.02225
-0.90483
0.134086
0.404438
0.619237
-0.938454
0.17023
-0.182759
-0.382221
0.123567
-1.99573
0.990698
0.121525
-0.124766
-0.211109
0.00695543
-0.188462
-0.168234
-1.37157
0.952244
-1.6331
0.68086
0.0738964
0.283561
-0.357458
-0.590372
0.444022
-1.013
1.31321
0.403943
0.611758
1.23875
-1.37445
0.216219
0.0519317
1.66809
-1.94991
0.281818
-0.311928
-0.164337
-0.868946
0.023827
0.408537
-0.509823
-0.209312
0.300431
-0.869133
-0.176929
-0.0393302
0.216259
-1.48272
0.204924
1.27779
-0.236193
0.284973
-0.0427779
-0.187063
0.22984
1.18961
-1.14944
0.233977
-0.228017
0.65332
0.163648
0.270169
-0.219254
-0.262352
0.339315
0.217904
0.624449
-0.842353
-0.445928
0.0170725
-0.897034
-0.991247
1.88828
0.119968
-0.610348
0.663164
-0.734656
1.68929
-0.287772
0.280527
0.076553
0.0699396
0.0476709
1.98841
-0.964821
-1.2894
0.860058
-0.571039
-0.548187
1.33719
-0.239563
0.267846
0.116773
-0.119288
-0.44767
0.386958
-0.332247
0.223244
-0.152361
-0.433213
0.309295
1.00171
0.257835
-0.250879
0.251818
0.000491772
0.0475358
-0.432757
0.320392
0.504526
-0.843112
0.240575
-0.278688
0.0381127
0.298351
-0.221956
0.382015
0.69141
-1.07343
-0.291296
0.161343
0.292177
-0.659929
1.29843
-0.733175
1.04741
0.92219
-0.00511881
0.517714
-1.02213
0.38279
-0.487773
-0.194448
1.00962
0.943101
-1.66303
1.66303
1.46234
-0.915318
1.11644
-0.00508121
1.54977
-1.54469
0.924329
1.02012
0.930401
-1.91829
0.0179659
-1.06179
-1.32401
-0.197103
-1.36952
1.56662
-0.446633
-0.139224
0.0930284
0.67963
0.208451
-0.316387
-0.953252
1.79178
-0.838528
-0.191108
0.311694
0.0102604
0.22471
0.497495
2.02918
-0.786604
-1.24258
1.51871
-1.48105
1.13831
0.205823
0.21987
-0.00331304
0.0573681
1.60555
0.56075
1.01399
0.869091
0.0271746
0.227819
-0.254993
-0.392492
0.247528
0.211572
-0.227745
0.0161728
0.189616
-0.25894
0.0693236
0.428318
-0.450988
0.365408
-0.537967
-0.0719014
0.470853
0.0500183
0.115338
-0.0148489
-0.766351
0.241035
0.525316
0.142541
-0.133137
-0.00940387
1.74867
-1.62681
-0.45412
0.155417
0.298703
-1.61761
-0.377692
0.292746
-0.973872
1.8982
0.288226
-0.365738
1.92624
-0.995838
0.274628
-0.350283
-0.194126
-0.807305
-1.33033
-0.125716
1.46832
1.35084
-1.09435
-0.106837
0.185479
-0.133539
-1.49784
-0.328188
0.323185
0.273774
-0.411485
-0.404683
0.317826
-0.117685
-1.32018
1.26973
-1.42716
1.46422
-1.17768
-0.541672
0.464054
0.696441
0.421107
-0.44383
-0.0927845
0.0947187
0.381757
-0.476476
-0.381775
1.32354
-0.989735
-0.96828
-1.9207
-0.109825
0.10565
0.00417518
-0.0375344
1.46286
-1.42532
0.828826
-0.628456
0.351673
-0.422705
1.48999
-0.810356
0.857195
0.899634
-1.75683
0.256249