/*--------------------------------*- C++ -*----------------------------------*\
| =========                 |                                                 |
| \\      /  F ield         | OpenFOAM: The Open Source CFD Toolbox           |
|  \\    /   O peration     | Version:  2306                                  |
|   \\  /    A nd           | Website:  www.openfoam.com                      |
|    \\/     M anipulation  |                                                 |
\*---------------------------------------------------------------------------*/
FoamFile
{
    version     2.0;
    format      ascii;
    arch        "LSB;label=32;scalar=64";
    class       volVectorField;
    location    "0.9";
    object      U;
}
// * * * * * * * * * * * * * * * * * * * * * * * * * * * * * * * * * * * * * //

dimensions      [0 1 -1 0 0 0 0];

internalField   nonuniform List<vector> 
5098
(
(2.54039 0.392831 0)
(2.10895 0.0203265 -2.39921e-20)
(2.16745 0.0382472 -2.66279e-21)
(1.75336 -0.775177 6.54421e-19)
(1.93061 -0.107125 0)
(1.20955 -0.583636 0)
(2.21839 -0.0595685 3.10239e-20)
(2.01852 -0.00737343 3.27845e-22)
(1.97685 0.0622332 -6.63994e-20)
(2.27438 0.533771 8.48148e-20)
(1.3641 -0.634721 0)
(2.2301 -0.0116068 1.46053e-19)
(2.8941 0.038257 1.52676e-22)
(1.19652 -0.581094 0)
(2.02026 -0.0741362 4.38536e-21)
(1.93038 -0.0195155 4.2113e-21)
(1.32284 -0.762509 -1.31348e-19)
(1.50645 -0.686878 0)
(0.629306 0.295254 7.30647e-19)
(1.36751 -0.760345 1.48311e-19)
(1.85773 0.278528 -6.78154e-20)
(1.86817 0.0231473 1.39556e-20)
(2.41162 -0.871483 0)
(1.02484 -0.145294 2.6538e-20)
(1.13875 -0.567546 0)
(1.67825 -0.688542 0)
(2.07866 -0.0935861 1.11092e-19)
(2.09084 -0.859082 1.5929e-19)
(0.723849 0.522285 -2.16075e-18)
(2.36526 -1.00904 0)
(2.35021 0.110032 -9.83449e-20)
(0.959653 -0.472474 0)
(1.89378 0.118374 -1.17131e-19)
(0.978338 -0.614045 0)
(2.31657 0.0290838 -1.156e-20)
(2.3699 -0.470783 5.30137e-19)
(2.06136 -0.493413 1.21297e-19)
(2.1755 -0.0796337 -7.05024e-21)
(1.54739 -0.544087 4.85475e-19)
(1.91353 -0.871418 0)
(1.78045 -0.802057 -3.06471e-19)
(1.79047 -0.596804 -1.30127e-19)
(1.698 -0.693894 0)
(2.02816 0.206384 1.03844e-19)
(2.40034 0.287682 1.33603e-20)
(1.93494 0.0676931 7.12965e-21)
(1.38646 -0.762864 4.14031e-20)
(1.31267 -0.478467 0)
(2.37526 0.0156378 0)
(1.74012 -0.727276 6.97322e-20)
(2.19519 0.181767 6.8734e-20)
(1.76515 0.227587 -4.09093e-19)
(1.08902 -0.524494 -8.57829e-22)
(2.12283 -0.0390077 1.52658e-19)
(1.27382 -0.627542 -2.95602e-19)
(1.70354 -0.0559447 0)
(2.00014 0.153533 -2.16554e-19)
(1.84521 -0.743065 0)
(1.12304 -0.550568 0)
(2.07637 -0.09884 4.60119e-21)
(1.97498 0.0457672 -4.22411e-20)
(1.04045 -0.532664 -1.27746e-19)
(2.3725 0.169739 0)
(2.80472 0.103207 0)
(1.14307 -0.546737 3.47084e-19)
(1.07777 -0.537661 3.72934e-19)
(2.13137 0.0845155 1.26522e-21)
(2.2524 0.222607 1.49397e-20)
(2.17577 -0.210871 1.50357e-19)
(1.89161 -0.780616 2.00211e-19)
(1.94573 0.128885 7.30959e-21)
(1.85314 0.19906 1.61477e-20)
(2.19035 -0.875615 0)
(0.972447 0.941614 0)
(1.91711 -0.0223414 -1.32599e-20)
(1.49659 -0.726357 -3.36025e-19)
(2.03067 0.132726 0)
(1.60466 0.0314789 3.79775e-19)
(2.18509 0.247967 7.80486e-20)
(1.75313 0.152578 0)
(1.97071 0.0210738 0)
(1.93511 -0.568107 9.70146e-20)
(1.85776 -0.342048 4.4816e-19)
(0.992516 -0.597894 -2.01407e-20)
(1.50979 -0.646143 5.26863e-20)
(2.12424 -0.910719 -1.7409e-20)
(0.361412 0.069072 -2.60237e-19)
(1.9982 0.0821133 -1.31121e-20)
(2.0449 -0.0267028 1.0357e-20)
(1.98199 0.10301 -3.47239e-20)
(2.27466 -0.029459 -6.36636e-21)
(1.1907 -0.643221 1.71588e-19)
(2.35298 -0.0408055 -2.10357e-19)
(1.76209 -0.750759 -3.48681e-19)
(1.53394 -0.564496 8.58896e-20)
(1.81342 0.362685 -5.91528e-20)
(1.44287 -0.71196 -2.73157e-19)
(1.61219 0.0856797 2.78905e-19)
(1.81472 0.187148 -2.60104e-20)
(2.23685 -0.460992 -9.33701e-20)
(1.62238 -0.290115 -1.81139e-20)
(1.34208 -0.652758 -3.50838e-19)
(1.53165 -1.41858 -2.607e-19)
(2.04914 0.0542224 -2.10169e-20)
(1.69764 0.0340058 -4.31721e-19)
(2.49104 0.669391 0)
(1.80629 0.106923 2.3255e-19)
(2.35345 0.112217 5.46738e-20)
(1.27406 -0.525803 6.7309e-20)
(1.3812 -0.672667 0)
(1.40083 -0.674166 -7.40913e-19)
(3.24806 0.640798 1.04851e-18)
(2.01088 -0.00476843 -2.27404e-19)
(1.61926 -0.83362 3.60478e-20)
(1.86675 0.367781 9.84523e-20)
(-1.51041 0.356952 0)
(1.99294 -0.553261 1.71886e-19)
(2.82927 0.839578 0)
(2.04707 0.0573956 2.69632e-20)
(1.05359 -0.177011 -4.06016e-19)
(1.79761 0.258242 3.36049e-19)
(1.72691 1.52055 -2.00737e-19)
(2.25948 0.478877 -5.72548e-20)
(1.80108 -0.713094 -1.1145e-19)
(1.55016 -1.04365 -2.60612e-19)
(1.02928 -0.557698 1.96514e-20)
(2.17134 -0.0596653 1.28958e-19)
(2.38664 -0.831644 -1.43473e-19)
(1.48716 -0.252852 -1.01942e-19)
(1.59663 -0.829624 -7.08046e-20)
(1.68071 -0.7292 -1.08459e-19)
(1.36644 -0.61085 -4.93322e-19)
(1.38923 -0.606581 4.12503e-19)
(2.76009 0.919121 -1.23698e-19)
(1.61172 -0.152752 -3.5295e-20)
(1.95939 -0.268584 6.78741e-20)
(2.18486 2.05078 3.7251e-19)
(1.93799 0.0892835 1.60323e-19)
(1.14741 -0.559873 0)
(1.95059 -0.0902371 -4.9116e-19)
(1.66781 0.341937 -2.72106e-19)
(2.5471 -0.385339 2.3174e-19)
(2.10277 -0.938016 2.91844e-19)
(2.23858 -0.0599995 -1.99065e-20)
(2.26249 0.158406 -4.76887e-20)
(1.95778 0.00651853 0)
(2.25712 -0.18362 1.53358e-19)
(1.80705 -0.0425105 0)
(2.24948 -0.00747128 1.15416e-19)
(2.13387 -0.962614 9.64789e-20)
(1.83255 -0.502521 -6.62935e-20)
(3.30911 -1.19154 0)
(1.75255 -0.0997226 1.49256e-20)
(2.11915 -0.0875693 0)
(0.359554 -0.00692981 -3.16681e-19)
(1.07584 -0.45943 -1.66865e-19)
(1.84165 -0.729422 -3.61224e-19)
(1.60776 -0.20685 -1.8272e-20)
(1.79022 -0.826976 -2.51812e-19)
(-0.602481 0.788084 2.45108e-18)
(2.1376 -0.496774 -3.37727e-19)
(1.93644 0.0322547 4.54794e-22)
(3.76848 -1.34381 -6.09213e-19)
(1.87677 -0.262839 -2.72883e-19)
(1.54493 -0.722298 -5.49697e-20)
(2.23701 0.153947 -1.11803e-19)
(1.68021 -0.077287 -3.7909e-20)
(2.70319 -0.422953 0)
(1.38956 -0.688083 7.58337e-20)
(1.87715 -0.639635 -3.99337e-19)
(1.85598 0.245113 4.21016e-20)
(1.74663 -0.706078 -2.37618e-19)
(2.2342 0.275658 8.80109e-20)
(2.08307 -0.828433 2.82026e-19)
(1.91841 0.0462086 0)
(1.97796 -0.0603707 0)
(1.86104 -0.385954 -1.73168e-19)
(2.40541 -0.368843 -2.37377e-20)
(1.86198 -0.242335 3.74997e-19)
(0.545543 -0.10477 0)
(2.18447 2.44347 0)
(1.92335 -0.493312 -1.42295e-19)
(1.98302 -0.593969 4.76046e-19)
(1.54257 -0.735831 0)
(1.97674 -0.236109 0)
(2.56342 0.306561 3.8435e-19)
(1.6973 0.201046 0)
(2.03377 -0.459716 4.27268e-19)
(1.31726 -0.641859 6.50973e-19)
(1.82956 -0.848286 -7.61303e-20)
(4.04942 0.633948 0)
(2.91632 1.02753 -3.13703e-19)
(2.21671 -0.887712 0)
(1.95648 0.0863049 -3.20922e-20)
(2.35914 0.0647517 1.21939e-20)
(1.25165 -0.620935 -1.75224e-19)
(2.09658 -0.502742 1.08933e-19)
(2.05224 -0.320846 0)
(1.98936 -0.0471085 -2.50595e-20)
(1.91519 -0.58584 -7.01017e-20)
(1.68677 -0.758792 -2.0823e-19)
(1.67269 0.223521 5.05787e-21)
(2.30371 0.292792 -1.08758e-20)
(2.11746 -0.0257987 4.29583e-21)
(1.82026 -0.0955313 1.56978e-19)
(1.04556 -0.462182 -1.19199e-19)
(2.66263 -0.164653 -7.30591e-21)
(1.45042 -0.66555 0)
(2.14131 0.0462106 0)
(1.77327 -0.846344 -2.82237e-19)
(2.15901 -0.262072 -1.4193e-19)
(1.81458 0.113703 2.67228e-19)
(3.15759 0.740013 2.60665e-19)
(2.09154 -0.135023 -1.58279e-19)
(2.04915 -0.106513 -6.82304e-20)
(2.7721 0.478104 -6.58225e-19)
(1.96988 0.0162625 0)
(1.40441 -0.661066 -1.09353e-19)
(1.3646 -0.87208 3.52751e-20)
(2.0141 0.0198238 1.09201e-19)
(2.37098 -0.0250365 -2.3985e-20)
(1.75202 -0.400184 0)
(1.86349 -0.0428048 1.74292e-20)
(2.33035 -0.103514 1.19705e-19)
(1.16475 -0.554734 4.32157e-20)
(2.17651 -0.156868 0)
(0.661704 -0.240394 0)
(2.19288 0.0431733 0)
(2.20283 -0.502342 0)
(2.43137 -0.893353 -1.30175e-20)
(1.80233 0.188488 0)
(0.863152 -0.396983 -4.40788e-19)
(2.0434 -0.516442 -1.09297e-19)
(2.18542 -0.0904196 2.71127e-20)
(2.33206 0.00681184 -6.2793e-20)
(2.12642 0.0665104 0)
(1.66632 1.09613 -1.74663e-19)
(1.79228 -0.790217 -2.97069e-19)
(2.15133 -0.221778 0)
(1.98114 -0.0635863 2.74798e-19)
(1.92194 -0.572638 -3.21511e-19)
(2.19361 0.31362 0)
(2.11063 0.0189332 0)
(1.2581 -0.378199 7.28756e-19)
(2.04717 0.234503 -3.43736e-19)
(2.19783 -0.0424514 -1.76764e-19)
(1.32933 -0.632547 7.92655e-20)
(1.42046 -0.657201 -9.19965e-20)
(1.33568 -0.766051 0)
(2.32192 0.0158633 4.42112e-20)
(2.22355 0.486439 -7.63135e-20)
(2.11534 -0.864823 2.85857e-19)
(-0.0468364 -0.977823 5.54627e-19)
(1.74364 -0.771127 1.32742e-19)
(1.88918 0.0359373 -2.10997e-19)
(1.80718 -0.796138 2.76078e-19)
(1.64896 -0.147003 2.95817e-20)
(2.02141 1.00747 1.43102e-20)
(1.33739 -0.498898 -3.03604e-19)
(1.97455 0.04767 -2.61967e-21)
(2.45946 0.112386 4.50599e-20)
(1.22675 -0.596262 1.65911e-19)
(1.07157 -0.521177 1.21638e-19)
(2.16628 -0.90819 0)
(2.08028 -0.0500788 -5.88523e-21)
(1.38293 -0.687533 4.22328e-20)
(-0.576715 0.763501 -2.93653e-18)
(1.3572 -0.604594 0)
(1.9357 0.36689 0)
(1.82161 -0.0461449 -2.54971e-20)
(1.8389 -0.828254 9.47317e-20)
(2.04893 0.155108 -3.00617e-20)
(0.0155063 0.159342 -1.22301e-18)
(1.95801 0.373421 0)
(1.35478 -0.558929 2.55027e-21)
(1.42339 -1.51399 -4.13436e-19)
(1.75809 -0.59092 -1.21281e-19)
(1.73589 -0.37075 0)
(2.6136 -0.70565 0)
(2.01458 -0.130785 0)
(1.67254 -0.744277 -6.87395e-20)
(2.13236 0.0273837 3.63923e-20)
(1.33827 -0.636141 -1.84199e-19)
(1.98491 -0.219056 -4.04305e-20)
(3.19102 -0.566175 -2.18171e-19)
(0.980438 -1.31895 0)
(1.87827 -0.0489892 0)
(2.06962 -0.00730586 -5.41899e-20)
(2.25772 0.138892 9.0177e-20)
(2.10322 0.114788 -2.2801e-19)
(1.81575 -0.670571 0)
(1.76746 -1.7138 2.76729e-19)
(1.25177 -0.171129 -2.14112e-19)
(2.41332 0.214822 4.54695e-21)
(2.17904 -0.638428 3.05083e-19)
(2.16001 0.564608 -2.97643e-20)
(2.20448 0.0488719 0)
(2.32314 0.0461449 -9.32972e-20)
(2.00209 0.123012 0)
(2.10019 0.132788 -1.31919e-19)
(2.054 0.0404687 4.45964e-20)
(2.32421 -0.0700391 1.83081e-20)
(1.75169 -0.466324 4.66657e-19)
(1.95089 0.187926 1.87092e-19)
(1.26302 -0.638526 -6.70969e-20)
(2.00939 -0.795684 -1.8532e-19)
(2.82414 1.50186 -1.54393e-19)
(1.84952 0.0628557 0)
(1.97947 -0.465015 0)
(1.37889 -0.738937 0)
(2.36144 -0.118943 3.12633e-20)
(0.501708 -1.41499 5.59113e-20)
(1.13262 -0.555527 3.87684e-19)
(2.05514 -0.0362435 3.38073e-20)
(2.90725 0.0555567 1.31022e-20)
(0.42403 -0.0977543 6.25532e-19)
(1.98255 2.09289 -2.80768e-20)
(2.20496 0.173454 -1.27799e-20)
(2.26749 0.0222452 4.60857e-19)
(1.12243 -0.500274 0)
(2.20626 0.154863 -1.01208e-19)
(1.83121 -1.80877 -7.20885e-19)
(2.2398 0.056536 -1.42907e-19)
(0.854458 -0.872839 1.31101e-20)
(1.92805 -0.0592501 -9.12198e-21)
(1.53133 -0.522235 3.28897e-19)
(2.12978 0.454307 0)
(1.9191 0.0885169 -8.27219e-20)
(1.28848 -0.532734 -7.10875e-19)
(1.99566 0.0189002 -2.56185e-20)
(1.66627 -0.795302 0)
(2.21634 -0.0858248 -1.30323e-19)
(1.31202 -0.629187 2.20788e-19)
(2.66509 -0.704317 -1.61949e-20)
(1.92272 -0.786144 -2.69285e-19)
(2.07744 -0.163108 -5.89565e-20)
(2.5626 -0.072026 5.34616e-21)
(1.27748 -0.627635 4.24678e-19)
(2.25803 -0.166458 1.82867e-19)
(1.98294 -0.426213 0)
(2.11401 -0.941854 -2.76012e-19)
(1.87202 -0.782653 -8.1845e-19)
(2.23826 0.229595 2.45867e-20)
(1.98814 -0.0125293 3.33989e-20)
(3.81348 1.56516 0)
(1.88188 0.275627 0)
(2.19636 -0.112772 -1.61955e-19)
(2.21967 0.735055 5.69643e-19)
(2.83329 0.706631 0)
(2.11697 -0.0577578 1.55086e-19)
(2.21814 -0.964267 -4.53865e-21)
(1.121 0.166918 -5.3835e-19)
(1.11107 -0.495915 -3.8333e-19)
(1.67494 -0.759011 7.54292e-20)
(1.93769 -0.00282894 -5.41844e-21)
(1.65309 -0.766421 2.57624e-19)
(1.9907 -0.2826 -6.09992e-20)
(2.29498 0.0720494 0)
(1.55889 -0.242369 -8.76552e-20)
(1.89767 0.145524 0)
(1.96396 0.101425 -3.8453e-19)
(2.2112 -0.401718 0)
(2.35236 -0.0221852 -1.27797e-19)
(1.9997 0.0281138 -2.21443e-20)
(2.12329 0.171388 -9.54096e-20)
(1.33463 -0.540189 4.00522e-19)
(2.07379 0.0100682 -3.15183e-19)
(2.04883 0.293323 -3.48786e-19)
(2.49993 -1.03261 0)
(1.82123 -0.784193 0)
(1.40685 -0.570119 -3.93772e-19)
(2.17149 0.23967 0)
(2.77586 -0.381799 -4.90059e-19)
(1.9799 -0.0159317 0)
(1.75277 0.228082 -2.16162e-20)
(1.20362 -0.613248 1.12939e-19)
(1.93581 -0.609759 5.70613e-19)
(2.71473 1.57265 1.35571e-19)
(2.66579 -0.405363 0)
(2.02169 0.0529969 2.81681e-20)
(2.19217 0.0863412 -1.85945e-19)
(1.11392 -0.610095 -1.98207e-20)
(1.91115 -0.0301576 -1.75228e-19)
(1.76575 0.0757656 -1.77421e-20)
(2.12543 0.089112 -5.29495e-20)
(3.03891 0.11485 3.06788e-19)
(2.25657 0.0311685 -2.0279e-21)
(1.77735 -0.786416 -5.94201e-20)
(1.87039 -0.608789 0)
(1.02333 -1.36733 3.02175e-19)
(2.06165 0.185562 -1.31322e-19)
(2.20692 0.205805 0)
(2.07962 0.00567848 1.17002e-19)
(1.49747 -0.721006 -2.78843e-19)
(1.81557 0.91097 1.42104e-19)
(2.21326 -0.618388 0)
(1.65601 -0.773366 1.03777e-19)
(2.12373 -0.976292 0)
(2.22669 0.0420606 2.89229e-20)
(1.9142 -0.0152462 -1.85821e-20)
(3.4562 -1.66013 1.07566e-18)
(1.22921 -0.212476 0)
(1.70623 0.145996 1.89368e-19)
(1.939 0.0586543 1.28704e-19)
(-1.51253 0.371648 0)
(1.98161 0.0406363 0)
(2.09034 -0.25972 0)
(0.309784 -0.148664 1.34971e-19)
(3.13119 1.24996 1.46429e-19)
(2.27458 0.0136876 0)
(1.88405 -0.0941255 0)
(1.74958 0.101744 -1.52255e-20)
(1.72166 -0.820013 0)
(2.2917 0.139 1.70621e-20)
(2.93378 0.482664 1.6431e-19)
(2.02436 -0.000558298 1.49532e-20)
(1.94268 0.288664 -5.68851e-21)
(1.11255 0.242749 6.18751e-19)
(3.10148 0.660685 -1.99691e-19)
(2.37031 0.0151064 5.97528e-21)
(2.04268 -0.203724 1.30339e-19)
(1.7555 -0.186272 -2.1e-19)
(1.99585 0.158041 2.9555e-21)
(2.0043 0.164768 0)
(1.648 -0.753198 -2.51075e-19)
(1.34376 -0.781724 0)
(1.14413 0.906599 -5.88587e-20)
(1.82253 -0.0389347 0)
(2.12425 0.0967617 0)
(1.71917 -0.815708 -2.14843e-19)
(2.06864 -0.0577273 -8.26267e-21)
(-0.207075 0.487272 -2.47698e-18)
(1.95597 0.00325018 3.21301e-20)
(2.01369 -0.767335 3.00116e-19)
(2.99363 0.353759 1.87125e-19)
(0.802966 -0.942357 4.24743e-19)
(2.04718 -0.0137262 3.59462e-20)
(2.36258 -0.906333 7.84914e-20)
(1.94837 0.0620449 -2.07226e-19)
(2.1118 -0.704917 0)
(1.8885 -0.18061 -3.90952e-19)
(1.96366 -0.515648 3.17519e-19)
(2.09185 0.227831 -4.52396e-19)
(1.27878 -0.792327 -1.2971e-19)
(1.69543 0.871385 -1.31169e-19)
(2.94966 0.666237 2.71988e-19)
(1.99525 -0.285403 0)
(1.95741 -0.0328342 0)
(3.78229 0.382158 -9.39956e-19)
(2.22165 -0.125088 8.0826e-20)
(1.36862 -0.729674 0)
(2.19867 -0.0914366 -1.23988e-19)
(1.97303 0.110533 -2.73541e-19)
(1.2755 -0.812615 -7.46247e-20)
(1.32311 -0.680302 2.25187e-19)
(2.18166 0.121456 -7.64794e-22)
(1.75973 -0.616219 2.3198e-21)
(2.5764 -0.12199 -2.04115e-19)
(2.11279 -0.472487 2.17902e-19)
(3.22036 0.105371 6.28627e-19)
(1.70958 -0.704761 3.02033e-19)
(1.99948 0.0311742 -2.5722e-21)
(1.17412 0.116949 4.45974e-19)
(2.16342 2.14111 0)
(1.89563 -0.553543 1.86318e-19)
(1.44959 -0.655253 0)
(1.64986 -0.800495 -4.8134e-19)
(1.86614 -0.574432 0)
(1.01572 -0.499757 -2.69853e-19)
(1.8114 -0.763999 -4.19347e-19)
(4.35413 -0.0526092 -5.82728e-19)
(2.51213 -0.991424 0)
(0.999581 -0.00650515 0)
(2.19835 -0.174576 0)
(1.9277 -0.00961106 1.07192e-19)
(2.09886 -0.821779 -4.30694e-19)
(3.11352 0.0823455 2.08757e-18)
(1.7354 -0.415319 -7.18334e-21)
(3.19811 -0.16247 -6.94298e-19)
(2.12516 0.344427 0)
(1.3638 1.52803 3.12791e-19)
(2.58743 0.791309 1.0672e-19)
(2.08639 -1.05222 -1.05617e-19)
(2.02319 -0.92722 2.14926e-19)
(2.10708 0.216154 8.92823e-21)
(1.55262 -0.742727 4.58652e-19)
(2.29772 0.343433 0)
(2.0276 -0.0220418 1.11016e-20)
(1.94972 0.823653 1.94189e-20)
(2.04651 -0.00576856 2.25266e-20)
(2.97412 -0.294458 -2.98464e-19)
(1.81783 -0.0461848 0)
(2.35017 0.205675 0)
(2.07166 -0.698532 0)
(0.993464 -0.622281 0)
(1.99367 0.0452165 0)
(1.60063 -0.619419 1.31504e-19)
(3.17134 -0.455438 4.53946e-19)
(1.6431 -0.685579 3.61765e-19)
(1.9884 0.00400935 2.1773e-19)
(1.50343 -0.676061 0)
(2.36965 -0.959141 2.50969e-21)
(0.770598 0.389637 0)
(1.49545 -0.625407 -1.00613e-19)
(-0.403023 1.07325 1.14724e-18)
(2.87146 -0.736655 -2.07951e-19)
(2.08183 0.0460968 2.24727e-19)
(2.04086 0.345152 -7.25827e-20)
(2.26253 -0.594473 -1.30913e-19)
(2.2134 -0.0374321 0)
(1.56917 -1.15025 2.47554e-19)
(2.05032 0.033176 0)
(1.6625 0.626558 1.94703e-20)
(2.22111 0.0524988 0)
(2.22516 0.147992 -9.73681e-20)
(2.11465 -0.0492574 0)
(1.14839 -0.472768 -2.70154e-19)
(1.48542 -0.717072 2.55431e-19)
(1.94936 -0.0780531 -2.84774e-20)
(1.53534 0.210499 3.8962e-19)
(0.521369 -0.259683 -2.76228e-19)
(1.86582 -0.123265 0)
(1.22784 -0.35626 -1.03118e-18)
(2.02991 0.0682387 1.1024e-20)
(2.59425 -0.576018 -5.38716e-19)
(2.05917 0.0340775 -3.3525e-20)
(2.02462 -0.503212 2.52166e-19)
(3.49432 -0.670263 0)
(2.06244 -0.906479 -6.23375e-20)
(2.01366 -0.904832 0)
(2.34158 0.121734 1.43272e-20)
(0.724735 -0.279101 6.85221e-20)
(1.58036 -0.691487 0)
(2.23514 -0.0799947 0)
(1.5477 -0.195475 -2.91403e-20)
(2.41868 0.297789 0)
(1.89048 1.38355 1.67606e-19)
(2.81434 0.166758 -2.99985e-19)
(1.28897 -0.62538 -1.56973e-19)
(1.30955 -0.778334 -1.03806e-19)
(2.22605 0.057641 9.60444e-22)
(0.626711 -1.30979 -1.51993e-19)
(1.15053 -0.555973 -1.684e-19)
(1.93305 -0.0873801 4.31926e-19)
(1.34639 -0.811842 8.47587e-20)
(0.827593 -0.419271 0)
(2.41675 0.11178 6.56348e-21)
(1.50133 -0.201748 4.39886e-20)
(0.658927 0.031679 7.52426e-20)
(2.73271 -0.506842 5.15244e-19)
(3.05395 1.12424 0)
(1.9605 -0.539847 -3.19074e-19)
(1.97555 0.0744573 3.25369e-21)
(4.05964 -0.593588 -1.0785e-19)
(2.13119 -0.0068632 -1.07923e-19)
(1.28643 -0.614252 5.10492e-20)
(1.66455 -0.707273 1.4535e-19)
(1.65479 -0.673505 -8.72795e-20)
(1.33986 -0.708528 -1.25842e-22)
(2.0704 -0.141922 -7.09356e-20)
(1.30063 -0.672221 -5.72087e-20)
(1.84921 -0.0591762 0)
(1.95423 -0.207201 -3.84925e-19)
(2.05735 -2.03386 0)
(0.343376 -0.957777 -2.00817e-19)
(2.60009 -1.79828 1.75447e-19)
(0.765267 -1.6233 7.22707e-19)
(2.02229 0.0284779 -5.91371e-21)
(0.985125 -0.485649 1.48326e-20)
(0.795435 -1.74311 0)
(2.50391 -0.846277 1.72301e-19)
(2.61871 -0.96887 3.21814e-21)
(1.38646 -1.97297 -6.75429e-19)
(1.869 0.378605 0)
(1.76012 0.326027 0)
(0.449065 0.159542 0)
(1.60009 0.0318529 1.27509e-20)
(1.92224 -0.0920413 -3.83545e-19)
(1.4377 0.0407826 0)
(1.67382 -0.274367 0)
(2.14263 0.0124164 -1.73674e-20)
(1.7818 -0.550075 8.31547e-22)
(2.14262 0.111719 -2.78975e-19)
(2.53589 -0.177885 -2.39169e-19)
(1.97656 0.040872 6.45925e-20)
(1.94927 -0.0415576 2.08867e-20)
(2.02594 0.0251495 -3.72819e-20)
(2.04021 0.343677 -2.29328e-20)
(2.01449 0.921711 0)
(1.15826 -0.556879 3.59083e-21)
(1.61149 -1.42362 0)
(1.20529 0.0129413 0)
(2.49839 -0.0646469 -2.27747e-19)
(1.54027 -0.691175 0)
(2.30821 0.245328 0)
(2.02952 -0.129739 5.90164e-19)
(2.27995 -0.983211 0)
(2.03559 -0.0469879 3.57218e-19)
(2.69732 -0.420088 2.94205e-19)
(2.70404 -0.192218 8.62637e-20)
(1.99205 0.0404235 2.92625e-21)
(1.41172 0.855532 2.34413e-19)
(2.56553 -0.912896 7.81063e-22)
(2.67872 -0.98705 7.2074e-21)
(1.38261 -0.551344 3.85313e-19)
(1.13819 -1.13492 0)
(1.21657 -0.598462 0)
(1.49755 -0.731417 -1.85823e-19)
(1.47724 -0.718128 -3.36077e-19)
(0.835969 -0.0630408 0)
(1.19752 -1.01486 2.33188e-19)
(1.05996 -0.515908 0)
(1.33076 -1.27833 3.51756e-19)
(1.36388 -0.632223 -4.97903e-19)
(2.61734 -0.400555 -1.06274e-20)
(2.94337 -0.04444 2.86607e-19)
(1.42276 -0.513905 7.77611e-20)
(2.01988 -0.0315345 4.54113e-20)
(2.30724 0.611374 0)
(2.45031 0.430444 0)
(1.24969 -0.124661 0)
(-1.06104 -0.0592147 -9.05665e-19)
(1.60277 -0.620912 0)
(2.19108 0.357426 0)
(2.02604 -0.0737137 0)
(2.81913 0.320768 -1.00174e-20)
(1.71501 -0.935138 7.33627e-20)
(2.28391 -0.82529 -1.35896e-19)
(1.56812 0.118811 -2.75842e-20)
(2.00603 0.126007 0)
(1.61903 -0.681462 0)
(2.2024 -0.631488 -2.78114e-19)
(1.65786 0.286283 5.80813e-19)
(1.3448 -0.662877 -1.06496e-19)
(2.0237 0.10301 -1.29574e-20)
(1.88529 -0.512278 3.40497e-19)
(1.17881 0.293268 -9.70275e-19)
(1.65063 -0.803311 0)
(1.41577 1.01151 -5.82238e-19)
(0.628048 0.137481 -6.27858e-19)
(2.59394 -0.334027 0)
(2.18478 0.0877123 0)
(1.92265 0.0540596 0)
(1.80985 0.0174861 -3.89063e-19)
(1.53826 0.1536 -4.00202e-19)
(1.7727 0.0623294 0)
(4.35286 0.756636 2.01222e-18)
(2.04963 -0.891329 2.93269e-19)
(2.55484 0.119325 5.12309e-20)
(1.381 -0.681314 8.11398e-20)
(2.27132 -0.247522 0)
(2.31567 -0.0509095 -9.83716e-21)
(1.90548 -0.46994 0)
(1.47652 -0.203311 -4.22542e-20)
(1.99285 -0.886761 0)
(2.43245 -0.79901 2.65214e-19)
(2.67267 -0.191843 2.28428e-20)
(2.00849 0.0219891 -1.72686e-20)
(2.62161 0.113106 0)
(2.03576 -0.840808 0)
(1.77946 -0.750041 -4.40088e-19)
(2.14741 0.401726 -1.88338e-20)
(1.45817 -0.607501 4.62416e-20)
(1.10206 -0.529438 3.93233e-19)
(2.03538 -0.193 0)
(1.65761 0.0823789 -5.88546e-19)
(2.12976 -0.0170849 -6.53045e-20)
(1.64378 0.00158378 9.7712e-21)
(2.01668 -0.00167921 -2.24495e-20)
(2.01929 0.00650558 0)
(1.3929 -0.453915 5.4645e-19)
(1.18336 0.0299218 -6.14876e-19)
(2.95579 -0.524559 6.57148e-21)
(1.8732 0.0694852 -6.7534e-19)
(1.38408 -0.68492 7.4293e-20)
(2.9891 -1.7374 -1.53692e-18)
(3.00302 -0.418434 2.22577e-19)
(1.94303 -0.021108 -3.23074e-20)
(4.05079 -0.747757 1.93527e-18)
(-0.150294 0.849869 -3.2062e-20)
(1.48519 -0.716909 1.3379e-19)
(1.46372 -0.626358 1.01976e-19)
(1.92986 0.0218257 -2.52042e-20)
(2.28496 0.0639934 0)
(2.14207 -0.802629 4.54289e-19)
(1.56075 -0.754391 2.0635e-19)
(1.87792 -0.285232 2.05263e-19)
(0.592436 1.08644 0)
(1.77434 -0.445271 -5.61916e-20)
(2.08953 -0.0139058 2.27979e-21)
(1.95397 0.0829868 0)
(1.63715 -0.800527 1.28667e-19)
(1.49807 -0.431904 2.20893e-20)
(1.9241 0.154813 0)
(1.27284 -0.494131 0)
(1.68693 -0.00969924 1.47265e-20)
(1.64029 -0.0942375 -2.12275e-21)
(2.34895 -0.143553 8.07303e-20)
(-1.69468 0.925432 0)
(2.16288 0.0830832 -3.08186e-19)
(1.90986 -0.0860923 -1.67132e-20)
(2.52217 -0.760417 1.14882e-20)
(1.42751 -0.570264 4.83244e-19)
(1.51999 -0.710817 -1.01121e-19)
(1.54137 -0.650659 5.84569e-20)
(3.00317 -0.467787 -5.68631e-21)
(1.7739 -0.481208 0)
(4.00167 -0.106411 -1.61234e-18)
(1.78103 -0.694935 2.21045e-19)
(2.19117 1.58797 1.56258e-19)
(1.02497 0.381895 0)
(1.36099 -0.350379 -4.8688e-19)
(1.44055 -0.619866 -5.86346e-19)
(1.56442 -0.745821 1.24136e-19)
(1.65993 -1.00594 -2.44853e-19)
(3.1192 1.68191 0)
(2.68597 0.203995 -1.3286e-18)
(2.21507 0.130957 0)
(1.63563 -1.45474 -2.71084e-19)
(3.80734 -1.5782 2.08383e-18)
(1.83622 -0.838533 0)
(1.5661 -0.706506 4.32233e-20)
(1.69817 -0.180432 -8.69092e-20)
(1.4685 -0.777402 8.68926e-20)
(1.87905 -0.723983 3.95252e-19)
(1.44203 -0.711179 -3.10595e-19)
(1.42835 -0.653639 0)
(1.86694 -0.00868681 1.26264e-19)
(2.75197 -1.38076 0)
(2.19651 0.16458 -3.66242e-21)
(0.0671311 -0.754738 -2.55339e-18)
(0.807737 -0.353487 2.63386e-19)
(2.0348 0.0301661 0)
(2.12061 -0.819757 -2.76567e-19)
(2.24325 -0.357252 4.75902e-20)
(1.57228 -0.673308 1.55065e-19)
(1.46231 -0.394402 0)
(1.55249 -0.667612 -1.38034e-19)
(3.11718 -0.732844 -6.99884e-19)
(1.75804 0.0619224 7.48571e-19)
(1.85218 -0.07707 0)
(2.06878 -0.161364 4.67436e-20)
(2.73045 -2.08018 1.26434e-18)
(1.75144 -0.871632 -3.53411e-20)
(2.45537 -0.49484 9.2741e-20)
(1.41908 -0.706931 0)
(1.87426 0.00241638 9.98914e-21)
(2.00264 0.0161292 1.13841e-21)
(2.69694 0.207361 6.19409e-20)
(2.12975 0.0223286 0)
(1.6304 -0.690063 6.80749e-20)
(1.82331 -0.504632 1.08745e-21)
(1.47665 -0.484445 5.98396e-20)
(3.12694 -1.22699 0)
(2.31231 -0.851461 -9.74674e-20)
(1.56755 -0.751917 2.15172e-19)
(1.92563 -0.49724 -4.27582e-19)
(1.2074 0.187045 0)
(2.01721 0.353329 -6.50758e-20)
(2.35366 -0.81386 8.42833e-20)
(1.48164 -0.722512 -1.34827e-19)
(1.91871 0.0587814 0)
(1.10213 -0.557587 3.16087e-19)
(1.70159 0.0154259 0)
(1.70272 -0.726657 1.43132e-19)
(1.66328 -0.144813 0)
(1.86274 -0.0951797 -2.16596e-19)
(2.27454 -0.22132 -2.26157e-19)
(3.90861 0.424458 -1.02878e-18)
(1.74153 0.0953662 0)
(2.34311 -0.974064 -1.41942e-19)
(1.91985 0.0387044 0)
(2.38797 0.159079 0)
(2.61391 -1.01212 -4.40762e-21)
(1.65088 -0.70896 7.67129e-20)
(0.834761 -0.212208 1.67018e-19)
(2.36393 -0.543116 -5.7701e-20)
(1.72667 0.214184 2.55548e-19)
(0.33112 -1.10141 -3.08683e-19)
(2.08511 0.0727868 1.31782e-19)
(1.73318 -0.837489 -2.81406e-20)
(1.82552 -0.549159 0)
(2.21973 0.0856634 0)
(1.55609 -0.750845 0)
(1.16882 -0.547565 2.04969e-19)
(1.39541 -0.509879 -3.39873e-19)
(1.64552 -0.0688235 0)
(1.24867 -0.658941 2.75029e-19)
(2.08606 0.0328736 -1.56716e-19)
(1.38486 -0.70238 -8.94626e-20)
(1.58914 -0.587893 -1.09321e-19)
(2.55306 -0.942673 0)
(1.35275 -0.664747 2.71458e-19)
(1.50386 -0.730106 -3.02133e-19)
(1.83741 -0.850743 0)
(0.195722 0.903454 -2.04866e-18)
(2.04957 0.1156 2.86521e-21)
(2.01143 0.164285 1.75864e-19)
(1.92925 0.0569328 2.24449e-19)
(2.74226 0.411021 -3.3486e-19)
(2.20484 0.121077 -2.66646e-21)
(2.4289 -1.76349 0)
(2.19466 -0.817034 0)
(1.13164 -0.618535 2.96594e-19)
(1.68118 -1.26934 0)
(1.76187 -0.420075 -5.6296e-20)
(2.48096 -0.812551 -1.13693e-19)
(1.24262 -0.586038 4.11633e-19)
(1.93047 0.0112342 4.39687e-21)
(1.73232 0.236874 -2.45277e-19)
(1.7368 -0.693832 -2.18225e-19)
(1.82548 -0.718227 -4.00664e-19)
(1.68307 -0.00614392 0)
(1.93933 -0.733427 3.72875e-19)
(1.8907 0.00315734 0)
(2.82294 0.137139 -1.51928e-20)
(2.13038 0.937542 1.44847e-20)
(1.97752 0.336804 7.76657e-20)
(2.323 -0.312486 -1.66433e-19)
(1.37494 -1.1819 -2.3727e-19)
(1.41975 -0.704077 0)
(1.60392 -0.284152 -1.5455e-20)
(1.71116 -0.618183 -1.08387e-19)
(2.07947 0.297396 -1.60053e-19)
(2.059 -0.798438 3.30719e-19)
(2.07836 0.0518804 -3.98338e-21)
(1.62949 -0.945864 9.17551e-20)
(2.48803 -0.992346 4.37712e-20)
(0.616784 -0.0444226 0)
(1.39958 -0.71414 2.66953e-19)
(1.89042 -0.395534 2.28693e-19)
(2.0351 -0.0207468 5.58767e-23)
(1.42094 -0.623817 8.60988e-19)
(1.50701 -1.91987 5.62837e-20)
(1.80621 0.482565 0)
(1.17393 -0.604108 -9.10303e-20)
(1.59589 -0.678493 -1.04248e-20)
(1.31324 -0.445983 -6.51823e-19)
(1.00239 -0.476449 9.89372e-20)
(3.93768 -0.362812 -4.61393e-19)
(2.07997 0.261124 8.62618e-21)
(1.20244 -0.50675 2.97424e-19)
(1.96704 -0.379014 0)
(2.42646 0.0749673 -2.83549e-20)
(2.08961 -0.0501181 -1.46241e-21)
(2.83989 0.0517782 -2.86583e-19)
(2.26957 -1.28224 0)
(3.18986 -0.189297 5.81318e-20)
(1.64016 -1.31144 2.57835e-19)
(1.82425 -0.775389 8.49651e-19)
(2.58412 -1.43448 7.37882e-21)
(2.07389 -0.917042 -1.76456e-19)
(1.48997 -0.717191 5.18608e-19)
(2.26177 -0.801041 2.94438e-19)
(2.0328 0.12333 -3.56884e-21)
(-0.202891 -0.617185 -3.47459e-20)
(2.22102 -0.00869854 1.34347e-20)
(3.44209 -1.58764 0)
(1.96763 -0.01982 0)
(2.16425 0.18083 0)
(1.98672 -0.751914 -3.19304e-19)
(1.67318 -0.190251 3.15713e-20)
(1.74321 -1.94737 0)
(1.43882 -0.480186 -1.40412e-19)
(1.84721 -0.791378 0)
(2.18297 -0.498236 0)
(2.31788 -2.1122 0)
(1.87947 0.00933059 0)
(1.10492 -0.541929 -9.63388e-20)
(1.77631 -0.847071 0)
(1.96264 -0.454195 1.202e-19)
(2.02042 -0.0909604 0)
(1.99704 0.0283832 0)
(1.79579 0.212118 -6.8377e-22)
(1.58458 -0.772394 0)
(1.74671 -0.29335 0)
(0.2609 -1.20488 0)
(2.04038 -0.0566887 1.68702e-20)
(2.04789 0.0746957 0)
(2.72298 -0.962773 2.22118e-21)
(1.95043 0.172187 3.43284e-21)
(1.15459 -0.548368 -8.99026e-20)
(1.9319 0.152422 5.49701e-19)
(-0.299811 0.134132 -2.3933e-19)
(1.18083 0.561069 -5.20577e-19)
(1.54497 0.497062 0)
(2.57915 -0.0779902 1.09062e-20)
(1.78173 -0.278832 -2.00391e-19)
(1.76732 1.25597 1.36759e-19)
(1.91706 0.237588 3.40771e-19)
(1.0343 -0.419331 -6.33234e-19)
(1.72251 -0.740907 -3.36825e-19)
(1.88265 -0.531048 1.63079e-20)
(1.56392 -0.350825 0)
(3.24874 -0.332688 -7.5968e-20)
(1.57792 -0.337826 1.82367e-20)
(2.39995 -0.0319119 -3.271e-20)
(1.41241 -0.697046 0)
(2.03052 -0.050174 -2.49678e-19)
(3.50357 -0.819949 -9.69419e-19)
(1.57173 -0.63626 4.41599e-19)
(1.48057 -0.667528 -5.35484e-19)
(1.96489 -0.894809 0)
(2.0029 -0.862557 0)
(1.93705 -0.495511 1.12076e-19)
(2.45015 -0.210198 -9.79637e-20)
(2.52358 -0.323063 -2.61187e-19)
(1.95415 0.0784226 -1.38645e-20)
(1.42983 -0.449048 -1.30839e-19)
(1.88886 -0.584253 3.64933e-19)
(2.26581 0.140032 0)
(2.2119 0.145884 -1.9231e-20)
(1.71893 -0.821215 -3.95994e-19)
(1.73119 -0.319869 1.09672e-19)
(2.15447 -0.240345 -2.35948e-19)
(0.866094 -1.61225 1.33358e-18)
(2.50402 -0.309882 2.18014e-19)
(2.45828 0.256968 4.69598e-20)
(2.32367 0.291059 0)
(1.4125 -0.583881 0)
(2.63572 -0.902098 6.67963e-21)
(1.3794 -0.377091 0)
(2.02625 -0.396345 1.48032e-19)
(1.80712 0.131171 4.2384e-19)
(1.75869 0.280354 -1.32294e-19)
(1.78929 -0.721459 8.69689e-19)
(1.99517 0.0229702 -5.96816e-22)
(1.94149 0.048278 0)
(1.94775 0.0189829 1.83088e-22)
(2.32724 -2.07108 -7.08791e-19)
(2.21524 0.268772 0)
(2.78667 0.326631 0)
(2.15289 -0.838297 1.13706e-19)
(1.9819 0.331122 1.94986e-19)
(1.30073 -0.30855 0)
(2.02845 -0.290593 -5.56107e-21)
(2.10349 -0.210065 6.5573e-20)
(2.14048 0.124978 3.24854e-20)
(1.94888 0.30752 3.58849e-19)
(1.28073 -0.732201 -1.21438e-19)
(1.80339 0.168197 0)
(1.14501 -1.30965 -8.01431e-19)
(0.753129 -0.352945 9.5408e-19)
(2.01658 0.0319138 1.46684e-20)
(1.5219 -1.51212 -2.98919e-19)
(2.02887 -0.814687 2.37116e-20)
(2.37031 0.0254754 7.64337e-20)
(1.79238 -0.546061 0)
(2.08676 0.0821476 2.3869e-21)
(1.76393 -0.0659407 8.05274e-20)
(2.19856 -0.0326875 -1.34964e-19)
(2.08998 0.315704 -9.75508e-20)
(2.56299 -0.841261 0)
(1.28556 -0.803155 0)
(2.32537 -0.0193387 0)
(2.38313 0.161653 -6.34136e-20)
(1.32264 -0.619763 6.43979e-19)
(2.67841 1.33703 -1.05799e-19)
(1.6585 -0.252657 0)
(1.4882 -0.716795 -5.53491e-20)
(1.28 -0.579064 8.30047e-20)
(1.75414 -0.775502 0)
(1.94882 0.14858 -1.13162e-19)
(1.69772 0.115356 -1.38017e-19)
(2.12974 -0.287266 -1.98613e-20)
(2.02616 0.0133372 -1.61615e-20)
(0.940373 -0.382199 0)
(2.07448 0.0662341 -1.72669e-19)
(2.21491 -0.409491 0)
(2.09893 -0.262731 3.56719e-21)
(1.17934 -0.074973 0)
(2.18829 0.500343 8.51866e-20)
(1.89938 -0.744307 -3.81617e-19)
(2.38963 0.414227 0)
(1.88806 -0.118813 -3.82568e-19)
(2.03539 0.0288489 2.23459e-20)
(1.88552 0.0232337 0)
(1.43024 -0.668991 0)
(0.776968 0.00435692 -8.35136e-20)
(2.3397 0.132833 -1.33299e-20)
(1.50051 -0.31269 -2.17118e-20)
(1.95148 -1.20425 6.54e-19)
(2.21713 -0.151286 3.22654e-22)
(2.93219 -1.34909 5.43358e-19)
(1.74333 0.119735 -1.64015e-21)
(2.0274 0.414066 0)
(2.97564 -0.32768 3.71572e-19)
(2.01605 -0.898668 0)
(1.73954 -0.779545 -3.67741e-19)
(2.0573 -0.859546 -4.17767e-19)