/*--------------------------------*- C++ -*----------------------------------*\
| =========                 |                                                 |
| \\      /  F ield         | OpenFOAM: The Open Source CFD Toolbox           |
|  \\    /   O peration     | Version:  2306                                  |
|   \\  /    A nd           | Website:  www.openfoam.com                      |
|    \\/     M anipulation  |                                                 |
\*---------------------------------------------------------------------------*/
FoamFile
{
    version     2.0;
    format      ascii;
    arch        "LSB;label=32;scalar=64";
    class       surfaceScalarField;
    location    "1.9";
    object      phi;
}
// * * * * * * * * * * * * * * * * * * * * * * * * * * * * * * * * * * * * * //

dimensions      [0 3 -1 0 0 0 0];

oriented        oriented;

internalField   nonuniform List<scalar> 
7520
(
-0.984063
0.700505
0.283559
-1.39629
-0.133255
1.52954
-0.0589296
-1.61983
1.67876
0.255127
-0.0340197
-0.221107
-0.169054
1.40325
-1.23419
-0.10038
0.107981
-0.00760126
-0.257952
2.08123
-1.82328
-0.00197101
-1.57378
1.57575
-1.26475
1.20582
1.01901
0.0862353
-1.10525
-0.230828
-0.119847
0.350675
-0.141601
-1.8417
1.9833
0.745419
-0.0819841
-0.663434
-0.112631
0.155059
-0.0424289
-1.76116
0.972226
0.788935
0.17869
1.58636
-1.76505
-0.174425
-0.0412498
0.215675
-0.0317709
0.306252
-0.274482
0.0713883
0.0433941
-0.114782
0.0709676
-0.245392
-0.480505
-0.217541
0.698047
-1.06317
1.24186
-0.0338285
-0.334778
0.368607
0.181633
-0.16708
-0.0145524
-0.0259115
0.0925676
-0.0666561
0.275559
-0.271621
-0.00393816
0.82797
1.1466
-1.97457
-0.0383894
0.339201
-0.300812
0.0211706
0.0502177
0.225854
-0.0359748
-0.189879
-1.07015
1.7734
-0.70325
-0.0549328
-0.0210627
0.0759955
-1.74443
1.96241
-0.217986
-0.337351
0.405473
-0.0681221
-0.114988
-1.25607
1.37106
-0.673666
0.877886
-0.204219
0.29907
-0.587155
0.288085
0.869481
-1.59358
0.724096
0.0936602
-0.348438
0.254778
-0.0509399
-0.115855
0.166795
-0.0307739
0.285901
0.530979
-0.0168003
-0.514179
0.315006
-0.0394463
1.88924
-1.16702
-0.722214
-0.400194
-0.714665
1.11486
-1.53743
1.67944
-0.142011
0.0330125
0.13099
-0.164002
0.30405
-0.0943199
-0.20973
-1.35971
0.289562
0.297556
-0.0804472
-0.217109
1.73973
0.184601
-1.92433
-0.709432
0.22622
0.483211
-0.0728502
0.0730146
-0.000164401
0.999276
0.49825
-1.49753
0.0160814
-0.116462
-0.786371
0.0933453
0.693025
0.351416
-1.23973
0.888317
-0.0441789
-0.133702
0.177881
-0.135354
0.0804208
-2.30258
1.10066
1.20192
1.74431
-1.17022
-0.574084
-0.0194883
-0.0512824
0.0707707
-1.10954
0.994549
0.915861
-0.170442
0.00142991
-0.0742801
0.0044056
-0.117036
1.09175
-2.12705
1.0353
0.196548
1.54318
-1.27779
1.01555
0.262242
0.339334
-0.256434
-0.0828998
-0.519382
0.870797
0.673396
-0.909968
0.236572
0.363778
-0.100454
-0.263325
0.366864
-0.50298
0.136116
0.819547
-1.65009
0.830545
0.142921
-0.124968
-0.0179531
2.35643
-0.898532
-1.4579
0.460689
-0.797492
0.336803
1.6109
-1.38123
-0.229667
-0.881239
0.0948683
-1.51084
-0.791738
0.688151
0.0886639
-0.776815
0.269626
-0.671123
0.401496
-0.00870995
-0.328641
0.319202
-0.350973
0.245424
-0.0195701
0.0289559
-0.0431779
0.014222
1.2799
1.07653
-1.54623
1.76977
-0.223544
1.17086
0.573448
-1.02425
1.14251
-0.118261
-0.0461898
0.149199
-0.103009
1.40581
-1.54741
0.263537
0.215572
-0.121912
0.868324
-0.423257
-0.445067
0.007831
0.0950106
-0.102842
-0.565614
0.369359
0.196255
1.55533
-0.735783
-0.762922
0.660273
0.102649
0.831524
-0.799388
-0.0321365
-0.0983638
0.123906
-0.0255426
0.0760452
-0.111834
0.0357887
2.13644
-1.35684
-0.779605
0.554035
-0.501392
-0.482672
-1.35916
0.83978
-1.84468
1.58673
0.193417
-0.0879882
-0.105429
-0.32107
0.090242
-0.177762
0.176418
0.0013433
-0.37054
0.444656
-0.0741162
1.89898
-1.0295
0.0273796
0.03662
-0.0639996
-0.794651
0.314146
0.0720349
0.13592
-0.207955
-0.005557
0.693708
-0.748104
0.380071
0.368033
1.1782
-2.05286
0.874658
0.0628858
0.118747
-0.158483
-0.550949
-0.321626
0.031806
0.28982
1.54369
-0.524681
-0.164799
0.427473
-0.262674
0.137886
0.00471659
-0.142602
0.114614
-0.10969
-0.00492428
0.672006
-1.78059
1.10858
0.410546
-0.444375
-0.344496
-0.0890677
0.433564
-0.0730573
0.100437
0.112548
0.266667
-0.379215
0.165939
0.0352089
-0.201148
-0.0698722
0.235811
-0.632101
-0.116003
0.229487
-0.66513
0.435642
-0.684998
1.37794
-0.692943
0.34106
-0.382361
0.0413003
-1.15221
-0.206954
-0.037527
-0.0563179
0.0938449
1.39728
-0.398003
-0.637036
0.456367
0.180669
-0.00482321
0.146458
-0.141634
0.316701
-0.0827377
-0.233963
0.224899
-1.84473
0.294805
-1.83223
-2.07689
0.890262
1.18662
-0.882559
-0.395231
-1.2185
0.817959
0.400544
1.63622
0.233548
-1.86977
0.201344
-0.252283
0.187772
0.509381
-0.697153
-0.448822
-0.687641
1.13646
-0.135808
-1.0827
-1.75593
0.0115003
0.0209259
0.00802998
0.0746898
-0.147211
0.0725208
0.307779
-0.351958
0.676108
0.155416
-0.171139
0.140365
0.0166031
-0.0183309
0.00172778
0.795406
-0.45842
-0.336986
-0.556052
-1.20511
0.199936
-0.648757
0.0734271
-0.614394
0.540967
-0.176358
-0.0925801
0.268938
-1.56606
0.799733
0.766327
0.413984
-0.583037
-0.0684626
0.483886
-0.415423
0.142583
-0.168495
0.550879
-0.253108
-0.297771
0.902368
-0.0340445
0.258825
-0.339273
0.968038
0.191774
-1.15981
0.319085
-0.357475
-0.321046
-1.38194
1.70298
1.28099
0.66345
0.723238
-0.453612
-1.08827
0.414604
-0.685454
0.939042
-0.253587
-0.012185
-0.0275254
0.0397105
0.27119
-0.330615
0.0594251
-0.842445
0.836888
-0.296095
-0.152326
0.44842
-0.242402
0.0660437
-0.84086
0.914287
0.389331
-0.976355
0.587025
-0.501837
-0.063777
0.722306
-0.423236
0.155007
-0.012086
0.371459
-0.216521
-0.154938
0.00178348
-0.372324
-0.496874
-0.241804
0.738678
0.14036
0.223419
-0.784067
-0.866025
-0.858819
-0.70724
-0.0612075
-0.0600595
0.121267
1.01068
-0.530056
-0.480627
-0.896823
0.211825
-1.16779
2.1095
-0.941706
0.385006
0.165873
0.295839
-0.258413
-0.0374266
-0.742794
0.584311
0.653637
-1.05383
1.77485
-0.0762065
-1.69864
-1.59661
2.18478
-0.588165
-0.0299001
0.10459
0.451676
1.21864
-1.67032
0.0371956
-0.18752
0.150325
-0.138062
1.85309
-1.71503
0.00129541
0.125
-0.126296
-0.89307
1.26567
-0.372603
-0.0554553
-0.687339
0.0736576
-0.570532
0.283148
-0.23733
-1.63195
1.86928
-0.151231
0.194625
-1.74481
0.960738
0.34039
-0.0237685
-0.316621
-0.083318
0.221204
0.172098
1.53607
-1.70816
-0.559259
-0.596455
1.15571
-0.531931
0.435892
0.0960382
2.28819
-1.47394
-0.814256
0.495673
-1.05493
-0.0129861
-0.0009899
0.013976
0.130177
0.736403
-0.86658
0.065316
-0.0679565
0.00264046
0.822898
0.788342
-1.61124
-0.235724
-0.527197
-0.0682305
0.192634
-0.124404
-0.938027
0.66707
0.270957
-0.093195
0.0482444
0.0449506
0.816761
0.193921
1.10332
-2.00716
0.903839
-2.52216
1.14737
1.37478
-1.08126
-1.4409
-0.380467
0.437269
-0.0568021
-0.334002
0.309943
0.024059
0.443742
-1.18727
0.743527
-0.00178472
1.11288
-1.11109
-0.509083
0.597747
1.09045
-0.122417
0.986396
0.991587
-1.97798
-0.216375
0.111012
0.105362
-0.0160995
-0.921927
1.80927
-0.409832
-1.39944
0.151738
-0.114542
0.0193199
-0.270383
0.229133
0.972558
0.836716
0.275366
0.577815
-0.853181
0.38446
-0.0452588
0.0660193
-0.269793
0.203774
-0.286061
0.31593
-0.0298695
-1.83134
0.878169
0.953174
-0.170814
-0.163187
0.847746
-0.618258
0.730462
0.0146504
-0.745112
0.150402
0.153648
-1.92972
1.89935
0.0303661
1.0924
-0.703068
-0.0246385
-0.05288
0.0775185
0.0092421
0.0690091
-0.0782512
0.128629
-0.229082
1.72764
-0.635889
0.0557365
-0.186343
0.130607
0.00118396
0.0154191
-0.432365
0.312518
0.416374
-0.839631
-0.707831
0.706046
0.289669
0.0817896
2.08123
-0.0171554
0.00881984
0.00833551
-0.803046
1.21942
-0.232138
0.152857
0.0792814
0.17219
-0.0961448
0.0206539
0.510325
0.862276
-0.674505
0.444065
-0.390159
-0.0539056
0.341466
-1.23454
-0.115314
0.227862
-1.67078
1.43345
0.0441624
-0.0571485
-1.67275
0.253489
-0.258313
-0.127931
-0.085276
0.213207
-0.629263
-1.20208
1.17903
0.957409
1.68915
-0.889414
-1.8417
0.338149
-0.502948
-0.119045
-0.124396
0.243441
0.185165
-0.28004
0.0948747
-1.21657
0.5019
-0.206154
-0.277051
0.483205
1.0303
-0.944063
-0.118507
-1.80854
1.92705
0.914576
0.244423
-1.54058
1.29615
0.954283
1.00813
-0.897854
1.38193
-0.930259
-0.0406627
0.4064
-0.365737
-0.88721
0.799061
0.0881494
0.10166
-0.0459236
-0.0888969
0.348221
-0.259324
-0.313367
-0.197779
0.511146
-0.519536
1.80053
-0.283927
-0.398479
0.682406
0.242277
-0.209264
0.23628
-1.26053
-0.189606
0.255625
0.00961765
-1.9248
1.05853
0.866274
0.413779
-0.495763
0.00874086
-0.0628047
0.403865
0.964952
1.32324
1.61533
-0.542292
-1.07303
0.14083
-0.0493784
-0.0914512
0.980936
0.629965
-0.156698
0.0376531
0.549265
-1.65331
1.10404
0.167279
-0.217643
0.0503637
0.628896
0.926435
-0.245473
-0.102965
0.76459
-0.489224
-0.565785
1.39376
0.182619
0.0107977
1.91467
-0.736473
0.160074
-0.152243
1.73901
-0.123681
0.114211
0.4246
0.0194644
0.0190582
0.320276
-1.66008
-0.910197
1.02317
-0.112974
0.00648324
-0.131451
1.83767
-0.0225945
-1.81507
-0.752658
0.468731
0.244201
0.0725006
-0.330638
0.0742043
-0.2016
-1.17963
1.55601
-1.55073
-0.0052824
0.0688253
-0.393627
0.324802
-0.98729
1.61619
-0.886938
1.55894
0.133821
-0.0649954
0.762861
-0.38279
1.96427
-0.558463
0.00508859
0.138444
-0.143533
-0.135016
-0.0471972
0.182213
0.138491
0.00233887
0.180525
-0.824143
0.144131
0.120296
-0.264427
0.538484
0.839457
-1.74926
1.42821
0.151228
-0.495725
-0.367447
1.04084
-1.11602
1.30927
-0.193252
0.559682
-1.96931
1.83125
2.16355
-0.883648
0.9012
0.988038
-0.081736
0.285937
1.27008
-1.34685
0.238196
1.10866
0.275016
-0.310991
-0.383574
0.212759
-0.242067
0.172195
0.222427
-1.38945
0.733329
-1.11944
0.386111
-1.7412
0.838646
0.902559
-0.443667
-0.466301
0.0992704
-0.118759
0.0889111
-0.0697932
0.416891
-0.347098
-0.576769
0.508306
1.1979
0.965651
-1.59661
0.0515687
0.0630454
1.63059
-1.42828
-0.202311
-0.466523
1.68516
-1.24876
2.10016
-0.851409
-0.814282
0.984095
-0.169813
0.275389
-1.38493
0.0683135
0.241629
-0.283047
0.454024
-0.170978
-0.0905912
-0.0212427
1.39102
0.523372
-1.24489
0.721516
-0.0467009
-1.54336
1.59006
-0.058636
-0.119126
0.0581489
-0.474389
0.41624
-0.796696
1.11606
-0.319369
0.21965
-0.152973
-0.066677
-0.0940658
0.834235
-0.740169
-1.86634
1.73309
1.8226
-0.496161
-1.32644
0.619328
-0.51307
-0.106258
-0.013678
0.198843
0.151972
-0.653809
-0.838368
1.66127
0.105761
-0.0337261
1.77485
-0.979691
1.10987
-0.0289703
0.0289703
-0.311597
0.233597
-1.77983
2.25856
-0.944888
-1.31368
-0.484447
0.824196
-0.339749
0.030701
0.135155
-0.165856
1.03124
-1.13197
0.100725
-0.474524
-0.329865
0.804389
0.936813
-1.98596
1.04914
-0.0451945
-0.842016
-0.25354
0.118524
-0.288337
-0.500318
0.788655
0.705882
0.502776
-1.20866
-1.28234
-0.414012
0.704437
-0.290425
-0.462485
1.34407
-0.881588
1.50142
-1.32932
-0.0992275
0.243359
-0.129508
-0.161677
0.528541
-1.12752
0.746291
0.381225
-1.53199
1.709
-0.177013
-0.0190571
0.148181
-0.129124
-1.35059
-0.776458
-0.0108767
0.0320473
-1.70557
0.53778
-0.392049
0.303152
-0.360745
-0.453537
-0.0892525
0.256532
-0.667979
1.65437
0.0472418
-0.38202
-1.50395
0.120531
1.38342
0.454939
-0.833052
0.378113
-0.874213
0.188759
0.219707
-0.596295
0.376588
1.61785
-0.209704
-1.40814
-0.0131166
-0.115764
0.128881
-0.322318
0.5745
0.436913
-1.01141
-0.393139
1.36537
0.293425
0.673381
0.723898
-0.0281065
1.52016
0.218843
-1.4202
1.37349
-0.202558
-0.0378859
0.240444
-0.259707
-0.0537535
0.313461
-1.74967
0.50091
-0.319088
0.302287
-0.636975
-0.273222
0.263886
0.912522
-0.440569
-0.471953
0.209874
0.105131
-1.05322
1.88195
-0.828727
0.198461
-0.245658
-0.0912954
0.362485
0.273464
-0.556511
-0.0774845
-0.244597
0.322082
-0.0750402
0.0789397
-0.0038995
0.587072
-0.69222
0.105147
0.00818557
0.0531218
-0.0613074
-0.310776
0.346129
-0.0353534
0.27854
-0.668721
0.390181
0.335404
-0.0603876
0.0333204
0.40765
-0.440971
0.993007
-1.01672
-0.957847
-0.633921
-0.00905909
0.642981
0.150187
0.0444385
-0.304236
-0.227694
1.03788
-0.125355
-0.0782801
-1.1941
1.27238
-0.326272
0.00464599
-0.113696
-0.518405
-0.426711
0.332645
0.187983
-0.186688
-1.30956
-0.0397567
-0.0895741
0.129331
1.22044
-1.02867
1.05152
0.771082
0.85696
-0.126498
-0.22589
-1.64461
1.8705
0.435461
0.667489
-1.10295
-0.309557
-0.986793
0.512793
0.474
0.859558
-0.404619
-0.0923531
-0.11065
0.203003
2.24301
-1.25428
-0.988728
0.144939
-0.332985
0.188046
0.438912
0.65986
-1.09877
0.07938
0.109365
-0.188745
1.62367
0.0361828
-1.65986
0.286794
0.0194587
-0.272217
0.319458
0.090649
0.0132555
-0.103905
0.389893
-0.0706909
0.0292076
0.0241334
-0.053341
-0.751155
-0.463042
1.2142
1.16665
0.451197
1.06899
-1.14727
0.219937
-1.01663
-1.84177
1.72326
-0.171193
0.17591
0.333026
-0.61939
0.286364
0.845842
0.843305
1.14548
-1.30307
0.157592
1.23957
-0.566191
-0.158431
0.109053
-0.0499938
0.184621
-0.134627
-1.41465
-0.272452
1.6871
-0.373561
0.460312
-0.0867513
-0.00201531
-0.026955
0.500347
0.902902
-0.155615
-0.06076
1.13851
-2.11096
0.972448
-0.983424
0.0850178
0.898406
1.72179
-0.618472
-0.0256831
0.462312
-1.14995
-0.284531
0.00530845
0.279222
0.0224253
-0.212304
-0.653177
1.17655
0.0198428
0.0454732
0.251872
0.0879572
-0.339829
0.0942479
0.936995
-0.102903
-0.562227
-0.333155
-0.421095
0.452901
0.574523
-0.935268
-0.0472518
0.0838718
-0.0473664
0.2765
-1.8996
0.882882
0.0275658
0.201883
-0.229449
0.130381
-0.0975986
-0.0327826
0.263084
0.849795
-0.0597317
0.00844929
-0.00874093
-1.58963
1.59837
-0.13516
-0.470517
0.605678
-0.0522988
0.0765073
-0.0242085
-0.355246
1.08858
-0.216403
-0.307721
0.524124
-0.299658
0.519365
-0.733108
1.70326
-0.970151
-0.857635
0.552752
0.304884
1.68177
-0.0455538
-0.296921
-0.0621395
0.359061
0.353113
-0.0864457
-0.192241
-0.287814
1.00085
0.768926
0.488198
-1.30345
0.815249
-0.816609
-0.188671
1.00528
0.143322
-0.282633
0.139311
0.114701
0.277208
-0.391909
0.455487
0.162295
-0.617782
0.068592
-0.258198
-0.914347
0.0944229
-0.00185533
0.159163
0.0964621
-0.133588
0.414684
-0.281095
-0.249852
0.289408
-0.0395554
-0.115539
-0.02152
0.137059
0.782961
-0.410816
-0.035285
-0.00789284
-0.338563
-0.409644
0.748208
1.21637
-0.953291
-0.0339231
-0.346738
0.380661
-0.320142
-0.479246
-1.31496
1.51151
0.665967
-0.156586
-1.2303
0.801879
0.428416
0.261934
-0.109164
-0.15277
1.78322
-1.78322
-1.67399
0.16315
-0.91306
-0.175065
-0.677923
0.852987
0.535181
-0.558995
0.0238135
0.0803874
0.100931
-0.187924
0.0869936
-0.043674
0.239003
-0.195329
-0.559944
1.17774
-0.617799
-0.269323
-0.0601671
0.32949
0.82234
-0.546952
-1.0892
0.272591
-0.0436191
-0.236047
0.279667
-0.0672779
-1.27958
-0.68398
-1.12749
0.443505
0.861455
-0.0473845
0.24037
-0.192985
-0.290253
0.354263
-0.06401
-0.255633
0.187402
-0.0892104
-0.225129
0.0971978
0.0405173
-0.0410887
-0.131775
0.172864
0.151631
0.0329893
-0.333395
0.366716
0.173974
-0.219572
0.0455982
0.0340988
0.0398395
-0.0739383
-0.0954272
0.227107
-0.13168
-0.071592
0.190623
-0.119031
-0.779992
1.1661
0.713174
-1.05611
0.342934
-0.174883
-0.0830856
0.257968
-0.0353349
-1.91537
1.9507
0.850494
-0.62435
-0.226144
0.349102
-0.0833815
-0.196658
0.237727
-0.101807
-0.0629222
0.207862
0.357983
-0.895563
0.53758
-0.481125
-1.44859
-0.2648
0.932803
-0.668003
0.0729147
-0.145972
0.430048
-0.289351
-0.140697
0.180664
-0.519227
-0.570347
-0.322274
0.374255
-0.0519804
-0.552502
0.346347
-0.11179
0.568157
0.140054
-0.130812
-1.38583
0.0289928
-0.296028
0.569492
-0.0320085
-0.221531
-0.194966
0.0603392
0.271459
-0.318844
-0.0875838
-1.15412
0.37413
1.97381
-0.120722
-1.63195
2.1943
-1.06397
-1.13033
-0.138483
0.507842
-0.148747
-0.732492
0.531931
-0.530148
-0.264548
-0.0199829
-0.583959
-0.482819
1.06678
-0.0582775
-0.108914
0.167191
0.0297745
-0.912333
-1.81728
-0.340681
-0.335669
0.67635
0.298623
-0.433783
-0.2637
-0.0414276
0.305128
0.495775
-0.0852292
0.187468
0.0744659
1.96533
-1.02852
-0.979577
0.395618
-0.266889
-0.0539061
0.320795
-0.0472392
-0.0118161
-1.12015
-0.312408
-0.0735327
0.385941
-0.0966706
-0.038683
0.90368
-1.22166
0.317978
-0.64552
-0.0400589
1.82328
0.293269
-0.702913
1.1559
-2.03105
0.875153
-1.96132
1.21276
0.748564
0.176205
0.110446
-0.286651
0.154787
1.1064
0.0534728
0.818423
-0.871896
-0.0333654
-0.152978
0.200899
0.418429
-0.0364438
-0.319119
0.355563
1.24252
-1.46841
0.428727
-0.182376
0.225902
-0.0435263
-1.52404
-0.149945
-0.653826
-0.917946
0.284024
0.122279
0.00359825
-0.125877
-0.660452
0.346166
0.314286
-0.406185
0.365522
-1.1129
-0.577928
1.69083
-0.132252
-0.0891024
0.119803
0.471701
-0.535483
0.0637821
-0.872019
1.71067
-0.182308
-0.862282
0.377835
0.594208
0.253537
0.718452
-1.2784
0.0768593
-0.117143
0.0402833
1.29784
-0.21649
-1.0177
-0.362187
-0.0809433
0.44313
-0.0563273
0.228522
-0.0550084
0.274858
-0.219849
-0.283668
-0.0673045
0.152792
0.709485
-0.375296
0.327072
-0.0682469
-0.41865
0.355845
-0.177379
0.0244124
0.152966
0.274387
-0.103459
-0.170928
-0.164219
-0.0432385
0.207457
-0.209545
-0.0302259
0.239771
0.0173638
-0.159966
-0.266693
-0.126934
0.057694
1.20862
0.277418
-0.104773
-0.172645
0.313134
-0.11056
-0.202574
-0.138847
0.43241
-0.293563
-0.361903
0.280452
-0.694464
0.0392294
0.38531
-0.077531
0.194615
-0.0520314
-0.148194
-0.0393263
1.82775
-1.0394
0.686801
-0.952155
0.265354
-1.56678
0.251817
-0.0641457
-0.154597
0.218743
-0.0489663
-0.0442287
-0.819803
-1.14152
0.381405
-0.0623199
-0.814759
-0.838547
0.343835
-0.0919638
0.0137069
0.457995
1.12217
-0.794268
-0.830067
1.31826
-1.61758
0.202928
0.344927
-0.203394
-0.141533
-0.13904
-0.194824
-0.410139
0.604963
0.161798
-0.0311909
-0.671657
-0.645735
1.31739
-0.914504
-0.986771
1.90127
0.600612
0.446067
-1.04668
-0.0083746
-0.276787
-0.0454873
-0.270312
-0.286199
-0.196247
-0.106094
0.302341
0.751256
0.385206
0.291956
0.138092
-0.250634
-0.636708
0.0238985
-0.0410538
-0.379994
1.37806
-0.998064
-0.152419
-0.240653
-1.60513
-0.0889025
0.028843
-0.569014
-0.138901
-0.240314
-0.817526
0.199267
-0.18552
-0.925625
-0.336367
1.26199
-0.27479
0.806722
0.472788
0.351408
-0.315836
-0.988435
-0.911166
-1.26666
1.36738
0.0855512
0.0763256
0.0317314
-0.0929536
0.0612222
-0.663004
0.603963
0.0590407
0.746552
-0.802007
0.307646
-0.28008
-1.15011
-0.0801806
0.151296
-0.161719
0.0104231
0.617773
-0.0307004
-1.41029
-0.0463329
1.45663
0.0381399
0.113491
0.0522711
0.335375
-0.387646
-0.264093
0.446087
0.107947
0.0931143
0.0339083
-0.127023
-1.25812
0.84829
0.152885
0.008913
-0.196059
-0.136926
-0.350641
-0.0479155
0.000663706
-0.113741
-0.355368
-0.0392503
-0.0646542
0.42119
1.47816
-0.765815
1.66701
1.00133
0.499221
-0.829086
-0.0127616
-1.39753
0.598809
-0.345959
0.40659
-0.0606313
-0.0871965
-0.0224933
-0.0702622
0.0297079
-0.062306
0.142727
-0.0928651
1.51246
-1.4196
0.142776
-0.830114
-0.129398
-0.279833
-0.0721245
-0.108705
-0.30241
0.380302
-0.0778924
0.0111904
-1.4657
1.45451
0.651061
0.200155
0.335026
-1.18304
-0.58535
0.995133
-0.409783
0.0804824
0.04367
-0.141269
-0.598086
0.543122
0.0549643
0.370422
-0.505965
0.135544
-0.171596
-0.582425
0.754021
-0.294315
-0.0631604
-1.94255
0.0902784
0.203914
-0.198825
0.0489819
0.182137
-0.0292523
0.36241
-0.698079
2.17526
-0.919341
-1.25592
-0.0469466
0.449528
0.348536
-0.296265
0.241954
0.1323
-0.2009
-0.00883014
-0.400752
0.392042
-0.467454
0.787646
-0.959242
0.162018
-0.106831
-0.0551875
-0.390248
-1.78476
0.906429
0.878331
-1.73285
1.69752
-1.11649
0.512582
0.603904
-0.777246
-0.0519923
0.829239
0.389776
0.648102
0.0894938
0.212427
0.849096
0.825176
0.0310243
-0.276632
-0.0127184
0.989455
1.1858
-0.270798
0.0010054
1.36086
-1.12732
-0.0509526
-1.3997
1.45065
1.12232
0.0863066
-0.311059
-0.0809901
-0.141418
0.137643
-0.279333
-0.124538
-0.259035
0.170685
-1.0975
0.926812
-0.145575
2.25767
-1.43202
-0.825652
-0.00503074
0.147656
-0.0125002
0.717973
0.118914
1.61508
-1.45193
1.00264
-1.91714
-1.22905
0.0176979
1.21135
-0.85323
0.245201
0.60803
0.269501
-0.173038
1.95768
0.050967
-2.00865
-1.09978
1.62096
-0.521186
0.0517191
0.237689
-1.21441
0.751924
0.0139945
0.0301678
-1.34998
0.233961
0.00966324
-0.0309866
0.0213233
-0.162733
0.224485
-0.0617516
0.0734154
-0.448158
0.374742
0.595842
0.427329
-0.519392
-0.14106
0.0161741
0.869352
-0.914546
-0.0771326
-0.0700781
-0.274227
0.0571178
0.0786915
0.727853
-0.806545
0.0411571
0.540856
-0.582013
0.0682565
-0.465282
0.397025
-0.556929
-1.43884
0.586436
0.852405
-0.0284409
0.84371
0.27428
-1.11799
-0.597201
0.245491
-0.269502
0.0240109
0.188122
-0.0377976
-0.26871
0.00500973
-0.308316
-0.796665
0.12216
-0.440499
0.840302
-0.399803
-0.823792
-0.264478
1.87711
-0.818584
-0.103128
0.200916
-1.3024
-0.0166687
-1.30328
1.31995
0.0951288
-0.0519178
-0.043211
0.778749
-0.524219
-0.25453
0.169567
-0.0231099
0.205355
-1.20664
0.382853
-0.691948
1.20474
-0.0701929
-0.362173
0.314708
0.249971
0.0244168
0.853092
-0.384361
0.0577508
0.688801
-0.928599
0.37765
-1.89928
0.912509
1.46718
-1.45599
-1.59682
1.50396
0.199352
-1.43215
0.22101
1.21114
0.616139
0.316664
0.0354463
-0.900736
0.725671
-0.1471
-0.128726
0.275826
-1.14664
0.354502
0.792137
0.348236
0.600615
-0.948852
-0.0123564
-1.2543
0.785823
0.0525755
-0.838399
0.266094
0.58681
-0.954257
0.137855
-0.0153198
0.0635642
1.58557
-1.54939
-0.0446866
-0.983733
-0.455107
0.638427
-0.0199016
-1.20915
1.14494
-0.30123
-1.83125
-0.0104429
-0.197734
-0.962078
0.350674
0.238614
1.84177
0.239463
0.0591322
-1.17928
0.15452
-0.119311
0.139411
-0.452779
0.326321
-0.593289
0.266969
-0.144879
0.00653299
0.138346
0.315744
-0.377884
-0.0498978
-0.236163
-1.11725
1.17005
-0.0528024
-0.736517
0.851003
-1.39399
0.542983
-0.830056
-0.0680356
0.112986
-1.46108
0.0881967
1.37288
-0.385167
0.944849
-0.688694
0.718469
0.155621
0.935798
0.638802
-0.971958
-0.822926
-0.203366
1.02629
-0.818295
-1.22392
0.552267
-0.136134
0.139893
-0.00375847
0.0790856
-0.103294
0.810723
-1.4639
0.0302979
-0.554563
0.524265
-0.325692
0.242336
0.0833558
-1.05545
0.473029
0.04058
0.0273386
-0.248446
0.429857
1.82714
0.13054
-0.779258
0.832731
-0.292196
0.0961364
-0.836154
1.46983
-0.633674
-0.0859106
0.0703136
0.0846935
0.390314
-0.0217077
0.893824
1.21568
0.538311
-0.921102
0.338887
-1.81282
-0.183581
0.143824
0.0692401
-1.09791
-0.268161
-0.953497
-0.229036
0.057897
0.812041
-0.382185
-0.700438
-0.0338025
0.743287
0.201697
-1.74324
0.359211
1.38403
-0.0410818
0.487169
0.408459
-1.34225
-0.254367
0.78391
-0.347245
-0.436665
0.90518
-0.301899
-0.603281
-0.195145
0.0421717
0.684106
-0.659075
-0.025031
-1.70635
0.756302
0.950044
0.95282
0.75044
0.000809025
0.12147
0.808672
-0.52822
-1.4416
0.556199
0.885403
-1.86928
1.59682
0.588392
0.812866
-1.40126
0.844925
-0.750057
1.73172
-0.756775
-0.974949
-1.09109
0.200817
-0.0917642
0.0628397
-0.104898
0.21591
-0.0502409
0.141799
-0.0915585
-0.268497
-0.234483
-1.34437
-0.229411
0.0637141
-0.100158
-0.0374736
-0.0304828
1.04787
-0.392134
-0.655738
0.82772
-0.481553
-0.153688
0.14001
-0.122263
1.26774
0.0853742
0.00975453
-0.261396
-0.794058
-1.48411
0.558487
-0.0568994
-0.110181
0.129958
0.0944269
0.129929
-0.098198
-0.512044
-1.03168
0.118277
-0.0927537
-0.0255228
0.201641
-0.576247
-0.938706
1.51495
0.16476
0.0173772
0.0718493
1.03136
0.969898
-2.00126
-0.484293
1.08491
0.233577
-0.093212
0.450671
-1.01408
-0.640931
1.65501
-0.939319
-1.03521
0.55239
0.303803
-0.118745
-0.185058
0.281707
-0.811763
-0.209387
1.22849
-0.377491
-0.196645
0.113907
-0.286373
-0.769735
0.0349925
1.89669
-1.72326
-0.173427
-0.881671
-0.602441
0.192536
0.185284
0.0692432
-1.05032
-0.227464
1.27779
0.262877
0.454058
-0.0836361
-1.60239
-1.99841
0.795777
1.20263
-0.179253
-0.00547211
0.184725
0.989678
-0.582433
-0.407245
0.121866
-0.184172
0.0848925
0.0915259
0.909872
-2.02278
0.800158
0.105022
-0.379917
-0.59966
-0.138367
0.029454
0.168131
0.766943
-1.34319
0.0186402
0.38776
-0.533462
0.371785
-0.106813
-0.0403472
0.14716
0.730063
1.00166
0.546055
0.0517433
0.314425
-0.408428
0.0940031
1.96931
-1.6101
0.231331
-0.57342
0.160541
0.0275816
0.14107
0.022453
0.150411
0.00462845
-0.140763
0.589912
0.0490889
-1.70014
-0.0223535
-0.1569
-0.0814453
-0.0115083
1.02666
-0.553869
0.88533
-0.563364
-0.321966
0.00438314
0.119523
0.0025626
0.00710063
0.406441
-0.104259
0.100359
-0.392026
-0.300193
-2.00885
0.907209
1.10164
0.160067
-0.0108676
-0.0140635
0.113274
0.13215
-0.277871
-0.318424
0.441746
-1.45583
-0.10717
-0.953189
1.98455
0.629681
-0.154969
-0.474711
-0.784551
-0.431878
-0.127117
0.100883
-1.09955
0.424231
-0.713981
0.28975
-0.32889
0.285574
0.0433159
-0.0627959
1.13
0.970167
-1.6327
1.6101
-1.45683
0.856422
0.600406
1.02491
-1.9781
2.04141
-1.07646
-1.0121
-0.946945
-0.0660984
0.482989
-0.122501
-0.351887
-1.50143
0.0692865
-0.0206139
-1.28246
1.26577
-2.04323
0.777462
-0.0570573
0.258401
-0.541962
0.598745
-0.293861
0.912489
1.34519
-1.50204
0.665888
-0.117359
-0.82196
-1.34384
0.30547
-0.0198951
1.73285
-1.7784
-0.0925408
-1.30306
0.0421963
0.824139
-0.249639
-1.47286
1.64119
-0.168327
0.343518
1.60718
0.459254
-0.0654944
-0.393759
1.90091
-0.898266
0.250547
0.121233
0.637543
-0.751239
0.109075
0.140895
0.0924648
0.877559
-0.970024
-0.710617
-0.439367
1.04388
-1.06285
0.0189628
-0.384345
0.310813
-1.66612
0.876745
0.789372
0.637146
0.141603
-0.753526
0.122536
0.854407
-0.60087
0.305289
-0.575602
0.184105
-0.236136
-0.663338
0.468514
-0.998304
-0.911831
1.91014
0.273946
-0.304172
0.300693
-0.371384
1.01911
-0.641273
0.0591473
0.990372
-1.75619
0.109846
0.307872
0.237494
-1.19078
0.00961764
0.690887
0.105151
0.111228
-0.611547
-1.35677
0.526702
0.0983113
-0.522201
0.42389
0.0731877
-0.332511
1.07843
1.11587
1.2974
-0.979425
-0.0175447
0.142223
0.173707
0.477549
0.302715
-0.370019
-0.726942
-0.953222
1.97814
0.167811
-0.196252
-0.812964
-1.05596
1.86893
-1.58642
0.486638
-0.0766233
-0.454498
0.160935
-1.40197
-0.101979
-0.237669
0.661899
-1.04838
-0.96047
1.89669
0.66939
-1.37663
1.07027
-0.642942
-0.250863
-0.384207
0.338719
-0.270897
0.236974
-1.6411
0.240916
-0.826266
1.02587
-1.97909
-0.812586
0.284028
-0.370474
-0.0297862
-1.44308
0.852657
-0.65339
1.3863
0.919029
-1.67391
0.754886
1.72837
-0.972065
1.9833
-0.949854
-0.989073
1.93893
0.422911
1.28067
-1.01779
-0.799647
-1.19876
-0.876096
-0.580732
0.475056
-0.747984
1.64805
-0.900068
-0.125141
1.36173
-1.23659
-1.01837
-0.933449
1.95181
0.901757
0.142128
0.28928
0.393662
-0.940703
0.443161
0.497542
0.0488631
-0.294521
0.521992
-1.40366
-0.832515
-0.405298
-0.257706
0.250861
-0.389762
-0.805306
1.04188
-1.9623
0.954116
1.00818
-0.0795286
-1.59698
1.67651
0.111276
-0.277629
0.0823005
0.582485
-1.84411
1.84411
-0.0604038
-0.00381631
0.0642201
-0.605021
1.1078
0.303446
0.00202404
-0.819284
-0.65913
1.04434
-1.6327
-0.0511546
-1.29347
0.313776
1.21471
-1.28199
-1.19596
0.145637
0.260794
-0.36114
0.100346
0.165105
0.519001
-0.15886
0.0139819
-0.952
-1.16704
0.147216
1.01983
-1.39179
-0.0653764
-0.375667
-1.01832
-0.0437815
0.136896
0.174941
-0.148832
0.390786
-0.0862795
0.0470292
0.375994
-0.291862
-0.371476
-0.738122
1.5801
-0.841974
0.374108
0.214657
-0.221404
0.427301
-0.205897
-0.399557
0.201779
0.440496
-0.569047
0.128551
-0.898619
1.51528
-0.926886
-1.4739
-1.65938
0.19368
-1.09259
0.0565894
1.0033
1.23971
0.0794999
-1.04158
1.10199
-0.355697
-0.395537
0.325344
0.648607
0.612471
0.232454
1.974
-0.948134
-1.0039
-0.897346
1.90125
1.15864
-0.0201606
-1.13848
-0.180906
0.0703463
-0.21161
0.192553
0.128451
1.35047
-1.47892
-1.47417
1.45599
0.0181845
1.47417
-1.50396
0.227785
-0.284843
-0.49003
1.07684
0.0939866
-0.120586
-0.03938
-1.66034
0.11977
1.738
-0.818974
-0.436047
-0.113294
0.137706
-0.451984
1.06221
0.275408
-0.0873617
0.703645
-0.64868
0.191328
-0.258005
-0.597514
-0.0736088
0.0970621
-2.04918
0.505819
-0.0749281
0.453482
-0.378554
-1.08722
-0.95601
0.0957905
0.485214
0.607184
-0.892378
0.11312
-0.112474
-0.352808
0.109219
-1.99742
0.985313
0.0831299
-0.0869096
-0.231934
-0.0598852
-0.0538557
0.128851
-1.4142
0.857916
-1.55212
0.694204
0.0643005
0.263782
-0.328083
-0.546817
0.42242
-1.00867
1.32244
0.587359
0.497547
1.37628
-1.34225
0.199454
0.0447467
1.65503
-1.87016
0.215126
-0.319557
-0.215927
-0.854716
0.0163173
0.389379
-0.470322
-0.187649
0.247988
-0.945842
-0.191034
-0.0157205
0.206754
-1.48456
0.244176
1.24038
-0.211426
0.249566
-0.0415516
-0.172428
0.21398
1.18178
-1.20168
0.213985
-0.207452
0.675207
0.177781
0.206381
-0.195958
-0.137315
-0.00865744
0.241293
0.634737
-0.876029
-0.451086
0.00292871
-0.963972
-1.03328
1.99725
0.138669
-0.714136
0.97949
-0.820275
1.69752
-0.153926
0.0148866
0.0646668
0.0529712
-0.0173865
1.989
-0.999548
-1.22077
0.811722
-0.570806
-0.535552
1.42095
-0.162316
0.058057
0.0876727
-0.089688
-0.503101
0.330456
-0.314048
0.207954
-0.186393
-0.449943
0.301111
1.0473
0.122257
-0.182142
0.270308
-0.0299383
0.0429082
-0.46431
0.205275
0.509952
-0.801815
0.223508
-0.256949
0.0334417
0.11037
-0.162288
0.329925
0.79451
-1.12444
-0.269573
0.140846
0.380535
-0.655326
1.32576
-0.787281
0.980472
0.857222
0.0655694
0.554634
-1.02752
0.367314
-0.452543
-0.257154
1.0282
0.937131
-1.59707
1.59707
1.60681
-0.883062
1.11934
-0.0595804
1.51764
-1.45806
0.9037
1.04074
0.926442
-1.92475
0.155949
-1.11519
-1.35611
-0.207845
-1.46163
1.66947
-0.422684
-0.129817
0.0833032
0.700519
0.190382
-0.293841
-0.976882
1.78913
-0.812243
-0.181984
0.29106
-0.00235979
0.349032
0.510526
2.21265
-0.833959
-1.37869
1.55361
-1.46541
1.10285
0.206424
0.136543
-0.00272231
-0.0283461
1.56441
0.579895
1.02346
0.858484
0.0235071
0.210575
-0.234082
-0.373219
0.236292
0.194458
-0.2082
0.0137416
0.173623
-0.234521
0.0608985
0.456227
-0.440053
0.351442
-0.50386
-0.167282
0.50543
0.0371757
0.0923016
-0.0119142
-0.495507
0.742535
-0.247028
0.107984
-0.101886
-0.00609822
1.7784
-1.43017
-0.43316
0.222551
0.210609
-1.58557
-0.358649
0.281118
-1.011
1.9147
0.273967
-0.346092
1.93438
-1.00793
0.262711
-0.330958
-0.17103
-0.602849
-1.31563
-0.123809
1.57705
1.28064
-1.04315
-0.108497
0.171382
-0.0781264
-1.47261
-0.313225
0.309287
0.261607
-0.391006
-0.382556
0.304664
-0.103871
-1.34202
1.29107
-1.49435
1.48906
-1.19517
-0.49865
0.444744
0.679182
0.403848
-0.416567
-0.0744891
0.067245
0.364342
-0.431587
-0.415962
1.38852
-0.989328
-0.972166
-1.94035
-0.0950302
0.0910155
0.00401472
0.0183224
1.40224
-1.42056
0.849194
-0.727034
0.337683
-0.398315
1.59848
-0.897963
0.84337
0.86425