/*--------------------------------*- C++ -*----------------------------------*\
| =========                 |                                                 |
| \\      /  F ield         | OpenFOAM: The Open Source CFD Toolbox           |
|  \\    /   O peration     | Version:  2306                                  |
|   \\  /    A nd           | Website:  www.openfoam.com                      |
|    \\/     M anipulation  |                                                 |
\*---------------------------------------------------------------------------*/
FoamFile
{
    version     2.0;
    format      ascii;
    arch        "LSB;label=32;scalar=64";
    class       volScalarField;
    location    "1.4";
    object      p;
}
// * * * * * * * * * * * * * * * * * * * * * * * * * * * * * * * * * * * * * //

dimensions      [0 2 -2 0 0 0 0];

internalField   nonuniform List<scalar> 
13486
(
58.7481
46.8899
-0.093049
-29.3737
18.4674
-9.24357
6.48056
32.7754
39.1486
22.6685
-292.854
7.68096
62.0406
-6.75777
12.7838
23.8002
-117.342
-0.465631
10.5619
52.7037
-21.3714
61.3932
45.9433
-98.06
19.1069
-80.7944
-130.603
-32.6865
-0.0809188
-30.6254
-16.4319
8.81959
-63.7215
-20.6013
32.7719
-0.228728
-2.09578
48.1972
-5.64986
38.6826
4.92858
64.8593
0.366032
19.6069
19.073
7.14768
-73.6726
-0.0526184
-1.91602
-32.0709
33.3361
-5.9337
5.20621
48.8334
-2.0355
19.514
-0.460171
-5.95102
-59.2872
-3.51923
-343.717
-3.09503
-67.8747
-19.6433
-58.4393
-2.14606
-38.8589
58.9519
38.9138
-2.81796
-37.9802
-1.5045
39.4597
-146.955
-2.14341
-0.453578
-1.8439
12.4735
-88.0597
-7.4181
0.0594777
47.2089
-64.645
-0.051916
58.9829
14.0261
-4.82278
31.2164
38.921
26.9516
5.63331
28.2575
56.2268
50.2029
41.1178
-0.0189626
-137.634
-57.9125
38.4586
-118.188
0.0424827
-4.80285
-55.7308
-5.82349
26.7734
-113.665
38.3891
-5.88794
-81.0261
26.9149
39.0808
6.42343
48.7523
0.403679
69.3788
39.6866
19.8934
-19.2822
39.8616
-1.55024
-0.24932
-326.265
43.0206
-5.77783
37.9543
-5.60615
26.8088
7.26135
-16.3739
-43.1511
-5.65307
-61.8931
-188.941
-94.6388
34.7247
31.8172
62.7885
27.5781
-1.56369
33.5072
-48.7332
5.01191
9.19491
-7.68651
0.637228
-126.94
-1.32067
57.9739
-33.7748
0.0156534
20.736
12.2245
0.0519722
48.6393
9.6862
-0.681784
21.8165
-3.44635
43.5138
-40.4282
-25.0882
43.4619
4.05361
64.3079
-6.02905
-14.8876
-0.72273
78.7495
-2.55439
-96.9109
-180.727
9.73223
25.7033
19.4383
-0.078875
-182.972
-10.7236
-55.854
38.5174
9.22105
36.5721
0.470695
14.8376
-196.524
-0.560797
-32.4275
-0.0618882
-26.854
6.54205
42.4723
-1.66127
-0.0955712
-6.62556
53.2597
-7.33538
-282.24
-44.2172
-25.3078
53.3955
-11.7412
-17.1841
6.7156
48.2105
17.9397
-40.4315
-7.52367
-2.11544
42.4426
-6.52599
-0.468183
-29.0843
-68.483
52.0646
38.4469
-9.27033
-15.1566
-32.4261
27.0692
53.3016
-55.9232
-118.991
-33.8978
34.247
-26.1938
3.0916
57.6312
-16.1679
-48.5751
-12.3609
-2.09126
36.0781
-21.5016
-51.0742
66.2657
-42.039
55.3981
-22.6428
-0.101082
55.9561
15.5945
-65.5417
25.1605
0.515523
52.8573
-5.53602
44.6242
16.2535
-52.6455
-97.5456
22.2783
-136.591
69.8338
37.8237
-6.02202
-9.69714
-228.662
8.6197
-14.5925
-1.6182
-66.0169
42.9562
-5.54923
12.5636
-206.163
21.0582
-199.982
-12.6339
-20.1332
36.9412
0.0595098
41.2507
37.3218
-33.4353
5.19287
57.7741
-49.3762
-9.69518
-9.10051
-6.22645
0.718519
-10.208
31.4212
38.8527
-182.177
-303.682
-119.832
-47.9386
-17.525
2.90437
37.2191
-36.3632
-6.59687
41.8606
34.6839
-21.5085
-24.6816
-25.4458
4.68458
39.8457
6.21182
2.59273
-1.82043
-0.769513
9.4368
-2.00166
16.0036
0.273924
16.7912
-3.847
-1.73783
-73.6226
-27.4516
-3.37965
6.62943
-370.495
32.451
-7.89919
38.9888
42.6242
-14.1497
-2.06385
-5.40111
38.1317
50.5818
65.3706
6.04877
23.5121
30.7945
2.29964
21.809
32.0203
27.0936
4.49941
54.6
5.50536
38.6801
72.2753
13.1473
23.214
-5.68675
-13.588
50.017
21.1434
15.3141
-216.447
0.0273798
24.7937
69.5204
-57.0473
-6.66064
24.1158
3.11703
4.95786
-151.108
39.5653
-0.726664
-166.585
26.5804
-5.10392
-63.0768
11.7469
4.87361
43.5185
37.6362
-32.3035
0.0327558
-23.6382
-53.7707
53.3587
26.9569
0.212245
25.1709
2.24108
-158.507
-5.55953
33.5011
37.81
-5.86255
-362.435
-90.1717
36.4436
26.2113
61.8945
43.1181
-58.8508
-10.2494
0.239806
22.5554
-125.314
-11.5637
51.1286
-34.8387
15.1007
56.0495
58.2405
-1.25162
-32.4363
-152.792
-123.186
-49.4288
-124.613
10.2926
34.0228
-11.4251
6.88588
-0.89065
49.5815
-53.6325
26.5297
44.7202
21.1902
-20.7144
-37.9987
40.0284
37.5608
49.3621
-191.789
21.8301
-169.24
16.1423
38.489
0.231691
69.6495
24.4402
-19.9415
-25.7681
6.5172
39.1647
-127.972
1.20672
60.9018
34.1022
14.5813
1.84427
17.4541
-52.8405
61.5727
-6.12426
20.0395
57.915
-114.38
-33.861
-83.1441
-38.6609
-4.47597
46.1598
47.5013
61.0971
-91.6662
-1.75371
-221.144
23.9179
39.7054
-32.18
-29.0582
36.8093
-123.696
-184.454
-196.982
-127.824
-1.38514
49.0843
-0.0237905
1.97046
-22.6832
37.1058
0.0157599
75.0689
56.9345
39.1382
31.59
-0.0959588
-0.0380128
71.8671
-10.5095
-1.4627
-20.9134
38.9915
-116.404
4.20965
26.4608
-1.12105
-18.4607
45.3117
-50.188
-119.565
24.2723
-11.6409
77.9159
24.8441
33.6294
42.1827
-200.91
1.03978
63.6069
18.8108
50.8122
7.06213
8.94933
-23.3943
-7.60607
0.197078
-114.867
40.1884
39.1739
-139.234
0.0805696
-10.8647
58.8132
46.3033
-10.2519
39.8832
27.5391
-17.5559
21.9942
33.6717
-175.515
60.8235
-0.950227
-2.69541
64.0855
26.8313
-0.152363
24.5261
-27.6484
-104.476
13.5142
25.1835
43.4527
56.5402
-194.514
17.0434
-195.185
-0.00868295
55.0727
8.56684
-195.324
-65.9064
0.467052
-3.30082
30.9291
-58.2298
-29.4753
39.9491
54.1323
-6.00191
42.7941
-126.047
-177.704
-38.956
13.5864
-231.478
42.6445
0.587497
-361.041
32.5156
45.9315
-70.4144
-194.433
33.8137
54.7918
11.7243
59.2124
0.612724
25.0854
6.81579
42.8492
0.511004
53.3639
-141.091
11.4715
37.9121
-15.3858
-45.3447
37.8254
-114.746
5.22016
47.8083
61.5008
-28.0302
-5.99938
10.3467
4.02224
34.1136
28.2767
13.2815
-201.162
-2.37798
58.3634
4.31612
2.52867
-161.279
61.7289
-20.5279
0.488654
36.3736
30.1485
-7.76656
-12.5919
33.9845
1.14991
-3.33986
12.7497
-38.9414
59.6686
38.842
25.5757
26.5703
0.772339
-48.0092
67.1428
10.2652
67.31
-41.7057
37.7782
-0.151181
-149.505
24.8912
21.9908
70.3256
-131.153
25.1903
22.7722
-59.5053
21.5842
-0.735249
-13.45
37.6033
-195.451
-41.8089
-56.6732
-2.01151
-17.2005
41.9764
-0.0192237
65.7332
38.2735
-32.5826
-170.27
-27.9113
10.6948
-292.703
-6.98413
-118.737
55.0242
-0.0162979
-0.0765262
-312.389
62.2545
0.0620294
3.34063
64.243
33.4608
-185.604
-5.53978
26.0396
0.870529
37.9304
0.556794
-39.6518
12.5897
34.4475
9.71253
30.5028
65.1524
0.406244
-114.91
37.684
-1.19305
-11.1333
25.6372
27.9085
16.1827
-186.246
0.556667
-5.66881
2.58629
54.9156
10.0931
1.53027
-0.0176658
2.07125
-7.99437
40.5147
-14.9063
36.7131
36.1567
55.0519
0.0867138
-23.5705
66.7348
0.424857
-118.583
40.284
-53.6865
44.195
0.492341
36.4652
-15.7986
-128.411
-80.4119
-0.00358838
-120.483
20.1413
68.6238
-17.2549
-132.27
-17.989
41.1804
-1.25296
15.9278
-338.877
67.864
-182.695
18.532
-33.2721
21.9501
38.9699
16.7347
-79.2543
-16.4037
63.3893
37.3125
16.2774
34.3119
2.54036
29.5
30.4526
22.2873
-80.9694
-9.56757
49.0067
5.76335
-6.31488
32.9321
-103.957
-17.1848
-4.69512
41.6754
41.649
-74.988
0.280539
-174.221
-17.7593
1.55568
-17.0314
4.88452
36.2358
-1.20881
-32.663
45.7094
-7.35901
-30.8937
-4.33328
-21.8985
-73.3987
-75.034
-5.39775
-273.729
37.9385
62.0551
-1.32521
-30.9556
64.3514
60.0306
-26.9316
-42.7269
40.3836
-80.1865
0.46318
-0.234115
-0.169905
20.3548
-119.776
14.9849
25.336
-19.8711
-13.6249
-78.1013
-7.96211
32.77
18.7045
23.5701
-91.8497
34.7179
58.5212
-187.525
-257.072
44.1355
14.6139
23.3317
-5.67117
-29.2273
-104.792
-7.31503
39.7514
67.574
42.3529
-0.457278
-5.96802
38.2593
56.9723
-8.38443
41.6703
38.2974
60.2096
6.57661
-5.21715
3.67452
-13.1603
59.1055
0.370481
7.30429
25.1336
-9.55842
7.40578
-6.28987
-44.2474
36.9006
37.48
26.2386
17.9229
-82.2466
-13.827
-15.5645
20.3381
-41.543
-17.2103
0.431376
-324.443
-381.998
19.4423
-29.2201
-97.0701
-56.8812
-20.9598
28.8604
-245.812
-167.7
43.3558
-30.7559
61.736
-46.4313
-102.441
46.6972
55.3328
-2.04938
0.839301
9.28202
40.2454
21.8827
-68.6873
-7.4269
-2.02598
-12.6691
36.3296
-0.0210844
21.9754
-5.3356
39.0009
-136.346
0.511074
-0.724484
47.4739
-41.3258
-311.688
-159.054
60.953
-0.450408
-114.505
-302.831
38.2177
-133.818
-5.83335
6.51725
16.306
-1.78902
25.7984
-57.7623
33.5944
36.6375
45.1958
16.5274
-3.34142
-19.6297
28.9534
-12.3584
47.395
28.1078
-7.48657
-6.04783
-10.7258
-5.31517
-1.82721
44.1173
13.5333
1.30851
38.1106
-0.960843
30.0258
69.6772
-6.55325
-51.1635
25.5938
-1.54574
-4.70827
-11.2096
-23.0623
38.383
0.373415
0.408841
0.433829
0.445261
50.7927
-177.232
0.0341693
38.0649
-0.90768
56.0189
44.5596
52.2716
7.34909
26.6866
9.87519
0.102524
28.5798
37.6304
-13.0386
-15.8885
-54.2943
-30.2744
-300.386
38.5125
-119.009
-86.122
-315.376
-13.4777
-1.00428
38.8088
-0.407683
5.31826
-82.2057
37.7222
68.9423
-0.610608
-386.335
21.4191
-6.36057
37.9166
-40.3391
-5.58389
46.7115
-6.20684
65.3345
25.2187
37.9518
-27.8474
50.6633
0.414601
44.9205
-1.0563
-69.6985
-10.6472
-145.028
24.4254
-3.01304
-4.23524
61.403
37.6469
42.4232
55.5032
43.4696
47.2602
-15.5862
40.3359
37.71
39.7239
-13.2462
-16.5482
-35.3169
-25.7673
7.94814
44.0427
-132.408
68.7481
-33.7778
0.455494
66.9121
55.9927
-15.1836
-125.54
38.6618
19.7326
0.38492
35.9142
-118.87
-18.2426
37.7796
54.1387
-5.57412
43.238
50.1112
0.00731777
-24.0311
50.4552
15.0611
-1.74176
-212.806
-0.36601
-43.3694
36.1654
30.9371
-4.04018
-8.6174
-37.0216
8.07734
-4.15801
6.99666
57.4294
-5.33307
74.3842
38.6554
10.3477
43.6119
-188.49
-161.346
-120.745
38.3734
-5.61742
-84.4037
-15.7852
17.5731
22.652
-5.74807
28.0521
-58.259
18.6082
0.395574
-5.92394
30.1657
10.051
50.7729
39.5129
41.193
36.7234
-15.2534
-54.7876
-40.6846
0.323618
-35.024
-8.23295
29.6523
-24.5513
-2.85095
-4.63132
0.988182
-357.426
26.3644
18.3098
-11.2953
-39.5861
16.6232
-32.4592
-55.6051
3.5356
-2.82106
43.1313
28.1298
50.7622
-89.5266
34.1019
0.509173
54.561
-0.233102
19.5479
0.612994
-8.03224
63.7313
66.1306
30.5883
21.0897
26.1467
35.2384
64.6098
25.6637
-58.4603
-323.451
5.68274
-28.3406
-67.6379
37.7685
37.4119
-1.83418
9.97922
32.6284
34.5166
70.4889
-137.874
30.2842
-126.224
-32.0954
56.4317
-10.3256
31.2585
-19.4953
11.4378
13.1851
73.0481
-7.08761
-35.5097
18.0432
3.99407
-224.774
-116.4
0.287787
43.4575
-12.7986
21.0421
59.9126
54.6785
-7.90756
-75.2801
-5.93804
5.51706
46.1355
36.5215
54.5485
21.6777
-303.248
57.4421
35.2714
-61.8864
29.16
39.9773
49.2856
-359.214
-13.3818
0.0508779
32.3433
63.4902
18.4189
-1.09062
-44.5313
70.6572
-215.451
-47.4393
66.049
33.4075
-1.11807
29.643
-35.2414
20.3095
-27.171
-223.954
-5.44532
-146.122
-1.10862
-19.2007
-99.7989
-118.166
-67.1637
1.83519
-123.421
-142.093
32.1476
35.7708
21.2658
-54.1815
8.02703
4.74695
-16.4574
73.8267
24.7591
-36.4186
33.4779
-24.9516
-161.468
32.0558
32.0051
37.1439
74.4332
0.0712071
-10.188
-96.5564
-0.290113
25.5114
38.586
-18.0585
58.1934
27.4764
40.9252
-23.2929
-7.30091
0.286244
40.073
38.4637
42.0773
38.5738
68.4097
67.9099
-25.3838
33.6097
49.9258
-35.3404
54.7556
-4.75259
66.949
54.3862
-1.21051
44.2453
18.7028
28.803
-1.01591
39.8747
-52.3918
32.84
12.242
25.9884
-9.40649
37.8155
-4.08404
7.64114
64.6128
64.4821
24.4662
-90.6251
6.92618
3.5154
-9.76695
31.1854
57.3548
-98.8116
39.7825
36.7589
16.933
39.6964
-244.97
-19.0679
-4.21834
70.2065
8.66831
-6.76637
45.5929
-9.82603
0.0211191
17.4832
5.66233
29.149
16.1572
-28.0266
21.4258
30.7777
25.1143
28.4292
68.0007
55.4217
48.9987
45.4092
63.8444
16.4196
-5.09427
-1.90909
-37.238
63.5931
-24.0142
38.178
34.1185
-187.415
18.7645
42.7821
-109.655
17.4101
25.3348
75.2863
-153.964
15.0585
-0.88065
44.8856
-0.78698
-40.0019
62.6016
53.1983
37.0386
38.2342
-28.6092
17.1173
-118.181
67.6772
-0.733572
72.5646
-7.00723
-1.89309
-139.636
21.5126
-160.926
4.14937
-6.38264
11.5935
-4.73164
11.1993
-51.1096
-0.0201815
-18.2942
-84.3791
-31.5309
-66.641
-1.46206
-7.74125
-18.6447
-319.398
39.8437
40.5878
52.0011
37.077
13.6486
13.0514
78.0003
37.1935
-137.499
-0.0871962
-6.47942
29.4803
33.0903
58.221
-43.9929
-44.5182
31.9262
-0.0109071
7.23272
49.303
-107.621
-207.964
-114.391
68.5869
-54.1458
25.7683
49.7887
-5.71853
29.4915
-3.65548
-199.82
-178.084
-30.9697
25.4917
46.1799
48.7114
-72.0515
-87.569
25.7019
-106.044
-32.5296
-15.4152
5.62612
-24.3656
-4.86167
-65.4729
-163.625
-81.4405
60.1775
-22.8659
65.7623
-240.822
-10.5081
12.5035
-0.0921862
55.6119
38.6503
47.2587
-1.78646
-27.2428
-213.509
53.921
-76.2303
27.9963
-5.37975
48.2802
55.3507
-5.23493
38.0716
63.1567
42.5204
41.4119
-71.2222
-9.35095
14.0925
-50.3106
-6.26149
22.3014
28.2626
-0.739442
-246.185
7.03993
-10.3283
33.6953
28.6376
-29.7827
66.7034
-0.672887
-0.0403565
3.46321
36.7707
-43.2969
0.0349903
41.8436
-22.6451
-0.0901342
-12.4347
41.387
36.9414
35.4134
-5.02159
36.3082
44.7639
43.5478
-24.0197
0.473689
7.8951
32.3482
-43.8078
-148.015
-100.211
-54.8368
-34.9992
0.119456
-6.15545
0.253301
-124.652
-33.7067
-396.813
-14.0718
-28.7484
12.8007
-210.058
41.3023
78.6699
12.7557
-17.1679
16.7805
2.83885
6.84575
0.244035
-30.4528
-280.2
1.30708
51.5501
0.0965858
62.1238
0.13158
35.2528
31.1536
15.1335
-130.909
23.7804
69.2483
-18.4541
36.8276
36.6588
58.0126
1.31974
52.9893
42.072
-135.534
44.7789
-160.734
-148.291
54.4875
33.6533
-64.7398
4.05423
50.5307
3.1554
-100.113
0.248875
0.547589
30.8241
19.8943
39.4699
36.0904
31.5688
-86.2182
-32.7461
-22.4529
38.6689
72.8316
-34.6187
-195.509
-133.435
39.3631
0.436708
0.550449
16.7098
-0.888693
29.0799
-15.8422
6.44379
58.4014
14.7751
-0.621179
-18.7403
-84.2717
-55.0757
-124.237
-80.967
-222.066
46.5092
19.4735
-37.4928
61.7484
-0.0781774
-224.057
-18.6929
-171.835
41.6488
-83.519
11.1235
38.1803
-3.40407
-24.7094
-8.31725
-145.537
-38.2812
42.5753
-380.409
-4.10314
-112.136
36.6545
41.3354
-57.3024
49.2034
45.2611
59.6495
61.3338
43.079
4.38904
69.2377
-113.074
37.1912
6.27836
-378.632
47.7165
-84.3579
59.9439
17.8545
-47.9744
-69.0251
-42.0945
41.7264
-100.474
-34.0575
-5.94774
-25.288
-0.586259
23.086
5.44254
27.442
68.515
-114.936
-78.8745
-17.1619
40.7617
29.9555
-55.1376
78.4547
-4.97755
-8.04972
25.8449
-41.6714
35.9624
39.435
44.4837
45.4873
-0.136888
19.6328
36.3363
5.84207
-29.5019
-0.384875
42.2036
43.3574
53.9855
-14.5213
-0.169867
20.2014
22.2002
3.96519
-257.292
31.8483
-21.7118
33.3222
39.8406
-118.634
62.1911
-98.8791
67.2129
44.377
-372.674
0.125646
-2.10091
18.0431
41.075
-319.171
52.845
36.568
19.5541
0.531028
5.20724
-9.28073
19.5838
-113.631
23.3415
-33.5481
37.2531
-145.711
-1.39055
-21.7612
48.2001
56.2438
20.9441
-136.892
18.12
-8.30549
-1.19979
20.5955
-12.937
-13.3559
65.9161
-21.6234
-4.28074
-50.2135
-182.615
-8.30349
37.3167
-115.837
-17.3189
40.9195
23.3892
41.5693
-130.585
15.7948
66.6857
-83.4136
38.0148
9.86791
-12.9783
11.2785
6.54032
-8.89228
67.6899
44.313
-1.52329
65.2638
50.6973
47.9782
-101.472
-138.578
26.0062
-50.9891
-7.01101
-100.626
-45.662
-93.2955
29.3465
12.9081
22.1812
24.6762
-8.97731
29.1889
38.5612
-259.487
41.1594
23.1777
37.347
-8.17749
-1.09906
-61.7368
-122.923
-110.839
-20.2126
37.9369
-393.167
60.5845
-182.696
36.0722
23.9117
-4.96072
5.01078
39.2707
17.9804
7.55346
33.9811
5.69669
-1.07138
56.9824
46.9706
-61.196
-166.014
-2.95517
33.9544
-1.39496
17.2879
-72.4968
-2.37206
-8.88567
-6.69158
32.6129
32.8742
-1.76479
17.5961
-2.41471
-3.76197
-381.49
48.3134
-77.4513
37.9012
0.0486361
32.7648
40.7379
21.371
35.2578
-2.43183
-52.5666
-6.97793
-168.206
-94.2988
-85.0072
-0.878311
-11.7054
30.3793
-5.06458
36.5865
-9.3941
-1.14408
-63.3144
-4.65128
40.1784
-175.68
37.0794
7.71615
-268.231
-3.47642
-83.6179
25.8495
37.7018
-3.8904
5.33684
-170.347
45.9814
-3.02545
9.59473
-210.888
48.7138
16.9737
-0.396556
41.1466
39.676
46.823
15.4668
48.4962
-89.8137
-23.7822
-9.14588
37.8032
24.15
8.25274
0.510411
-181.08
-253.27
19.8674
-1.09663
-297.146
65.3157
-85.1485
46.2797
26.1943
-33.0964
-5.29317
-22.3078
-7.05993
2.24154
3.84689
36.2333
-5.77815
38.1862
-64.9498
17.3167
-13.2023
6.94261
-208.232
48.8756
66.6488
42.2844
21.765
7.51556
26.1485
-131.438
-4.81577
-5.13542
-9.59697
-73.5225
-397.589
-227.578
-35.9196
33.4889
38.4161
-89.8348
7.41432
43.7276
-33.0161
-60.6697
41.7401
-5.24423
-296.105
0.511561
-12.6487
0.0656374
64.3264
-5.03142
36.7705
-43.1672
-30.2817
-33.0696
37.248
7.72772
30.7903
-32.0758
-41.9856
-14.3877
3.65768
44.7021
32.88
5.77994
-8.58128
-21.2917
69.4102
-14.3923
43.7899
48.8636
-1.0162
-6.01305
15.7284
-119.741
-48.251
33.4538
22.3741
36.6941
-117.681
42.4443
2.52884
55.682
4.28556
34.1561
49.0932
32.0834
5.81035
-189.576
10.8736
-143.768
33.3878
16.9124
46.6481
1.41987
59.2906
4.81804
63.8247
-0.854978
49.1529
-7.71822
27.4693
-267.816
36.3598
16.5907
16.5035
58.4199
38.1211
7.59535
-31.9821
20.1971
35.5543
-4.50293
-120.754
26.3155
-16.9741
50.4848
-62.4764
60.6573
7.96962
78.138
61.0289
28.2956
26.1048
-306.242
0.275512
65.182
-3.60783
-5.02042
-8.59903
67.2302
19.27
32.0897
54.1815
-32.4127
41.7013
-16.6967
46.182
-0.167566
43.8172
38.8485
54.5147
-5.05199
-72.3149
8.78595
-89.7707
15.9799
6.34627
-4.9983
51.2298
56.706
0.257861
11.9101
-14.4184
51.3205
30.4035
34.6877
22.7835
-8.28684
-156.736
-25.8685
39.5709
-64.5818
-6.72396
2.40963
26.4548
16.592
-33.2733
68.4848
-8.8963
60.4916
11.3731
62.8895
-30.08
6.67303
-4.51951
0.294529
31.2662
37.3137
1.02315
-5.94012
-1.13414
-8.16121
56.8976
-13.4394
-2.51708
-12.2197
-4.06499
13.6402
47.6579
17.75
-30.7166
-0.7637
37.8816
72.8539
-96.098
-20.0243
37.2077
-4.00133
17.802
-5.59675
27.7091
-4.98794
-82.0801
0.197888
-22.4187
-10.0204
-2.02241
-112.906
-112.945
-0.984775
30.0474
40.7399
32.8288
71.1479
-347.833
64.9061
-158.431
63.1494
-326.633
-35.9042
68.7701
15.22
-42.0567
38.8959
-5.45796
42.5164
-17.9284
-116.68
4.55653
-33.8311
-45.0289
-0.0254209
-10.1654
13.9432
48.7222
-363.146
15.4933
-62.4972
7.73084
-10.4164
-4.31439
6.04639
-12.0838
-54.2477
50.886
-3.2974
56.2227
12.7624
-166.747
12.8697
-35.6811
-4.04178
32.7606
48.4135
70.2209
28.7287
33.8355
17.1852
-115.57
68.259
73.2863
42.3139
-27.87
-123.323
-152.335
34.9777
24.3388
12.0124
33.6428
-18.2175
-3.56382
-274.632
58.4086
-1.52046
2.67584
-49.0644
36.8651
11.6296
77.1646
73.3079
33.6184
4.38672
7.98291
-112.24
16.7857
74.2723
-1.29171
-3.53848
27.6776
0.105136
5.79527
-9.91146
-16.8927
5.64918
3.97541
15.3279
-0.899905
11.1688
54.3906
12.7465
40.4838
-54.8871
-19.7345
66.4555
-155.759
5.62528
9.21485
16.0325
8.00605
-65.7696
6.78977
-33.3426
3.86653
76.646
-132.253
-94.7442
-124.371
-23.8418
-0.649547
10.0529
-51.1362
-97.1962
-0.423993
-65.3301
-32.7658
-48.5503
8.69908
-7.31658
1.38781
76.748
2.30293
9.01756
-9.9377
6.12759
-85.3466
-20.9984
54.5125
38.1683
9.01789
-3.79638
36.8332
40.8854
-4.4454
-353.388
-5.79157
54.0077
-34.7118
34.9316
-1.00715
60.042
2.2297
-65.3296
0.483929
42.0683
-28.7321
34.2294
-32.6991
74.3607
-47.0118
-13.7815
-262.142
18.5526
-69.6679
-40.516
-50.7683
2.19141
18.267
-150.785
-12.2909
-7.38438
5.29322
-53.3182
-33.1097
29.184
-150.115
32.6544
-58.7379
42.5967
68.1283
35.8555
-97.7538
38.7604
1.17916
5.44421
-8.0696
-21.5851
-118.411
-8.03616
-25.4908
17.9794
-2.07794
-22.1967
-0.752123
-261.886
17.701
37.3692
-25.9703
-77.3168
-16.1004
-1.14508
-4.59357
21.3105
-64.8317
-85.4323
39.8991
-9.82799
22.9004
-55.1273
-305.424
-210.694
-369.16
74.7576
10.0259
-42.5747
13.3198
65.0712
66.664
-75.5377
-17.2759
37.5787
-3.51588
-4.6491
65.42
19.6544
34.4416
78.1892
-12.7616
11.3639
4.29602
58.3483
39.7563
39.9326
49.9616
27.0586
0.160572
0.0254277
17.0775
7.05644
-128.785
67.2248
-11.8438
-20.0445
-0.809886
-50.5729
17.1173
-48.8835
-19.1875
7.42462
40.0124
41.8754
44.6709
-119.918
58.0741
65.457
-112.1
22.9998
-7.22389
-4.15267
4.92461
22.0006
-13.2079
-33.4312
-35.488
72.6811
-158.717
44.7379
38.6407
52.0909
28.8069
28.9986
-5.05368
0.183565
23.3556
-5.76673
-194.871
-62.2442
-0.036034
-37.355
47.6338
-136.479
-4.04008
6.92907
-79.9938
-61.1542
-115.684
33.1054
-16.8107
-3.99427
14.9101
-167.944
11.7153
-95.1473
-7.09602
41.5015
-203.223
67.921
-0.788591
70.1271
0.000802139
-4.60557
3.46614
33.464
32.1952
-71.6138
-9.04103
-8.74779
2.41735
26.2046
78.9822
52.171
10.9289
-33.2896
19.085
-1.42089
44.703
-5.57022
22.3231
-29.4593
-47.7809
-85.6674
14.651
0.195994
-84.8384
24.4593
23.4281
64.8938
69.2784
-120.469
-111.987
2.9295
-40.1397
68.1572
3.54938
-14.8949
15.247
27.551
-29.4696
-3.92837
1.60693
-5.29635
35.5074
-21.4921
10.0595
-1.07394
-32.375
-69.7078
-12.2583
-67.3674
-62.9672
42.6852
-86.5462
-55.027
-19.2346
0.0198838
73.4017
29.3388
35.6465
-21.8813
17.9301
-5.32422
14.0392
10.097
-48.9597
-116.331
68.0468
40.8552
-2.98592
-107.878
76.1819
-65.8835
-166.552
-25.3052
19.0459
-77.9592
-27.3234
58.3933
-4.92071
35.0206
14.1933
-32.1169
0.192213
-3.83017
17.1892
-73.6267
-1.89508
12.1215
37.4145
-90.3128
-174.462
1.10335
-27.9336
-44.1863
-42.5091
72.5049
24.8577
-317.919
18.0724
8.09896
63.2403
20.5597
-118.794
22.4638
49.4422
42.9021
-35.9458
34.4498
-5.68685
67.5226
0.136138
39.7907
-222.211
-33.312
-1.09439
-36.2032
23.3032
11.9592
-128.288
-93.7946
45.8584
-6.38653
-6.75788
54.4699
29.918
52.9521
34.9715
-43.4021
0.230136
-1.21948
37.9306
-0.0145262
48.1664
30.4831
66.4816
-41.5986
51.541
19.9282
66.7323
-29.0694
-30.1638
68.5199
-46.7945
30.0885
-167.583
59.4154
65.9012
41.5135
-63.1572
37.2762
50.4539
-50.8403
16.7639
-54.5396
53.8355
-51.3231
-13.5353
-119.991
-117.694
49.3618
18.699
-139.131
18.7842
65.8418
-18.2422
-6.86397
-118.582
-38.4682
33.2333
-10.7865
36.1787
35.5433
-132.843
73.6507
-6.15749
56.4586
55.7994
-10.9533
-0.818058
33.8136
-59.485
-14.3037
33.7426
28.2945
-17.0149
35.8071
-24.001
57.4043
42.3166
13.2512
1.22284
43.6403
-14.6645
24.1351
51.8391
5.93105
-0.559303
49.8655
41.0181
-34.1013
-105.451
29.7504
43.2365
67.0663
-142.262
71.0033
67.6478
71.7764
-7.44763
48.3962
-230.715
38.1335
52.9206
51.263
42.7024
57.5125
77.1551
33.7279
-157.321
3.06214
-108.821
76.4708
19.3803
-6.75121
-70.7166
37.4708
58.4909
36.6073
11.3274
-8.55723
57.4669
-88.8771
41.4682
-77.7766
15.9867
-3.83616
12.9759
23.8277
-199.605
-197.056
-9.81316
-26.6159
-3.92718
47.2697
-9.08365
2.43295
35.2027
-233.858
25.2315
-1.17748
-197.794
-209.189
-144.269
54.7286
59.1976
-57.3765
19.0532
50.2229
46.1041
0.259171
-231.401
42.0524
-129.058
53.9301
-167.676
52.3317
24.8637
3.36213
48.8972
24.7203
51.2254
12.2346
17.1542
-29.0345
-95.6091
-283.848
-5.89373
50.2141
-289.741
-39.2924
-244.576
57.8778
50.6557
14.2516
28.0624
56.7976
-62.9231
36.3823
-3.50917
-33.1137
36.0266
-64.1286
-145.626
-39.9438
-119.865
-18.972
-363.483
-3.72109
-165.633
-108.053
30.6161
67.5423
73.832
64.1111
-316.317
41.8673
-237.511
34.8584
56.9387
4.43294
49.2326
-211.141
11.9837
-32.1394
-5.8664
53.6729
-24.8259
43.8649
-126.595
-12.6615
-117.565
44.621
43.4659
37.3192
-190.696
35.8027
-13.5428
-125.162
-116.52
10.8375
68.3595
-69.4861
-21.3365
-86.8603
37.5357
36.3755
-5.91646
23.1444
-179.713
57.5602
54.1301
-33.8818
-10.771
55.8874
-64.658
-384.019
-2.6423
51.002
57.4743
-210.944
27.619
-5.24804
66.3523
-163.474
-77.4002
-6.36014
62.258
-3.13723
-26.886
-7.70171
53.4666
29.7596
52.9673
-7.55136
-65.0319
42.763
75.3045
-121.121
35.2677
-3.96452
-123.213
-3.35351
12.4361
-89.7627
27.0448
-24.523
24.4669
-18.1054
-50.7148
48.1481
58.4841
35.3904
-56.6883
-70.2342
45.4728
-155.426
13.1158
-33.7902
17.3828
-225.283
42.3468
45.3186
-4.06881
42.7318
65.8799
-16.3744
31.5916
43.9999
-113.428
23.6731
-20.3759
17.1905
13.3194
30.2108
0.0261075
11.4868
-13.2671
-61.5585
55.0553
14.796
5.28477
-74.2509
-13.3311
39.8271
-199.298
71.563
-170.264
-111.282
-7.29548
49.667
44.2564
52.6788
-85.9657
63.4138
-320.948
31.1926
1.26244
-167.794
35.5048
15.8876
-15.8496
25.2473
-136.92
31.2637
-115.771
-74.2007
-0.051415
-142.828
-156.945
34.1624
64.8057
-1.41496
-236.822
49.8726
-83.6374
58.659
18.176
-1.6433
24.1193
38.766
18.8991
-11.3887
2.28829
-3.82187
9.45007
14.2129
-215.463
-88.2058
-0.49402
24.2688
-0.028655
77.3042
41.6758
37.8663
59.7178
5.55235
43.2664
-175.72
-28.8137
-118.576
37.6119
76.2469
35.0841
-32.3318
54.7352
36.9126
37.4051
-5.51604
-3.67052
18.653
72.1001
1.26257
-48.7175
45.5907
56.2777
41.4065
37.757
47.0773
26.1047
-13.495
-214.162
42.1543
-170.575
-82.8191
37.9665
-155.243
1.74278
12.319
42.2004
44.0558
44.5425
-3.83649
52.2134
53.7792
6.11281
46.7552
40.1285
35.4693
31.3398
27.0064
18.0809
-6.02268
49.5721
46.7561
0.00605379
35.411
-4.55798
-3.70995
64.2108
48.22
0.089565
-226.692
0.284734
50.1362
27.3045
10.634
-4.03325
2.20722
-34.0722
4.95502
-126.745
-10.8322
29.1815
-12.4165
-178.071
-191.213
60.9712
-86.1418
-141.694
-152.487
65.0661
-16.1918
6.95099
7.2417
-127.094
32.4872
35.6536
23.5199
57.3917
29.4003
-1.98261
-105.002
-214.603
0.471667
45.545
0.394643
-217.944
-157.174
-25.9101
-142.854
-131.98
-83.2073
-12.3851
13.1382
37.164
51.2556
-21.1361
-3.67456
57.3445
42.6953
-206.239
-3.52463
-111.082
22.428
0.393562
19.4305
32.0776
-5.43479
-18.6819
-25.1779
10.3055
-327.674
-121.127
-0.903917
-223.072
-127.209
-138.462
-196.93
0.0933085
-65.1189
18.0984
-206.205
37.8307
33.7751
8.15574
50.3327
-329.598
65.4248
-41.6855
-0.646566
-37.4255
37.7893
21.6196
-98.4586
-38.1594
39.2509
47.2265
67.8378
-241.99
-130.867
-307.663
-10.7543
0.158216
-168.639
13.1949
-112.002
20.7787
-232.606
30.2993
2.18973
-7.34455
58.9839
33.2978
-22.6886
-2.61926
-52.1117
-126.879
51.9997
73.9822
-186.105
48.0308
35.6368
-0.0428172
-12.9464
48.9139
47.2575
-82.9819
-13.5105
-134.081
-352.651
-34.1862
-143.106
-28.4969
26.5595
-3.2215
43.0469
-224.67
-147.224
35.934
-30.4821
-117.705
0.479389
31.4927
-118.911
-20.6249
-143.071
-171.493
-113.07
69.0742
-55.6433
-9.75426
-254.492
41.6695
-115.026
-6.09134
-88.3702
-369.116
-29.9119
43.66
-0.163544
-149.088
32.4227
0.0321261
-53.3561
-186.721
-203.742
26.8266
30.7309
38.331
-38.2166
58.9599
-35.2872
0.141206
-16.8573
-67.0991
-224.745
-179.395
-168.684
6.61671
14.4401
-5.07285
-10.1261
-54.2477
35.7059
-423.932
37.6261
-285.704
23.1458
-18.6322
-10.8867
-0.970427
79.9061
-6.87915
-120.488
-34.5967
-57.3555
37.4766
-5.68116
-0.204162
-0.952161
-144.921
-231.667
-117.673
-127.688
42.8676
-227.008
3.55475
-137.569
-5.30256
32.888
-14.7758
15.9201
-22.4387
51.3564
-118.685
-103.111
55.3554
13.6576
-111.256
-10.3933
-223.975
-52.0634
-14.8223
49.8775
-82.9305
16.5945
-127.601
-189.173
-302.935
-259.251
-157.188
23.2963
-14.634
38.2825
14.7482
-377.946
70.4769
-275.838
48.2407
58.074
-122.869
2.934
40.9083
36.6001
30.6781
-140.585
-161.808
-138.852
37.7541
9.78778
-66.0187
-246.44
21.0871
46.6135
-8.43052
-1.15681
0.197999
54.273
-48.2702
-51.789
-3.81732
32.485
4.91657
-1.56643
59.2077
48.3435
-4.72179
-264.724
49.2107
19.0316
-4.27434
36.1063
-30.1687
-164.489
-157.691
-222.951
47.5294
41.515
-9.28477
-34.1429
-1.90839
-6.68087
42.1362
-301.136
30.6627
51.6562
55.7894
-30.1863
38.4556
33.5822
43.3528
46.1537
-5.76671
46.1269
-0.0822476
38.5058
23.4544
41.8412
-196.188
48.7884
46.33
33.8404
26.0948
-85.8137
26.6126
-23.8167
-43.58
53.2451
53.2275
-223.541
46.9515
-183.058
-153.671
41.4836
41.4926
-87.965
-6.67461
-128.649
-255.172
-27.8803
-60.5957
-102.329
-10.9616
34.4472
71.471
49.5705
-25.4084
-32.4939
40.9748
18.7744
-14.3694
-177.333
-71.1155
-50.9002
-137.822
-103.915
36.1694
-1.52806
15.7368
0.0577552
0.0576746
-2.54972
0.375886
7.07789
19.1736
28.4121
-39.0486
20.3861
-103.506
-414.676
25.305
20.3689
-7.53045
-1.28933
26.6529
-5.15717
15.6974
-34.9422
38.3244
30.6764
62.512
38.2327
-146.641
-12.27
-33.4701
-56.9143
-3.79944
-3.80572
-11.5745
-221.498
71.5775
-0.609021
-4.43362
57.9663
-92.1648
-24.1797
-15.5072
-200.214
-80.9455
10.4667
-42.2374
37.5678
-14.8993
-130.102
0.271908
-44.0841
-41.2649
-14.2088
0.575719
30.1313
-51.5608
-69.3024
-45.3972
13.3315
-57.7813
41.4715
59.9064
-58.2121
42.1497
20.7438
27.7098
65.7491
-110.19
23.3177
18.3203
15.1163
56.3241
-9.05568
-10.7129
-12.8447
40.7075
60.0487
-85.201
-3.78316
-78.102
-53.8598
19.5554
-103.166
-68.3083
-78.1596
15.6493
-126.76
6.33834
10.5231
33.6357
4.54628
-146.42
-2.04554
-5.27708
-9.69362
63.9763
71.6761
52.6678
73.617
34.9157
40.0903
44.3106
38.0342
37.103
-76.9231
39.1303
-12.576
-128.936
57.7984
-13.7974
-51.6282
68.0836
-0.967853
-331.039
19.8645
16.2329
47.4891
-49.6098
35.64
63.5632
-96.8404
-146.526
-58.1842
25.7515
-217.355
50.3095
-7.83815
47.8078
37.888
-72.8383
45.2143
-29.8639
-131.165
-160.156
-170.039
47.1605
-59.9972
37.378
-5.70328
-155.836
-5.02653
-4.06836
-32.2439
-97.4731
-76.6015
47.4963
6.53421
-114.189
-17.1434
25.9164
7.83754
-269.964
18.9287
-5.6983
18.2995
-114.19
24.0002
9.66138
24.6307
-8.66535
36.1162
22.2336
10.8888
-118.482
74.4846
-39.7815
-129.263
36.6896
30.5204
-120.537
-49.9782
-177.175
23.4519
19.1165
-51.651
-6.87808
-12.9201
75.1637
-1.19349
-97.0027
-6.42021
-29.7386
26.4795
-16.8609
34.6045
25.8822
-203.673
23.4076
-129.674
30.9689
13.597
38.497
27.393
-0.0816565
0.259422
17.5012
41.7493
5.43713
-1.73027
-114.386
-19.3217
-23.6603
33.8114
-116.702
17.738
-53.6821
47.4096
-167.176
-11.2919
51.427
45.9232
20.0888
-134.546
-99.8983
42.7348
-3.5743
48.3379
20.6617
1.136
38.613
9.46885
10.6204
5.80482
-30.6689
-66.1539
26.815
-9.31147
52.77
9.8072
74.8258
-3.81188
9.47716
46.5916
3.53667
8.46363
41.0913
32.2141
22.4334
-69.31
-5.54278
36.0028
23.7607
11.6186
-362.011
-11.0173
-205.321
-135.133
-35.7466
34.4843
-42.0728
31.3357
-2.89983
64.3186
50.2375
14.1959
30.7805
13.343
-113.385
36.832
26.7595
1.08145
14.577
47.9173
42.2994
-6.2374
-276.244
-60.8246
33.6808
15.9452
0.970746
41.158
-368.821
35.245
-68.429
37.2914
17.7787
-5.89012
16.2182
44.4276
-8.62017
38.9994
50.7904
4.91118
-24.8734
23.0565
3.44625
60.0229
-214.642
54.1825
44.8448
-190.337
-66.3315
-0.822863
-30.8189
-249.433
-55.4984
36.3815
55.0612
43.5424
55.6298
26.7452
50.4128
16.1881
1.34797
17.7486
-7.86795
3.15686
30.8121
-6.83154
58.6193
8.61649
-123.433
27.9322
57.1996
60.4141
-408.928
20.6192
-108.166
-110.129
19.2432
1.16237
-71.8109
21.5253
61.4745
-98.0033
-180.866
-249.957
16.404
2.26824
5.18392
36.2982
38.2083
-10.9673
-9.27721
-3.2245