/*--------------------------------*- C++ -*----------------------------------*\
| =========                 |                                                 |
| \\      /  F ield         | OpenFOAM: The Open Source CFD Toolbox           |
|  \\    /   O peration     | Version:  2306                                  |
|   \\  /    A nd           | Website:  www.openfoam.com                      |
|    \\/     M anipulation  |                                                 |
\*---------------------------------------------------------------------------*/
FoamFile
{
    version     2.0;
    format      ascii;
    arch        "LSB;label=32;scalar=64";
    class       surfaceScalarField;
    location    "2.2";
    object      phi;
}
// * * * * * * * * * * * * * * * * * * * * * * * * * * * * * * * * * * * * * //

dimensions      [0 3 -1 0 0 0 0];

oriented        oriented;

internalField   nonuniform List<scalar> 
20045
(
0.502365
-0.542854
0.0404891
-1.0753
0.38114
0.694165
0.336261
1.79858
-2.13484
0.150075
-0.209327
0.0592517
-0.832567
0.816519
0.0160476
-0.564887
2.18627
-1.62138
-1.01628
0.449491
0.566786
0.0700879
0.426595
-0.496683
0.468201
0.419574
-0.887775
-0.821695
-0.11564
0.937335
0.61863
-0.259951
-0.358679
2.24725
-1.08952
-1.15773
0.355824
-0.36221
0.00638537
-1.27655
1.08499
0.191562
-0.333872
1.06189
-0.728021
-1.0916
0.269901
0.253542
0.149501
-0.403043
0.878867
-0.657261
-0.221606
-1.73281
2.51664
-0.783833
-0.768434
0.0710472
0.697387
0.376579
-0.346762
-0.0298166
0.117378
0.238446
-0.13735
-0.937955
0.510714
0.93343
-1.44414
0.841674
0.187476
-1.02915
-0.9915
1.50221
-0.68198
0.71763
-0.0356493
-1.1586
2.22256
-1.06396
1.7403
0.233788
-1.97408
-2.11436
1.18636
0.928
-0.140604
-0.30889
0.449495
1.43527
-1.00021
-0.435058
-0.854921
1.53593
-0.681011
2.25873
-1.28917
-0.969562
-0.550466
0.620554
2.21589
-1.11296
-1.10293
1.44735
0.217241
-1.66459
-0.0639408
0.388653
-0.324712
-1.93749
0.754415
1.18307
0.595778
0.511879
-1.10766
0.0598322
0.398956
-0.458789
0.157512
-0.220089
0.0625775
2.17822
-2.18213
0.00390718
1.49322
-0.547821
-0.945395
0.688768
0.804449
1.03994
1.20732
-0.121033
0.708873
-0.58784
1.24417
0.565805
-1.80997
1.82988
-0.382533
0.152013
1.81599
-1.968
1.29444
-2.19115
0.896711
1.80071
-1.33789
-0.462825
-1.20303
-0.875675
2.0787
-0.0951282
-0.300302
0.39543
0.852272
-0.202142
-0.65013
-0.691691
-0.140876
0.0541598
1.49068
-1.54484
1.60903
0.0786964
-1.68773
0.830375
-1.6853
2.10081
-1.39601
-0.704805
0.646765
-0.0901044
-0.556661
0.864046
1.23676
0.777925
-1.90536
1.12743
0.320194
0.0563846
0.745674
0.130059
-0.875732
1.64558
0.219412
-1.865
-0.0640841
0.215197
-0.151113
-0.680995
0.168136
0.512859
0.843365
-0.375164
1.84608
-1.8804
0.0343125
-0.141239
0.0771544
-0.119572
0.971844
-0.248071
-1.032
1.28008
-0.140919
-0.126351
0.267271
1.81686
-0.327807
-1.48905
1.373
-1.31884
-0.0347346
1.85159
0.423695
-0.757567
-0.457799
-0.277699
0.735498
0.449784
-1.16624
0.716456
1.03933
1.1961
-2.23543
0.914694
-0.707804
-0.20689
1.69033
-0.912407
-2.35257
0.455384
1.89718
0.0218567
0.480508
-0.543974
0.630292
-0.0863186
0.561912
-0.705669
0.143758
-1.61261
0.07434
1.53827
1.03279
0.14202
-1.17481
-0.856792
0.782711
0.074081
-1.43777
-0.246451
1.68422
0.716876
-0.121187
-0.595689
0.406543
-0.581373
0.17483
-0.159192
-0.830784
0.989976
0.58435
-0.620615
0.0362646
1.49433
0.396938
-1.89127
-0.573745
-0.108235
-0.00756011
-0.210445
0.218005
1.21114
-0.615362
0.223199
0.332846
-0.556045
1.5093
0.706594
-0.471753
-0.804802
-0.272149
0.264589
-0.277212
1.88625
0.021538
-0.565512
-0.493962
0.717161
0.446041
1.20503
-1.65108
1.1815
-1.74543
0.56393
-0.578832
-0.451338
0.392624
0.0587141
-0.240645
0.303343
-0.0626978
1.23709
-0.896438
-0.340656
-0.496255
0.401126
1.31357
-2.14737
0.833803
-0.168718
0.320291
-0.151572
0.0522305
-0.295756
0.243525
1.15903
-0.317354
1.65491
0.603822
-1.15675
0.908676
1.37925
-1.99202
0.612773
0.58035
0.298517
0.373424
0.273341
-0.769724
0.626452
0.143272
-0.755989
0.0959912
-0.580464
0.484473
1.30198
0.498739
1.11543
-1.41709
0.301665
1.59992
0.193501
-1.79342
-2.03859
1.58769
0.450898
-0.353497
-0.705323
1.05882
1.907
-0.605028
-0.110941
0.819814
-0.191
0.0805708
0.110429
-0.166977
0.0548015
0.112175
1.13883
0.801777
-1.94061
1.21299
-1.16153
-0.051454
-0.347526
0.202985
0.144541
-0.319745
-0.131593
2.22663
-0.847376
-0.641979
0.68679
-0.0448108
1.25338
-2.10282
0.849446
0.365752
-1.56878
1.14598
0.448815
-1.59479
1.27439
-0.824608
1.98959
-0.256949
-1.73264
0.469865
-1.71001
1.24014
2.4533
-1.98718
-0.466114
-0.271837
0.472892
-0.201055
0.00166326
2.01238
-2.01404
2.12257
-0.382276
-1.65897
0.0572381
1.60173
-0.942077
0.830831
0.111245
2.01867
-0.979344
0.345881
0.568813
-1.26486
1.54553
-0.280671
-1.45428
1.79054
0.0254948
-0.355212
0.329717
0.113179
-0.143279
0.0300992
-0.0357257
-0.371671
0.407397
1.8766
-0.257245
-1.61935
2.61817
-1.27654
-1.34163
-0.44352
0.407794
0.600739
-1.29299
0.692255
0.188995
-0.0314831
-1.6151
-0.956187
1.36725
-0.411062
-1.32293
0.983491
0.339437
-0.0311283
-0.0516901
0.0828183
0.595507
1.85779
-0.175801
0.00882419
-0.242238
0.0512379
-1.4093
0.14444
-1.46459
1.86355
-0.398961
-1.29987
1.50233
-0.202456
-1.20155
-0.835156
2.03671
-0.258467
-0.220283
0.47875
0.905928
-0.96408
0.0581522
1.65175
0.233964
-1.88572
0.0165955
-1.50069
1.48409
-0.720128
1.8661
0.394432
-1.0841
0.689666
-0.811217
2.12479
-1.65257
1.0729
0.579672
0.115295
-0.185394
0.0700993
0.784456
-2.29051
1.50606
-1.80675
0.648154
-1.2289
-0.80565
2.00581
-1.22678
-0.779037
-0.52662
0.586452
0.295941
-0.313608
0.0176664
-1.53162
-0.364944
1.89656
-1.61277
2.26171
-0.648941
1.82768
-1.27271
-0.554972
0.16909
-0.508077
0.338986
-0.464608
-0.959008
1.42362
0.304926
0.313704
-0.902707
0.54921
-1.37091
-0.461527
1.83243
0.210272
0.0549395
-0.265211
0.2462
-1.20239
0.282687
-0.423291
1.7207
-0.120779
-0.311326
0.247385
-0.305823
0.367505
-0.0616811
-0.112679
1.98928
-1.52664
1.06204
0.615744
-0.0330456
-0.582698
-1.3788
0.254082
1.12472
0.636752
1.19093
2.38386
-1.59941
1.37765
-2.30274
0.925095
0.419233
-1.4075
0.988262
0.0469376
-0.815372
-0.969039
1.41508
1.30675
-1.87164
0.54769
-1.3697
0.822007
-2.31816
1.30165
1.01651
-0.0439176
-0.812875
0.357548
0.281931
-0.639479
1.4121
-0.41644
-0.995659
0.586388
-1.395
1.39667
-0.501633
-0.140347
1.24726
2.19874
-1.79142
-0.407321
-0.0219836
-0.266189
0.288173
1.33747
0.210607
-1.54808
0.35788
0.133638
-0.491518
-0.227325
1.24139
-1.01406
-0.288196
0.850108
1.12944
-0.735007
-0.13073
0.347975
-0.217245
1.75498
-0.501602
0.210835
-0.0185774
-0.192258
0.292416
0.0415059
-0.333921
-0.244623
0.25378
-0.00915658
1.98512
-1.27404
-0.711075
0.468334
-2.0811
-0.269111
0.0244873
-1.75273
0.576715
1.17601
2.14838
-0.612447
0.501653
-1.96624
2.51288
-1.17243
-1.34046
-0.0304074
0.240679
1.67083
-0.66429
-1.00654
-1.23193
0.286464
0.945467
-1.94938
1.96482
-0.0154379
0.541565
-1.55372
1.01215
-0.10669
-0.0765235
0.183214
-0.93196
1.25854
-0.326579
-0.137231
-0.0511654
0.188396
-0.291448
0.12273
-0.284732
0.0440862
-1.2055
-0.539929
0.85853
-1.48428
0.625747
0.666616
-0.444245
-0.222371
0.79952
0.635748
1.21595
-0.668259
0.037703
0.0754764
1.31654
0.831836
-1.00612
0.0414299
0.964694
0.490179
1.18065
0.75338
0.308512
0.488263
0.178353
-0.56192
-0.0361394
0.598059
-0.111938
0.227232
-1.32059
1.09327
-0.377037
0.497441
-0.120404
-1.7684
1.69801
0.0703953
-0.790779
1.23871
-0.447936
-0.441412
-0.215223
0.656635
1.51591
-1.64899
0.133081
-1.40607
-0.912089
2.58906
-1.67487
-0.914188
-0.207326
0.185342
1.74009
-1.19852
-0.681338
1.53987
-0.196851
-0.494376
0.691227
1.5899
-0.229635
-1.36027
2.59047
-0.397917
-2.19255
-0.763967
0.567116
1.63424
-0.952973
-0.681269
-0.312558
1.54842
-1.23586
1.25532
-1.56407
0.308748
0.365958
-0.60163
0.235671
0.80965
-0.177824
-0.631826
2.38116
-1.89009
-0.491075
-1.10371
-0.93488
1.51336
0.685379
-1.62175
-0.146653
-0.0636368
0.356052
0.306249
-1.55111
1.24486
0.00882382
0.287118
-1.07747
2.2163
0.742997
1.24212
2.1836
-1.34502
-0.83858
-1.80343
1.3419
1.49916
-2.41245
0.91329
-1.24338
-0.0767593
1.32014
-0.449545
-0.355488
0.805033
1.06284
-0.462103
0.113694
0.502049
0.603284
-0.0428184
-0.957391
-1.41138
1.95689
-0.545508
-0.354701
0.048877
-0.122714
-0.00801624
0.2649
-2.21428
0.689889
-0.978085
0.298264
-0.461502
0.628871
-0.167369
-0.0101594
0.160234
-1.02818
0.754057
0.274123
0.686897
0.550196
-0.893366
1.39196
-0.498596
0.991627
0.221361
-1.275
1.58125
1.14526
-0.11247
-0.393873
-0.984928
1.90996
-1.40905
-0.500905
1.86282
-1.76557
0.545672
1.2199
1.58047
-1.71907
0.138602
-0.86187
0.702678
-0.223783
-0.123743
-0.217364
-1.2204
0.552882
-1.07202
0.519138
0.832216
0.802026
1.5172
-2.2436
0.726402
0.436014
-1.05874
0.622722
-1.94703
0.334423
0.0164758
0.7004
-1.13841
1.78493
-0.646519
-0.524804
0.621618
-0.0968143
-0.79589
-0.220387
-0.254436
-0.441967
0.696403
0.188205
0.00191947
-0.190124
-0.659715
-0.282361
0.7515
0.895724
-1.64722
1.58688
-1.0967
0.589365
-0.899088
0.0372183
0.910947
-0.474932
-1.31543
-0.337143
-0.104822
-0.100327
0.205149
1.93255
-0.688384
-0.885224
1.47516
-0.589931
-0.235029
0.270475
-0.0354465
1.48368
-0.0715765
-0.415905
-1.1352
-0.971693
1.80696
-0.835265
1.35671
-2.27555
0.918833
1.13678
1.45227
0.614173
-0.510441
-0.103732
0.178617
-1.42199
1.34796
-2.0552
0.707241
0.233548
-0.374467
-0.138384
1.25381
-0.260182
0.950072
-0.989094
1.40833
0.402886
-2.13569
-1.81399
0.978668
0.835323
1.26594
-0.199873
-1.06607
1.86015
-0.344248
-0.812715
-1.05882
-0.958205
0.909558
-0.56146
-0.198584
0.760044
0.64066
-0.569613
-1.40406
1.26567
1.73749
0.440727
-1.55469
0.669464
2.20666
-0.693303
0.249967
-0.0876736
-0.162293
-0.00463205
-1.21171
1.21634
-1.80549
0.341444
1.46404
1.60376
-1.60376
-0.473523
1.65134
-1.17782
0.750028
-1.64339
1.3524
-0.809215
-0.54319
-1.81638
1.88696
-0.0705765
0.667443
-0.0937623
-0.573681
0.524995
-0.222406
-0.302589
0.219115
-0.660527
-0.672401
0.927457
-1.60879
-1.65837
1.94939
-0.291022
-0.568281
1.31978
0.126984
0.028904
-0.155888
-0.227341
0.398242
-0.170902
-0.764258
0.811196
2.07302
-1.68285
-0.390176
-0.166391
-1.05305
1.21944
-0.455147
0.494625
-0.039478
0.238866
-0.559576
0.320711
-2.08015
0.854386
1.22576
-0.15054
-0.058787
0.153768
0.0961992
0.0885377
-0.0745914
-0.0139463
1.00736
1.3738
0.102107
0.0248773
-0.107995
-0.57356
0.681555
-0.97649
1.56763
-0.591135
-0.0246572
0.18069
-0.156033
0.858555
-0.409064
1.97185
-1.01507
-0.95678
0.0154413
-0.846225
0.0846327
1.56712
0.837842
0.602975
-1.44082
0.93371
-0.819216
-0.114494
-2.03267
0.373708
-0.847364
0.363536
0.483828
0.838035
1.06642
-1.90446
-1.24172
1.16496
0.112355
-1.81794
1.70558
-0.250414
0.419504
0.0895656
-0.142299
0.0527334
0.0386299
-0.600549
0.383701
-0.15673
-0.22697
-1.34268
-0.410048
1.22163
0.253515
0.05731
-0.310825
-0.243003
0.00797382
0.32887
-1.40836
1.07949
0.428861
1.06949
-1.49835
0.660795
-1.40774
1.70554
-0.297807
-1.42157
1.10901
0.30603
0.4116
-0.787343
-0.535585
-0.507518
0.135857
0.371661
-1.70058
0.724091
1.33382
-1.50021
0.833987
1.37268
-0.582917
0.595299
-0.0123814
0.707678
-1.7133
1.00563
0.291008
-0.533219
0.242211
1.09659
-1.51249
-1.26906
-0.0308133
-0.61493
-0.0660648
0.0937699
0.58554
-0.67931
0.666957
-0.0471059
-0.0664237
0.11353
1.78334
-0.945301
-1.53157
1.46085
0.0707224
0.514851
0.355876
-0.870726
-0.736955
0.486541
-0.421068
-0.0864505
0.781563
0.570842
-0.494963
-1.49706
0.211264
-0.316085
1.22459
0.814651
0.330613
-1.72897
1.88099
0.194677
-0.919554
0.724877
-0.17506
-1.6496
1.82466
0.0785245
-0.0916908
0.0131663
0.379538
-0.638005
-0.354411
1.60973
1.76219
-1.29233
-0.859823
-0.168357
0.0229486
-0.815702
0.792753
0.806534
-2.00809
-0.219467
-0.945315
1.16478
0.0736403
-0.307806
0.234165
-1.30695
0.100402
1.20655
1.90319
-1.33738
-0.0401966
0.169954
-0.129757
-0.420603
-0.0345442
0.350852
0.707875
-1.05873
0.232106
-0.290801
0.058695
1.30471
0.744267
-2.04898
-0.786918
2.28125
0.184401
0.00380423
-0.513564
-1.10575
1.61932
0.777471
1.44916
1.81143
-1.38257
-0.68936
0.434923
0.603866
0.205784
-0.835928
2.33509
0.270884
-1.53177
1.26088
1.85493
-0.27511
-1.57982
-0.923961
1.4154
-0.491441
0.79636
-0.751222
-0.947872
1.69909
-0.180194
0.0219249
0.158269
-0.56427
-0.972623
1.53689
0.142791
-0.370131
0.0604603
-0.0915885
1.01235
-1.57662
-1.40928
-0.41322
1.8225
-0.130234
-0.940884
1.07112
0.267981
2.38881
-2.44894
0.0601207
0.427008
-0.306525
-0.120483
0.0196456
-0.602563
0.52627
0.463705
-0.619815
0.17027
-1.59017
2.02023
-0.430066
0.0278133
-0.404851
0.674039
0.600352
-1.68753
-0.4946
-0.191112
0.746389
-0.555276
1.08065
-0.265996
-0.402615
0.445019
-0.0424036
-0.249635
0.112404
-2.3132
1.0843
1.84414
0.34213
-0.266391
0.505257
-0.395295
0.910146
1.58143
-0.653971
-0.417241
0.0146262
-0.186252
-1.21781
0.443289
0.442804
-0.417309
-1.83437
0.0288878
0.141463
0.419108
-0.1281
-1.98516
1.26605
0.719106
1.56577
0.280318
0.365621
-0.114557
-0.251064
0.538207
-0.509332
-0.0288743
-1.72653
0.613569
-2.02628
1.05459
-0.471705
0.416255
0.0554494
-0.00541174
-0.103232
0.108643
2.13508
-0.00306371
-2.13202
0.327791
0.0182295
-0.346021
-0.263371
-0.506353
0.445957
-0.039414
0.280953
-0.326356
0.045403
0.756331
-0.119795
-0.636537
-0.126001
0.406955
1.68031
-1.28337
-0.0558832
-0.281211
0.337094
-2.03021
0.440042
-0.0958282
0.0065744
-0.278724
-0.194378
0.447893
-0.000504987
0.038208
0.485192
0.300491
-0.785682
0.834881
-0.0892072
0.864765
-0.670087
0.417396
-0.365165
0.123233
-0.648037
1.19083
-0.0706859
-1.12015
1.04684
-0.0725835
-0.974253
-1.29252
-0.417491
0.216699
-0.227501
0.010802
0.787259
-0.888565
0.101306
2.17438
-0.0589276
-2.11545
0.0532766
-0.384901
0.331625
-0.974447
1.29231
-0.317865
0.998896
1.2165
-2.2154
-0.701486
0.611381
-0.515427
0.846984
-0.331558
0.42201
0.184726
-0.606736
-1.87696
0.905215
0.971743
-0.332501
0.00614492
-1.68385
0.27457
0.595713
-0.3666
-0.229113
0.949591
-1.22436
0.274772
-0.162319
-0.380535
0.361625
2.02719
1.63464
-0.264896
-1.36974
-1.67069
0.262951
0.673615
-1.06749
1.34786
-2.16152
0.813664
-0.197162
0.55471
0.0404279
-0.786654
0.678659
-0.314883
0.410874
-0.228724
-1.52334
1.75207
0.754741
0.985348
-1.46887
1.54872
-0.0798496
-0.448803
0.542573
-1.27567
-0.517841
-0.230081
0.257212
-0.027131
0.382405
-0.647581
0.265176
0.0749736
-0.057504
-0.0174695
-0.159633
1.10922
-1.60267
-0.232487
1.83516
-1.4997
-0.46742
1.96712
0.949401
-0.709866
-0.239535
-0.384754
0.0430891
0.341665
-0.236122
-0.404354
0.640475
-1.95398
0.090025
1.86395
0.0534025
0.360745
-0.414148
1.59092
-1.78205
0.191136
-1.00681
1.10512
0.138329
-1.24345
0.0211246
-0.251205
-0.408994
-0.816678
1.22567
1.23973
-2.05095
-1.89376
1.64607
0.24769
0.274496
-0.04239
1.29051
-0.616466
-0.107588
-0.485975
0.593563
-0.0176252
0.291214
-0.273589
-0.573325
1.86199
-1.28867
0.934303
-0.864154
-0.0701488
2.01473
-1.93527
-0.0794574
1.57396
-0.638609
-0.93535
0.0900848
-0.43743
0.347345
-0.563622
-0.0168421
-1.90729
1.68253
0.224761
0.107964
-2.01525
-0.827321
1.32947
-0.502147
-1.16181
-0.728279
0.362704
-0.319908
-0.0427958
-1.579
-0.451209
-0.34538
0.226477
0.118902
0.482253
-0.124373
-1.81345
1.7393
0.0741474
-0.421815
-0.205339
0.0789878
0.35126
-0.0234688
-1.19641
0.264447
0.247606
-0.306886
0.0592801
-0.912685
0.692459
0.220227
0.695294
-0.0278507
-0.505854
1.28322
0.200452
0.710717
0.159637
0.53266
-0.692298
-0.203285
1.10921
-1.20755
0.769059
0.438492
-0.263465
-0.069036
1.72125
-0.966511
1.44749
-0.739816
-0.469071
-0.340693
0.809765
0.677172
-1.54811
0.870936
1.08051
-1.21074
1.96195
-0.861566
-1.10039
-0.00925419
-1.01178
-0.195765
-1.58482
1.95521
-0.370392
0.129025
-0.565283
1.94293
-2.08241
0.503406
-0.0887222
0.454681
-0.210023
-0.685074
0.261534
-0.00775436
-0.977872
-1.02851
2.3139
-0.9409
0.667224
-0.140959
-0.526265
0.129721
0.395274
-1.3208
-0.726368
2.04717
0.337253
0.725589
-0.00478303
-0.273164
0.277947
1.63588
-0.0103177
-0.123986
0.134303
1.13964
0.0511935
-0.716846
-1.98944
0.331068
-0.420294
0.0194523
0.400841
1.12363
1.38925
0.541952
0.0852499
-0.627202
1.92645
0.0882774
1.16393
-1.65192
0.48799
-1.63885
-0.0247727
1.66363
-1.53511
1.9907
-0.455585
0.263808
-0.00799539
-0.255813
-0.789464
2.0292
-0.0891629
0.484062
-0.394899
0.0598482
-1.52871
0.351924
-0.078032
-0.273892
-1.84503
2.38112
-0.536086
-0.4821
1.05426
-0.572162
2.31493
-1.0145
-1.30043
-0.00546379
-1.1886
1.19406
-0.150823
0.00852385
-0.963635
1.96253
1.09014
-1.56367
2.22552
-0.868804
-0.350978
0.295095
-1.72282
0.0839686
2.38577
-0.86857
-0.0555255
-2.29704
0.451224
-0.0522672
0.542261
1.0558
-1.59807
1.09106
-0.250904
-0.840157
1.37962
-1.93351
0.553891
-0.294514
0.0208495
0.273664
-0.390115
-0.92849
1.31861
0.69809
-0.574856
-0.908223
0.344888
0.563335
0.266369
0.565377
-0.831746
0.153964
0.20874
-1.70439
2.00749
-0.303107
0.107008
-0.0284838
0.886171
0.385946
-1.27212
1.02071
0.76675
-1.78746
0.296343
0.969597
-0.0245185
2.0141
0.00132535
1.56762
-1.56895
-0.0225448
-0.00211244
-0.0301872
0.267655
-0.237468
1.41343
-1.32615
-0.0872752
0.891332
1.07062
0.150048
-0.271297
0.121249
-0.561198
1.60009
-1.03889
0.0307187
0.288999
-0.319717
0.754646
-1.43882
0.684171
-1.18873
-0.535856
1.72458
1.62731
-0.289833
0.58671
0.504351
-0.893355
-0.211307
1.10466
0.562915
-1.61597
-0.596529
0.631014
-0.0344854
0.361681
-0.15668
-0.205001
-0.083912
-0.0669109
-0.147638
1.52725
-1.37961
-0.254164
2.07016
1.52802
-1.2316
-0.296416
1.22921
-1.08719
-1.0465
0.324726
0.721776
0.122794
-0.932008
-0.362278
0.284293
0.0779844
0.1069
0.258721
0.288366
1.46849
-1.75686
0.39705
0.359281
0.243483
-1.74318
-0.847704
0.354315
0.493389
-0.613757
-0.476863
1.09062
0.921989
-0.436797
-1.67843
1.11015
0.634156
-0.508215
-0.125941
-0.94517
1.53764
-0.592472
-0.866982
0.882423
-0.834688
1.09134
-0.256648
-1.23689
1.75355
-0.516661
-0.0442185
0.403549
-0.359331
0.141775
-0.147187
-0.615051
-1.23888
1.86451
-0.625634
-1.07942
1.3335
1.01383
-1.02467
0.0108399
0.0231975
-0.403295
0.380098
-2.2873
1.65469
0.632609
-0.0677813
0.0862573
-0.018476
-0.0420838
1.23177
-1.80509
1.44161
-0.764434
-0.759687
-1.0543
-1.3903
1.39162
0.980479
0.0030118
0.753327
0.282706
-1.03603
-0.630893
0.583269
0.0476242
0.585872
-0.503188
-0.0826837
0.178728
-0.811478
0.63275
-0.425659
1.01044
-0.584777
-1.49388
-0.456693
1.95057
0.350971
-0.327773
1.16309
0.25034
-1.7177
1.34188
0.37583
0.761002
-0.391837
-0.369164
0.00882971
0.326799
-0.429938
0.10314
-1.30268
-0.723256
0.901983
0.259025
0.376007
-0.285922
0.597342
-0.214937
0.299436
-1.00476
0.0597853
0.524565
-0.719228
0.615085
0.104143
-1.15199
-0.883117
2.03511
-0.137107
-0.756248
-1.01468
-0.169172
1.18385
0.259746
0.337861
-0.597607
-0.0301459
2.21373
-1.42907
-0.784662
0.342182
1.29245
0.133429
0.847622
-0.805085
-0.0425369
-0.586002
1.5797
-0.9937
-1.11823
-0.462795
1.58102
-0.871124
0.355698
-0.816842
-0.22966
2.08829
-0.896227
-1.19206
-0.251001
-0.118007
0.369009
0.761287
0.102192
-0.863479
-0.309041
0.362443
0.11586
0.0290124
-0.144873
0.316756
-0.0488825
-0.394637
-0.0172493
1.19622
0.892063
-0.911555
1.66597
-0.665543
1.85191
-0.35981
0.108809
-1.66562
0.547389
1.41227
-1.23366
-0.191416
-1.21072
0.236272
0.401265
-1.22859
1.40083
-1.40547
1.6199
-0.0394279
-0.375683
-0.20569
-0.557617
-0.156821
0.714438
-0.561221
-0.0593935
1.45401
0.27895
-1.73296
0.0604392
-0.497582
0.437142
0.0238665
0.593461
-1.77159
1.17812
1.7133
-0.122381
-1.7555
1.84773
-0.0922385
0.421749
-0.253613
-2.08418
-0.203123
-0.665205
1.73773
-0.0551998
0.636257
2.21317
-0.824252
-1.38892
-1.22183
-0.102418
1.32425
0.285628
1.03043
-1.31606
-1.37466
0.067706
-0.336468
-0.288081
0.624548
-0.931642
1.20253
0.270161
1.02311
-1.29327
-1.24826
0.569581
0.678679
-1.85552
0.191253
1.66426
0.466542
0.975064
-0.431945
1.06952
0.504441
-0.581806
-0.265558
1.46155
-1.71849
-0.217392
-0.657946
0.875338
-0.82876
0.127275
1.33152
0.0870908
-1.41861
1.2268
-1.89234
0.0316956
-0.138386
-1.20392
1.7804
-0.576482
-1.19308
0.784087
-0.0245368
0.516054
-0.491517
0.00631717
-0.453584
0.447267
0.529769
-0.150231
-0.472171
1.14579
-0.0466173
-0.425087
-0.285458
0.306582
0.588665
-0.455027
-0.15172
0.0751969
-0.364458
0.349297
0.0151618
0.377066
-0.42433
0.0472643
-1.39266
1.06486
0.230269
-1.24495
-0.0164392
-0.51018
0.0622042
1.05965
-1.12186
0.605061
-0.6412
0.511719
-1.5973
1.08558
-0.637084
1.29863
-0.661547
0.460131
-1.87151
0.0836555
-0.0476132
-1.84614
0.929262
1.38464
-1.47749
-0.200943
-1.29693
-0.468646
-0.776087
0.33412
0.488769
0.235094
-0.723863
2.25809
-1.13446
1.79002
-0.442058
-0.442173
-0.28488
0.727053
-2.10184
0.844482
1.25736
0.319124
-0.579075
-0.115419
1.22054
0.294112
-0.176734
-1.00209
0.395387
-0.48455
-0.575721
0.541113
0.0346088
-0.225297
1.67931
0.373366
-0.248406
-0.124959
1.64226
-2.52145
1.15794
1.36351
0.457457
0.36514
-0.822596
1.13804
-0.405559
-0.732477
-0.991281
0.509182
-0.772649
0.0181921
0.743095
1.7715
-1.94656
0.758268
-0.336258
-0.78134
1.34425
-1.93831
1.38843
0.549884
0.825027
-1.51065
0.685623
-1.37269
1.45029
-0.0776027
0.831929
-1.03521
0.0241947
0.456539
0.492862
0.116101
-1.28234
0.384406
-1.76618
0.832175
0.934008
0.466715
-1.68855
1.46193
-0.0929182
-1.13901
0.239102
0.409234
2.01163
-0.668251
-1.34338
-0.776833
0.508514
-1.12227
0.278325
-1.88175
1.77933
-1.48274
0.731519
0.931911
-1.65127
1.04095
0.610314
-1.72477
1.16355
0.561226
-0.524795
-0.191717
0.265357
-1.9339
1.34815
0.585746
1.20035
-1.98982
-1.68238
-0.0220093
2.15357
-0.805714
0.619952
0.239327
-0.859279
-0.0432945
-0.272352
0.315646
-0.078099
0.959853
1.04259
-0.954033
-0.697232
0.347361
0.350728
0.453685
0.666565
-1.12025
0.702583
-0.420651
-0.0900345
-2.11247
2.2025
-0.635057
0.825421
-1.54555
-1.1931
-0.797557
1.99066
0.466191
-0.587378
-1.28284
0.40072
0.882117
-0.00763916
0.0253948
-0.0177556
1.62737
-1.8561
0.318918
-1.52284
0.882565
0.602469
-1.48503
0.330183
0.337041
-1.55223
0.428717
1.12351
-1.7657
0.576976
1.00132
-1.58732
0.77244
-0.989831
-0.00447587
-0.00316329
-0.0697471
1.92468
-1.1753
1.45042
-0.275124
1.88282
0.000372835
-1.88319
-1.38486
-0.0157218
-0.445781
0.102872
1.50089
0.212245
0.0582301
1.01782
-0.558499
1.30853
0.966823
0.164293
0.42158
-1.69754
-0.115903
-1.6975
0.791501
-1.45579
0.315837
0.349567
-0.665404
1.64063
0.0967357
-1.73736
-0.197094
0.189099
-0.629116
-1.39717
-1.4984
-0.220678
-0.707115
1.93391
-0.635875
0.856009
-0.220134
-1.68389
0.531903
-0.512794
0.966479
-0.759874
-1.22529
-0.560415
-0.606433
0.664585
-0.853903
-0.0587823
2.00337
-0.265647
0.935236
-0.266226
-0.669009
0.188468
0.159507
0.462656
1.93387
-1.82152
0.0077051
-0.414314
0.589144
-0.944065
0.985495
-0.837468
-0.94251
0.390385
0.322242
-0.712627
-1.64239
0.0386207
-0.215105
1.45093
-1.23582
-0.156652
-1.59884
-1.33528
1.54589
2.46798
-1.06451
-1.40347
-0.261816
0.625352
1.57845
-0.860312
-0.718141
0.475634
-0.524517
0.179481
-0.209669
-0.402816
0.0960015
0.306814
-0.26001
1.01334
-0.824237
2.02459
-0.0642166
-0.255692
-0.5112
-0.134448
0.645648
-0.0200642
1.64744
0.248869
0.441998
-0.690867
-0.706726
1.05758
0.804907
0.795181
-0.635916
-0.211788
0.952356
-0.340015
-0.612341
-0.0795264
0.0618653
0.0176611
0.23139
-1.513
1.28161
-1.75293
0.254535
0.39855
-0.710029
1.50153
-0.0134948
0.489129
0.208745
-0.84462
-1.94908
0.99088
-1.90554
0.629003
-0.830959
0.0667007
-0.794579
-1.0803
1.87487
-1.86201
-0.261807
0.566551
-0.304745
1.73724
-1.28185
1.4313
-1.14568
0.300771
0.986202
-1.28697
0.405847
-0.742315
-1.36946
-0.417055
1.78651
-0.216869
0.553191
-0.336322
-0.789162
1.69785
-0.908688
1.5471
-0.959177
-0.587922
1.55954
0.045771
-1.60531
-1.03001
-1.49144
-0.606899
-0.00803051
0.676992
1.23001
-0.0304681
0.160296
-0.129828
-1.26259
-0.289636
1.3674
1.14924
-0.998247
1.18295
-0.184701
-0.118876
-0.00510988
0.136623
0.712542
-0.849165
0.107358
0.266008
-0.22184
-1.71206
-1.62158
0.625752
0.00840464
-0.266936
0.549623
0.132701
1.39447
-1.52717
-0.9475
-0.248907
1.16903
0.417847
0.1306
-0.450345
-0.470278
-0.173718
0.643996
0.19007
-0.674054
0.483984
0.605751
0.632963
0.354412
1.5255
-0.693282
1.69587
-0.870447
-0.196176
-0.457905
0.654081
1.40652
0.141897
0.0559772
-1.23422
0.844104
1.14977
-1.16983
-0.979288
-0.864192
1.84348
-1.18079
-0.92105
-1.95396
2.02362
-0.0696611
-0.105629
-0.71934
0.562519
1.03806
0.487442
0.0859611
-0.481949
0.395988
-0.617009
-1.26339
-0.261229
-1.42947
1.6907
0.835977
-0.498725
-0.754062
0.157533
1.09925
-1.72837
0.877616
-0.690141
-0.625397
1.93294
-1.30754
0.93209
0.955666
0.536417
-1.49208
2.03044
-1.21456
-0.815878
-0.692598
-1.38714
2.20756
-0.820421
0.257768
0.677468
-0.51083
0.497335
0.801128
1.5138
-0.382257
0.338963
0.0470543
-0.0941602
1.80621
-1.00443
0.854574
1.40352
-0.734106
0.374814
0.359293
0.431567
-0.900639
1.41899
-0.0874652
1.05896
-0.439007
-1.29172
-0.184864
1.47658
0.331753
-0.0667108
-0.265043
0.241554
0.185454
0.261822
-1.79694
-0.501604
0.540234
1.30168
-1.14654
-0.155139
0.278498
0.673858
-0.254515
0.139958
0.430632
0.435492
-0.866124
-0.939806
1.77018
0.490055
-1.0434
2.20807
-1.16467
-0.535963
0.802332
-0.734666
-0.513594
2.03675
-0.990268
-0.63148
0.378681
0.759354
0.531554
-0.547993
-0.3061
0.261881
-0.536648
-0.241592
-0.00141101
1.22634
-0.272068
1.52129
-1.24922
-0.125493
0.214031
-0.648969
0.162994
-0.571431
-0.0354686
-1.6782
1.16463
0.411841
0.435143
0.118797
-0.598202
0.479405
0.528016
0.102276
1.56002
0.837535
-2.39755
-0.161114
-0.0423227
0.203437
-0.616192
-0.915377
1.61644
0.851535
1.46834
-1.33563
-2.22307
0.26454
0.0999551
-0.327874
0.846964
1.42216
0.330302
-1.75246
0.652917
-0.0478563
-0.0657691
-0.586152
-0.147954
-0.984382
-0.88831
1.0111
0.0853588
1.37549
1.06836
-1.0757
0.00733441
0.33673
0.012567
-0.118375
0.438707
-0.0616418
1.41632
0.394853
-1.81117
-0.896659
0.320938
-0.397474
0.24137
0.156104
-0.606295
0.00648509
0.59981
0.718081
0.946118
-1.6642
0.416965
0.505023
1.29142
-0.034044
-0.462211
0.914863
-1.47336
-0.109495
0.158175
-0.0486807
-1.81809
1.01244
1.55304
-1.23854
-0.314497
0.0275714
-0.249746
0.222175
1.61907
-1.76671
1.07848
-0.2425
0.537207
0.894096
-0.212637
-0.028955
0.163359
-0.0615946
-0.101765
-1.09546
-0.215672
1.99138
-1.01857
-0.972818
1.06808
0.0537704
-1.12185
0.722227
-1.26356
0.541328
0.0646575
0.93253
-0.0215832
-0.368168
1.11949
-0.751318
0.162558
0.000801166
-0.548671
-0.408826
0.16042
1.60062
-0.0034812
-1.59714
-0.61379
-0.590733
-0.128496
-0.222644
-0.0486533
0.842143
0.938258
-0.264548
0.339522
0.0275152
0.102603
-0.25301
0.274548
-0.702161
1.00293
0.0282176
0.414587
-0.668862
-0.592865
1.39239
-0.0719084
1.14027
-0.268408
-0.191582
-0.429476
0.860108
-0.376601
1.58919
-1.21259
-1.48326
-0.200591
-0.875805
1.52933
-0.653526
-0.168751
-0.240076
0.5407
-0.114105
-0.0393043
-0.413634
0.452939
-1.50015
0.50988
0.17579
-0.215987
0.885196
-2.206
0.612324
-1.71808
-0.407426
1.34086
-0.635823
0.888168
-0.452677
0.024725
-1.17444
1.40583
0.000271381
-0.26646
0.26555
-0.975416
-0.169133
-1.08913
1.25827
0.444069
0.653422
2.27703
-1.48856
-0.788471
-0.385701
0.119209
0.389229
0.0398298
-0.429059
-1.44389
0.268594
0.305822
0.0558585
-0.0146032
-0.213132
0.227736
0.730932
-1.60674
0.152623
0.811728
0.0392966
-0.851025
-1.75821
1.38161
0.253935
0.0651402
-0.319075
0.594857
-1.83374
-0.234704
-0.00832346
0.243027
0.327636
-0.0737007
-0.00458218
1.28567
-0.989329
1.07507
0.864247
-0.447281
-1.6982
0.505098
-1.22184
0.978635
0.243206
0.853196
-1.83248
-0.858699
-0.538575
1.39727
0.158119
0.672712
-0.5164
0.422638
1.99667
-0.271687
-1.72498
-0.0108197
-1.68673
1.42608
0.133461
0.738214
0.840238
-0.262604
-0.0105597
0.251676
-0.506659
-0.565362
0.140182
-0.193364
0.0531821
0.0350811
-1.67486
1.63978
-0.0716544
0.482201
-0.410546
0.575327
-1.6003
1.02497
-0.188939
-0.972595
-0.0598574
0.0737583
1.19717
-0.578965
-0.340501
0.919466
-0.609228
-0.733451
0.762301
-0.44006
0.024773
-0.401045
0.376272
-0.52907
0.647868
-1.63069
-0.244264
-0.0368808
0.281145
0.193323
0.549167
-0.74249
1.39865
-1.54687
0.148223
0.0344169
-0.972372
0.292984
-2.13802
-0.86564
-1.17175
2.03739
-1.69534
0.0753022
1.62004
-2.31906
-1.40542
0.0327258
-0.466686
0.484477
-0.0177911
-1.93389
-0.643317
2.05964
0.637011
-0.336521
0.135057
-0.564533
-0.295839
0.800862
0.246203
0.134636
-0.645836
0.0292387
-0.237439
0.2082
-0.40778
0.135943
-0.160108
0.187679
-0.441652
0.899109
-1.81191
1.16485
0.647057
-0.59977
0.713465
1.06997
0.327128
0.00462527
-0.435154
0.521115
-0.833532
-0.449305
-0.92997
0.340723
0.589247
0.172394
-0.100939
-0.0714548
-0.671535
0.861604
-0.11351
1.23823
1.16144
-0.912567
0.977801
-1.58703
0.76013
-1.02194
0.261814
0.165857
0.00409683
-0.558057
0.0476161
-1.86396
1.06938
-0.164151
1.23223
0.0254827
-0.340037
0.314555
-2.47295
1.01867
-0.296434
0.33794
-0.323038
-0.0325989
-0.366497
0.399096
-0.95359
0.374625
-1.85214
1.6303
1.65247
-0.76991
-0.344382
0.307882
0.0364999
0.482936
0.263453
-0.249307
-1.93674
0.723674
1.21307
-0.231323
0.189
-0.147317
0.518204
-0.370887
0.629459
0.449018
0.0120084
0.0948576
-0.106866
-0.440968
0.469186
-0.110347
0.343895
1.02524
-1.46653
1.81438
0.11207
-0.598057
-0.107612
1.68749
-0.053719
-1.63377
0.0199844
0.282426
-0.30241
0.996974
-1.97485
0.430488
0.458409
-0.888898
0.048971
-0.0739076
0.0249366
-1.30185
1.2951
0.00674649
-0.711424
1.22314
0.0231976
0.911106
1.67933
-0.566845
-1.11249
-0.024506
-0.177055
0.201561
-0.228205
-0.528139
-0.0354832
-0.515022
-0.0131168
0.0246334
-0.55877
0.534137
-0.144694
1.66484
-1.52015
-1.55434
0.606672
0.947666
0.48843
1.64665
0.0792628
0.033764
-0.113027
0.96904
0.426987
-1.39603
-0.126263
0.615032
-0.701277
1.78385
-1.08257
-1.48115
0.189433
1.17823
0.486765
-1.34546
-0.00154002
-0.180321
0.181861
1.74017
-0.392793
-1.34738
0.578361
0.364245
-2.08743
1.05892
1.93086
-2.02089
-0.903779
0.230704
0.673075
-0.093409
-0.274314
0.226906
0.0474075
-0.77009
0.33338
0.43671
-0.0151625
0.194429
-0.179267
-0.22525
0.235042
-0.00979227
-0.959621
2.05888
-0.49338
0.516328
0.175801
-0.323119
0.631024
-0.92542
0.294396
-1.12014
-0.818179
-0.508949
0.272827
0.399597
0.0488599
-0.448457
1.97269
-0.556517
-1.41617
0.185963
1.11572
-0.403293
-0.2276
-0.95615
0.140448
0.683599
0.950026
-1.63363
0.00556934
-0.0447754
0.0392061
-0.0433339
0.581541
-0.184053
0.534843
-0.350791
1.7109
-0.778636
-0.932266