/*--------------------------------*- C++ -*----------------------------------*\
| =========                 |                                                 |
| \\      /  F ield         | OpenFOAM: The Open Source CFD Toolbox           |
|  \\    /   O peration     | Version:  2306                                  |
|   \\  /    A nd           | Website:  www.openfoam.com                      |
|    \\/     M anipulation  |                                                 |
\*---------------------------------------------------------------------------*/
FoamFile
{
    version     2.0;
    format      ascii;
    arch        "LSB;label=32;scalar=64";
    class       volVectorField;
    location    "2.2";
    object      U;
}
// * * * * * * * * * * * * * * * * * * * * * * * * * * * * * * * * * * * * * //

dimensions      [0 1 -1 0 0 0 0];

internalField   nonuniform List<vector> 
13486
(
(2.83214 -0.39582 2.29675e-18)
(3.30407 0.59815 1.07088e-18)
(4.59857 0.0570205 0)
(1.56991 -0.733092 -2.51393e-19)
(4.52193 -1.0902 7.66469e-19)
(4.83762 0.225674 1.22894e-19)
(4.95922 -0.948077 1.36729e-20)
(3.829 -1.43229 -1.24746e-18)
(3.77034 -0.764269 0)
(4.06843 1.52206 0)
(-1.54602 -2.78945 -7.2207e-18)
(5.04388 -0.0938936 0)
(2.51831 -0.78578 -2.29533e-18)
(4.94213 1.4356 2.10766e-19)
(4.73842 -0.794638 4.07279e-19)
(3.95927 1.50868 -5.76355e-19)
(-2.7122 2.95729 4.44434e-18)
(2.82872 -0.844688 -2.51428e-20)
(4.59669 -0.0184751 1.02119e-20)
(3.19569 -0.0161495 -2.32676e-18)
(2.36874 -1.23491 -1.12477e-19)
(2.55909 -0.818945 2.98692e-18)
(3.3631 0.583293 -8.52236e-19)
(4.83728 -1.74239 0)
(4.14293 1.14626 1.84031e-19)
(4.78996 -1.59394 -4.92037e-19)
(-5.42193 2.48305 6.08068e-18)
(4.85619 -0.225704 1.50781e-18)
(4.03621 0.0423931 0)
(4.3463 -0.647545 -8.46793e-19)
(2.36859 -1.24753 -8.45373e-20)
(4.96012 -0.59919 -4.89248e-19)
(5.63162 -0.781176 1.46128e-18)
(4.05997 -0.168762 0)
(3.84751 -1.37562 0)
(3.78692 -0.0226059 -1.37257e-20)
(3.86171 0.186451 1.73228e-20)
(3.03519 -1.41434 1.17774e-18)
(3.52414 0.114337 -2.66705e-20)
(3.83084 -0.461973 1.16934e-18)
(4.65701 -1.65823 0)
(1.98648 -0.971439 -2.65739e-18)
(4.10991 -0.0136038 0)
(4.16929 1.02016 -8.78201e-19)
(4.24142 0.982638 3.64434e-19)
(5.02369 -0.0839873 2.96885e-19)
(1.27125 4.16378 1.06009e-17)
(4.00759 0.0416353 -3.18146e-21)
(3.88961 0.17947 -1.27548e-20)
(5.1473 -0.0389277 7.99155e-19)
(3.98945 0.0433476 1.25621e-18)
(3.62534 0.0563395 0)
(5.23608 -0.271097 -3.39218e-19)
(3.19758 -1.16853 -1.71658e-18)
(2.80248 -0.97265 0)
(4.45617 -1.10216 -5.15833e-19)
(4.13662 0.236087 -3.68863e-20)
(3.54687 0.0417897 -1.26937e-19)
(5.56673 -0.766074 1.67356e-18)
(3.89019 0.291526 0)
(-0.72333 -4.23376 -6.02972e-18)
(3.91303 0.283918 0)
(7.51235 -0.0200242 -2.34566e-18)
(2.43854 -1.25273 -1.32354e-21)
(3.27917 -1.86715 0)
(3.89041 0.217907 1.0477e-20)
(1.64756 -0.79531 -2.34716e-19)
(2.81821 0.17048 7.77339e-19)
(3.77238 -0.826358 -6.84735e-19)
(3.82125 0.0167048 1.6592e-20)
(1.34298 -0.617258 2.69149e-19)
(2.95755 -0.942712 -6.69561e-21)
(3.84683 -0.225171 8.62751e-19)
(-1.50071 -1.55602 -3.16023e-18)
(3.92896 0.22709 3.21078e-21)
(4.14524 0.209927 8.91709e-21)
(3.92118 0.217144 -1.32122e-20)
(4.74127 -0.836312 -1.66724e-19)
(1.65259 3.79628 -7.22617e-18)
(3.28797 -0.536942 0)
(4.01934 0.0203948 -2.45015e-21)
(3.22623 0.84683 -6.66977e-20)
(8.26296 -0.345854 8.15102e-20)
(4.75739 0.157967 -4.15316e-20)
(2.81488 -0.409312 -4.5195e-18)
(2.67491 3.55854 0)
(1.71841 0.11862 -4.72838e-19)
(4.02837 0.124371 -1.86086e-18)
(3.7009 0.473791 -8.40218e-19)
(3.78892 2.0805 -5.89637e-19)
(5.14743 -0.588678 -2.44063e-19)
(4.08592 -1.25162 -6.53645e-19)
(2.93671 -0.607306 5.98146e-19)
(3.30284 0.19948 6.03604e-20)
(3.56474 -1.13046 2.76667e-19)
(4.04281 0.0517248 9.45669e-22)
(-5.79084 2.7458 0)
(1.9549 -1.15694 1.26866e-19)
(3.84205 -0.463715 -2.23524e-18)
(-4.32819 4.68113 1.12412e-19)
(4.08343 -0.00729577 0)
(4.90155 1.42039 6.55553e-20)
(1.84188 -1.20553 1.13408e-20)
(3.65889 0.0722383 1.47855e-19)
(2.75509 3.42906 0)
(-3.88924 4.36148 1.27199e-19)
(3.89485 0.11671 6.0446e-21)
(3.4711 0.102158 -5.96965e-20)
(1.46012 4.20098 8.27274e-18)
(3.72305 -1.70155 0)
(2.8775 -1.37401 0)
(4.96366 -0.738312 -4.59296e-19)
(3.21444 -1.12067 1.1833e-20)
(4.16641 0.133689 3.15323e-21)
(2.10369 -0.0255922 0)
(2.74002 -1.35657 -1.04142e-18)
(4.11338 1.19372 0)
(4.16882 -0.153203 0)
(3.84269 -0.207903 0)
(3.90173 0.119812 4.57157e-21)
(2.8503 -0.903872 3.57352e-20)
(-0.846367 -4.20657 0)
(3.51441 -1.01389 0)
(3.49501 0.112599 8.82731e-20)
(3.65143 -1.32085 0)
(3.65971 0.055085 0)
(4.31128 -0.573524 2.57378e-20)
(4.35754 0.175563 2.58941e-19)
(3.88208 -0.0295896 -1.32075e-19)
(3.37605 -1.62525 -2.44713e-19)
(3.65267 0.0734177 -1.48257e-20)
(1.84559 3.42996 -2.70898e-18)
(-0.486648 0.632229 4.33279e-18)
(-1.47202 -0.233139 3.85745e-18)
(4.01976 0.0364358 -2.05351e-19)
(3.83799 0.868267 -9.19792e-19)
(1.17603 1.55343 -6.31161e-19)
(3.7477 -1.67938 0)
(3.89441 0.119694 -7.64933e-22)
(3.89111 -1.14666 -4.40699e-19)
(5.48862 -0.31943 -1.55812e-18)
(5.21281 -0.330844 2.83035e-19)
(5.01134 -0.43063 0)
(3.27211 -0.498328 0)
(4.18512 -0.0130531 9.86554e-21)
(7.56781 -1.7483 -4.22353e-18)
(5.54378 1.20281 1.35066e-19)
(0.631719 3.7892 0)
(5.20379 -0.0984602 0)
(4.03621 0.0414922 0)
(4.04361 0.0352909 1.69664e-20)
(4.73315 -0.970691 0)
(4.03183 -0.00520432 2.57958e-21)
(3.19706 0.829518 -5.70905e-19)
(4.40023 0.615968 0)
(4.63461 0.105923 0)
(3.41986 -1.59288 0)
(0.601061 -0.509622 -2.50033e-20)
(3.39219 -1.36205 2.4586e-18)
(4.07178 0.593274 6.61364e-20)
(5.08188 0.00857398 5.08061e-19)
(3.4137 -1.31026 -3.75474e-18)
(4.74301 -0.759089 1.16092e-19)
(1.83167 -0.870364 1.17301e-18)
(3.66333 0.0629053 0)
(5.16182 1.38712 -4.26594e-19)
(4.74956 1.2926 -2.24907e-19)
(0.881076 -0.196686 -2.78893e-18)
(5.49096 1.22864 -3.49866e-19)
(-1.4994 -0.381452 1.03252e-18)
(-2.67299 -0.115219 1.98615e-19)
(4.37425 0.560748 2.37224e-19)
(4.00957 0.197387 -1.45217e-18)
(4.60137 -0.46862 3.80169e-20)
(3.98603 0.00799753 2.00179e-21)
(1.56081 -2.57265 0)
(5.05481 2.06501 5.57143e-19)
(5.75798 -0.41952 2.18005e-18)
(3.92599 0.108631 -2.1155e-18)
(5.00171 -0.393337 0)
(3.93085 -0.585996 2.36505e-18)
(4.14677 0.125367 6.81255e-21)
(4.74565 -0.440472 -1.91525e-20)
(-1.89352 0.522051 0)
(4.92275 0.335111 8.40345e-20)
(4.69096 -0.20959 -6.89608e-19)
(4.06819 0.0400559 -1.37702e-21)
(4.37902 -0.426262 -2.67607e-19)
(4.6527 -1.60163 0)
(2.55117 -1.23261 -1.31068e-18)
(3.9 0.151347 0)
(4.34764 0.0360906 0)
(3.56492 0.0421069 0)
(2.67034 1.78769 -1.16421e-18)
(3.54005 -0.0339874 0)
(-1.81221 -3.13279 -1.68091e-18)
(3.31634 -1.70922 5.76924e-19)
(5.12825 0.00448632 2.88632e-19)
(2.47849 -1.22027 -5.04747e-19)
(5.11309 1.30288 -2.16434e-19)
(2.37325 -1.30325 9.6681e-20)
(4.38879 0.194255 -7.16936e-21)
(2.9227 -1.40712 -1.3688e-18)
(3.66662 -1.59392 2.38366e-19)
(4.06965 0.558284 -7.97432e-20)
(3.58441 -0.0476125 -1.34653e-19)
(2.68543 -0.956544 -1.27538e-20)
(3.68193 -0.0414495 1.75249e-18)
(3.53597 0.0230326 0)
(4.8714 0.300368 0)
(4.65962 -0.225263 9.60232e-19)
(4.16594 -1.68136 6.88062e-19)
(3.24002 0.0224338 2.1211e-18)
(3.859 0.119788 3.29178e-21)
(4.8359 0.334011 -1.41546e-19)
(3.61446 -0.774409 9.16956e-20)
(4.46839 -0.589219 0)
(3.77975 2.01098 1.58188e-18)
(3.09183 -0.658512 0)
(6.3568 1.10645 0)
(-2.98841 3.48399 -8.33277e-18)
(5.25197 -0.0470897 0)
(3.8548 -1.14171 1.02191e-18)
(5.05531 0.0312856 0)
(5.49452 -0.268039 -2.92008e-20)
(2.58291 -1.20847 8.24997e-19)
(5.10525 0.576207 -2.98615e-20)
(2.27158 -1.58405 7.67795e-20)
(3.61983 -0.494803 1.10633e-20)
(1.85973 0.293822 1.00916e-19)
(3.94655 -0.585026 -7.60588e-19)
(2.74442 -0.673337 2.18995e-19)
(5.50615 -0.448908 1.95538e-18)
(1.99632 -0.965672 9.08936e-19)
(2.05337 -1.31381 0)
(2.3668 -1.14824 9.7959e-20)
(4.21217 -0.288798 4.46306e-19)
(4.39774 0.0406398 -2.34232e-20)
(2.1979 -1.05802 2.60703e-18)
(4.76891 -0.284534 0)
(5.53355 -0.914007 0)
(4.03612 0.157306 2.2014e-18)
(4.18397 0.0667277 0)
(2.14214 -1.06754 8.92254e-19)
(3.42623 0.25568 -4.56624e-20)
(3.61456 0.17831 0)
(4.80323 -0.0665618 -1.55805e-19)
(4.58278 -1.17151 1.55659e-18)
(1.18074 -1.16334 7.46942e-18)
(4.04837 0.993444 0)
(0.667845 -1.44756 -7.61927e-20)
(2.02924 0.0415035 3.28839e-19)
(2.44158 -1.20237 1.30411e-18)
(3.43762 0.0944 0)
(3.46465 -0.426973 1.04694e-19)
(1.34041 -3.09591 1.28682e-19)
(4.95888 -0.600287 3.85489e-19)
(3.57638 -0.788836 -1.162e-19)
(0.429699 -0.494071 2.63591e-20)
(5.46338 -0.876444 1.05902e-18)
(3.59166 0.467191 0)
(3.4517 0.252614 -1.58931e-21)
(4.75453 -0.818913 -9.62781e-19)
(1.41288 -2.89424 -1.62597e-19)
(4.27538 -1.46166 -8.22534e-19)
(-2.04951 0.455858 0)
(3.66618 -0.484277 -2.40521e-19)
(2.32275 -1.27765 -1.26336e-19)
(4.04947 -0.00761108 -1.00527e-18)
(3.15942 -0.879968 0)
(3.07664 2.01128 7.96062e-19)
(3.90892 0.141737 -5.69627e-19)
(4.49118 -0.622627 0)
(5.19026 -0.115311 2.09766e-19)
(2.5532 -1.22298 1.10191e-18)
(4.55162 -1.08621 -8.71136e-19)
(3.48167 -0.380238 0)
(3.0114 -1.1682 0)
(3.39117 0.0542885 -7.3175e-20)
(5.77248 0.922608 -2.71502e-19)
(3.03193 -1.18842 2.46198e-19)
(4.15397 -0.408759 -8.61195e-19)
(3.83617 0.196945 1.24488e-18)
(5.62485 -2.47991 -1.41456e-18)
(-1.65609 -3.4701 6.04922e-18)
(-5.37904 3.55175 1.09422e-17)
(5.54424 -0.27816 1.72929e-18)
(3.85625 -0.0501931 1.72882e-19)
(5.50564 -0.301104 1.78841e-20)
(3.98248 0.000112828 0)
(2.12623 -1.27209 0)
(3.74043 0.423646 -7.29051e-21)
(2.80716 -1.35711 1.01745e-18)
(3.98052 0.0582194 -2.02997e-19)
(4.19182 -0.281453 4.16143e-19)
(4.28539 -0.357205 0)
(4.66924 -0.0465488 -6.68506e-19)
(5.17507 -0.042872 -1.52281e-19)
(3.82602 0.155379 -1.14446e-18)
(4.90335 -1.17909 3.03619e-19)
(3.83531 -0.698128 -1.52095e-19)
(2.67283 -0.952998 6.09441e-21)
(5.73185 0.966004 2.37133e-19)
(4.91685 -0.607279 4.61788e-19)
(3.88447 0.161684 1.33988e-23)
(3.11629 -1.4517 0)
(0.377515 -0.224251 0)
(4.60627 -0.112689 3.30389e-19)
(2.11831 0.0514852 2.97843e-19)
(3.8719 0.174552 0)
(4.56358 3.08666 -6.64567e-18)
(1.32271 -0.625318 0)
(4.85688 2.04494 -1.42037e-19)
(5.01688 -0.730829 -4.58012e-19)
(5.58904 -5.58074 0)
(3.82976 0.811871 -5.70878e-19)
(3.74048 0.433502 1.25782e-20)
(3.70143 0.428915 -7.24102e-20)
(3.70817 -0.0393971 -1.92247e-18)
(3.74369 -0.508767 0)
(3.90607 0.204248 -1.94406e-20)
(3.66696 0.347713 1.3568e-21)
(3.95535 0.11092 2.65062e-19)
(3.17844 0.322692 -1.1217e-18)
(1.50102 1.4854 1.17059e-18)
(5.11547 -0.597856 4.33081e-19)
(4.36835 -0.802302 -2.43637e-18)
(4.17961 -0.405113 0)
(5.21557 0.180761 1.65054e-20)
(4.43694 -0.818712 -4.38312e-19)
(3.99635 0.0644031 2.70341e-18)
(4.15137 -1.24796 0)
(5.14902 -0.640964 -8.98312e-20)
(2.8928 0.883876 0)
(4.93423 -0.9612 -7.43816e-19)
(3.69647 -1.06722 -7.60775e-19)
(1.5462 -0.716437 1.06805e-18)
(4.68704 -0.999796 -6.65799e-19)
(4.07648 0.381095 0)
(3.43567 0.30114 -5.6608e-20)
(3.65722 -0.514789 2.58265e-19)
(3.24987 0.308954 1.05766e-18)
(4.4705 -0.835777 1.73448e-18)
(4.735 -0.454076 7.67016e-19)
(-2.06108 -0.881095 -1.44021e-18)
(4.02189 0.033401 1.12986e-21)
(4.40303 -0.449509 0)
(2.025 -0.659576 2.62726e-18)
(6.37727 1.07368 0)
(3.70013 0.425262 -1.76772e-21)
(4.42252 -0.248721 1.39496e-18)
(5.2633 0.0734569 -1.16546e-19)
(5.20337 -0.103983 1.44543e-19)
(-5.4165 2.49936 -5.73455e-18)
(3.85371 0.145295 1.43272e-18)
(3.95925 0.0115284 0)
(-2.10699 -2.05657 -2.61968e-18)
(4.34256 -0.585784 -5.05321e-19)
(2.25289 0.225265 -1.05411e-19)
(4.19145 -1.54142 6.46164e-19)
(5.1381 -0.00944565 0)
(5.33809 -0.573959 2.31505e-19)
(3.54114 0.349518 2.21512e-18)
(3.89722 0.17266 1.73069e-18)
(4.37497 -0.669245 0)
(4.03312 -0.00390078 1.00207e-21)
(4.28218 -0.340445 -4.19192e-19)
(2.07047 3.49187 1.16592e-18)
(3.11835 -0.011569 2.95183e-19)
(4.3326 -0.518046 4.78786e-19)
(4.15169 -0.0360757 -8.3382e-21)
(4.38913 -0.424324 0)
(5.54721 -0.254767 -3.30415e-20)
(0.199686 -1.49348 1.15851e-19)
(4.85046 0.670342 2.33288e-19)
(3.98366 0.0631293 1.05889e-18)
(3.05892 0.0129363 0)
(3.62439 0.385487 -2.797e-20)
(6.62281 -5.15783 0)
(7.00158 1.91779 -1.37899e-18)
(4.03653 -0.0398701 0)
(4.1002 -1.40964 -2.39363e-20)
(2.64875 -0.168362 -6.32037e-19)
(3.12078 1.79693 1.92193e-18)
(1.55083 4.07008 -4.9951e-18)
(3.5512 -0.385297 0)
(4.57387 0.144421 -3.74042e-20)
(4.07412 0.418651 -5.52842e-19)
(1.23031 -0.857162 -2.42443e-18)
(2.47344 -1.24289 1.17429e-20)
(3.29056 -0.0346203 -3.20099e-18)
(4.61539 -0.572548 4.45797e-19)
(4.17761 0.400694 3.52192e-19)
(2.85981 -0.877073 0)
(2.76688 0.71844 1.19744e-18)
(3.94416 0.136411 9.48244e-21)
(1.50601 -0.714285 1.44071e-19)
(0.314343 -1.4068 -3.59278e-19)
(0.563234 -0.155477 -4.76193e-18)
(5.55962 -0.267018 0)
(1.07214 -0.8831 0)
(4.17445 2.34447 0)
(4.09351 -0.173354 0)
(1.18959 -0.465705 -9.81833e-20)
(4.90903 -0.90411 0)
(4.32109 -2.02576 0)
(3.38427 0.239383 4.33153e-19)
(5.6914 -0.400578 -2.27332e-18)
(4.33501 -0.384028 -1.15986e-18)
(3.41385 0.664629 3.57318e-18)
(4.03471 0.0563725 -2.83187e-19)
(4.97709 3.34699 0)
(4.78858 -0.532152 0)
(3.81326 0.153563 1.22614e-18)
(3.99287 0.0523122 2.13121e-19)
(2.61877 1.96605 0)
(-1.41704 0.395947 1.03246e-18)
(4.24604 -1.4821 9.30629e-19)
(-1.63978 -0.392374 0)
(4.74571 -0.280255 7.48902e-19)
(3.92978 0.100623 -1.41998e-18)
(1.83798 -0.505532 -1.54717e-19)
(2.00762 -0.633037 0)
(4.01792 0.389713 1.06611e-18)
(5.11738 0.288333 0)
(4.34255 -0.387581 0)
(4.40822 0.37322 -3.28909e-20)
(3.87638 0.20311 6.51511e-19)
(-5.98494 2.90985 -8.09632e-18)
(4.66621 1.27532 1.97992e-21)
(2.64625 -0.615332 -1.13423e-18)
(4.09014 -0.150022 1.48527e-19)
(4.19432 0.403103 2.71468e-19)
(5.64266 -0.272637 1.3015e-20)
(4.41691 -1.46078 0)
(4.80149 -1.0862 8.64686e-19)
(2.66853 -0.0513602 0)
(3.68943 0.404193 -2.18438e-21)
(4.54638 -0.486029 0)
(2.86247 0.202985 1.62513e-18)
(-1.38441 5.32972 -7.5681e-18)
(4.57707 -0.542092 0)
(-0.260935 0.866283 1.85848e-19)
(4.7827 -0.575379 -1.04765e-18)
(3.19383 1.3187 -2.13166e-19)
(3.46828 -0.499693 3.08025e-18)
(2.84988 1.78508 -1.24943e-18)
(2.63128 -0.610367 -3.21027e-18)
(7.2645 1.85592 0)
(3.87545 0.137326 -5.49617e-21)
(-2.16001 -1.3462 -3.86782e-18)
(4.04314 0.431283 0)
(3.6962 0.489003 7.84001e-20)
(5.10633 -0.0855598 -1.67681e-19)
(5.69594 2.15955 0)
(4.00077 0.0249612 0)
(0.612893 -0.488795 0)
(1.71511 -2.61691 4.99735e-19)
(5.46908 -2.74314 1.73841e-18)
(6.97867 -1.98342 2.62021e-19)
(4.76641 1.9909 0)
(3.37544 -0.293493 2.09437e-18)
(4.01218 0.0224597 -2.04513e-21)
(4.64373 1.16468 5.644e-20)
(2.38251 -1.15466 2.27796e-19)
(3.85857 0.309915 0)
(4.02677 0.0442823 0)
(1.47305 -0.160743 -1.77077e-18)
(2.806 -0.846903 -7.89563e-19)
(3.82656 -0.327858 0)
(2.95871 -1.43207 -1.01623e-18)
(4.13609 0.007386 4.5366e-21)
(4.02895 0.033871 -1.52037e-21)
(1.71178 -0.786275 0)
(3.69635 -0.0340287 1.62944e-19)
(3.90424 0.122507 -4.079e-21)
(5.1061 0.242943 5.87194e-19)
(3.66402 -1.10381 0)
(-5.35342 4.00072 -1.73435e-17)
(5.20143 -0.011208 1.65889e-19)
(4.02159 0.192347 2.31397e-19)
(3.96633 0.0345994 -3.13167e-21)
(5.29709 1.33119 0)
(3.35579 0.669001 -9.52752e-19)
(6.23436 0.556296 -1.05932e-18)
(-0.237731 0.954635 1.056e-18)
(3.98904 0.124941 0)
(2.39435 -1.25477 -1.18814e-20)
(0.945352 -0.10186 0)
(4.03441 0.091334 -8.85351e-19)
(3.96817 0.150669 4.15805e-19)
(3.68038 0.131285 -2.41339e-19)
(1.44715 -2.74081 0)
(4.70037 0.0526814 -7.67863e-20)
(2.19699 1.04204 3.30711e-18)
(4.35912 -1.45129 0)
(3.27478 0.223966 1.38264e-18)
(4.84123 -1.1959 -3.43186e-19)
(4.36764 0.0132055 0)
(2.29638 -1.32401 6.49024e-20)
(3.28111 -0.463467 -2.07391e-19)
(4.13235 -0.00930996 0)
(-4.17678 4.47275 1.01294e-17)
(3.67328 0.474966 0)
(3.4595 -1.5817 1.01055e-18)
(0.66258 -1.60838 2.12893e-19)
(4.06836 0.0372092 1.58017e-21)
(4.88167 0.277942 -3.2166e-19)
(2.73992 0.706986 6.38361e-19)
(3.48103 -0.566127 -1.14396e-18)
(3.54081 -0.340406 -1.09064e-19)
(3.49458 -1.57314 9.60855e-21)
(4.28877 -0.516774 4.64493e-19)
(5.28853 1.34191 8.72503e-19)
(3.8308 -1.72966 0)
(4.00805 0.0723071 -9.38997e-19)
(-2.37709 -0.385008 -2.35906e-18)
(2.71752 -0.0559624 0)
(3.9663 0.167803 7.80578e-21)
(3.70392 0.0371434 0)
(2.41471 -0.647666 2.77724e-18)
(4.03354 -1.54106 0)
(3.95477 -0.0371418 2.01227e-20)
(4.45277 -0.245256 -7.88423e-19)
(2.32844 -1.39183 1.27824e-19)
(1.05199 -0.664168 1.93683e-19)
(4.96856 -0.0588735 -6.54336e-21)
(3.01964 -1.45043 9.22517e-19)
(3.49214 -1.00663 1.09182e-18)
(2.92454 -0.621867 0)
(-3.61287 1.35758 -1.84675e-18)
(4.46981 -1.35015 -1.9764e-19)
(-3.86223 1.30736 -2.34693e-18)
(4.02137 0.0342707 1.06863e-21)
(2.85572 -1.11939 0)
(4.39747 0.0196054 -3.55516e-21)
(-1.6592 0.251474 0)
(1.75624 -1.25035 1.2773e-20)
(2.16447 -0.581711 2.04517e-19)
(-0.180614 -0.153373 0)
(4.00748 -1.08732 3.27436e-19)
(3.23825 -1.78161 0)
(5.73024 1.89709 0)
(3.17858 -1.50522 -1.33479e-18)
(2.96315 0.792671 9.62706e-19)
(3.10114 -0.744804 0)
(3.51216 0.386332 -6.03574e-19)
(7.5832 -1.81324 4.90649e-18)
(-0.16138 -1.68529 7.79592e-19)
(5.70824 2.75762 0)
(4.28133 -0.0400923 0)
(-2.41658 -1.40582 -2.10137e-18)
(3.70952 -0.18229 0)
(4.85777 0.134351 0)
(0.0893853 -4.87913 -2.74612e-19)
(4.02466 -0.79353 -1.55707e-18)
(3.41473 -0.822018 9.49107e-19)
(5.34638 -1.0196 1.48048e-19)
(-3.46793 0.890968 3.60245e-18)
(3.97102 0.129823 4.76315e-19)
(2.99077 -0.695193 0)
(4.39134 0.912777 -1.17151e-19)
(2.80483 -0.342312 0)
(4.66358 0.0606968 0)
(3.98809 0.233063 0)
(4.37367 0.343557 -2.67946e-20)
(3.63871 -0.0362928 8.94655e-19)
(4.17872 0.0592854 -1.96484e-20)
(3.07575 -0.709949 0)
(-5.2964 2.31136 -4.91782e-18)
(4.19822 2.26631 1.03655e-19)
(3.65045 -1.35137 1.06713e-19)
(3.89196 -0.0910289 -2.77891e-19)
(4.48501 -1.06268 1.39111e-18)
(4.08537 0.0859851 -8.11777e-19)
(-0.963965 5.30209 0)
(5.18021 -0.0636487 0)
(2.95518 1.79275 0)
(2.47731 -1.10115 -2.02835e-18)
(2.7246 -1.51843 -2.1643e-19)
(-0.0192224 -0.349744 0)
(4.42986 0.919436 0)
(5.31216 -0.356035 1.52035e-19)
(3.94809 -0.00554412 -2.3511e-19)
(3.87189 1.24474 8.97714e-19)
(3.63385 -1.58116 0)
(-4.77281 0.549134 -2.07152e-18)
(4.64189 0.127582 -6.0577e-20)
(2.74421 -0.76335 -1.90016e-18)
(4.45621 0.102896 -1.10684e-19)
(4.62399 1.17344 8.41132e-20)
(4.07722 -2.38793 6.02235e-19)
(2.44187 -1.10437 3.51988e-18)
(3.54074 -1.12572 4.09726e-19)
(4.17109 0.103749 7.15963e-21)
(4.00746 0.0115775 -2.39095e-19)
(2.72373 -1.27446 -3.20789e-19)
(3.27467 -0.423404 9.25366e-20)
(3.34677 4.35218 1.86208e-19)
(2.95865 -1.42383 5.14887e-19)
(5.13505 0.269309 0)
(2.25358 0.614623 2.71793e-19)
(4.32393 -0.0520515 -6.47685e-19)
(5.96692 1.28466 6.00903e-19)
(2.69394 -0.683733 -1.72795e-18)
(3.61862 -1.29478 -1.15405e-18)
(4.09631 -0.016977 2.2422e-18)
(4.93917 -0.113305 -1.26851e-18)
(3.57078 -0.837279 1.4132e-19)
(5.58616 -0.221196 -8.8549e-19)
(2.26907 -0.259271 -3.76255e-18)
(4.33336 0.0153928 -4.89825e-19)
(2.22365 -0.360356 0)
(2.29645 -1.50843 -3.18166e-19)
(4.00308 0.0399308 2.09111e-18)
(3.65485 -0.0228358 -3.64931e-21)
(-1.44727 -1.19336 0)
(3.37751 -1.57492 0)
(4.0947 0.899039 7.58207e-19)
(1.99568 -0.221375 2.3292e-18)
(3.12399 -2.26141 -6.6415e-19)
(4.14622 -1.4153 -5.79912e-19)
(4.39873 -0.832689 1.32511e-18)
(6.48838 0.953409 0)
(4.13299 0.975077 3.92901e-19)
(2.72276 -0.898744 -1.30969e-20)
(5.14249 2.13193 6.68952e-19)
(3.91107 -0.537985 -1.35128e-18)
(-3.26963 1.0424 -5.5166e-18)
(4.44966 -1.00163 -1.35085e-18)
(4.78708 -1.15594 4.71186e-19)
(4.67937 2.46512 0)
(3.92559 -0.504195 -1.84098e-19)
(3.73282 0.102345 2.22811e-19)
(4.01496 0.0254096 3.23828e-21)
(1.8518 -0.893977 3.19693e-18)
(3.84553 -0.528674 2.01351e-18)
(4.01155 0.536033 -2.75612e-20)
(-0.10486 -1.5137 -3.92485e-19)
(4.33123 -0.243276 -4.81615e-19)
(4.32463 -0.0285391 4.35434e-19)
(-2.61806 -2.84543 -8.08787e-19)
(4.96392 2.01242 -6.9916e-19)
(-4.63818 4.7481 -1.09106e-17)
(2.26077 -1.09926 -1.08534e-18)
(4.01401 0.00693183 0)
(4.13354 0.2191 -3.65857e-20)
(-0.226974 -3.90794 -8.79408e-19)
(2.63216 -0.230178 3.42869e-18)
(4.11146 0.0574199 0)
(3.95684 -0.745041 1.02134e-19)
(2.35017 -0.949465 7.90562e-19)
(3.96426 0.111442 -2.04248e-18)
(-1.03093 -0.559146 -6.87707e-19)
(3.05262 -0.731061 -6.57126e-20)
(4.35695 -0.417168 7.85159e-19)
(4.54424 0.142061 3.38693e-20)
(3.50568 -1.6028 -1.4107e-18)
(4.22386 0.0954254 2.55821e-20)
(2.73482 -1.65189 -5.73496e-19)
(4.22422 -0.0061293 6.07636e-19)
(4.05137 -0.122719 -6.41765e-19)
(4.27186 0.203474 -2.21e-20)
(4.40246 -0.088645 -1.40669e-18)
(2.26475 -0.978423 -1.5295e-18)
(4.13951 0.127515 0)
(1.79687 -1.98392 2.62665e-19)
(4.20483 0.108499 1.56009e-19)
(1.5406 -0.240734 -2.27763e-19)
(4.77961 0.0538653 -2.39386e-19)
(4.29205 -0.864736 -8.1026e-19)
(3.99242 0.06266 -1.53866e-18)
(4.21787 0.653522 2.0962e-19)
(-1.27649 0.0390814 -1.06504e-18)
(4.85724 0.125307 0)
(3.57618 0.348499 1.51079e-20)
(5.27856 0.128148 1.19116e-19)
(2.87118 -1.0876 0)
(4.28372 0.17789 3.2847e-19)
(5.20515 0.246132 1.21673e-19)
(4.73944 0.141952 2.0639e-23)
(4.82658 -1.66613 -1.00908e-19)
(3.62314 -0.0569951 0)
(3.58394 0.727752 1.68813e-18)
(4.09176 0.434676 4.19117e-20)
(2.92171 -1.41325 1.12937e-18)
(3.96765 -0.352369 0)
(2.96437 0.720715 -2.78813e-18)
(2.89826 -0.840511 2.78653e-20)
(5.20682 3.00108 -1.4646e-18)
(2.28562 -0.297036 3.63049e-18)
(4.17009 0.0111343 2.62937e-20)
(0.861633 -0.664979 1.72129e-19)
(3.82545 -0.149208 -1.40185e-18)
(4.90103 -0.992309 -1.27425e-18)
(3.50581 0.354135 -1.28584e-18)
(4.09766 -0.0385065 0)
(3.99696 0.07211 -9.07566e-19)
(-0.0674219 -0.280172 4.56348e-19)
(-2.2406 -1.43667 0)
(4.4419 -1.68883 0)
(4.00848 0.0157428 0)
(-1.13814 2.04973 0)
(4.12124 0.647615 0)
(2.14268 -0.224721 0)
(3.69973 -0.789282 -1.0399e-20)
(6.59876 -1.97437 -2.12097e-18)
(5.17249 0.628279 0)
(3.50843 0.679739 2.57519e-18)
(3.24891 -0.890073 -2.6729e-19)
(4.20118 0.44096 2.62315e-20)
(-0.177957 -4.3058 -7.37361e-19)
(2.17361 0.255588 -1.21344e-20)
(-1.11506 -0.0853108 6.84512e-19)
(4.21541 -0.000283978 -5.12213e-19)
(5.15169 -0.10776 1.09756e-19)
(4.05835 0.631405 -5.26573e-19)
(3.72944 0.451244 -1.68187e-18)
(4.04963 2.13554 -4.54405e-19)
(7.08013 1.92392 0)
(2.49271 -1.26553 4.07586e-20)
(2.45905 -0.684516 -3.05281e-18)
(4.04182 0.0236186 -2.77145e-18)
(4.49463 -1.3808 -1.11463e-18)
(4.14626 -0.0132263 2.22522e-19)
(5.20522 -1.41534 1.01463e-19)
(4.18124 -0.658324 -1.76252e-19)
(4.04165 -1.07382 -1.12894e-18)
(4.07615 0.390408 5.78233e-19)
(4.6864 3.04192 0)
(3.53959 -0.276381 -1.00732e-19)
(3.40283 0.204599 -3.93917e-19)
(4.94931 -0.851736 0)
(3.47954 0.0404009 0)
(3.63768 -1.6669 -1.25574e-20)
(1.08144 -0.831196 1.73593e-19)
(3.67989 -0.808615 -4.57729e-19)
(3.70759 0.102343 0)
(3.77715 -0.0525864 -1.83328e-18)
(3.6449 0.478945 -3.29045e-19)
(1.98003 -1.69196 1.36124e-19)
(4.99706 0.286799 9.05976e-20)
(-0.699666 -0.245591 0)
(2.40713 -1.24307 4.89474e-20)
(5.12954 0.251347 0)
(3.85485 -0.514487 1.95913e-19)
(5.20236 -0.570967 -2.03655e-19)
(4.02426 0.0451164 -4.85952e-22)
(4.81337 1.31756 4.06177e-19)
(5.64856 2.51631 -1.52304e-19)
(3.41393 -0.947246 2.27552e-18)
(2.4415 -1.14296 0)
(3.20013 -1.53035 -5.029e-19)
(3.06774 -0.960637 0)
(5.28353 0.590516 -2.67341e-19)
(1.93755 -1.62977 2.32933e-19)
(4.33799 -1.68203 8.64515e-19)
(3.53789 0.307079 -2.33442e-20)
(1.22717 -3.51329 -1.12108e-18)
(2.59397 -1.27172 -1.30875e-18)
(2.54231 -0.697844 -1.74925e-18)
(3.90542 0.159663 -2.75804e-21)
(3.26484 -1.49502 4.14347e-19)
(2.32083 -1.00607 1.26116e-18)
(2.65261 -0.767528 1.9436e-18)
(2.70591 -1.45913 2.47617e-19)
(3.44783 -1.66686 -2.85632e-19)
(3.59681 -1.13773 1.14543e-18)
(0.384611 4.75778 4.99011e-18)
(4.22993 0.0224595 1.87973e-20)
(2.78849 -0.849418 2.36663e-19)
(4.69832 0.766044 -1.44651e-20)
(4.39713 -1.13568 0)
(-0.825666 1.45627 -9.74652e-18)
(4.17632 -0.0115042 -8.11897e-19)
(3.97306 0.249953 0)
(5.21682 0.539253 0)
(3.03827 -1.26923 -2.99788e-19)
(5.22914 -1.3855 -1.41307e-18)
(4.82321 0.367799 4.76604e-19)
(4.00891 -0.777913 2.03667e-18)
(4.02698 2.01148 4.49978e-19)
(3.2797 -0.00493073 1.43928e-18)
(1.81006 -1.76537 -2.2181e-20)
(3.5895 1.34693 0)
(2.70709 -0.839203 1.87697e-18)
(1.20655 -0.280208 2.82759e-18)
(1.3043 -3.35374 8.14292e-19)
(3.39731 -1.28469 3.7609e-19)
(3.27342 -1.49881 -2.79808e-19)
(4.10355 0.0111222 7.21674e-19)
(3.49092 0.137783 2.56855e-20)
(4.31514 -0.626904 9.01637e-19)
(1.69803 -1.81011 -1.68173e-19)
(4.74346 0.364165 -3.39554e-19)
(3.85441 0.134119 7.16165e-19)
(2.22295 -0.359805 -1.49964e-18)
(3.69842 -0.128029 1.14649e-18)
(3.71912 -0.873151 0)
(4.86053 0.684938 -3.7014e-19)
(3.92541 0.109191 1.59703e-19)
(2.90109 -0.553945 -5.92442e-19)
(3.84202 3.82598 3.95362e-19)
(3.54364 -1.10664 8.47351e-19)
(4.10276 0.03144 3.10727e-19)
(2.75922 0.357116 -2.21436e-18)
(4.94051 -0.871055 0)
(3.59465 0.278827 -3.97808e-20)
(4.47543 0.154922 1.51454e-19)
(3.81488 -0.142089 0)
(2.80094 0.120871 1.26823e-18)
(5.00084 0.306049 0)
(3.72742 3.79213 -2.58478e-19)
(4.80502 -0.0559201 0)
(3.53001 -0.322186 0)
(5.0366 -0.0251033 1.56332e-19)
(4.78973 0.293208 -1.87216e-19)
(5.8165 0.0985976 -1.65798e-18)
(3.84192 0.300459 -7.62726e-19)
(3.2262 2.60183 -4.42228e-19)
(4.01719 0.207529 -2.78924e-19)
(4.1952 0.66563 0)
(6.87025 0.612232 -9.56219e-19)
(4.96554 0.246592 4.27058e-19)
(3.84045 -0.494515 -4.04683e-19)
(4.39533 -1.12918 0)
(6.04304 1.2502 9.0687e-19)
(4.55139 3.45406 1.01452e-19)
(4.22689 0.0257569 8.10359e-20)
(3.09823 -3.64656 0)
(0.597753 -4.84053 4.06018e-18)
(4.08515 0.341736 0)
(4.40201 -0.544238 -4.54981e-19)
(1.23791 -1.23233 0)
(7.89366 0.0752723 0)
(3.5064 -1.19199 0)
(3.95455 -1.53176 0)
(-2.92479 -1.55216 -1.32645e-18)
(1.81993 -2.4497 -1.01154e-19)
(3.65216 -0.0153309 -1.34773e-18)
(2.29619 -1.41129 -1.53008e-19)
(2.48022 -1.05957 0)
(2.3604 -1.61172 -1.42923e-19)
(0.43631 -1.23706 -7.42027e-18)
(3.09123 -1.44309 0)
(2.87244 -1.00921 -1.99245e-18)
(3.91062 0.227327 4.54475e-21)
(4.64701 0.744866 -1.14915e-20)
(4.69363 -1.65065 2.93659e-19)
(3.67822 0.400717 0)
(4.2753 -1.41329 0)
(6.78084 0.0608598 9.26567e-19)
(3.26599 -0.326809 2.26897e-20)
(3.86831 0.136756 9.22381e-22)
(3.04266 -1.26426 -2.49059e-21)
(4.00021 0.0156321 6.69226e-20)
(4.14194 0.207137 2.91579e-21)
(4.06496 0.379783 8.32873e-19)
(3.66061 0.371751 1.03139e-20)
(3.69133 -1.0237 0)
(-5.86701 2.48202 0)
(4.18042 0.0990083 0)
(3.86844 -0.0128674 0)
(3.40879 -0.599587 8.41751e-19)
(5.28401 -0.216046 0)
(-1.41602 -3.66893 1.20233e-17)
(3.86786 -2.36955 -8.37125e-20)
(2.59499 -0.797735 -2.94055e-18)
(3.05915 -0.968408 1.17296e-19)
(1.91697 -2.02026 -1.42948e-19)
(1.13687 -4.21041 -7.85489e-18)
(3.96578 0.0370698 2.4748e-19)
(1.31404 -2.05426 -2.02868e-19)
(3.69884 0.364368 9.71856e-22)
(5.03828 -0.0019925 0)
(4.61054 -0.805894 0)
(3.00396 -1.08784 0)
(4.28729 -0.888654 4.28523e-19)
(3.38389 -1.7601 0)
(3.7 1.29867 0)
(4.00725 0.0299877 0)
(3.46175 -0.839256 8.79013e-19)
(4.16672 0.404208 -7.1301e-19)
(3.71655 0.0234083 0)
(3.79627 -0.800509 -4.43562e-19)
(3.96146 0.388643 -8.57349e-19)
(5.1725 1.87507 -1.38572e-18)
(3.132 -1.45251 1.19306e-18)
(3.85413 1.42927 -3.09522e-21)
(3.28234 -0.574095 -1.79637e-20)
(3.41389 0.0775483 7.24667e-20)
(3.5546 -0.45992 -2.08034e-19)
(4.72421 0.306968 2.72236e-19)
(3.87724 0.14222 6.37714e-21)
(3.62895 0.195389 -1.2548e-18)
(4.19913 -0.0229718 0)
(2.00258 -0.36156 1.72573e-19)
(3.87354 0.134555 1.27037e-18)
(2.80696 -0.941634 2.31512e-20)
(4.18151 -0.618747 -5.13317e-19)
(2.05656 -0.271592 -2.54729e-18)
(4.77235 0.245181 -4.99594e-20)
(6.29215 0.567503 1.51759e-18)
(4.00102 0.169619 0)
(3.6708 0.0516547 9.51039e-19)
(3.62245 0.120325 -2.2249e-20)
(3.56024 -0.484532 4.01808e-19)
(2.33812 -1.17573 -2.62844e-19)
(3.98872 0.0668329 6.82688e-19)
(4.16218 0.135133 -8.81697e-21)
(4.06797 0.0246307 -1.83396e-20)
(4.13517 0.0867982 0)
(2.96149 -0.727789 0)
(2.87968 -1.37609 1.4461e-18)
(-0.771457 -0.382743 7.41742e-19)
(4.05641 -0.0157257 5.16512e-22)
(3.90013 0.148535 2.57012e-18)
(3.90608 -0.963399 -2.71178e-18)
(2.90496 0.669035 0)
(3.58996 0.248107 0)
(3.14343 -0.673086 -1.12521e-20)
(4.9595 0.0294234 2.49774e-19)
(3.96121 1.35398 1.15175e-18)
(4.9743 -0.371371 0)
(4.27077 0.0392046 0)
(4.08 -1.20512 1.56623e-18)
(3.91718 -0.314853 1.07895e-18)
(0.213423 -0.0590881 -5.60731e-20)
(3.76231 -0.0446043 0)
(8.19921 0.308082 1.49407e-18)
(4.02538 -1.02983 -1.75914e-19)
(-0.0629354 -3.63721 -1.17624e-18)
(3.95262 -0.015557 -1.45778e-18)
(6.63366 -1.50901 0)
(5.34468 -1.39344 1.1208e-18)
(3.39982 -3.29731 -1.25672e-18)
(0.0480581 0.0416213 0)
(3.86243 0.0308034 5.2601e-21)
(3.82334 0.253728 -8.32725e-19)
(4.02933 0.0102337 1.85706e-23)
(5.28049 -0.646201 1.26197e-19)
(3.27427 3.00019 2.0331e-18)
(4.12704 0.0517856 0)
(2.05705 -0.704256 -1.6625e-20)
(4.01917 -1.38123 2.29756e-18)
(5.56161 -5.25681 -5.19773e-18)
(4.10033 0.603304 6.26674e-19)
(2.4599 -1.11435 4.59964e-20)
(4.00821 0.0192639 -3.18161e-18)
(3.99496 0.574434 1.69624e-20)
(3.41342 0.204496 5.02001e-20)
(3.39088 -0.756826 0)
(3.64471 0.0284345 -1.44816e-19)
(2.25426 -1.03113 1.00374e-18)
(4.41473 -0.238509 -1.52516e-18)
(3.93215 0.0974768 -1.15584e-18)
(4.35435 -0.498524 4.19815e-19)
(3.28948 -0.282148 3.08399e-18)
(4.20525 0.0231504 -1.99662e-20)
(3.53425 0.265737 7.34143e-19)
(3.96612 0.163296 1.6178e-20)
(5.39256 -1.05491 -1.72168e-18)
(5.03252 2.11777 -9.59288e-19)
(3.17107 -2.38824 5.14542e-19)
(3.98663 -0.033759 0)
(2.34376 -1.16174 0)
(2.06188 -0.592188 0)
(2.59396 -0.720015 2.25316e-18)
(4.10003 0.0971422 -1.865e-18)
(3.62869 0.500601 0)
(2.97777 -0.603733 -1.76517e-18)
(3.58697 0.403792 0)
(3.43043 -0.533021 -1.37726e-18)
(3.73535 -0.532359 -4.23303e-19)
(3.64605 -0.963284 -1.25175e-18)
(4.21513 0.040244 0)
(3.86732 0.140403 0)
(3.84562 -0.138817 2.38243e-19)
(5.08077 0.492131 2.9875e-20)
(5.07094 -0.211605 7.52814e-19)
(4.95739 3.64832 -1.27289e-20)
(5.05726 -0.508557 0)
(3.41372 -1.24033 -6.39802e-19)
(-1.45453 -0.91286 0)
(1.83042 2.05658 -1.12046e-18)
(5.68349 2.45945 0)
(4.19072 0.117437 1.83514e-20)
(2.28583 -0.221293 9.85185e-19)
(2.965 -0.169239 9.81087e-19)
(3.75587 -0.0426239 -2.44857e-19)
(3.69811 -2.19328 -1.96144e-18)
(3.86775 -0.353985 2.7363e-18)
(4.15265 0.626591 -2.25912e-20)
(4.8652 -1.33118 -1.15246e-19)
(3.88334 -0.873659 -6.2039e-19)
(-0.671371 0.558673 3.23673e-18)