/*--------------------------------*- C++ -*----------------------------------*\
| =========                 |                                                 |
| \\      /  F ield         | OpenFOAM: The Open Source CFD Toolbox           |
|  \\    /   O peration     | Version:  2306                                  |
|   \\  /    A nd           | Website:  www.openfoam.com                      |
|    \\/     M anipulation  |                                                 |
\*---------------------------------------------------------------------------*/
FoamFile
{
    version     2.0;
    format      ascii;
    arch        "LSB;label=32;scalar=64";
    class       volScalarField;
    location    "10";
    object      p;
}
// * * * * * * * * * * * * * * * * * * * * * * * * * * * * * * * * * * * * * //

dimensions      [0 2 -2 0 0 0 0];

internalField   nonuniform List<scalar> 
13486
(
9.63581
8.16297
0.559313
-14.5843
3.32541
0.283444
2.14789
5.5865
6.62906
4.60896
-14.6116
1.05246
10.1153
0.68591
2.4923
4.95671
-13.141
-10.8539
1.69228
8.80419
-12.5196
10
8.00106
-11.7946
4.35322
-10.9247
-14.1187
-3.18871
0.640474
-3.73994
-13.3605
0.0601565
-6.03908
-1.63902
5.59912
-1.41661
-6.94093
7.93884
-0.326316
6.61113
1.21891
10.4795
1.04373
4.2516
4.1128
0.992405
-18.7421
0.482738
-6.51312
-2.5607
6.06186
1.36862
0.284443
8.04498
-5.74989
3.60472
2.11221
0.919831
-5.8345
-13.6188
-16.8487
-12.6981
-8.64823
-11.9361
-27.3463
-7.74104
-16.1045
9.77212
6.58016
6.00667
-16.0956
-6.46753
6.65357
-12.4113
-8.5554
2.11428
-8.21968
2.52742
-16.7386
0.737702
-1.15521
8.28264
-9.11498
0.509545
9.67176
5.74112
1.46399
5.79082
6.81415
5.27692
-2.26034
4.88821
9.25304
8.49129
6.87559
-0.38285
-14.0685
-19.3775
6.49002
-13.8335
-1.16016
0.959606
-20.0335
1.0833
6.3839
-14.1496
6.77765
-0.231568
-17.5108
4.47183
6.39791
-0.226263
8.04343
2.3093
11.2983
6.68075
4.40784
-1.36299
6.71995
-8.28963
-10.1719
-16.325
7.17698
-0.169612
6.35859
1.4187
4.57697
2.4712
-0.925513
-20.2496
1.55024
-20.0141
-12.4376
-12.2773
6.29328
5.95418
11.9179
4.64661
-9.16313
5.7197
-4.75002
0.148899
0.465799
0.67563
1.47024
-6.27517
-0.280916
9.00854
-2.83922
0.496677
4.37545
2.60942
-0.883196
8.44237
2.83284
0.560171
3.75045
0.948469
7.23027
-8.89986
-1.64961
7.22364
-10.7865
10.4182
1.22459
-0.300342
1.40021
13.037
-0.400353
-12.2793
-13.0137
2.8801
5.08196
3.1159
-2.62536
-35.5136
0.396566
-5.31933
6.78176
0.663744
6.17129
2.23598
2.15108
-14.1683
0.365451
-3.06234
0.0976249
-2.9137
1.4996
6.99198
-7.44598
1.11389
0.761898
9.1227
0.817074
-14.2683
-22.6703
-1.90527
8.72505
-0.0524852
-14.4578
2.3847
7.9471
2.74905
-10.5298
0.839531
-9.94765
7.21465
0.762096
0.397786
-2.95418
-12.8474
8.6974
6.78083
0.303395
-1.74852
-3.76208
5.34117
8.78789
-5.71981
-13.2892
-2.92084
5.86695
-1.90338
0.209247
9.42031
-0.640167
-26.9629
-0.38185
1.25801
6.09248
-0.999018
-4.97094
10.6939
-19.7312
9.04512
-2.22643
1.07284
9.12851
2.33423
-6.33949
4.98652
1.89077
8.6618
-1.7929
7.64956
2.55727
-7.24676
-12.2563
4.6166
-21.4804
11.4301
6.43646
0.00268844
0.2259
-35.9804
-0.224086
-1.5784
1.59734
-6.44796
7.46932
-2.41764
2.30027
-34.7296
3.7708
-14.2201
-0.451991
-15.712
6.33468
0.743511
7.48936
6.65059
-3.92776
0.669462
9.4339
-6.48376
0.205074
-5.86162
0.327049
-0.10353
-6.00934
5.37145
6.84336
-12.885
-15.9604
-15.0342
-4.2364
-0.999762
0.294451
6.40095
-18.9154
-26.9157
6.89051
6.34398
-2.01135
-2.58166
-1.79885
0.692286
6.9506
1.82014
-12.826
-10.0845
-0.232042
0.480433
-3.65975
2.81736
-1.40789
2.78428
1.33004
-7.42488
-10.9151
-13.941
1.29607
-0.606346
-11.4008
6.08833
-29.831
6.83946
7.26092
-0.924978
-7.61091
-15.0935
6.72863
8.56106
11.7165
-1.82184
4.16248
5.23118
0.494758
3.83968
5.83522
4.63585
-3.62415
9.27103
2.19976
6.51258
11.6433
2.77104
4.66883
-3.03053
-0.634433
8.49653
3.69889
2.26995
-15.3977
0.293166
4.22742
11.2354
-5.83615
-22.4355
3.91631
0.570737
0.669611
-13.9592
6.90381
1.30125
-12.4049
4.42575
1.12114
-11.2738
1.76775
-1.73171
7.52219
6.67215
-3.91032
-0.261337
-2.3948
-22.1744
8.87509
4.48695
0.945027
4.31108
0.339731
-21.5059
0.653207
6.17828
6.76156
-9.90175
-10.8355
-8.63606
6.18545
4.57604
10.1719
7.77348
-21.3725
0.0911933
1.48271
4.56603
-11.2658
-7.28243
8.55646
-4.15079
3.6
9.19766
9.74358
-15.5108
-15.2101
-20.892
-11.4069
-4.60919
-11.2468
3.62935
5.74245
-1.13708
2.11246
1.50655
8.3718
-5.2905
4.55509
7.75282
4.45257
-0.821852
-4.22293
6.97287
6.72416
8.92141
-14.4493
3.86554
-13.7555
2.46589
6.78331
-4.24588
11.2807
4.84742
-1.15023
-2.7396
2.38671
6.84549
-14.218
1.78542
9.90518
5.78
3.54479
0.370787
3.18707
-7.03163
10.1543
-19.8738
3.3711
9.62542
-15.3503
-3.86116
-12.2298
-4.4249
-1.84633
7.73599
8.53535
9.97034
-8.98675
-6.42314
-15.634
4.74973
6.95787
-2.51498
-2.61187
6.63759
-17.93
-37.7936
-13.8205
-6.84467
1.65994
8.18408
-2.76516
1.84704
-12.3921
6.6049
0.533977
12.3506
9.35555
6.65582
5.38939
-1.53842
-0.447124
11.5639
0.567573
-11.3373
-1.08881
6.57008
-15.1865
0.652759
5.17017
3.42673
-0.908346
7.94596
-5.30653
-11.7983
4.81768
-8.24997
12.9966
4.89723
6.12174
7.28228
-34.344
0.55101
10.8052
3.44318
8.58349
1.95439
2.74725
-17.0203
0.748843
1.12875
-15.148
7.08257
6.55121
-22.7382
0.213522
0.0715815
9.80394
7.75063
0.144535
6.66433
4.68973
-0.73014
3.80922
6.19877
-13.421
10.0274
-13.0228
6.23378
10.4126
4.65961
-1.42776
4.00707
-19.8402
-18.8034
2.15528
4.28755
7.2739
9.27019
-13.593
3.14218
-13.5837
-0.074755
9.03595
2.76892
-14.4503
-21.0927
-6.20688
1.90855
5.35747
-27.3762
-2.43951
6.67958
9.16076
1.81502
7.40652
-6.12445
-20.9486
-3.36329
3.44463
-15.0295
7.21295
0.507202
-18.1005
5.61304
7.67601
-6.95871
-13.6647
6.13837
9.04145
3.16553
9.72301
0.526703
5.00601
2.47706
7.35948
1.68478
8.80858
-14.0317
3.47561
6.3371
-0.671721
-6.21837
6.69666
-14.6703
0.714791
8.31525
9.98039
-22.9413
2.78874
2.93222
-0.0494227
5.82421
5.626
2.39573
-13.1445
1.19718
9.57237
2.05368
1.97845
-26.7012
10.048
-4.91406
2.17638
6.55566
5.25896
0.70646
2.3519
5.686
0.361546
1.15941
3.34323
-3.78096
9.74603
6.51325
4.17178
4.35847
1.05832
-4.13473
10.912
2.90132
10.935
-25.2383
6.46612
-1.46263
-12.4653
4.12826
4.59471
11.4433
-37.1216
4.38678
4.01643
-6.44554
4.46472
-11.3923
-0.195975
6.38258
-13.696
-5.78116
-7.68512
1.33724
-1.5442
7.2247
-1.87916
10.6092
6.5429
-15.5705
-20.8002
-2.86362
3.02205
-15.1738
0.812197
-14.7149
8.98364
-0.323356
2.20583
-24.3698
10.1949
0.21022
-12.2841
10.4009
6.13385
-15.7485
1.72607
4.45969
1.61264
6.32728
1.8747
-26.8484
3.30249
5.92395
2.82953
5.17112
10.5539
2.11937
-33.1515
6.68903
-2.28772
-0.00679593
4.43872
5.37699
3.76406
-14.8344
0.512754
-8.24046
0.527335
9.01932
2.90022
0.432473
0.500813
0.812741
0.863235
7.08473
-6.70856
6.21941
6.16892
9.22457
-11.4769
-1.40857
10.853
0.821528
-18.3756
6.88991
-6.4638
7.62139
1.44624
6.55492
-1.13015
-12.3205
-13.3743
-1.3647
-12.3396
4.31132
11.1681
-2.34109
-7.43942
-0.90871
7.24487
2.33309
3.69894
-22.3744
11.1477
-15.0445
3.09691
-2.79056
4.58523
6.87554
4.14037
-7.96272
-9.47421
10.2796
6.73606
2.99401
5.83834
0.909409
5.08958
5.26657
4.50193
-11.543
0.298495
8.28166
1.94868
0.472557
5.57096
-19.3242
-2.23513
1.66373
7.13008
7.30015
-28.4167
0.403949
-15.7372
-10.3534
0.401616
-1.5068
-2.13722
6.53732
1.23171
-2.8117
7.59689
-8.76105
-18.2136
1.95892
-1.44914
-27.1484
-12.5841
-4.87919
-34.8042
6.31185
10.0859
-12.873
-16.7707
10.4277
9.79479
-21.794
-19.6715
6.75428
-19.9053
1.46616
2.46093
1.53822
3.82583
-11.9713
3.68776
5.03396
-1.16202
-9.69052
-7.99365
0.413345
5.64947
4.41807
3.89927
-29.1334
6.45794
9.62563
-13.581
-34.5601
7.30213
2.5349
4.01847
-0.786276
-3.41296
-28.8195
0.572435
6.88771
10.9472
7.20819
1.05547
0.643887
6.74882
9.38099
2.08378
6.97522
6.64399
9.9031
2.0692
-5.78869
1.9651
-0.161106
9.85077
0.397495
2.95987
4.04867
0.26764
1.05511
0.629949
-4.18191
6.58415
6.37803
5.12824
3.96995
-8.16858
-0.344571
-1.22541
3.83565
-4.1628
0.252108
1.48412
-37.0254
-18.6441
4.19984
-3.27837
-12.2631
-9.44985
-5.62825
4.98396
-14.0355
-38.3679
7.42629
-20.811
10.0241
-27.4404
-12.2849
7.69226
9.0749
-8.04772
1.65636
1.81981
7.03745
3.86226
-7.24468
0.682972
-3.85409
-7.85332
6.56924
2.26753
4.52269
-12.3737
6.58313
-14.2535
1.80192
1.29924
7.8966
-3.83274
-15.0429
-28.1383
9.91578
1.19682
-34.6211
-13.5192
6.63694
-29.7533
-18.8619
1.04204
3.0913
2.70536
4.47103
-25.142
6.23971
6.60839
7.52303
3.77007
4.54065
-2.82844
5.5139
0.0138021
7.81562
5.48132
0.724082
0.0229035
-0.0541616
0.776679
-4.96537
7.5833
3.41242
-3.93582
6.7404
-9.1608
5.16592
11.3138
0.633359
-5.46631
5.08649
1.12684
0.745861
-0.190885
-12.4994
6.61687
2.04131
0.882702
1.71475
-8.71225
8.28992
-15.9463
-0.466389
6.76687
1.29312
9.44069
7.6948
8.62926
1.16392
5.16918
0.831206
0.718111
4.97934
6.37448
-5.12246
-0.742073
-11.2959
-5.30074
-24.01
6.56977
-7.355
-8.2463
-36.4684
-3.38064
3.23281
6.84354
-0.347468
-3.14737
-11.7383
6.74895
11.1457
1.12397
-12.6696
4.47132
-8.60401
6.51315
-13.4377
-1.35745
7.81931
1.64456
10.5774
4.18453
6.70752
-3.0754
8.44365
1.43849
7.74544
-11.8747
-6.84516
0.513377
-36.5174
3.96483
2.50844
-0.261583
9.9642
6.73439
7.38808
9.13282
7.48575
7.88756
-1.18504
6.80464
6.76505
6.89346
-0.299344
-0.646692
-3.08083
-1.71539
-0.470055
7.29591
-12.304
10.6267
-2.91435
1.98449
10.8968
9.26184
-0.675853
-26.523
6.56075
4.21652
0.703904
6.15281
-12.2721
-0.928769
6.69357
8.92277
-1.33859
7.19124
8.36305
-0.381556
-1.52777
8.45267
2.3002
-6.339
-13.1689
0.507299
-4.03167
6.50704
6.17222
-16.3011
-11.4862
-5.09569
-0.560176
4.03551
1.05831
9.55572
1.60669
12.0949
6.61732
1.60509
7.38643
-16.2228
-12.2815
-28.4865
6.62772
-0.902327
-11.1804
-14.5971
3.96414
4.71787
-3.99032
4.79763
-22.0815
3.34515
1.29657
-12.7819
5.09304
0.948268
8.3922
6.88717
7.20611
6.24928
-0.719588
-5.44246
-3.73808
0.504544
-25.256
2.38546
4.97003
-19.6618
5.54391
-21.1046
-13.5533
-23.7964
4.28541
4.1847
-2.32922
-5.56154
2.6161
-2.69159
-6.93561
0.582165
2.32781
7.18245
5.37662
8.3008
-12.2915
6.24523
1.776
9.07155
1.65739
4.20009
-5.77846
0.4318
10.4124
11.086
5.28342
3.76788
5.08266
6.01946
10.5199
4.52803
-5.60146
-22.597
0.814627
-1.9791
-10.692
6.72988
6.44008
2.57237
2.0251
5.57421
5.88891
11.4108
-7.10994
5.69886
-11.4761
2.79897
9.38591
0.54465
5.46591
-18.567
4.8447
2.01103
11.9073
-1.06708
-3.13763
4.03105
0.617215
-15.0048
-12.2779
-12.4334
7.50742
-5.76798
3.76972
9.78828
9.09351
0.820472
-7.50261
-2.69331
2.37025
7.61558
6.27489
8.96269
3.79111
-12.6383
9.36533
5.97231
-6.57139
5.06629
7.01492
8.15427
-12.5432
-4.97365
0.133269
5.99834
10.2573
3.10159
-12.1172
-4.0506
11.4664
-13.8418
-4.57743
10.69
6.12045
1.67946
5.13965
-15.7445
3.55278
-5.31513
-14.2536
-3.82154
-29.5065
1.34734
-2.75861
-17.7804
-12.4787
-7.74192
3.40877
-11.2992
-20.7835
7.23495
6.45905
3.63825
-22.1111
-0.60822
2.27092
-0.817473
12.0342
4.36678
-3.23631
6.12055
-3.6459
-30.3816
5.4474
5.43272
6.42959
12.2008
0.331239
0.538248
-12.9573
0.361746
4.50071
6.43039
-0.918347
9.49859
5.48701
7.10329
-18.1308
0.736658
1.40424
6.75265
6.76718
6.99451
6.80094
11.2734
10.9586
-3.64146
6.14994
8.35493
-3.1143
8.9353
1.36301
10.8389
8.86388
1.33694
7.62877
4.07259
5.01982
0.412572
7.00439
-5.14774
5.6322
2.56716
4.5308
0.243852
6.55511
4.17401
-0.433697
10.4784
10.4633
4.31511
-12.2774
1.13762
0.72727
0.481348
5.94941
9.42634
-12.2691
6.90892
6.20881
2.63924
6.71052
-25.2358
-18.3401
-19.4762
11.57
1.62733
-3.61111
7.82845
0.220075
2.17618
3.96324
0.790634
5.53701
2.84474
-3.05004
3.62282
5.29369
4.31822
4.92837
11.0465
9.17419
8.05014
9.43614
10.2598
3.07415
1.50287
-9.20059
-3.48266
10.3716
-20.4031
6.46993
5.83494
-17.8056
3.36776
7.25991
-25.1052
2.74069
5.13549
12.342
-13.9004
2.26256
1.77351
7.43786
0.561888
-20.3812
10.1806
8.75839
6.26535
6.61581
-4.61856
3.25028
-15.1038
10.9381
-8.03166
11.8205
-0.321685
-9.04458
-12.7255
3.69267
-12.3609
-3.13926
0.492434
3.2079
1.74419
3.10271
-21.8229
-0.592749
-12.3577
-12.3104
-2.75403
-7.6727
0.768951
1.15627
-10.5781
-16.7173
6.67292
6.79594
8.90217
6.63959
1.82959
2.00165
13.1166
6.31029
-14.4288
-3.56478
0.607798
5.59285
5.68412
9.51891
-3.91328
-3.98066
5.42794
-0.536595
1.18795
8.39823
-12.2885
-16.729
-14.2802
11.0579
-18.7398
4.19056
8.2858
-0.736472
5.18329
4.30125
-13.2146
-13.6364
-11.0343
5.03058
7.70064
8.13698
-7.16031
-12.445
4.42759
-15.4185
-4.37809
-0.778659
-1.8976
-6.9224
1.17533
-21.8894
-13.8098
-9.97998
9.84434
-13.676
10.7413
-15.8071
-0.410369
1.65046
2.2293
9.10989
6.42095
8.07828
1.206
-5.02475
-12.9163
8.80221
-12.2713
5.32376
-7.6323
8.36702
9.11285
-4.5973
6.63523
10.312
7.11426
7.08498
-7.98972
-10.8582
1.96524
-6.07535
0.330315
4.06204
4.79009
0.553962
-13.7682
1.03432
-6.45698
5.747
4.92999
-3.05444
10.8079
0.399091
0.224519
0.600736
6.59918
-17.0816
0.886564
7.06756
-1.45469
0.570924
-0.18929
6.88216
6.61981
6.40149
0.888307
6.51691
7.69024
7.30389
-3.2606
1.92499
2.62931
5.57225
-3.9232
-15.1797
-33.9338
-5.60508
-15.9006
-0.90625
0.341214
2.41698
-12.2646
-2.87716
-24.2567
-7.53966
-7.93282
3.33907
-13.6573
7.12317
13.144
3.30834
-10.7114
3.84232
1.98491
1.12581
0.725911
-4.10416
-38.5472
0.569354
8.49795
0.458331
10.1235
0.641084
6.37636
5.37571
2.20371
-13.3613
3.94824
11.3711
-11.2148
6.66009
6.54931
9.47582
0.583614
8.72072
6.99684
-12.5426
7.42775
-13.8559
-16.3721
8.90958
6.12562
-7.08667
2.08686
8.45817
1.04821
-30.0153
2.43021
1.7105
5.78736
4.19512
6.91554
6.13992
5.44166
-8.71025
-3.06181
-3.27445
6.80572
11.8102
-4.83871
-12.0771
-13.6454
6.553
0.508171
0.514475
3.05005
-11.2661
5.03224
-1.24512
-1.1469
10.7037
3.60703
-5.98966
-13.8995
-19.444
-7.84614
-11.7287
-9.46784
-17.7471
8.0248
4.19217
-3.99838
10.6218
-3.73891
-13.0911
-9.75613
-16.1696
7.03053
-11.3275
3.10151
6.47049
0.377366
-3.21793
-2.77981
-14.484
-23.5639
7.39488
-23.0986
1.63109
-14.4541
6.56004
7.0714
-19.2964
8.21583
7.58515
9.76258
10.0407
7.18884
0.706774
11.611
-14.7796
6.3611
2.08731
-26.1976
8.20916
-30.5308
9.92237
3.89854
-4.83527
-20.2173
-22.2594
7.23266
-35.1714
-15.074
-0.4501
-1.60547
-6.85959
4.73005
2.21929
4.7256
11.0484
-12.3122
-10.2384
0.781029
6.7816
5.66299
-9.40908
12.973
0.74942
-7.06546
5.236
-4.18322
6.49727
6.68175
7.4351
7.52682
-7.58099
3.44183
6.19421
1.00335
-1.29337
-0.762623
7.01659
7.35458
8.8788
-6.57451
0.554306
3.51921
4.63271
-2.03174
-23.0533
5.95171
-19.3669
6.06932
6.96784
-12.8527
10.102
-24.4229
11.2174
7.35222
-27.2989
0.378213
-8.14218
4.3172
7.14593
-32.4597
8.74022
6.57409
3.55057
1.60507
0.94315
0.343173
3.5618
-13.3893
4.194
-22.4898
6.61827
-15.3692
1.82007
-3.22102
8.15002
9.19971
4.87345
-15.9769
4.0055
0.581167
0.3596
4.31163
-1.05073
-5.52681
10.7234
-1.32492
1.69437
-5.00341
-15.5832
0.625864
6.75931
-13.0792
-1.39321
7.1296
4.13292
7.11997
-17.8451
2.35841
10.9379
-8.68717
6.73641
0.490864
-0.81217
3.15836
1.04248
0.355114
11.1206
7.40261
1.71784
10.9826
8.3822
8.16298
-16.0715
-16.0563
4.32351
-5.24437
0.831286
-7.10299
-4.33441
-7.09472
5.07286
1.94565
4.0094
4.32662
-0.965819
5.0206
6.95292
-12.4417
6.81491
4.75593
6.66537
0.568608
1.50078
-19.6116
-11.9323
-18.4196
-1.92128
6.90617
-25.4522
9.80222
-17.0099
6.51557
4.14641
-23.6884
2.09904
6.66852
3.98095
2.50883
5.81298
2.4503
-9.71808
9.31574
8.20349
-10.4158
-8.98013
2.29299
6.21439
1.33711
3.04668
-6.84485
1.19276
0.950945
-4.30749
5.58548
5.57028
-8.27054
3.9654
1.17298
2.66379
-32.8177
8.29963
-18.7325
6.5475
0.322441
6.04444
6.91647
4.44108
5.98573
2.72711
-22.6567
-31.4796
-12.9901
-31.0619
-22.0356
2.28457
-0.379328
5.79453
0.852942
6.57714
-5.88939
-10.5331
-7.13792
1.09806
6.77918
-13.6782
6.29373
1.1275
-37.4508
-0.172454
-19.9728
4.26458
6.86012
1.36827
0.783928
-12.3098
7.59294
-0.361319
0.360529
-15.6912
8.1462
2.70041
-18.2788
7.05714
6.71868
7.84986
4.13028
8.41536
-9.06129
-9.875
-4.85459
6.33079
4.80014
1.22305
1.33797
-18.3924
-23.8616
3.46845
0.703578
-28.766
10.6137
-8.75805
7.70176
4.48182
-16.9717
2.52083
-4.50085
0.707684
1.84555
0.638839
6.49198
-32.1287
6.75356
-7.40292
2.85893
-5.93537
0.175454
-19.3912
8.04625
10.9342
7.21593
3.86173
1.71328
5.23878
-14.2651
-4.34075
-0.237753
0.491226
-13.6074
-26.5208
-22.0358
-3.78801
5.74187
6.42453
-7.05977
1.20173
7.51899
-2.77523
-6.23961
7.23942
1.44018
-14.9688
1.55156
-0.221368
0.557496
10.6312
-0.798555
6.27027
-4.031
-2.41359
-2.68079
6.30079
0.199484
5.40864
-2.67244
-3.96356
-2.79139
2.15454
7.72636
5.63594
2.20653
-6.67123
-1.91603
11.316
-6.57658
7.33825
8.04298
1.62697
1.75745
2.43642
-14.4865
1.97458
6.13165
4.6694
6.23102
-33.261
7.31925
1.89736
9.32337
1.93573
6.22024
8.24259
5.93646
0.341678
-15.2239
3.03426
-16.1731
5.7016
3.85141
7.8192
1.65308
9.73338
0.727303
10.331
2.56974
8.1313
0.444266
4.7062
-5.54252
6.50664
2.59723
3.7657
10.1721
6.74166
0.599823
-2.73803
3.34982
6.41834
1.79978
-11.546
4.36364
-6.81302
8.41613
-18.7849
9.87738
2.64219
13.2672
10.0749
4.89438
4.37838
-6.7766
1.47926
10.5991
-0.306685
0.842225
0.548966
11.1526
4.22876
5.52276
10.1208
-2.6076
7.12206
-1.21543
7.69117
2.13572
7.29043
6.5987
8.90164
2.67025
-16.4922
1.4357
-19.0669
2.44666
1.42132
-2.91442
8.75462
9.36079
1.93183
2.52667
-0.56721
8.41361
5.23378
5.917
4.69811
-2.06189
-13.315
-15.139
6.92134
-7.43413
-10.8171
3.37182
4.54144
2.55963
-2.90733
11.2513
-1.04411
9.80129
2.24383
10.5284
-4.24415
-1.48522
-20.0161
1.42907
5.36083
6.64047
0.485975
-10.2451
2.74538
-10.921
9.29561
-0.3469
1.17595
-1.16309
-7.26917
2.48363
7.89855
3.2022
-14.5711
-7.94469
6.71649
11.8405
-19.6377
-3.53921
6.2911
-5.70466
4.01247
-6.25976
4.80385
-9.14725
-20.3804
1.71263
-19.9758
-0.0502954
-0.235569
-7.17352
-32.55
1.42418
5.55509
6.95775
6.06251
11.4792
-16.0401
11.0097
-12.2139
10.3109
-34.3843
-3.13867
11.1093
3.61097
-26.7244
6.56971
2.37528
7.09928
-1.6568
-14.0083
0.73622
-3.93092
-5.60179
-2.98217
0.0928908
3.47644
8.02931
-35.2604
3.68663
-7.23235
-0.695852
-0.879401
1.54361
-16.2288
-5.09203
-5.64693
9.16341
4.94706
9.7429
1.92021
-13.7573
3.32028
-3.066
-19.3208
5.98726
8.09122
11.6736
5.48836
6.13145
3.17137
-12.3203
11.3241
11.9002
7.32213
-2.18289
-31.364
-16.1109
5.96045
4.34516
1.47633
6.48396
-16.3203
2.83472
-11.2186
10.0773
-6.8617
1.82848
-21.98
6.29804
4.20625
12.8022
12.0233
5.65413
2.60444
1.58033
-10.2184
3.88812
12.3134
1.60892
-15.7572
4.84605
0.296171
0.733239
0.17822
-0.534612
1.00597
-0.365824
2.44766
-15.7961
3.05913
8.97239
2.3205
6.92023
-24.8301
-0.901573
10.7574
-9.42258
-5.17187
2.05966
3.7484
2.95931
-18.7525
1.69019
-9.67328
-1.76882
12.9587
-12.7621
-7.07978
-24.1179
-1.60947
2.37864
2.02792
-17.7293
-7.02896
-20.6942
-8.99468
-2.76809
-5.74843
2.87085
-0.9013
1.66248
12.629
1.87552
1.37844
-0.00013509
2.34609
-12.2623
-2.12734
9.08318
6.63683
1.45928
-4.685
6.21973
6.99632
-4.56415
-25.8171
-1.20634
9.0683
-3.06948
6.35358
1.33678
9.81394
0.495794
-27.6789
-4.72329
7.21213
-2.75902
6.21178
-2.63897
12.0994
-18.1138
-0.306377
-14.114
4.17491
-21.3918
-3.52044
-19.6407
0.541458
3.14642
-36.7115
-3.95466
1.28054
-1.23548
-10.8101
-2.88605
4.91957
-16.5788
5.60593
-21.5278
7.268
11.2077
6.13715
-12.3368
6.56101
0.590141
-4.57128
1.12994
-1.10305
-14.6349
-1.91981
-4.04343
3.09688
1.22493
-1.11775
0.276684
-6.19996
2.95255
6.7248
-2.02693
-20.0731
-0.661896
-16.6542
-5.80955
3.68493
-7.33561
-21.376
7.05348
-6.1404
3.91408
-5.2479
-6.24651
-13.649
-16.2407
12.9248
0.721001
-4.24773
3.67998
10.7259
10.7784
-30.8838
-1.27888
6.67494
3.2634
-1.41874
10.95
3.26185
5.83771
13.0138
-0.125421
2.26237
2.03354
9.70368
6.94856
6.71813
8.5817
5.1965
2.41553
1.24035
3.86263
0.92345
-11.3739
11.0175
0.622516
-1.13311
-17.1209
-9.04779
2.8526
-23.017
-1.85747
0.466815
6.78214
7.23828
7.41243
-14.3426
9.66242
10.7259
-6.94443
3.72468
1.00364
2.51858
-4.1246
4.61319
-0.0803233
-2.80876
0.84413
11.8532
-13.8572
7.46313
6.65893
8.54142
4.98128
4.98634
-8.43056
2.06342
4.0232
0.717618
-14.1907
-6.72619
0.548241
-16.6833
7.96765
-36.6577
-8.7559
2.52756
-12.2626
-24.217
-13.1758
5.651
-1.11375
0.705256
3.70964
-22.9876
1.28699
-6.78685
0.929918
7.1132
-13.2096
11.1155
-24.0243
11.8678
-1.01274
0.0841159
0.747256
6.10921
5.53385
-9.93618
0.400575
0.400073
0.645873
4.54528
13.1058
8.57823
2.05289
-2.8058
3.36366
-5.41298
7.41668
-3.52887
4.65739
-17.1193
-20.5516
-11.695
2.68511
2.32259
-12.1007
4.89539
3.7741
10.5842
11.4761
-11.8997
-14.532
0.290887
-3.69697
11.0067
3.50831
-0.310787
3.66516
5.27805
-22.2967
0.227709
0.449113
2.53735
6.01641
-19.0288
2.32744
1.68145
-2.72001
-8.35223
-0.126128
-8.58412
-7.50429
7.15977
-34.079
-25.9176
-2.44789
-13.4509
12.0335
4.97745
6.41085
-5.07617
2.95379
0.849316
2.49948
2.95457
-18.2569
-17.5994
10.9727
7.01307
1.11356
-11.9061
12.4996
-23.6536
-14.1714
-15.5685
3.42281
-22.2506
-20.7559
9.60353
0.824096
5.97991
3.49413
-15.3586
-7.82516
-0.222746
2.79402
-9.43659
1.26378
3.12877
6.35909
-20.4508
-13.0379
2.83641
-3.92735
-4.48853
-4.06489
11.81
4.96478
-28.4904
3.25532
2.63335
10.3332
3.62133
-16.7775
4.12918
8.32641
7.08723
-4.18646
6.20662
-9.94089
10.8873
1.97985
6.97718
-13.6239
-3.59415
-14.6484
-19.5343
4.04367
3.19103
-15.3857
-22.9613
7.61698
-9.52803
0.640822
9.03187
5.63193
8.81495
6.36343
-4.15615
1.34058
1.39323
6.416
0.0297591
8.01703
5.18072
10.8159
-17.1815
8.59525
3.51758
11.0694
-14.6825
-2.43044
11.185
-18.6221
5.11692
-13.7973
9.65822
10.8469
7.17241
-6.51077
6.65217
8.32803
-9.71737
3.98141
-28.4605
8.89625
-20.3674
-7.20342
-15.0952
-15.6123
8.19424
3.43294
-16.1003
2.98587
10.8133
-0.849998
0.65357
-16.0728
-3.44357
5.56837
-0.324136
6.47371
6.05328
-15.0153
12.12
1.81641
9.38431
9.11308
-1.78871
1.64928
5.78752
-6.38885
-1.33087
5.7862
4.94764
-0.639619
6.07574
-13.5014
10.3334
7.31599
1.82708
0.488322
7.2345
-15.8503
4.87958
8.54703
1.02453
-23.7301
8.28423
6.95215
-2.92752
-12.2938
5.09225
7.25725
10.8781
-12.6935
11.4554
11.7751
11.6649
-5.29563
8.06185
-14.3582
6.72707
8.68428
8.54543
7.196
9.43461
12.7751
6.13718
-13.2197
1.09128
-17.3926
12.6569
3.13904
-11.0582
-19.4454
6.6939
9.72025
6.22226
1.24824
0.56911
9.54243
-7.13216
6.93871
-20.7639
3.77367
2.23946
2.41219
3.9742
-15.3896
-17.7696
0.117926
-3.52842
2.45231
7.91103
0.287151
0.52715
6.02407
-5.50885
4.23551
-14.5918
-6.43075
-13.555
-14.5809
9.03211
9.74802
-22.3719
5.02756
8.38735
8.31737
1.75318
-41.9708
7.10013
-11.3129
8.942
-7.46788
8.736
4.97292
2.03208
8.2331
3.99589
8.4513
1.49287
3.88095
-2.63153
-12.2543
-6.61323
0.9318
8.29486
-30.4993
-25.8403
-26.7594
9.6627
8.37898
3.48973
4.80694
9.36334
-7.23971
6.14372
2.48305
-2.93092
6.12244
-28.78
-14.081
-3.74422
-12.4006
-1.69462
-29.6532
2.25225
-16.0047
-12.3382
5.28952
11.0333
12.0017
10.4727
-33.9467
7.00794
-13.6627
5.97582
9.50732
2.19719
8.17111
-23.0812
1.3465
-3.16539
0.757236
8.86581
-2.05557
7.33389
-14.8158
-0.162895
-13.4134
7.59305
7.29173
6.67427
-13.362
6.09871
-1.85332
-16.5685
-16.2965
1.0029
11.0327
-9.17239
-4.40513
-22.1982
6.42521
6.51293
1.848
4.72524
-13.9792
9.49692
9.18479
-23.4838
0.0585797
9.22436
-30.4815
-17.581
1.22654
8.51401
9.48075
-13.8062
4.78117
0.841869
10.8635
-13.9668
-24.8224
0.658612
10.1687
1.16197
-2.70507
-11.4806
8.79824
5.65042
8.72541
0.472993
-8.03215
7.20512
12.5073
-12.2732
5.96064
0.988
-13.4273
1.10274
1.50666
-19.3658
4.69774
-13.3536
4.9073
-17.0681
-6.33778
8.03513
9.54591
6.0585
-5.9259
-21.059
7.5216
-14.2467
2.78199
-2.83516
2.77987
-11.6984
7.44726
7.52576
0.943624
7.10691
10.6834
-7.59069
5.41483
7.48566
-15.4458
4.80591
-1.22717
2.84261
2.72355
5.66922
0.765735
1.17602
-0.30471
-7.18137
8.99743
2.91109
-10.0765
-33.4102
-1.16366
6.90789
-14.8347
11.6135
-13.7013
-15.0945
-0.147723
8.35344
7.29946
8.62526
-21.0081
10.2856
-18.2409
5.2899
0.385803
-4.13953
6.40221
2.41422
-0.787374
4.4343
-15.3285
5.72283
-12.5628
-31.893
-0.691072
-7.86805
-6.90624
5.87226
10.5623
-0.81092
-14.298
8.28642
-6.97891
9.62311
3.25299
1.36451
5.06559
6.82397
2.9848
-13.1765
3.4185
1.01773
2.79407
3.49254
-3.5031
-24.1596
1.69317
4.05994
1.52196
12.7724
6.98454
6.6927
9.71151
2.32805
7.44691
-19.2869
-22.362
-37.4961
6.69878
12.4381
6.00347
-2.72974
8.98996
6.20694
6.2586
-0.0198815
0.993333
3.05136
11.6612
2.4682
-5.99627
9.78818
9.19012
6.88626
6.40034
7.87579
4.16511
-4.78346
-39.0583
7.10822
-12.3338
-12.0503
6.60729
-40.1914
0.402742
2.51885
7.05649
7.32293
7.37849
1.05005
8.59604
8.80536
-2.50534
7.76331
6.80998
6.90061
5.9181
4.59627
2.92715
1.82059
8.30068
7.71285
-6.22913
5.98541
0.95547
-14.0184
10.4712
7.99797
0.456556
-17.7373
-4.56905
8.21757
4.72836
3.17263
1.25403
0.563285
-24.161
0.831804
-19.1949
0.0349095
4.96552
-5.02841
-11.3976
-13.4364
9.89741
-18.9527
-12.8306
-23.4205
10.6007
-15.7414
-0.623485
2.57208
-16.5654
6.04954
6.41416
4.24812
9.3734
5.05215
1.24686
-18.048
-18.8032
0.881561
7.84806
-12.8447
-13.6972
-13.2801
-12.7265
-13.9443
-23.4702
-7.35186
-0.021743
3.35929
6.63375
8.38683
-10.1231
2.67973
9.39669
7.25772
-13.882
1.22402
-18.4878
3.95853
0.443054
3.18908
5.95357
-9.32311
-17.0727
-20.647
2.90423
-23.4436
-16.7595
0.357528
-38.4302
-11.8153
-16.6201
-22.2876
0.495616
-19.2029
2.87237
-13.5247
6.70962
6.1548
0.692164
8.4526
-30.1964
10.6051
-5.50702
1.5018
-3.377
6.41332
3.58008
-12.2782
-21.4083
6.90091
8.09939
10.975
-16.6906
-11.5526
-36.742
0.339717
0.541657
-13.7174
2.71217
-14.7879
3.46516
-13.7787
5.13344
2.0952
1.38103
9.68363
5.70872
-1.31542
6.68182
-5.43599
-13.1661
8.77361
12.0227
-12.5869
7.92031
6.09789
-0.82715
-1.41263
8.24317
8.06111
-7.33745
-13.5289
-38.2888
-33.8656
-2.97125
-14.8094
-2.29268
5.22569
3.06456
7.41514
-12.9931
-16.309
6.44873
-2.5188
-15.5151
1.6515
5.88133
-16.0394
-1.20108
-15.4377
-13.7159
-14.9692
11.1396
-22.2796
0.23718
-14.8348
7.12371
-14.6187
-4.81205
-7.08034
-15.132
-2.75828
7.30554
-4.65132
-14.0062
5.52301
-0.715213
-17.2433
-4.59734
-13.6784
4.70647
5.37331
6.73556
-20.7642
9.58875
-14.9034
0.287503
-2.33694
-7.04203
-37.9729
-13.7001
-16.6724
-0.690552
3.53824
0.789934
0.209775
-5.16257
6.07021
-19.6144
6.82465
-8.05991
4.75927
-1.84344
-8.4181
-3.35552
12.9058
-0.544318
-16.405
-15.0369
-6.06173
6.68613
-2.4467
-3.30718
1.24617
-10.6943
-16.7225
-12.3434
-14.5666
7.12221
-12.6555
1.96696
-13.8843
0.848837
5.54002
-1.70635
3.10281
-1.29787
8.46297
-12.6034
-19.1198
9.02751
1.96013
-13.5943
0.079109
-6.57062
-5.07242
-0.395801
8.26388
-31.8218
3.84179
-11.2866
-7.45099
-11.3826
-9.95079
-14.2944
4.03602
-7.00982
6.67544
3.63405
-15.4442
2.73994
-36.6992
8.17697
9.52094
-16.6343
2.07867
6.98111
6.59267
5.22391
-18.9263
-10.5073
-8.8202
6.70995
2.88006
-6.80864
-4.07995
3.81662
7.98258
0.427048
-11.1241
1.58235
8.91925
-4.71284
-5.1216
-6.90976
6.01058
2.38412
-3.17112
9.64289
8.1408
0.561628
-29.3629
8.17331
4.12427
0.927296
6.0948
-5.61021
-14.2509
-8.08004
-25.5131
8.09795
6.94429
1.06964
-2.94606
2.8707
-5.39199
7.07561
-33.2237
5.06097
8.51976
9.10127
-23.0946
6.63293
5.78352
7.22172
7.61543
0.807338
7.65774
-2.34148
6.78404
4.7816
7.16003
-16.0395
8.17429
7.75609
6.20343
5.13249
-20.2701
4.60905
-7.57272
-4.49767
8.72429
9.15481
-43.2466
8.93747
-21.7151
-12.2962
7.00769
7.0831
-6.92167
0.654022
-11.5333
-34.7446
-1.99799
-25.4116
-7.09156
-0.00519753
5.8816
11.7406
8.13565
-12.4671
-17.7012
6.8916
4.13687
-7.98006
-16.1443
-22.4905
-4.95617
-12.3522
-12.0961
6.47539
2.9934
3.86184
1.22557
1.43259
-3.16431
1.22869
-0.334992
3.42382
5.72906
-5.07104
3.34453
-3.06217
-23.0481
4.29499
4.35223
1.28642
2.35228
5.21628
2.66561
3.64509
-3.77706
6.69757
5.28963
10.1567
6.72274
-21.2335
-0.148918
-2.98275
-21.1949
1.84978
-11.7277
-0.658744
-40.8206
11.9699
0.548076
-7.81263
9.46966
-21.1867
-1.63618
-0.958838
-16.7972
-20.8065
2.35835
-4.05496
6.36854
-2.4398
-21.7256
-2.57271
-27.8598
-3.67672
-12.0315
-0.0157406
5.63611
-18.5588
-24.6152
-4.45899
1.77446
-5.68977
7.09369
9.72539
-22.3694
7.22413
3.61608
5.30262
10.7095
-19.5045
4.76638
3.00377
3.74448
9.22341
0.467215
0.357073
-14.0443
6.94597
9.72095
-34.9998
2.67349
-8.33407
-5.8442
4.22002
-20.9481
-6.65116
-25.9689
3.6723
-11.376
1.06185
0.799352
6.14231
0.80463
-12.8757
1.49995
-1.96683
-2.71137
10.3429
11.5538
8.668
12.3434
6.39647
6.2129
7.34032
6.41486
6.77763
-11.2105
6.64695
-0.164749
-12.3637
9.52207
-0.422047
-4.97961
11.1365
1.36013
-26.2956
4.2717
3.78822
8.02463
-11.6895
6.42078
10.515
-20.1805
-12.2972
-5.83096
4.33914
-13.4695
8.30544
0.471987
8.09345
6.69871
-23.963
7.57996
-2.32232
-15.4772
-13.7786
-40.2753
7.82342
-6.512
6.76102
2.14211
-14.0306
-0.369205
-3.54765
-2.54046
-26.1021
-20.1425
7.94379
2.36613
-14.7075
-0.754856
5.12015
1.26695
-40.9075
4.16335
-2.18528
4.0904
-15.5795
4.90166
2.75895
4.15635
0.809107
6.10975
3.65782
3.03644
-12.7931
12.2034
-3.49289
-16.2961
6.16584
5.24513
-14.858
-4.8473
-15.4212
4.22426
3.3615
-5.51573
0.596517
-0.221512
12.3036
2.75403
-24.032
-0.477137
-2.83218
4.54029
-1.35139
5.91431
5.12881
-13.4846
3.85222
-11.467
5.26574
2.16326
6.52018
5.26526
0.8414
0.257325
3.14795
7.16337
-2.81602
0.341612
-15.8578
-0.864316
-1.44484
6.28099
-16.4179
2.96992
-19.8713
7.81451
-14.2792
0.0610397
8.48393
7.69187
4.41624
-18.6792
-17.8849
7.29387
-6.08035
8.11857
4.36524
-3.52927
6.69519
0.281513
2.93407
0.45682
-3.35064
-9.93276
5.21625
-6.83408
8.68516
1.63826
12.4504
1.02145
2.84664
7.80643
1.95052
1.30532
7.04338
5.54373
3.71924
-7.3021
-1.02953
6.13266
3.94102
2.10409
-32.1484
-0.319246
-21.083
-15.0034
-4.31751
6.25003
-6.52182
5.77189
1.15609
10.7497
8.6387
3.48845
5.31222
3.34376
-13.9461
6.55223
4.58603
1.70807
2.06827
8.0168
7.13568
0.406145
-25.4813
-6.79099
5.75566
2.86315
-3.25137
7.07367
-31.2738
6.01853
-9.2936
6.33534
3.9947
0.290085
3.78236
7.46365
0.835725
6.60916
8.39713
0.797103
-3.9913
4.73505
0.144321
9.82865
-4.42167
8.92985
7.48079
-14.0037
-18.5007
-21.6004
-3.44405
-14.096
-29.481
6.5661
9.10026
7.50138
9.18764
5.21266
8.40009
3.7369
0.468452
3.96529
-1.35363
1.99048
5.22025
-5.19378
9.72714
0.61665
-11.8392
5.40531
9.45126
9.95748
-17.863
3.54748
-19.5289
-12.329
4.17642
1.80682
-23.0012
4.39651
10.3366
-16.945
-5.64055
-15.8439
3.83021
0.648362
2.16567
6.16955
6.46269
-3.42676
-0.722799
2.32153
-13.8498
6.51384
6.43134
6.8027
3.77966
1.60103
4.30193
0.739112
-8.13993
2.5054
5.44239
3.47009
5.09749
-1.9198
-1.65249
-5.10193
6.51114
-10.0736
1.33202
8.06238