/*--------------------------------*- C++ -*----------------------------------*\
| =========                 |                                                 |
| \\      /  F ield         | OpenFOAM: The Open Source CFD Toolbox           |
|  \\    /   O peration     | Version:  2306                                  |
|   \\  /    A nd           | Website:  www.openfoam.com                      |
|    \\/     M anipulation  |                                                 |
\*---------------------------------------------------------------------------*/
FoamFile
{
    version     2.0;
    format      ascii;
    arch        "LSB;label=32;scalar=64";
    class       surfaceScalarField;
    location    "10";
    object      phi;
}
// * * * * * * * * * * * * * * * * * * * * * * * * * * * * * * * * * * * * * //

dimensions      [0 3 -1 0 0 0 0];

oriented        oriented;

internalField   nonuniform List<scalar> 
20045
(
0.519571
-0.586934
0.0673632
-1.10862
0.442969
0.665649
0.334166
1.87553
-2.20969
-0.401072
0.559171
-0.158099
-0.870282
0.866117
0.00416565
-0.561028
2.14544
-1.58441
-1.0815
0.549345
0.532156
0.0748021
0.449242
-0.524044
0.485712
0.451256
-0.936967
-0.735738
-0.163416
0.899154
-0.480991
-0.0772687
0.558259
2.20227
-1.16918
-1.03309
0.391941
-0.390239
-0.00170219
-1.22145
1.01222
0.209223
-0.395195
1.17405
-0.778858
-1.04484
0.309105
-0.0569253
-0.157656
0.214582
-0.431174
-0.330029
0.761203
-1.70851
2.44792
-0.739408
-0.754884
-0.000391098
0.755275
-0.586603
0.433944
0.15266
0.136668
0.255273
-0.200086
-0.908532
1.2233
0.779973
-2.00327
0.841157
0.142484
-0.983641
-0.883506
2.1068
0.127495
-0.122447
-0.00504763
-1.33448
2.50457
-1.17008
2.54871
-0.250641
-2.29807
-2.57226
1.40098
1.17128
-0.635812
0.659087
-0.0232754
1.67357
-1.20614
-0.467434
-0.5787
1.50771
-0.92901
2.45477
-1.39298
-1.0618
-0.580389
0.655191
0.792107
-0.344917
-0.44719
2.289
-1.9592
-0.329792
-0.0686921
0.412579
-0.343887
-1.44362
1.05875
0.384868
0.647274
0.525213
-1.17249
0.0671871
0.412566
-0.479753
0.168846
-0.237218
0.068372
2.40275
-2.41804
0.0152963
1.43438
-0.487629
-0.946753
0.633082
0.8013
1.10952
1.09275
-0.215658
-0.272312
0.48797
1.05864
1.40968
-2.46832
0.535578
1.75342
0.184861
1.81728
-2.00214
1.30708
-2.2008
0.893715
1.22598
-0.790323
-0.435654
-0.859058
-1.11657
1.97563
-0.0934475
-0.323038
0.416486
0.292871
-0.661576
0.368705
-0.732661
-0.137621
-0.551672
1.98537
-1.4337
0.844263
0.358998
-1.20326
1.17644
-1.75514
1.62432
0.592707
-2.21702
-0.594733
-0.0682097
0.662942
2.50586
-0.881548
0.607816
-1.65495
1.04714
-0.297272
-0.289332
1.37575
-0.146048
-1.2297
2.68703
-2.25464
-0.432397
0.190198
-0.530034
0.339835
-0.677687
0.111827
0.56586
0.886729
-0.401018
1.78116
-1.89565
0.114486
0.460316
-0.270118
0.859869
-0.566998
-0.288941
-1.06425
1.35319
0.0761008
-0.102628
0.0265274
2.40557
-2.34335
-0.0622205
1.25872
-1.81039
2.24488
0.160691
0.425647
-0.820842
0.759604
-0.0853226
-0.674282
0.147233
-1.08947
0.942241
0.720464
0.531231
-1.2517
0.885885
-0.748926
-0.136959
1.36222
-0.754401
-2.44249
0.397984
2.0445
0.000116377
0.519455
-0.443842
0.568955
-0.125113
0.821689
-2.07617
1.25448
-1.60142
0.0644383
1.53698
0.997679
0.218262
-1.21594
-0.841972
0.71713
0.124842
-1.88451
0.018915
1.86559
0.752473
-0.123252
-0.629221
0.42143
-0.622622
0.201192
-0.223326
-0.794361
1.01769
0.621425
-0.656384
0.0349594
1.59658
0.974362
-2.57094
0.0788602
0.0486345
-0.0752872
0.529028
-0.453741
1.28246
-0.635189
-0.0339539
-0.161783
0.195737
0.574905
0.217202
-0.472638
-0.748808
0.556999
-0.632286
-0.378529
1.22279
0.0667366
-0.510578
0.182615
-0.216569
0.41878
1.22695
-1.64573
0.396943
-1.49179
1.09485
0.543947
-0.474957
0.413604
0.0613534
-0.253607
0.319877
-0.0662701
1.52037
-1.00731
-0.513056
-0.523098
0.429651
1.25536
-2.19541
0.940046
-0.217261
0.35449
-0.137229
0.0545644
-0.311466
0.256901
1.10546
-0.264306
1.72509
0.729689
-1.22719
0.938248
2.7385
-0.807802
-1.9307
0.0981359
-0.52931
-0.644058
0.0493258
-0.813771
0.666526
0.147245
-1.04668
0.100303
-0.613286
0.512983
0.79647
0.429507
1.18225
-1.50276
0.320506
1.59002
0.176172
-1.76619
-1.97765
1.4499
0.527745
0.0214713
-1.52907
1.5076
1.26153
-0.465061
0.255243
-0.527556
0.0941051
-0.0342509
-0.0598542
-0.0447637
0.0227926
0.0219711
1.14336
0.799508
-1.94287
1.21838
-1.11214
-0.106243
-0.31202
0.133525
0.178494
-0.335967
-0.138991
1.36957
1.36893
-0.676535
0.726847
-0.0503127
1.14705
-2.14598
0.998923
0.685938
-1.545
1.04928
0.68471
-1.73399
1.42663
-1.2794
2.02522
-0.337098
-1.68812
0.900181
-1.51243
0.612245
1.83519
-1.40376
-0.431436
-0.273409
0.399125
-0.125716
-0.0708469
2.06165
-1.9908
2.43564
0.113078
-1.65085
0.0536099
1.59724
-0.989087
0.900086
0.0890009
1.0585
-0.338038
0.268351
0.617534
-1.25935
1.5107
-0.251347
-1.67969
2.01386
0.0278447
-0.373802
0.345957
0.0388916
0.0884218
-0.127313
-0.0341345
-0.394386
0.428521
3.07524
0.537005
-3.61224
2.67342
-1.30857
-1.36485
-0.466313
0.432178
1.43311
-2.06607
0.632963
0.202574
-0.0337275
-1.16885
-0.921891
1.2885
-0.366612
-1.2679
0.963498
0.304397
-0.0243489
-0.0837832
0.108132
0.550672
1.28452
-0.0343804
-0.0103833
-0.08354
0.177645
-1.37357
0.11422
-1.47174
1.86171
-0.389971
-1.4121
1.61069
-0.198587
-0.821805
-0.84079
1.66259
0.060316
0.501079
-0.561395
0.815896
-0.895245
0.0793481
1.82107
0.0418919
-1.86296
-0.00841478
-1.49156
1.49998
-0.935347
1.98463
0.421507
-1.14544
0.723934
-0.933912
2.18927
-1.77384
1.2032
0.570637
0.000525682
0.0105235
-0.0110491
0.881775
-2.18808
1.3063
-1.97478
0.640295
-1.55506
-0.491242
2.34023
-1.37583
-0.964398
-0.546114
0.613301
0.311527
-0.330196
0.0186684
-2.52472
1.98299
0.541724
-1.72983
2.48607
-0.756244
1.37973
-1.24992
-0.129809
0.0718545
-0.43696
0.365106
-0.74656
-0.574468
1.32103
0.0782192
-0.55921
-1.2985
1.31997
-1.39093
-0.44781
1.83874
0.222922
0.058839
-0.281762
0.21564
-1.13753
-0.644276
0.00846423
1.69795
-0.10793
-0.329886
0.261194
-0.321347
0.384369
-0.0630222
-1.07603
4.15127
-1.44639
0.699828
-0.836065
0.817759
0.0183063
-1.45178
0.316976
1.1348
0.205363
1.17437
2.3354
-1.45363
1.49129
-2.6261
1.13482
0.939762
-2.45083
1.51107
0.108876
-0.86376
-1.00009
1.41887
1.27658
-1.8376
1.03431
-1.73274
0.698432
-2.75996
1.58228
1.17768
-0.103335
-0.738637
0.368775
0.313331
-0.682106
1.33494
-0.417528
-0.917414
-0.218708
-1.43421
1.36337
-0.53175
-0.144785
1.28249
1.74192
-1.72291
-0.0190048
-0.023852
-0.284771
0.308623
1.29405
0.20853
-1.50258
0.220326
-0.65417
0.433844
-0.656095
1.60445
-0.948355
-1.45632
2.278
1.19166
-0.770152
-0.096811
0.331335
-0.234524
1.81382
-0.666763
0.227013
-0.0187215
-0.208291
-0.295772
-0.347193
0.642965
-0.260469
0.269811
-0.00934286
2.31659
-1.41673
-0.899856
0.510596
-2.24042
-0.28647
0.0260016
-1.81591
0.536017
1.27989
2.40343
-0.895718
0.488512
-1.96025
2.76398
-1.26784
-1.49614
-0.0323077
0.25523
1.44746
-1.37266
-0.0747983
-1.21092
0.222516
0.988404
-1.98017
1.95393
0.0262436
0.873162
-2.09433
1.22117
0.00969422
-0.00425993
-0.00543429
-0.946782
1.21235
-0.265568
0.0597632
0.529403
-0.589166
-0.325721
0.108461
-0.300392
0.0467854
-0.502378
-0.989415
0.644549
-1.66088
1.01633
-0.659006
0.572549
0.0864565
1.02507
0.6485
1.62719
-0.592879
0.064993
-0.0261015
1.23234
1.17109
-1.03346
0.0969011
0.936555
1.27888
0.168586
0.811224
0.362829
-0.652321
-0.00668467
-0.593227
-0.0334643
0.626691
0.0460971
-0.0455714
-1.68548
1.02939
-0.000197377
-0.444312
0.44451
-1.86271
1.79773
0.0649843
0.309872
0.614623
-0.924494
-0.347455
-0.265429
0.612884
1.5115
-1.66605
0.154551
-1.66439
-1.09557
2.40585
-1.7259
-0.679947
-0.221692
0.19784
2.25136
-1.37819
-1.04304
1.68759
-1.31477
0.491718
0.823056
1.64979
-0.81862
-0.831172
1.99205
-0.372732
-1.61932
-0.906415
-0.408358
1.72778
-1.00696
-0.720825
-0.36331
1.59079
-1.22748
0.39394
-1.69664
1.3027
0.128672
0.511615
-0.640287
-0.251699
-0.0261998
0.277899
2.35963
-1.97539
-0.384239
-1.05409
-0.923562
1.48892
0.252999
-1.7025
-0.160211
0.278524
-0.574296
1.27948
-1.13152
-0.147968
0.00907188
0.302456
-1.07348
2.21684
0.953656
1.36293
2.55794
-1.50666
-1.05128
-1.74428
1.29647
1.52296
-2.25089
0.727931
-1.23496
-0.124931
1.35989
-0.448777
-0.381553
0.83033
1.90744
-0.474331
-1.0412
0.20513
0.588295
-0.100582
-1.10556
-2.4134
0.981453
1.43195
-0.37201
0.0506628
-0.124419
0.0276082
0.216759
-2.19693
0.875358
-2.33167
-1.98914
-0.458132
0.612759
-0.154627
0.0501208
-0.451193
-0.957687
0.674366
0.283321
0.800723
0.719647
0.913093
-0.265209
-0.647884
0.950054
0.268329
-0.0216341
1.30112
1.15773
-0.160052
-0.463264
-0.988515
2.1087
-1.77174
-0.336955
0.727829
-0.470753
0.999064
-0.528311
1.57451
-1.73469
0.160185
-0.92001
0.696684
-0.255024
-0.0569956
-0.478712
-1.4058
0.583718
-1.14235
0.558632
0.878408
0.849375
1.38701
-2.01895
0.631933
0.456336
-1.12856
0.672221
-1.94654
0.345118
0.0143579
0.738115
-1.68207
2.10569
-0.423621
-0.459919
0.633612
-0.173693
-0.79134
-0.290161
-0.27395
-0.463717
0.737667
0.213177
0.00125531
-0.214432
-0.714919
-0.274168
0.722676
0.900343
-1.62302
1.34566
-0.0667848
0.423214
-0.893194
-0.0268156
0.969011
-0.512675
-1.44109
-0.332751
0.561978
-0.505014
-0.0569643
2.3875
-1.32886
-0.950431
1.56756
-0.617125
-0.257122
0.302436
-0.0453137
1.3692
-0.034255
-1.73072
0.599206
-1.05809
1.93001
-0.871926
1.29218
-2.04901
0.756831
0.899318
1.50653
-0.0836429
0.0657543
0.0178886
0.218753
-1.45371
0.776057
-1.83726
1.0612
0.0905978
-0.014497
-0.149671
1.33192
-1.20296
2.07832
-1.35067
2.29043
0.347146
-2.05566
-1.99745
1.44222
0.555234
1.32463
-0.268781
-1.05585
1.87868
-0.367182
-0.989982
-0.702054
-0.325178
1.14121
0.0619796
0.0886863
-0.150666
0.64322
-0.643612
-1.49326
1.34359
1.92195
0.480796
-1.64817
0.69774
1.7459
-0.256986
-0.631941
0.601575
0.0303666
-0.00814219
-1.17491
1.18305
-1.80201
0.333746
1.46827
1.59946
-1.59946
-1.5889
1.02379
0.565114
0.708625
0.204468
1.22113
-0.706225
-0.514908
-1.92337
2.00698
-0.0836101
0.704438
-0.101345
-0.603093
0.552822
-0.20084
-0.351982
0.257273
-0.604728
0.317223
0.730415
-1.77346
-1.63199
1.93276
-0.300765
-0.580362
1.30304
0.020886
0.0217978
-0.0426839
-0.284858
-0.140745
0.425603
-0.755333
0.864209
2.43184
-1.94726
-0.484577
-0.194914
-1.02292
1.21783
-0.495167
0.529788
-0.0346209
0.303571
-0.569183
0.265611
-0.864052
-1.78542
2.64947
0.356503
0.202668
-0.668521
0.0365795
-0.0650221
-0.0596913
0.124713
1.14109
1.21854
0.0827175
-0.0618315
-0.153248
-0.496867
0.650115
-1.03273
1.65438
-0.621653
-0.0259294
0.180889
-0.154959
0.925167
-0.375822
1.56969
-0.128296
-1.44139
0.0793588
-0.87372
0.297024
1.52405
0.893826
0.633171
-1.527
0.971225
-0.795383
-0.175842
-2.02876
0.377908
-0.760603
0.346032
0.414572
0.896153
1.24791
-2.14407
-1.28199
1.15706
0.122054
-1.81611
1.69406
-0.284126
0.35598
0.0451947
-0.0345821
-0.0106127
0.0372169
-0.630444
-0.0438197
0.197403
-0.153583
-1.4335
-0.382402
1.21854
-0.425579
0.676867
-0.251288
-0.278047
0.0209248
0.30778
-1.39351
1.08573
0.435677
1.03866
-1.47433
0.833575
-1.40328
1.68393
-0.280641
-1.45057
1.08726
-0.0413039
-0.0811432
-0.775243
-0.492652
-0.544304
0.131116
0.413189
-1.79711
0.764387
1.30716
-1.50208
0.399722
1.34618
-0.609195
0.627179
-0.0179842
0.618374
-2.05059
1.43221
0.345299
-0.565837
0.220539
-0.689719
-1.041
-1.35952
-0.0525862
-0.668663
-0.00902417
0.384228
-0.240729
-0.143499
0.767445
0.0276724
-0.0573955
0.0297231
2.0396
-1.14344
-1.37767
3.04087
-1.66321
0.527122
0.398472
-0.925594
-0.703184
0.419058
-0.469401
-0.0749037
0.746271
0.474863
1.87008
-2.67788
0.412133
0.149845
1.20812
0.87157
0.286161
-1.784
1.96886
0.167985
-0.829748
0.661763
-0.178466
-1.64968
1.82814
-0.387484
0.440752
-0.0532682
-0.524282
0.584598
-1.1225
1.51645
1.57615
-0.67597
-0.77088
-0.186807
-0.013659
-0.834394
0.848053
0.742941
-1.56475
-0.180185
-0.931387
1.11157
-0.205305
0.527427
-0.322122
-1.28052
0.0600656
1.22046
2.54077
-1.13109
-0.0198269
0.192327
-0.1725
-0.450272
-0.0448946
0.392224
0.729472
-1.1217
0.245156
-0.307106
0.06195
0.415818
0.280713
-0.696531
-1.20803
2.80461
0.205085
0.00809128
-0.500283
-1.00574
1.50603
-1.65113
3.0207
1.77898
-1.3433
-0.732378
0.458427
-0.268887
0.017188
-0.625636
2.1486
0.258334
-1.52317
1.26484
2.59418
0.405691
-2.99987
-0.854497
1.33075
-0.476252
0.771139
-0.760761
-0.836017
1.59678
0.176405
-0.10725
-0.0691546
-0.564366
-0.973431
1.5378
-0.499113
0.214255
0.095126
-0.119475
1.01396
-1.57832
-1.40497
-0.424867
1.82984
-0.0740804
-1.00131
1.07539
-0.151242
2.19755
-2.2228
0.0252465
0.434251
-0.247981
-0.18627
0.0263552
-0.63555
0.503483
0.514204
-0.645002
0.196225
-1.6171
2.0385
-0.4214
-0.53177
0.531572
0.415172
1.01146
-1.81702
-0.601023
0.027771
-0.206074
0.178303
1.06519
-0.193615
-0.423161
0.467478
-0.044317
0.657631
-0.597868
-2.31278
0.757717
1.79917
0.346268
-0.210683
0.514254
-0.433348
0.96047
1.73033
-0.999919
-0.438631
0.0154704
-0.201881
-1.29138
0.434006
0.465981
-0.438136
-1.83911
0.0371011
-0.12736
0.442026
-0.0967275
-0.141908
1.97544
-1.83354
1.69519
0.0859738
0.407059
-0.139789
-0.267269
0.564479
-0.53583
-0.0286491
-0.529221
0.184304
-2.15681
1.09873
0.564037
-0.0191227
-0.544915
-0.00279615
0.418513
-0.415717
2.10225
-0.0302597
-2.07199
0.345325
0.018962
-0.364287
-0.27467
-0.5391
0.477098
-0.0556677
-0.0887883
0.084411
0.00437733
0.795306
-0.13209
-0.663215
-0.0115662
-0.0772221
2.34532
-1.37096
-0.058146
-0.301386
0.359532
-2.05014
0.433039
0.0557182
-0.173311
0.73031
-0.795722
0.370143
0.017622
0.047371
0.516727
0.313492
-0.83022
1.10259
0.273157
0.789324
-0.621339
0.438755
-0.38419
0.185434
-0.645353
1.21422
0.0416686
-1.25589
1.10652
-0.134105
-0.972417
-0.948143
-0.564283
-0.647588
0.151399
0.496188
0.704716
-0.803322
0.0986055
2.191
-0.0606222
-2.13038
-0.579633
0.276733
0.3029
-0.988665
1.35294
-0.364273
1.05907
1.18224
-2.24131
0.669844
-0.738054
-0.541791
0.896689
-0.354898
0.456328
0.186951
-0.643279
-2.09288
1.28929
0.803586
0.0737248
0.0106862
-1.68997
0.285002
0.63555
-0.379676
-0.255874
0.895871
-1.18654
0.290674
-0.198266
-0.388669
0.345593
1.85196
1.6444
-0.284134
-1.36026
-1.64454
0.241251
0.653691
-1.11695
1.46118
-2.45377
0.992585
-0.217855
0.58663
-0.00478269
-0.749824
0.596576
-0.333328
0.433631
-0.281387
-1.53014
1.81153
1.04256
1.20879
-1.47766
1.56334
-0.0856831
0.215443
0.168785
-1.35157
-0.445911
-0.24663
0.276324
-0.0296938
0.998399
-0.255183
-0.743216
0.0824598
-0.0446445
-0.0378153
-0.190916
1.08679
-1.18988
-0.614792
1.80468
-1.58896
-0.499617
2.08858
0.898631
-0.725971
-0.17266
-0.40305
0.0469629
0.356087
0.0812882
0.0735995
-0.154888
-1.92844
0.0811872
1.84725
0.0478482
0.39566
-0.443509
1.56483
-1.75311
0.188277
-0.955428
0.903707
0.930923
-1.83463
0.0243746
-0.271005
-0.0867779
-1.48531
1.57209
1.22692
-2.16083
-1.89433
1.64899
0.245343
0.290094
-0.0449379
1.47672
-1.06155
-0.134352
-0.387428
0.52178
-0.0186928
0.3075
-0.288807
-0.499612
1.68178
-1.18217
2.39546
-1.34952
-1.04594
2.03839
-1.94659
-0.0918045
1.46503
-0.583333
-0.881692
0.0838137
-0.468635
0.384821
-0.597385
-0.015901
-2.03028
1.78826
0.242012
0.117593
-2.14787
-0.261854
1.32686
-1.065
-1.08487
-0.890517
0.40825
-0.341269
-0.0669812
-1.59821
-0.451934
-0.384595
0.264421
0.120173
-0.227867
0.448192
-1.8861
1.81165
0.0744485
-0.113403
-0.0483167
-0.0543115
0.369285
-0.0239604
-1.15453
0.207749
0.301137
-0.344711
0.0435736
-1.07126
0.864277
0.20698
0.730493
-0.0260543
-0.544839
1.22505
0.144152
0.72472
-0.943228
0.396071
0.547158
-0.210574
1.02647
-1.27333
0.80526
0.468074
0.0850409
-0.0113161
2.20884
-1.16628
1.74796
-1.12958
-0.394332
-0.346325
0.740656
1.02455
-1.83726
0.812712
1.13689
-1.21097
1.23751
-0.683086
-0.554422
-0.0102055
-1.05926
-0.214076
-2.60751
4.04845
-1.44094
-0.0460133
-0.702388
2.19368
-2.1074
0.509197
0.53742
-0.408747
-0.220879
0.210386
0.278224
-0.00841225
-0.871165
-0.4262
2.62149
-1.36276
-0.8672
0.4439
0.423299
0.110167
0.442655
-1.5116
-0.546387
2.05798
1.47216
0.43528
-0.00850895
-0.294584
0.303093
1.64083
-0.360998
0.141344
0.219655
1.31825
-0.104028
-0.754345
-1.96653
0.334533
-0.441646
0.0208976
0.420749
1.26386
1.50012
0.857002
-0.771197
-0.0858057
1.94774
0.0906488
1.23108
-1.75034
0.519251
-1.63666
-0.0120591
1.64872
-1.64442
2.12831
-0.483897
0.28781
-0.0112614
-0.276548
-0.887254
2.11417
-0.241471
-0.508849
0.75032
0.0700814
-1.54774
0.0814078
0.387297
-0.468705
-1.87205
2.41363
-0.541581
-0.515378
1.1209
-0.605518
2.32244
-1.02218
-1.30025
0.032886
-1.19512
1.16223
-0.0293787
-0.00520341
-0.956873
2.01594
-0.538657
-1.05024
1.96229
-0.670108
-0.374754
0.316608
-1.70627
0.0696014
2.12852
-0.741506
-0.026991
-2.4155
0.470286
-0.0577197
0.787943
0.719813
-1.50776
1.09373
-0.293964
-0.799761
2.93049
-3.67782
0.74733
-0.310497
0.0216798
0.288817
-0.425401
-0.97066
1.39606
0.715383
-0.529949
0.18877
-0.0213902
-0.16738
0.256911
0.494666
-0.751577
0.155792
0.252458
-2.07832
2.39969
-0.321378
-0.435484
0.0479999
0.892974
0.441202
-1.33418
0.975322
1.12617
-2.1015
0.365174
0.959457
-0.0131044
2.03832
-0.00822319
1.57167
-1.56345
-0.0191344
-0.00679495
0.0499029
0.0294869
-0.0793898
2.42166
-1.91113
-0.510535
0.707025
0.530482
-0.157976
0.174426
-0.0164499
-0.526022
1.57255
-1.04653
0.00984937
0.338819
-0.348669
1.23893
-1.83639
0.597465
-0.610064
-1.02166
1.63173
1.57884
-0.284792
0.54346
0.550265
-0.0357326
-0.594707
0.630439
0.587767
-1.61068
0.536782
-0.831825
0.295044
0.379924
-0.118016
-0.261908
0.0959331
-0.125312
-0.132837
1.38808
-1.25524
-0.296931
2.11421
1.50074
-1.24216
-0.258588
1.27799
-1.05973
-0.998221
0.355039
0.643182
0.147667
-0.853892
0.486888
-0.180908
-0.30598
0.128771
0.278287
0.29047
1.45933
-1.7498
0.411789
0.383517
0.251362
-1.84033
-0.876279
0.375796
0.500483
-0.648951
-0.506535
1.15549
0.974428
-0.4577
-1.67427
1.09391
0.610236
-0.489582
-0.120654
-0.719893
1.66036
-0.940468
-0.848024
0.927382
-0.827572
1.19856
-0.370987
-0.554629
1.45526
-0.900635
-0.0464078
0.423847
-0.37744
-0.518664
0.515868
-0.493815
-0.817582
1.09977
-0.28219
-1.08181
1.39879
0.984164
-1.05406
0.0698924
0.311858
0.315307
-0.627165
-2.15764
1.46721
0.690426
0.0846674
0.104234
-0.188901
0.189616
1.12557
-1.62518
1.75018
-0.725626
-0.52062
-1.47683
-1.39855
1.39033
0.93761
0.025888
0.676206
0.264392
-0.940598
-0.66474
0.621064
0.043676
-0.439927
-0.203606
0.643533
-0.53538
-0.770971
1.30635
0.0721705
0.640473
-0.712644
-1.43981
-0.450805
1.89062
-0.367308
0.679166
1.72745
0.69421
-1.19641
-0.0666223
1.26303
-0.804937
0.349232
0.455705
0.00938066
0.372412
-0.473227
0.100815
-2.51518
-1.64167
1.10629
0.279301
0.405038
-0.321224
0.398279
0.60012
0.0992056
-1.62828
0.0668891
0.554536
0.184583
0.175755
-0.360338
-1.18979
-1.03655
2.22634
0.217314
-0.253047
-0.99969
-0.149597
1.14929
0.283777
0.346856
-0.630633
0.0184283
2.22733
-1.43563
-0.7917
0.354
1.2904
0.139029
-0.0413463
-0.999395
1.04074
-1.0729
1.86118
-0.788286
-1.10378
-0.455719
1.5595
-0.923077
0.381286
-0.729045
-0.269177
1.98713
-0.950873
-1.03626
0.666873
-0.177798
-0.489074
0.690525
0.155339
-0.845864
-0.341629
0.389477
-0.0267168
-0.126161
0.152877
-0.232388
-0.0464831
-0.41983
-0.0186806
1.10452
0.882605
-0.111483
1.17024
-0.832545
2.23352
0.626729
0.0401437
-1.64245
0.53867
1.45029
-1.23154
-0.228802
-1.27722
0.288556
0.956983
-1.21884
1.35768
-1.36582
1.63623
-0.0617218
-0.385575
-0.237047
-0.455435
-0.175107
0.630542
-0.59722
-0.0591648
1.49637
0.280257
-1.77663
-0.00330521
-0.487945
0.49125
0.0975949
1.12133
-0.865877
-0.255458
1.68444
-0.119609
-1.82213
1.98893
-0.166803
0.414463
-0.302636
-1.89265
-0.264987
-0.589787
1.84787
-0.0596098
1.01044
2.18543
-0.876573
-1.30886
-1.19777
-0.101168
1.29893
0.374996
0.939575
-1.31457
-1.38526
0.104738
-0.357026
-0.207001
0.564027
-0.934588
1.19292
0.304178
0.98209
-1.28627
-0.302183
-0.0839145
0.386097
-1.81801
0.196631
1.62138
0.833834
0.916343
-0.448884
1.00998
0.455044
-0.494614
-0.265989
1.58098
-1.91807
0.790696
-0.712691
-0.0780047
0.756971
-0.0871268
1.33847
0.0711321
-1.40961
1.40074
-2.23329
0.000276786
0.00941744
-0.75343
1.23477
-0.481344
-1.6343
1.54752
-0.024664
0.541921
-0.517257
-0.242974
0.285832
-0.0428579
-0.44306
-0.0812223
-0.530138
1.18383
0.442768
0.12127
-0.306218
0.330593
-0.409791
-0.244379
0.0262028
-0.0304628
-0.385299
0.370028
0.0152702
0.40627
-0.454247
0.0479775
-1.17616
-1.16719
0.213424
-1.21311
-0.011616
-0.534498
-0.0139153
1.11102
-1.09711
0.639246
-0.672711
0.349221
-1.44744
1.09822
-0.375192
1.46968
-1.09449
-1.65307
-0.76033
-0.947762
-0.0481142
-1.84622
1.33875
1.28274
-1.45506
-0.219214
0.598869
-1.06962
-0.821598
0.357881
-0.111899
-0.123098
0.234997
2.51207
-1.24821
1.25853
-0.48247
-0.454261
-0.315888
0.770148
-2.17069
0.955652
1.21504
-0.657357
0.580088
-0.777112
1.68082
0.318971
-0.182303
-0.284835
-0.576981
0.33551
0.659687
-0.579231
-0.0804564
-0.243098
1.73947
-0.526941
0.624901
-0.0979605
0.309345
-2.49888
1.18524
1.31364
0.509897
0.377099
-0.886996
1.12352
-0.837042
-0.28648
-1.05034
0.534961
-1.44455
-0.0409841
0.731509
1.76639
-1.94486
0.805845
-0.349518
-0.753594
1.34136
-1.58279
1.24193
0.340856
1.30812
-1.91894
0.610822
-1.35662
1.4569
-0.100286
0.753849
-0.964423
0.0272803
0.387227
0.511404
0.369616
-1.45909
1.14741
-1.93801
1.19713
0.740882
0.461784
-1.65955
2.85153
-0.0393234
-1.1716
0.244418
0.758275
2.03539
-0.695455
-1.33994
0.529841
0.537843
-1.18679
0.310987
-1.84463
1.74347
-1.40999
0.649234
0.927124
-1.54827
1.25858
0.289693
-0.947328
0.692035
0.255293
-0.333559
0.194463
-0.399768
-1.95253
1.37936
0.573164
1.25903
-2.14629
-1.98732
-0.0910006
2.40262
-0.941438
1.35543
-0.949717
-0.405714
-0.0449052
-0.289987
0.334892
-0.276331
0.356449
1.0353
-1.32976
-0.218515
0.2904
0.424983
0.389005
0.716978
-1.10598
0.748937
-0.435606
-0.119272
-2.01521
2.13449
-0.657616
0.733593
-1.66894
-1.03488
-0.811264
1.84615
0.494705
-0.617957
-1.35496
0.436333
0.918628
-0.222154
-0.00578777
0.227942
1.42271
-1.70409
0.390772
-1.1442
1.01788
0.985497
-2.00338
-0.678
-0.1892
-1.61512
0.46824
1.14688
-1.60083
0.990768
0.753087
-1.82598
0.893794
-0.103098
-0.146672
-0.0754819
-0.937331
3.53151
-1.15413
1.47565
-0.321522
0.834677
-0.067418
-0.767259
-1.66316
-0.0142013
-0.44393
0.102598
1.49686
0.24238
0.0600564
0.239927
0.928583
-0.219957
0.974723
-0.793847
0.35392
-1.77206
-0.114033
-3.68354
-0.0926387
-1.28003
0.346116
0.360865
-0.70698
1.21251
0.0865465
-1.29905
-0.215024
0.203762
-0.683271
-1.47354
-1.49364
-0.241049
-0.874718
2.27546
-0.636536
0.903577
-0.267041
-1.78402
0.594228
-0.57769
0.966695
1.9526
-2.09451
-0.860538
-0.540912
0.62026
-1.21333
0.142073
2.1205
-0.272623
1.51017
-0.918512
-0.591657
0.162023
0.169311
0.503528
1.95641
-1.83436
-0.0492918
-0.428747
0.629939
-0.91827
1.01517
-0.887609
-0.937908
0.408767
0.34601
-0.754777
-1.64549
0.046026
-0.260083
1.48488
-1.2248
-0.0599863
-1.76214
-1.29885
1.50738
2.59618
-1.14248
-1.45369
-0.210085
0.556117
1.82325
-0.863311
-0.959935
0.505264
-0.551747
0.0740096
-0.0241066
-0.338594
0.0276584
0.310936
-0.243653
0.91986
-0.914126
2.17316
-0.0380317
-0.303237
-0.5197
-0.179417
0.699117
-0.0345472
1.45725
0.796508
0.395386
-1.19189
-0.730812
1.12304
0.768004
0.804549
-0.652641
-0.223638
1.00196
-0.35438
-0.647577
-0.0475618
-0.00910119
0.056663
0.222315
-1.44738
1.22506
-1.76371
0.27007
0.417695
-1.23275
1.14011
-0.00958425
0.514848
0.264723
-0.901259
-0.841147
0.51597
-1.92369
0.615118
-0.881217
0.125884
-0.772019
-1.18208
1.9541
-0.694885
0.0812216
-0.0885126
0.00729094
1.80926
-1.41127
1.41808
-1.04309
0.252298
1.01812
-1.27042
0.321483
-0.678509
-1.54467
1.58346
-0.038789
0.880831
-0.447168
-0.433663
-1.02655
2.15816
-1.13161
1.81256
-1.2391
-0.573462
1.1583
0.123403
-1.2817
-0.969192
-1.52969
-0.600099
-0.0685637
0.464444
0.797087
-0.0238208
0.18381
-0.159989
-1.28345
-0.331666
1.28013
1.16779
-1.01196
1.24696
-0.235008
-0.34946
0.490804
0.0441834
0.678832
-0.723015
0.0979141
-0.624855
-0.204041
-1.74849
-1.34423
0.605254
0.00498217
-0.422034
-0.222242
0.142055
1.38203
-1.52408
-0.964751
-0.18978
-0.022484
1.36815
0.137647
-0.473614
-0.0295911
-0.0783623
0.107953
0.216511
-0.725927
0.509416
0.920911
-0.306288
1.62266
1.61623
-0.737824
1.78508
-1.05148
-0.222578
-0.474142
0.69672
1.40324
0.187553
0.0111292
-1.3098
0.884394
0.57877
-0.613318
-0.867875
-1.17229
2.04017
-1.14181
-1.02888
-1.92894
2.0117
-0.082757
0.601819
-0.647524
0.472417
1.09635
0.519886
-0.661524
0.469277
0.192247
-0.821913
-1.07373
1.70575
-1.87065
0.164905
1.94523
-0.473065
0.810144
-0.273362
1.15523
-1.8385
0.824224
-0.681741
-2.1536
3.38925
-1.23565
1.1823
0.987685
0.618143
-1.60583
2.017
-1.16856
-0.848443
-1.07527
-1.40555
1.97529
-0.569737
1.00944
0.500734
-0.538451
0.528867
0.804075
1.51836
-0.406764
0.361859
0.0504793
-0.022807
1.80155
-1.00204
1.00547
1.5066
-0.783186
0.421966
0.36122
0.420484
-0.814816
1.40685
-0.0683802
0.605415
0.750016
-1.25779
-0.180632
1.43842
0.35551
-0.0517096
-0.303801
0.29183
0.142421
0.257521
-1.90194
-0.528172
0.565388
1.28458
-1.15025
-0.134322
0.289603
0.712354
-0.284842
0.145052
0.448727
0.467737
-0.916464
-0.77881
1.95525
-0.387925
-0.865663
2.07686
-1.21119
-0.468541
0.725452
0.151776
-0.453959
2.05901
-1.04457
-0.657928
0.899834
0.223688
0.558115
-0.569731
-0.322167
0.275759
-0.56603
-0.26696
-0.0110869
0.554489
-0.299747
1.53399
-1.23424
0.0238753
-0.0888974
-0.571535
0.184107
-0.627806
0.0277074
-1.46295
0.962665
0.431947
0.464742
-0.952307
0.330366
0.621941
0.425422
0.143533
1.52848
0.952485
-2.48097
-0.196397
-0.0323729
0.22877
1.17813
-2.55579
1.72022
0.875954
1.46513
-1.32307
-2.03119
-0.1675
0.0264478
0.286906
0.837741
1.07886
2.0765
-3.15536
0.68354
-0.0442939
-0.0554461
-0.59388
-0.189306
-0.658445
-0.793081
0.940748
2.27021
0.770665
1.05115
-1.03723
-0.0139202
0.355362
0.0146669
-0.125643
0.468427
-0.0621574
1.44249
0.362161
-1.80466
0.663528
-0.00384081
-0.426207
0.260921
0.165286
-0.642672
0.0101919
0.63248
0.566859
0.970957
-1.53782
0.445352
0.529075
1.26408
-0.0288255
-0.494273
0.781682
0.1469
0.202922
-0.264326
0.0614049
-1.68629
1.19505
1.56305
-1.23859
-0.324466
0.0290404
-0.268482
0.239442
1.60895
-1.74179
1.55815
0.387082
0.635137
0.782944
-0.248255
-0.0187053
-0.235902
0.0859067
0.149995
-1.00489
-0.233745
1.99742
-1.02205
-0.975367
1.53063
-0.655752
-0.874874
0.76435
-1.33726
0.572914
-0.173531
1.00055
-0.0315353
-0.81181
1.73644
-0.924632
-0.176015
-0.0598868
-1.21889
0.656264
-0.0313627
1.54901
0.010693
-1.5597
-0.528274
-0.21385
0.398433
0.195782
-0.0213562
0.532645
0.702129
-0.113963
0.196422
0.0230262
-0.139118
-0.193396
0.260133
-0.741706
0.994004
0.0312873
0.434693
0.0590952
-0.630786
1.65586
-0.0444493
1.0956
-0.254191
-0.220218
-0.460516
0.909243
-0.316794
1.59337
-1.27657
-1.48091
-0.209064
-1.27933
1.93708
-0.657747
0.00548613
0.650778
0.569899
-0.120656
-0.0411697
-0.433965
0.475135
-1.5472
0.50263
0.225528
-0.245355
0.688824
-2.20042
0.697928
-1.70367
-1.20025
1.98022
-0.720867
0.940501
-0.472763
0.0258317
-1.13043
1.35275
0.000845387
-0.285617
0.199389
-0.92536
-0.215463
-1.07951
1.29497
-0.550892
1.10153
2.48179
-1.5616
-0.920188
-0.412831
0.144664
0.409585
0.042048
-0.451633
-1.45854
0.304413
0.353542
0.0263828
-0.0123674
-0.236116
0.248483
0.777371
-2.0567
0.159918
0.800692
0.100015
-0.900707
-1.76472
1.44792
0.270875
0.0704415
-0.341316
0.252041
-1.06962
-0.260626
-0.00338476
0.26401
0.349626
-0.0787508
0.00432201
1.3252
-0.960026
1.07218
0.913591
-0.468239
-1.5201
0.485216
-1.19764
1.00396
0.193678
1.10267
-1.97054
-0.906882
-0.572503
1.47939
0.194409
0.705677
-0.544786
0.443441
1.98476
-0.272402
-1.71236
-0.0150852
-1.75698
1.17703
-0.0187318
1.02301
0.800232
-0.288686
-0.00589864
0.272134
-0.543566
-0.598784
0.0481262
-0.0759766
0.0278504
0.0512318
-1.29843
1.2472
-0.0681293
0.499077
-0.430947
0.814461
-1.65465
0.840186
-0.131643
-0.980496
-0.054612
-0.0092693
1.19021
-0.607393
-0.36714
0.974533
-0.695363
-0.738141
0.805848
-0.459838
0.410865
0.327843
-0.738708
-0.906756
-0.0455506
0.161077
-0.214624
-0.0970998
0.311724
0.14935
0.666536
-0.815886
0.650706
-2.77309
2.12238
0.105726
-1.01426
0.297136
-2.16919
-0.659842
-1.52426
2.1841
-1.69448
0.0765265
1.61795
-2.21724
-1.41555
0.0589309
-0.487561
0.508689
-0.0211277
-2.25055
-0.642466
2.08496
0.671692
-0.358199
0.137577
-0.598094
-0.317564
0.846639
0.271838
0.184701
-0.704401
0.0313283
-0.250843
0.219515
-0.339237
0.0658279
-0.171634
0.200675
-0.465336
0.975233
-1.12229
0.742277
0.380011
-0.608744
-0.432452
0.969108
0.369168
-0.013658
-0.268969
-0.392555
-0.865283
-0.489679
-0.986732
0.366621
0.620111
-0.147857
0.590502
-0.442646
-0.710659
0.92717
-0.176496
1.3113
1.96218
-1.16567
0.986718
-1.68208
0.777185
-0.981625
0.204441
0.201306
-0.00897876
0.0642728
0.00148142
-1.94626
1.17424
0.687696
0.84293
0.0277919
-0.359252
0.33146
-2.72562
1.04592
0.29844
-0.645633
-0.344455
-0.0308988
-0.393611
0.42451
-1.01287
0.405482
-1.87587
1.67183
2.15132
-1.13344
-0.36184
0.322463
0.0393767
-0.09884
-0.107235
-0.272993
-0.0488921
-1.40723
1.45613
-0.25967
0.227297
-0.152604
0.533946
-0.381342
1.76979
-0.211648
0.104507
0.0366282
-0.141135
-0.461644
0.492932
0.0609299
0.0296679
1.58507
-1.37325
1.83694
0.1108
-1.66401
-0.41216
1.68027
-0.0662001
-1.61407
-0.281915
-0.380344
0.662259
0.479125
-1.35029
-0.63075
1.46124
-0.830486
-0.012658
-0.0282541
0.0409121
-1.20423
1.14016
0.0640645
-0.690613
1.03983
1.71802
0.677439
1.41247
-0.538475
-0.873991
0.0708628
0.315535
-0.386398
-0.132444
-0.557751
-0.0396343
-0.546507
-0.0112441
0.0959962
-0.566214
0.470217
-0.153022
1.66806
-1.51504
-1.68047
0.594024
1.08645
0.517931
1.58432
0.058729
0.08655
-0.145279
1.00852
0.46071
-1.46923
0.131655
-0.243553
-0.561936
1.65225
-1.09031
-1.44475
0.186964
1.15716
0.51918
-1.42606
-0.00143379
-0.192084
0.193518
1.77791
-0.486159
-1.29175
0.693039
0.382678
-1.23826
0.812056
1.76271
-1.88198
-0.886471
0.158355
0.728117
-0.0495289
0.320136
0.268538
-0.588674
0.194537
-0.180327
-0.0142102
-0.0148526
0.21147
-0.196618
0.549031
-0.577709
0.028678
-1.03429
2.18953
-0.541537
0.527878
0.178834
-0.331438
0.674088
-0.9833
0.309213
-0.850967
-0.731822
0.120089
-0.0388011
-0.0725555
0.00792349
0.064632
3.9125
-1.35613
-2.55636
0.16358
1.121
-0.429977
-0.234763
-1.02042
0.186029
0.770763
0.713413
-1.48418
-0.0141786
-0.0300621
0.0442406
-0.0468569
0.611336
0.511522
-0.554777