/*--------------------------------*- C++ -*----------------------------------*\
| =========                 |                                                 |
| \\      /  F ield         | OpenFOAM: The Open Source CFD Toolbox           |
|  \\    /   O peration     | Version:  2306                                  |
|   \\  /    A nd           | Website:  www.openfoam.com                      |
|    \\/     M anipulation  |                                                 |
\*---------------------------------------------------------------------------*/
FoamFile
{
    version     2.0;
    format      ascii;
    arch        "LSB;label=32;scalar=64";
    class       volVectorField;
    location    "10";
    object      U;
}
// * * * * * * * * * * * * * * * * * * * * * * * * * * * * * * * * * * * * * //

dimensions      [0 1 -1 0 0 0 0];

internalField   nonuniform List<vector> 
13486
(
(2.99639 -0.557029 2.33915e-18)
(3.37256 0.358631 1.17335e-18)
(4.87123 -0.0106501 0)
(-3.97543 1.74231 -4.9157e-18)
(4.74349 -1.21146 8.02843e-19)
(4.74232 0.255236 -2.87438e-20)
(5.20026 -1.3128 8.48445e-22)
(4.03633 -1.51471 -1.27601e-18)
(3.96764 -0.8432 0)
(3.94593 1.21131 0)
(-0.171435 3.95796 -2.45646e-18)
(4.95446 0.193168 0)
(2.72197 -0.923558 -2.32262e-18)
(4.71662 1.23902 -7.50764e-20)
(5.12989 -1.01556 3.89027e-19)
(3.86412 1.19762 -8.32992e-19)
(1.95594 -1.12638 2.13682e-18)
(-2.18729 -2.12007 -5.40378e-18)
(4.39361 0.0593774 8.46564e-21)
(3.32471 -0.236545 -2.41268e-18)
(-3.92182 0.412618 -2.21816e-18)
(2.75843 -0.95135 3.02722e-18)
(3.42333 0.35077 -9.33202e-19)
(7.07667 -0.741199 0)
(4.02786 0.970748 2.83724e-19)
(7.02601 -0.744013 -1.01849e-18)
(0.995138 -0.256144 2.56783e-18)
(5.54199 -0.370645 1.42055e-18)
(4.72842 -1.13161 0)
(5.26816 -0.827162 -1.1261e-18)
(-3.12599 -1.50689 -1.73633e-18)
(5.83626 -0.452101 -7.86571e-20)
(5.89056 -0.0514794 1.25584e-18)
(4.33108 -0.282305 0)
(4.05848 -1.45881 0)
(1.37629 0.0754701 3.95696e-19)
(1.58637 4.47043 -2.97968e-18)
(3.21484 -1.50915 1.19455e-18)
(2.51293 -1.17589 -1.87811e-20)
(4.03152 -0.539455 1.20402e-18)
(4.83618 -1.75734 0)
(2.13431 -1.04933 -2.67936e-18)
(4.50283 -0.0677634 0)
(4.06013 0.829512 -1.33092e-18)
(4.10522 0.795747 5.53961e-19)
(4.92162 0.186954 2.26667e-19)
(-2.98957 -1.73122 6.0779e-18)
(5.08688 -1.38725 -6.0902e-20)
(2.08104 4.45136 2.23425e-18)
(5.1616 0.0266839 5.46226e-19)
(4.00111 0.0535249 1.44827e-18)
(2.27915 -0.171772 0)
(5.08776 0.579605 -9.36561e-20)
(3.3783 -1.27509 -1.74435e-18)
(-1.07832 -2.47353 0)
(4.68714 -1.23494 -5.35588e-19)
(4.50052 1.34882 -3.65628e-19)
(2.45554 -0.481796 2.94685e-19)
(5.9128 -0.00295838 1.52187e-18)
(2.2735 5.29765 0)
(-0.414085 4.75052 -3.09225e-18)
(1.52566 5.49349 0)
(6.51084 0.323856 -1.31434e-18)
(-3.84129 0.488949 -2.23726e-20)
(4.31662 -3.97053 0)
(1.18726 4.66974 -1.60423e-18)
(-4.37843 1.90669 -4.96159e-18)
(2.95976 -0.0696735 8.04503e-19)
(3.96957 -0.90375 -7.02339e-19)
(3.41668 0.221327 -8.39935e-19)
(-4.08435 1.94981 5.66475e-18)
(-2.26619 -2.1447 -1.58631e-19)
(4.04593 -0.302114 8.95769e-19)
(-0.654758 0.333527 -1.7368e-18)
(1.57992 4.96112 -4.28681e-19)
(4.53493 1.15181 8.98112e-20)
(2.23801 4.39498 1.20534e-18)
(5.1067 -1.08762 -1.68084e-19)
(-3.11018 -2.74736 -2.74468e-18)
(2.86787 -1.11509 0)
(2.1293 0.345514 -2.56438e-19)
(3.27595 0.545933 -7.3504e-20)
(6.62334 0.0819425 -2.03647e-19)
(5.11157 0.0311618 -3.91438e-20)
(2.98496 -0.567722 -4.605e-18)
(2.67232 2.83658 0)
(5.15978 -1.14573 3.04588e-19)
(4.00897 0.0898023 -2.19318e-18)
(3.76249 0.305673 -9.4914e-19)
(3.63152 1.66692 -1.0305e-18)
(6.18822 0.36327 3.67566e-19)
(4.29402 -1.33487 -6.71511e-19)
(3.11158 -0.729902 6.09421e-19)
(3.38606 -0.0131367 6.36838e-20)
(3.77328 -1.21891 2.82635e-19)
(5.21536 -0.790432 -1.54382e-20)
(0.978451 -0.325488 0)
(-4.57938 2.20605 3.24604e-18)
(4.06617 -0.53916 -2.30254e-18)
(1.74856 -1.13798 8.81558e-21)
(1.46323 0.165224 0)
(4.67063 1.23393 -4.0144e-20)
(-4.71375 2.00187 2.18793e-19)
(2.03244 -0.317238 -3.52592e-19)
(2.68302 2.69559 0)
(1.43117 -1.32477 1.64888e-20)
(3.93444 0.0630604 2.75867e-21)
(2.76052 -1.54152 -7.26629e-20)
(-3.50201 -2.56095 3.76355e-18)
(3.91355 -1.79379 0)
(3.03597 -1.4457 0)
(6.00936 -1.33647 4.46791e-20)
(3.39439 -1.22935 1.12386e-20)
(4.30214 0.390104 3.87165e-20)
(2.32466 -0.257672 0)
(2.88766 -1.42624 -1.06013e-18)
(4.00945 0.993218 0)
(4.57769 -0.242717 0)
(4.02296 -0.286872 0)
(2.3306 5.16763 -1.97763e-18)
(-1.03516 -0.897455 1.94702e-18)
(-0.9361 4.71906 0)
(3.71845 -1.10313 0)
(2.35329 -1.10759 1.81519e-20)
(3.85848 -1.40454 0)
(2.59131 -0.238402 0)
(4.57865 -0.60251 2.59766e-20)
(4.31139 0.129812 5.58701e-19)
(3.73154 -0.141364 -7.22974e-20)
(5.1564 -4.53142 -2.44237e-18)
(2.21428 -0.0434381 6.18657e-20)
(-1.91934 -2.08615 -1.6011e-18)
(0.813237 0.556456 2.83889e-18)
(-0.369563 0.0736081 2.48675e-18)
(3.99794 0.0258261 -2.34337e-19)
(3.78692 0.665735 -1.12661e-18)
(1.47001 1.09717 -6.93298e-19)
(3.94184 -1.77338 0)
(3.16102 5.0453 7.56028e-19)
(4.10637 -1.23317 -4.51486e-19)
(5.66902 0.0914603 -1.32985e-18)
(5.13362 0.627072 6.86853e-20)
(5.47078 0.0726883 0)
(4.10499 -1.56795 0)
(4.3113 -0.0883831 9.76018e-20)
(6.80417 0.435419 -1.60948e-18)
(4.1992 0.499503 4.26244e-20)
(0.719381 2.71388 0)
(5.24002 0.0335732 0)
(4.64745 -0.976318 0)
(4.02973 0.0330545 2.31898e-20)
(5.00488 -1.19609 0)
(2.07473 0.27117 2.69347e-19)
(3.23838 0.521282 -6.30825e-19)
(4.30912 0.52702 0)
(5.5325 0.0381096 0)
(3.58931 -1.68029 0)
(-0.680888 -0.467738 -2.697e-19)
(3.57164 -1.456 2.50255e-18)
(8.19179 -1.11801 -3.07785e-18)
(5.19704 0.0366797 2.71804e-19)
(3.59344 -1.40552 -3.82582e-18)
(7.30189 0.240706 -1.9125e-18)
(1.96429 -0.939433 1.18383e-18)
(2.67107 -0.412599 0)
(4.89831 1.23867 -7.6036e-20)
(4.58879 1.12716 3.90326e-19)
(1.1857 -0.4025 -2.8395e-18)
(4.03618 0.67468 -1.50792e-19)
(-0.350931 0.0625691 6.70273e-19)
(-0.395255 0.708256 1.02341e-19)
(4.30307 0.473985 4.60398e-19)
(3.99414 0.167038 -1.83769e-18)
(4.94996 -0.449275 3.532e-20)
(3.36578 0.324162 -3.36321e-19)
(-3.03702 2.4724 0)
(4.66958 1.77176 -1.09966e-19)
(5.81096 0.151613 1.7769e-18)
(3.94824 0.0466417 -2.32084e-18)
(5.37866 0.165684 0)
(4.14479 -0.63863 2.42566e-18)
(4.28165 0.290362 8.05172e-20)
(5.16336 -0.33649 -2.88319e-20)
(0.24175 0.0880494 0)
(4.68301 0.0172061 6.11795e-20)
(5.09509 -0.346078 -6.33957e-19)
(4.08983 -0.60125 -4.12447e-20)
(5.04918 -0.638192 -2.95779e-19)
(4.81967 -1.69492 0)
(2.68601 -1.29734 -1.33138e-18)
(2.20654 4.7054 0)
(4.77319 0.0155817 0)
(2.91543 -0.828359 0)
(2.77254 1.34395 -1.34172e-18)
(3.02263 -0.811995 0)
(-0.483797 3.66472 -6.67513e-19)
(4.25954 -4.4265 5.2776e-18)
(5.18073 0.0303751 1.71709e-19)
(2.63163 -1.2985 -5.11476e-19)
(4.86602 1.16015 1.92576e-20)
(-3.14351 -1.88181 1.99014e-18)
(4.3366 0.161614 -1.70074e-20)
(3.09046 -1.49345 -1.38908e-18)
(3.83869 -1.68095 2.39422e-19)
(8.28759 -0.232255 3.93899e-18)
(3.13973 -0.779074 1.72691e-19)
(-1.93782 -3.31474 -2.13159e-18)
(3.86332 -0.195841 1.84087e-18)
(2.79121 -0.762744 0)
(4.67307 0.0238485 0)
(5.53222 -0.437457 9.74431e-19)
(7.3335 -1.75 2.44838e-18)
(3.35711 -0.208199 2.19981e-18)
(3.92455 0.0632905 2.78028e-21)
(4.74621 0.330879 3.31045e-20)
(4.18003 -1.7722 1.01407e-19)
(5.32078 -0.707309 0)
(3.65253 1.61208 2.42879e-18)
(3.27476 -0.767439 0)
(5.90621 1.21161 0)
(1.58202 -1.24717 -4.03181e-18)
(5.3187 0.0971482 0)
(4.06951 -1.22818 1.04625e-18)
(5.15026 0.0497987 0)
(4.89149 0.728772 -1.27255e-20)
(2.76166 -1.29453 8.35075e-19)
(4.955 0.562895 -7.89498e-21)
(-2.66307 -1.67369 1.63518e-18)
(4.09657 -1.39201 3.60222e-20)
(5.11561 -1.54087 -1.45509e-20)
(4.16281 -0.63654 -7.8013e-19)
(2.89391 -0.424696 2.46701e-19)
(5.72477 0.0588917 1.66318e-18)
(2.15518 -1.05121 9.16278e-19)
(-4.32077 1.00885 0)
(2.51219 -1.22129 9.93749e-20)
(4.8484 -0.543921 4.53518e-19)
(4.71677 -0.0132973 -7.46177e-20)
(2.34063 -1.12959 2.63865e-18)
(5.0212 -0.136404 0)
(6.01905 -0.00931112 0)
(4.0097 0.12203 2.78466e-18)
(4.59429 0.0988251 0)
(2.26872 -1.13362 9.06013e-19)
(2.61109 -1.49997 -2.65999e-19)
(3.66492 0.00699108 0)
(4.81903 0.0329408 -1.40733e-19)
(6.0589 -0.978825 2.75917e-18)
(-0.0984842 0.0387611 4.07787e-18)
(4.0009 0.777591 0)
(-4.15109 3.2622 -1.38722e-18)
(2.25895 -0.199953 3.35023e-19)
(2.57616 -1.26731 1.32672e-18)
(2.62902 -1.37719 0)
(3.78323 -1.38318 -3.18491e-20)
(-2.50274 3.20772 1.21564e-18)
(5.87412 -0.397582 -1.00835e-19)
(4.25679 -1.92058 -1.28794e-19)
(-0.355114 -0.301644 2.83762e-19)
(5.99069 -0.0477273 1.11679e-18)
(3.59606 0.291924 0)
(2.48752 -2.10929 6.59521e-20)
(5.1695 -1.04567 -9.16821e-19)
(-2.83407 2.9506 -1.48981e-18)
(4.48453 -1.56649 -8.44708e-19)
(0.382152 0.059281 0)
(4.10087 -1.21897 -7.70713e-20)
(-3.85811 -1.03639 -2.65596e-18)
(4.2957 -0.0165347 -1.0564e-18)
(1.89281 1.91088 0)
(3.06722 1.55577 1.00023e-18)
(3.94141 0.0858524 -6.29727e-19)
(5.32877 -0.740558 0)
(4.88101 0.365113 1.46614e-19)
(2.73374 -1.3116 1.11671e-18)
(5.87386 -1.07429 -1.55022e-18)
(3.80256 -1.15886 0)
(0.897634 -4.32181 0)
(2.85527 -1.3127 3.05723e-20)
(4.46608 0.337558 -3.83082e-20)
(0.827508 -4.28798 1.30748e-18)
(4.38803 -0.436045 -8.79428e-19)
(3.8897 0.0955087 1.36691e-18)
(7.3272 0.757147 -1.74572e-18)
(-1.2375 4.5437 3.76237e-18)
(2.31555 -0.652653 4.6476e-18)
(5.59752 0.202368 1.29619e-18)
(3.7201 -0.198935 9.4613e-20)
(4.70136 0.76935 4.14145e-20)
(4.16604 -0.00740439 0)
(-4.67021 1.20747 0)
(1.86425 -1.97728 5.14097e-18)
(2.95459 -1.42606 1.0351e-18)
(3.99204 0.0415963 -2.30501e-19)
(4.85825 -0.525458 3.80117e-19)
(4.94981 -0.610142 0)
(4.44103 -0.0656077 -3.86055e-19)
(4.87827 0.305527 -1.26209e-19)
(3.87781 0.0486422 -1.25711e-18)
(5.05424 -1.34298 3.93801e-19)
(6.98157 0.539096 2.22934e-18)
(-2.14633 -4.01116 -1.20961e-19)
(4.29276 0.501378 3.32461e-20)
(5.72784 -0.504668 5.45593e-20)
(2.6815 4.47204 2.58459e-19)
(3.25966 -1.52644 0)
(0.468646 0.10275 0)
(4.57708 -0.0316149 3.07163e-19)
(4.72896 -1.19506 -2.4298e-19)
(1.56303 4.82835 0)
(4.27752 2.98734 -4.18217e-18)
(-4.0681 1.81216 0)
(4.50242 1.7269 1.92452e-19)
(6.17045 -1.26301 2.48498e-19)
(2.36578 2.98275 0)
(3.76294 0.61419 -7.08754e-19)
(2.47764 -2.18597 -7.80398e-18)
(3.75757 0.266256 -8.16132e-20)
(3.84978 -0.180211 -2.02522e-18)
(4.24274 -1.18291 0)
(2.07862 4.49307 2.94215e-18)
(0.674735 -2.13102 -4.57942e-19)
(3.96144 0.0654905 2.92727e-19)
(3.34795 0.0925673 -1.18863e-18)
(1.67839 1.05058 1.25657e-18)
(6.13642 0.128274 -8.26907e-19)
(4.65345 -0.874451 -2.47772e-18)
(4.42599 -0.427555 0)
(4.65916 0.240204 7.53958e-21)
(4.73247 -0.904717 -4.49797e-19)
(4.00726 0.0516437 3.18224e-18)
(4.36055 -1.33783 0)
(6.46443 0.61716 4.26051e-19)
(2.98234 0.528105 0)
(5.0464 -1.40895 -1.11695e-18)
(3.9075 -1.15033 -7.79179e-19)
(1.72685 -0.819872 1.07371e-18)
(4.93487 -1.18689 -7.20114e-19)
(4.03537 0.328038 0)
(2.56217 -1.83104 -8.35163e-19)
(4.14928 -1.26346 1.12668e-19)
(3.36532 0.0880096 1.1209e-18)
(4.75819 -0.92431 1.76729e-18)
(5.14899 -0.342514 6.27208e-19)
(-2.33203 3.34092 -2.59957e-18)
(5.06517 -1.07492 3.54148e-20)
(4.67312 -0.436726 0)
(2.24116 -0.806751 2.65307e-18)
(5.93531 1.15916 0)
(1.39227 -3.01047 1.34123e-19)
(4.69166 -0.204805 1.35727e-18)
(4.74768 0.310647 -1.22883e-19)
(4.94411 0.35648 1.15404e-19)
(0.722556 -0.367287 -2.94053e-18)
(3.89153 0.0533036 1.56828e-18)
(3.30844 -0.545415 0)
(-0.646276 0.288213 -1.53117e-18)
(4.61075 -0.615286 -5.06488e-19)
(4.56502 -1.40922 1.2401e-19)
(6.62741 -2.09377 1.8433e-18)
(5.04081 0.05068 0)
(5.90876 0.686493 -5.27037e-19)
(3.63784 0.157167 2.41723e-18)
(3.93391 0.098068 1.92033e-18)
(5.29582 -0.864677 0)
(2.07792 0.266293 4.30164e-20)
(4.98948 -0.575751 -4.25986e-19)
(-0.704979 -0.618653 8.79556e-19)
(3.2945 -0.239785 3.04781e-19)
(4.60319 -0.53916 4.79703e-19)
(4.65658 -0.0439294 -6.61658e-20)
(4.65466 -0.414448 0)
(4.78693 0.697064 -1.03564e-19)
(-3.94942 3.61312 1.29931e-18)
(4.72777 0.638399 -1.09491e-19)
(3.99535 0.0541726 1.21745e-18)
(3.02203 0.0286895 0)
(1.38843 -2.81762 -3.18719e-18)
(2.47437 3.02328 0)
(6.26356 1.97413 -8.6794e-19)
(4.33062 -0.0370213 0)
(4.31639 -1.49984 -2.39086e-20)
(2.81061 -0.369038 -6.4461e-19)
(3.10381 1.35218 2.32349e-18)
(-2.22053 -1.14418 -4.18168e-18)
(3.8714 -1.24091 0)
(4.51971 0.104069 -4.14287e-19)
(4.05091 0.348407 -7.40832e-19)
(0.305555 -0.437836 -1.16081e-18)
(-2.9069 -0.959171 1.89727e-19)
(3.41065 -0.237433 -3.32981e-18)
(5.39862 -0.628196 5.61625e-19)
(4.15287 0.326174 5.4135e-19)
(3.06711 -0.985627 0)
(2.86798 0.376146 1.27181e-18)
(2.23852 5.08369 -3.61507e-18)
(-4.28055 1.88978 2.92975e-18)
(-4.01491 3.3221 -4.39753e-18)
(0.535463 -0.823805 -2.22219e-18)
(5.65726 0.153397 0)
(0.198414 -0.59769 0)
(3.92364 1.96242 0)
(4.33013 -0.178603 0)
(1.1085 -0.448951 -1.37654e-19)
(5.15221 -1.44364 0)
(4.07239 0.410863 0)
(3.42314 0.0410634 4.59287e-19)
(5.79112 0.192601 -1.85719e-18)
(4.595 -0.391995 -1.15703e-18)
(3.4605 0.437012 3.95778e-18)
(4.01654 0.046125 -3.79272e-19)
(4.49986 2.87833 0)
(5.45221 -0.466275 0)
(3.86306 0.0478072 1.3425e-18)
(3.97512 0.046521 2.33948e-19)
(2.68415 1.45261 0)
(-0.0770062 0.277488 2.80571e-18)
(4.45624 -1.58211 9.5622e-19)
(-0.281608 1.28106 0)
(5.01363 -0.133079 6.46248e-19)
(3.9431 0.059109 -1.55871e-18)
(0.925568 -3.42643 1.07363e-18)
(2.22519 -0.783942 0)
(4.01951 0.343763 1.37797e-18)
(5.01245 0.310946 0)
(5.05448 -0.615747 0)
(4.35648 0.330333 -7.98196e-20)
(3.87833 0.0986687 7.2001e-19)
(1.24544 -0.295729 -3.31641e-18)
(4.51057 1.11162 1.73889e-19)
(2.84851 -0.775714 -1.15015e-18)
(4.3231 -0.151655 1.52592e-19)
(4.1605 0.335805 4.26442e-19)
(4.59863 0.730809 3.20384e-19)
(4.62492 -1.57289 0)
(6.05544 -0.754925 1.29911e-18)
(2.81875 -0.267704 0)
(1.45086 -3.05132 3.66249e-18)
(4.89621 -0.457056 0)
(3.00282 -0.0379177 1.69314e-18)
(-2.79269 -0.699909 -4.0659e-18)
(5.37995 -0.615302 0)
(-0.465616 0.129151 1.13233e-19)
(5.52624 -0.517621 -1.24248e-18)
(5.37939 -2.28525 -4.28769e-19)
(3.66917 -0.611905 3.16245e-18)
(2.8739 1.30155 -1.50225e-18)
(2.82643 -0.768511 -3.25294e-18)
(6.50853 1.92372 0)
(2.64399 4.83317 1.3773e-18)
(-2.44739 3.82974 -6.60948e-18)
(4.02503 0.372407 0)
(3.72281 0.308146 8.83593e-20)
(5.42517 -0.0557543 -1.15421e-19)
(5.20811 1.92423 0)
(4.00306 0.0227387 0)
(-3.1697 2.23625 0)
(-2.59481 1.95226 6.03981e-18)
(7.00308 0.69745 2.13008e-18)
(5.93493 0.634112 -2.97838e-20)
(4.44009 1.67501 0)
(3.54119 -0.441835 2.15955e-18)
(3.12433 0.338861 7.52837e-19)
(4.50034 1.02422 -3.77634e-19)
(-3.86494 1.2821 3.75893e-18)
(3.83618 0.22975 0)
(4.89826 -1.25267 0)
(1.7283 -0.377815 -1.79633e-18)
(3.01562 -0.960921 -8.00101e-19)
(4.03534 -0.42297 0)
(3.12675 -1.51403 -1.03859e-18)
(1.39945 0.000352434 -2.38821e-19)
(4.91229 -0.387007 8.4609e-20)
(1.90957 -0.902478 0)
(3.31612 -0.193751 -8.87321e-20)
(3.10861 5.06533 2.65826e-18)
(5.00464 0.276925 2.25397e-19)
(3.87769 -1.18976 0)
(2.32668 -0.711542 -7.00996e-18)
(4.78639 0.329708 1.3756e-19)
(3.99943 0.167832 2.87523e-19)
(6.32739 -1.48977 -3.93005e-19)
(5.01328 1.21188 0)
(3.4074 0.436561 -1.05613e-18)
(5.84866 0.776598 -6.88512e-19)
(0.950182 -0.984184 4.89829e-19)
(4.0255 0.0995469 0)
(-3.03154 -1.25662 -1.9275e-19)
(1.24617 -0.32088 0)
(4.01889 0.0964258 -1.11393e-18)
(3.98524 0.121373 4.81598e-19)
(3.80074 -0.0187058 -2.60957e-19)
(-2.76103 2.50381 0)
(4.23803 0.101417 -6.56305e-20)
(2.36449 0.646705 3.50245e-18)
(4.56622 -1.56151 0)
(3.36213 0.00776432 1.45377e-18)
(4.99329 -1.3737 -4.45077e-19)
(4.48027 0.00223039 0)
(-3.49924 -1.18734 1.40101e-18)
(3.52653 -1.34315 1.76722e-19)
(4.59449 -0.0548609 0)
(1.28755 -1.23445 4.42368e-18)
(3.69845 0.28745 0)
(3.63636 -1.66084 1.02955e-18)
(-4.20157 3.23614 2.78672e-18)
(4.04384 -0.668651 4.42993e-20)
(4.77393 0.276151 -1.31418e-20)
(2.85406 0.37339 6.72731e-19)
(3.66399 -0.665607 -1.17593e-18)
(3.81876 -1.11588 1.17451e-20)
(3.6719 -1.65284 9.39698e-21)
(4.55961 -0.531442 4.6791e-19)
(4.9959 1.20499 1.96636e-19)
(4.0198 -1.82428 0)
(3.99318 0.0425536 -1.07951e-18)
(0.459234 1.16 -1.51074e-18)
(2.87138 -0.270693 0)
(0.455423 4.61305 -1.33822e-18)
(4.13901 0.363336 0)
(2.62926 -0.812535 2.8069e-18)
(4.23714 -1.62998 0)
(1.28122 0.0311629 -6.8523e-19)
(4.7602 -0.208366 -7.66718e-19)
(-3.0445 -1.54226 2.73648e-18)
(-4.07431 2.60705 4.0779e-18)
(4.91241 0.0237039 -5.6605e-21)
(3.1798 -1.53071 9.40681e-19)
(3.6918 -1.09785 1.11386e-18)
(3.10452 -0.744111 0)
(0.772674 -0.505068 -1.65307e-18)
(4.68361 -1.46632 -2.03342e-19)
(0.781549 -0.523885 -1.92262e-18)
(5.226 -0.814836 1.45206e-20)
(3.04895 -1.20543 0)
(4.41502 -0.00872915 -6.61368e-21)
(0.132816 0.318293 0)
(-4.60666 2.2156 2.27489e-19)
(0.43116 -3.88846 -1.17505e-18)
(-0.210272 -0.280316 0)
(4.2316 -1.17204 3.35908e-19)
(4.08599 -4.0863 0)
(5.25556 1.71273 0)
(3.34433 -1.58091 -1.35982e-18)
(3.03723 0.451876 1.03518e-18)
(3.32413 -1.28043 0)
(3.64861 0.205118 -6.64903e-19)
(6.02417 0.392827 1.6189e-18)
(-3.69316 3.75462 5.68083e-18)
(5.19139 2.42774 0)
(4.28864 -0.04563 0)
(-2.10768 3.69566 -2.86008e-18)
(3.87288 -0.300032 0)
(4.89696 0.0546875 0)
(-0.817472 4.85637 3.34409e-21)
(4.25575 -0.860771 -1.59829e-18)
(3.61817 -0.919455 9.70119e-19)
(6.11294 -0.09949 1.62796e-19)
(0.82282 -0.481059 3.48232e-18)
(3.98535 0.109832 5.48124e-19)
(3.17525 -0.806563 0)
(4.27015 0.77427 -2.24441e-19)
(2.97106 -0.513548 0)
(4.33355 0.0955473 0)
(3.99477 0.204387 0)
(4.34392 0.298101 -6.51816e-20)
(3.8151 -0.180159 9.41775e-19)
(4.76894 -0.0486471 -1.94014e-19)
(3.25843 -0.817094 0)
(0.695948 -0.264617 -2.42255e-18)
(3.98791 1.84631 4.40861e-19)
(3.85382 -1.43482 1.09039e-19)
(4.04414 -0.257702 -1.25044e-19)
(5.81386 -1.11844 2.44193e-18)
(4.12972 0.0733508 -8.92012e-19)
(-2.65838 -0.613974 0)
(4.84608 0.322701 0)
(2.9581 1.35671 0)
(2.65988 -1.19422 -2.05346e-18)
(-0.875523 -3.85041 -3.70655e-18)
(0.241855 -0.393724 0)
(4.31483 0.795438 0)
(5.01129 0.857523 -6.76896e-20)
(4.05835 -0.0235902 -2.41771e-19)
(3.77802 0.977745 1.20031e-18)
(3.793 -1.66374 0)
(1.08541 -0.356563 -8.9375e-19)
(4.56975 0.11702 1.85269e-19)
(2.95316 -0.893049 -1.92622e-18)
(4.38099 0.108721 -3.8084e-19)
(4.48164 1.02689 5.83921e-19)
(7.22531 -0.904159 3.13477e-18)
(2.6228 -1.19672 3.55921e-18)
(4.48274 -2.91816 1.09494e-18)
(4.39861 0.300873 8.04859e-20)
(3.99674 0.0217146 -2.68364e-19)
(2.8741 -1.34732 -3.27744e-19)
(4.09387 -1.47069 -8.96935e-20)
(3.1177 3.52158 -3.32466e-19)
(3.12419 -1.50347 5.25808e-19)
(4.87667 0.185017 0)
(5.14119 -0.728849 -5.24737e-20)
(4.33215 -0.0456866 -1.06275e-18)
(5.55548 1.26759 3.43096e-19)
(2.90028 -0.830449 -1.75029e-18)
(3.82388 -1.37902 -1.17896e-18)
(4.20592 -0.00958006 2.18541e-18)
(5.46507 -0.113601 -1.23495e-18)
(4.05009 1.00859 -2.42551e-19)
(5.57877 0.186936 -6.81407e-19)
(2.48553 -0.455316 -3.81527e-18)
(4.39839 -0.00766435 -8.70388e-19)
(2.45586 -0.55378 0)
(-2.94009 -1.08851 -6.79979e-18)
(4.22008 0.0503987 2.23492e-18)
(1.03425 -0.0098375 1.14339e-19)
(-0.638094 0.435319 0)
(3.55031 -1.66261 0)
(4.02164 0.697001 1.05633e-18)
(2.2361 -0.434648 2.3603e-18)
(4.13444 -2.53797 -6.97899e-18)
(4.35688 -1.50765 -5.9434e-19)
(4.6784 -0.9146 1.3478e-18)
(6.03629 1.10523 0)
(4.04372 0.761643 5.79433e-19)
(-2.24272 -3.2429 2.32825e-19)
(4.76409 1.83509 2.0284e-20)
(4.09638 -0.583701 -1.39088e-18)
(0.860857 -0.500736 -5.66949e-18)
(5.68453 -1.1187 -2.28761e-18)
(6.16826 -0.79379 7.13176e-19)
(4.36161 2.08824 0)
(4.52357 -1.0953 -1.77048e-19)
(3.81913 -0.0207447 2.3935e-19)
(2.50661 0.332304 -3.48815e-19)
(1.99389 -0.970307 3.22239e-18)
(4.04489 -0.590028 2.07146e-18)
(8.44319 -0.144567 2.95551e-18)
(-3.80833 3.53983 -3.27504e-18)
(4.70686 -0.479005 -4.89596e-19)
(4.38486 -0.0257523 7.78002e-19)
(-0.776363 4.239 -4.60215e-19)
(4.60617 1.70604 3.57664e-19)
(1.64614 -1.1338 -4.80244e-18)
(2.40689 -1.17302 -1.10358e-18)
(2.61257 0.452134 0)
(4.45709 0.993163 -3.72818e-19)
(-1.97827 4.96577 -2.3496e-18)
(2.79734 -0.419508 3.49628e-18)
(4.147 -0.376231 0)
(7.12976 1.4328 -2.40225e-18)
(2.53879 -1.05963 7.97742e-19)
(3.98798 0.0811988 -2.35632e-18)
(-2.50845 2.65593 -2.88035e-18)
(3.37959 -1.2365 1.21876e-19)
(4.61851 -0.415515 7.81806e-19)
(4.51035 0.108167 6.07459e-19)
(3.68371 -1.68141 -1.43948e-18)
(4.65756 0.0887716 2.72737e-19)
(-0.343026 -3.74182 -9.65219e-18)
(4.27828 -0.0341153 9.97405e-19)
(4.29032 -0.131145 -6.61967e-19)
(4.2536 0.171822 -2.36718e-20)
(4.82649 -0.0504995 -1.4225e-18)
(2.45395 -1.08499 -1.54307e-18)
(4.3819 0.245543 0)
(-3.61186 1.27411 4.7266e-18)
(4.22586 0.0844817 1.72039e-19)
(2.32751 -2.94789 7.28499e-19)
(4.82902 0.0574228 3.15025e-20)
(4.55502 -0.936851 -8.26708e-19)
(3.99998 0.0414103 -1.87153e-18)
(4.15646 0.536678 3.2458e-19)
(-0.278657 0.526568 -2.89114e-18)
(4.99576 0.0533831 0)
(1.52744 -2.93304 1.58375e-18)
(4.67252 0.316405 1.25627e-19)
(3.0671 -1.17434 0)
(4.2392 0.135273 6.2052e-19)
(4.71526 0.243125 1.38169e-19)
(4.88036 0.0405298 1.78603e-23)
(5.02553 -1.78365 -9.194e-20)
(3.19664 -0.691357 0)
(3.58918 0.523504 1.93381e-18)
(7.80487 1.31558 -1.37736e-18)
(3.08347 -1.48854 1.15271e-18)
(4.17837 -0.406535 0)
(3.0378 0.387686 -2.99078e-18)
(-0.0669237 0.558567 2.11169e-18)
(4.75909 2.57374 -4.68629e-19)
(2.5069 -0.489257 3.67339e-18)
(5.01644 -0.0940903 2.95869e-19)
(-3.89715 2.57978 3.13053e-18)
(3.97496 -0.261119 -1.46337e-18)
(5.96524 -0.566644 -1.74207e-18)
(3.6118 0.156037 -1.40095e-18)
(4.1348 -0.0722508 0)
(3.99535 0.0452037 -1.01414e-18)
(-0.0496828 -0.300143 6.40824e-19)
(-0.618845 0.113325 0)
(7.21606 -1.41963 0)
(2.47894 0.432874 0)
(1.3981 -1.07452 0)
(4.07577 0.540356 0)
(2.36943 -0.429506 0)
(4.43377 -1.75405 -3.50293e-20)
(6.11268 0.727124 -1.06913e-18)
(5.00364 0.619096 0)
(3.55904 0.485335 2.92928e-18)
(1.55147 1.07463 1.03453e-18)
(4.14205 0.357365 2.27287e-20)
(-1.57869 4.9504 -9.52509e-19)
(2.37866 -0.0202226 -6.84055e-21)
(-0.608191 0.931901 2.52221e-18)
(3.85021 0.0293366 -4.81941e-19)
(5.27543 -0.0172803 8.08479e-20)
(4.02988 0.509253 -7.24241e-19)
(3.76465 0.260406 -1.88612e-18)
(3.88606 1.71125 -9.53087e-19)
(6.32576 1.91904 0)
(-3.45324 0.0859789 5.00371e-19)
(2.6716 -0.845829 -3.08766e-18)
(4.0155 0.0319019 -3.08128e-18)
(4.69818 -1.49938 -1.16439e-18)
(4.54122 -0.0025304 2.2726e-19)
(5.33503 -1.54843 1.67234e-19)
(4.43097 -0.700983 -1.79795e-19)
(4.26384 -1.15649 -1.15788e-18)
(4.05201 0.311849 7.74932e-19)
(4.58883 2.92892 0)
(3.74349 -1.0644 2.84174e-20)
(3.46119 -0.00287639 -4.25008e-19)
(5.2236 -1.49397 0)
(2.69466 -1.16826 0)
(3.82379 -1.74964 -1.27108e-20)
(-4.3392 2.7439 3.51728e-18)
(4.4111 -1.83659 -6.51306e-19)
(1.98925 0.36669 0)
(3.89688 -0.184768 -1.92984e-18)
(3.64085 0.295734 -3.65496e-19)
(-3.78562 0.214887 2.66953e-18)
(4.63085 0.0692857 7.25252e-20)
(-1.29614 1.42376 0)
(-3.67038 0.136467 7.11093e-19)
(4.58929 0.181347 0)
(4.46749 -1.15803 1.66726e-19)
(6.05344 0.666809 3.45309e-19)
(3.99414 0.0406528 -7.65902e-22)
(4.62312 1.14662 -6.96591e-19)
(5.16034 2.21616 -1.17753e-19)
(3.60287 -1.04267 2.3223e-18)
(-2.42169 -2.79288 0)
(3.25212 -4.73433 -4.74617e-18)
(1.55404 -1.65003 0)
(5.10519 0.602292 -1.21902e-19)
(-4.09973 0.978382 5.00292e-18)
(7.42988 -1.32207 2.43152e-18)
(1.89057 -2.45974 -9.74523e-19)
(-2.07231 3.68649 -7.31409e-18)
(2.73674 -1.33814 -1.33623e-18)
(2.75296 -0.856034 -1.76622e-18)
(2.95611 5.02017 1.1276e-18)
(4.23542 -4.73769 3.9312e-18)
(2.50738 -1.11075 1.27293e-18)
(2.86105 -0.910121 1.96953e-18)
(-0.720122 -3.42251 4.59313e-18)
(5.30631 -4.05333 -2.32677e-18)
(3.80664 -1.2242 1.17072e-18)
(-2.53311 -0.37834 3.72471e-18)
(4.65409 -0.0812663 1.19994e-19)
(1.33438 0.627077 -9.9626e-19)
(4.55905 0.701395 -2.43502e-19)
(4.61283 -1.25706 0)
(1.14108 -0.992143 -4.5299e-18)
(4.19462 -0.0337865 -1.21995e-18)
(3.98731 0.221658 0)
(5.05602 0.545728 0)
(1.50684 -4.98186 -2.30452e-18)
(6.36803 -0.311052 -1.71045e-18)
(4.73343 0.365215 -1.94893e-19)
(4.24698 -0.845647 2.09017e-18)
(3.85717 1.64799 8.36842e-19)
(3.24002 -0.016349 1.3817e-18)
(-4.23569 1.56093 -3.1413e-19)
(3.57372 1.02132 0)
(2.91534 -0.963482 1.90525e-18)
(-0.812872 0.286724 6.4478e-19)
(-2.24038 3.53997 5.62279e-18)
(3.57775 -1.38362 3.82543e-19)
(3.41689 -1.57268 -2.81054e-19)
(3.84468 -0.0195352 7.30169e-19)
(2.26755 -1.05825 7.95349e-20)
(5.16006 -0.863351 1.15549e-18)
(-3.92227 1.37937 -3.42611e-18)
(4.70019 0.360241 1.53799e-19)
(3.90405 0.0448909 7.81005e-19)
(2.45009 -0.553846 -1.51877e-18)
(3.87336 -0.262061 1.19616e-18)
(4.00817 0.998081 0)
(4.71882 0.663933 2.22645e-19)
(3.95458 0.0576424 1.75171e-19)
(3.07698 -0.684971 -6.02678e-19)
(3.5793 3.13289 -1.81399e-19)
(3.74865 -1.19546 8.65302e-19)
(4.18069 0.0343442 3.344e-19)
(2.87714 0.0839404 -2.30409e-18)
(5.27793 -1.32731 0)
(1.44007 -2.11672 -1.96586e-18)
(4.41093 0.149314 5.19362e-19)
(4.12472 -0.369671 0)
(2.92388 -0.111679 1.30604e-18)
(4.639 0.0925618 0)
(3.43935 3.09501 1.29569e-18)
(5.24444 -0.0500784 0)
(3.79079 -1.18679 0)
(4.95821 0.150163 1.2127e-19)
(4.6841 0.280766 1.70092e-19)
(5.61868 0.394408 -1.08401e-18)
(3.8465 0.209864 -8.67577e-19)
(3.13951 2.03376 -6.50804e-19)
(3.99725 0.181342 -3.53695e-19)
(4.13043 0.547052 0)
(1.13328 -2.0547 -3.13164e-19)
(4.85008 0.256912 6.33574e-20)
(4.38425 -1.15375 -3.05639e-19)
(4.61226 -1.24471 0)
(5.62553 1.24085 5.46152e-19)
(4.16775 2.92971 -1.19822e-20)
(4.67118 -0.094119 5.5562e-19)
(3.2604 2.00709 0)
(-0.211944 4.81509 2.77462e-18)
(4.0833 0.289934 0)
(5.17607 -0.748242 -5.56008e-19)
(-0.0671277 0.0148921 0)
(5.70565 -0.698666 0)
(4.57979 -3.36013 0)
(4.15727 -1.61755 0)
(0.21035 1.78485 -4.21516e-19)
(-2.57943 1.3566 -1.34399e-18)
(3.79821 -0.168068 -1.42037e-18)
(-3.42105 -1.18232 -3.37506e-18)
(2.66327 -1.15575 0)
(-2.60216 -1.68447 -2.95155e-18)
(-0.225809 0.100329 -4.03596e-18)
(3.26657 -1.53391 0)
(3.07501 -1.10162 -2.021e-18)
(2.36987 4.54111 -4.38735e-19)
(4.53643 0.679825 6.00963e-19)
(4.89314 -1.7784 2.99225e-19)
(3.74257 0.224565 0)
(4.49129 -1.51413 0)
(6.17254 0.511988 5.62365e-19)
(3.87191 -1.294 -2.03409e-20)
(2.61962 4.19064 -6.17348e-19)
(1.3609 -4.72974 3.20774e-19)
(3.99488 0.0129895 7.49459e-20)
(4.4215 0.980361 -1.07608e-20)
(4.04604 0.32063 1.11736e-18)
(0.242917 -1.93055 1.84176e-18)
(3.90101 -1.1092 0)
(1.92652 -0.275799 0)
(4.63558 0.0290147 0)
(2.69034 -0.506562 0)
(3.59707 -0.706415 8.6233e-19)
(5.47191 0.0346797 0)
(-0.724102 4.54165 5.11729e-18)
(5.8291 -1.73205 8.44477e-20)
(2.80025 -0.934797 -2.97834e-18)
(1.49192 1.45723 -3.39932e-19)
(-3.29066 0.467981 -2.55834e-18)
(-0.449907 4.12848 -2.29896e-18)
(4.16667 0.0626872 2.65453e-19)
(-4.02536 2.48208 -3.15099e-18)
(0.0347264 -1.86243 4.77854e-18)
(5.06946 0.131559 0)
(4.95206 -0.943075 0)
(3.10745 0.399828 0)
(4.54292 -0.960615 4.37611e-19)
(4.94667 -3.89052 0)
(3.64477 1.00673 0)
(4.00135 0.016363 0)
(3.662 -0.931518 8.98666e-19)
(4.14361 0.340669 -1.08657e-18)
(3.70513 0.23534 0)
(4.6549 -1.71253 -6.3854e-19)
(3.95173 0.316992 -1.05074e-18)
(4.78625 1.6246 -5.63211e-20)
(3.31489 -1.54806 1.21118e-18)
(3.76622 1.13141 3.53973e-21)
(3.72159 -1.46271 1.61143e-20)
(2.95653 -1.70211 -3.0181e-20)
(3.95402 -1.39401 5.54384e-21)
(4.65969 0.282478 -2.17161e-19)
(3.03496 4.58688 -2.04874e-18)
(3.6822 0.027325 -1.35144e-18)
(4.24776 -0.0296113 0)
(1.67243 -3.47182 -5.1488e-19)
(3.92697 0.0811711 1.41242e-18)
(-1.64841 -2.75794 2.41096e-18)
(4.42128 -0.657602 -5.22793e-19)
(2.2932 -0.478765 -2.58443e-18)
(4.67871 0.251904 3.44962e-20)
(5.88943 0.769831 9.86016e-19)
(3.99175 0.162003 0)
(3.73496 0.676337 -1.55906e-19)
(2.20639 0.0893421 6.48636e-20)
(3.92041 -1.25161 8.98095e-20)
(-3.88586 1.02841 -4.17079e-18)
(4.08329 0.00941755 7.28594e-19)
(4.50335 0.208308 -8.06476e-20)
(4.86711 -0.0896778 -2.23258e-19)
(4.59852 -0.0643879 0)
(2.53165 2.91536 0)
(3.05663 -1.46901 1.46589e-18)
(-2.31464 2.28 3.12537e-18)
(2.13571 0.318413 -5.10787e-20)
(3.92326 0.0796062 2.83199e-18)
(4.11622 0.585602 4.69525e-19)
(2.98216 0.339073 0)
(3.6322 0.054509 0)
(3.32759 -0.785069 -1.21349e-20)
(4.64754 0.112356 2.01892e-19)
(3.85661 1.068 1.63005e-18)
(5.36381 0.0425756 0)
(3.97855 -0.0564934 0)
(4.29395 -1.29602 1.60686e-18)
(4.12106 -0.377593 1.11504e-18)
(0.733064 2.13192 -4.05711e-20)
(3.37045 -0.133101 0)
(5.83304 -0.635335 7.14323e-19)
(5.32501 -1.79821 -3.76441e-19)
(-1.96495 4.52582 -2.62964e-18)
(4.08964 -0.092419 -1.53816e-18)
(6.19335 0.332822 0)
(6.38439 -0.150395 1.38207e-18)
(3.90885 1.44588 -6.10326e-18)
(0.0257181 1.69028 0)
(6.53338 -2.09642 1.38159e-18)
(3.84496 0.143048 -9.22993e-19)
(1.69594 -0.194715 -1.94825e-22)
(6.45717 0.283883 -3.59977e-19)
(3.39955 3.10393 1.32382e-18)
(4.14861 0.0430658 0)
(2.26915 -0.845153 -1.69946e-20)
(3.84907 0.574634 -3.95507e-19)
(3.01332 2.60145 -3.00566e-18)
(4.05819 0.49187 8.61898e-19)
(-2.35068 -3.08965 2.04711e-18)
(4.12226 0.0233064 -3.40212e-18)
(8.2137 -1.08511 -1.07058e-18)
(2.68198 -1.96292 2.9213e-19)
(3.58985 -0.855573 0)
(2.67389 0.065718 5.29643e-19)
(2.4437 -1.1348 1.01194e-18)
(4.6792 -0.212238 -1.49763e-18)
(3.96358 0.0654157 -1.27323e-18)
(5.08052 -0.738032 4.82252e-19)
(3.45239 -0.439816 3.18088e-18)
(4.46046 -0.0834862 -1.32028e-19)
(3.61148 0.0661558 7.95168e-19)
(1.50484 4.6066 -2.87151e-18)
(6.11928 -0.0827795 -1.82076e-18)
(4.64684 1.81871 8.12832e-20)
(4.20686 -2.29466 5.44931e-18)
(4.06834 -0.0354922 0)
(3.92013 -0.0676446 0)
(1.82843 -0.2651 0)
(2.80064 -0.873069 2.28028e-18)
(4.14668 0.073909 -2.04372e-18)
(3.61383 0.317495 0)
(3.16021 -0.724339 -1.79807e-18)
(3.60816 0.246777 0)
(3.61429 -0.641894 -1.41291e-18)
(4.3407 -1.24333 -3.45918e-19)
(3.85428 -1.04889 -1.28071e-18)
(4.23873 0.0424423 0)
(3.91564 0.0257093 0)
(4.02827 -0.341632 6.42976e-20)
(4.94132 0.498332 7.89755e-21)
(5.32529 -0.154531 6.04989e-19)
(4.4987 3.11904 -4.18956e-20)
(5.7873 0.0823138 0)
(3.5961 -1.34009 -6.52292e-19)
(-0.589427 0.126545 0)
(1.93957 1.52815 -1.30231e-18)
(5.19318 2.19563 0)
(4.48001 0.178505 1.52933e-19)
(2.49691 -0.418785 9.99891e-19)
(3.15824 -0.366832 1.00693e-18)
(3.30397 -0.128997 -9.49144e-20)
(5.74682 -2.04945 -1.22974e-17)
(4.06103 -0.434145 2.82782e-18)
(4.09688 0.521194 -1.98632e-20)
(4.97368 -1.38459 -1.88957e-19)
(4.08914 -0.941564 -6.36197e-19)
(-0.453912 0.131628 1.79026e-18)
(5.03218 0.817935 0)
(3.97009 0.069189 3.0585e-21)
(3.21324 -0.813535 0)
(2.47033 -1.25048 -2.1109e-19)