/*--------------------------------*- C++ -*----------------------------------*\
| =========                 |                                                 |
| \\      /  F ield         | OpenFOAM: The Open Source CFD Toolbox           |
|  \\    /   O peration     | Version:  2306                                  |
|   \\  /    A nd           | Website:  www.openfoam.com                      |
|    \\/     M anipulation  |                                                 |
\*---------------------------------------------------------------------------*/
FoamFile
{
    version     2.0;
    format      ascii;
    arch        "LSB;label=32;scalar=64";
    class       volScalarField;
    location    "1.9";
    object      p;
}
// * * * * * * * * * * * * * * * * * * * * * * * * * * * * * * * * * * * * * //

dimensions      [0 2 -2 0 0 0 0];

internalField   nonuniform List<scalar> 
13486
(
21.8611
17.2461
0.702903
-2.95443
7.80741
-3.14408
3.60944
12.8069
15.0041
8.10952
-129.843
3.32441
23.1104
-2.65035
5.68537
8.5116
-52.2021
0.380074
4.64705
19.5919
-2.43669
22.8949
16.8311
-22.3811
6.82922
-19.9267
-65.8413
-9.93346
-0.0100562
-8.79107
-1.97721
4.05614
-19.7547
-6.34333
12.8105
-0.00823175
-0.166033
18.2011
-1.49444
14.7366
3.30433
24.0297
0.2425
7.08512
6.91551
3.12811
-41.1939
0.015777
-0.133832
-10.4433
12.3347
-1.58249
2.38907
18.4592
-0.310707
8.1466
0.290361
-1.61131
-18.2998
-0.116095
-133.539
-0.0717971
-32.3186
-2.27619
-9.67064
-0.135769
-3.91064
21.7422
14.9295
-0.510713
-3.85682
-0.218121
14.8999
-49.1671
-0.0815522
0.243469
-0.0555264
5.5862
-50.2286
-2.6524
-0.00589101
17.3411
-33.487
0.685936
21.9575
6.07016
-2.44826
11.6451
14.4475
9.4455
2.85664
11.2275
21.019
18.5346
15.7391
0.0270391
-67.9597
-5.9581
14.7006
-51.7937
0.0860174
-1.97089
-6.07599
-1.62263
9.13668
-50.5286
14.3191
-1.61154
-49.3921
10.6982
14.9951
3.32782
18.4134
0.300674
25.658
15.2403
7.15278
-5.72632
15.0348
-0.206818
0.50407
-126.601
16.4225
-1.59793
14.6437
-1.47659
10.6011
2.79651
-4.98089
-8.3755
-1.4686
-38.6184
-60.4112
-36.0488
12.9663
11.5846
23.7192
10.9158
-0.155481
13.0671
-15.6491
2.15379
4.03887
-2.59924
0.34967
-49.5393
-2.99028
18.7133
-11.0104
-0.0199084
7.75129
5.5565
0.0257334
17.7797
3.57151
0.503909
9.02651
0.464361
16.5792
-1.2939
-8.22161
16.5647
2.09494
23.8687
-1.66912
-5.54249
-0.41295
29.4621
-1.71392
-36.6523
-58.0192
3.6244
9.54761
7.87361
0.0131655
-29.1246
-4.46412
-18.3378
14.3928
4.0532
14.0352
0.323999
6.21543
-55.2603
0.341605
-9.91921
-0.0124485
-8.01494
3.71401
16.1985
-0.156346
0.507909
-1.91119
19.0789
-2.23516
-122.896
-8.34766
-8.16838
20.1621
-4.40268
-2.06958
2.6176
18.1983
7.50845
-1.01972
-2.26341
-0.0561431
15.9158
-1.83684
0.458295
-8.85404
-14.7263
19.315
14.2782
-3.05575
-4.51489
-9.3455
9.65643
19.9784
-21.0515
-49.2165
-11.1399
13.3168
-8.48511
1.17024
21.4986
-5.67418
-5.72631
-3.89932
-2.93425
13.8513
-4.18931
-16.3215
24.5509
-4.55234
20.7755
-6.79011
0.553042
21.0002
6.45471
-19.6352
9.40805
0.346375
19.8539
-1.47751
16.5395
6.64911
-13.7567
-42.1888
8.08893
-22.3453
25.8701
14.5931
-1.69007
-3.08719
-39.291
3.9477
-4.36243
0.152448
-19.7061
15.8581
-1.35069
5.59585
-35.9174
8.72449
-56.7828
-3.89555
-2.38269
13.7558
0.0284669
14.9845
13.9617
-9.64948
2.3686
21.5689
-13.1121
-3.09511
-2.17895
-1.80563
-1.62502
-2.32719
12.1724
14.555
-43.8391
-110.448
-58.0315
-15.9757
-5.33307
1.36671
13.8886
-3.87947
-0.647107
15.9863
12.858
-6.45386
-7.46383
-8.19131
2.15204
14.8933
3.49585
1.85536
0.109371
-2.03643
4.25541
-0.206737
6.92155
-0.974446
6.65288
-2.64343
-0.104754
-29.1364
-2.85357
-1.773
3.38403
-126.026
11.8151
-0.682235
14.4083
15.9416
-4.29269
-0.138208
-0.731882
14.211
18.6706
24.6271
3.02237
9.47508
11.9622
1.04306
8.88477
11.7716
10.8209
2.58766
19.9472
3.4125
14.9114
26.7824
5.88087
8.59896
-1.40913
-4.1097
18.4105
8.6614
6.36569
-59.2676
-0.00369519
9.80123
25.7894
-21.2498
-0.809502
9.62
1.46035
2.19397
-70.925
14.7735
-0.107948
-52.4977
10.5076
-2.38155
-14.343
4.8904
2.72527
16.0713
13.9915
-9.26389
-0.0114725
-7.06366
-29.6416
19.8084
10.6363
0.141858
9.96561
1.13951
-28.8988
-1.83966
12.4339
14.1516
-1.10448
-121.416
-33.9095
13.7522
10.5082
22.9517
15.5508
-31.5343
-3.2304
0.247992
8.3357
-52.3025
-1.25268
19.0021
-10.1958
5.61311
21.0091
21.3044
-0.0702288
-3.25646
-26.3275
-51.0995
-16.3672
-51.6266
3.40722
13.0046
-1.34754
3.61025
-1.78192
18.3858
-17.8242
10.4207
16.4049
7.88464
-9.09162
-11.3092
14.8979
14.0735
18.0092
-50.5106
8.99429
-56.3328
6.61961
14.3777
1.70473
25.8223
9.05028
-6.75693
-7.68218
2.47362
14.497
-65.5362
0.281679
22.7058
13.0055
5.40694
1.32545
7.49606
-14.4219
22.7602
-0.762253
8.12628
21.3434
-48.4714
-9.89885
-34.3688
-11.2777
-6.18514
17.3852
17.3261
22.7686
-33.4448
-0.181184
-62.3529
8.84495
14.656
-10.2483
-11.2711
13.7755
-19.5038
-29.1551
-45.3792
-46.3404
-0.956564
18.3718
0.00271519
0.618832
-2.45784
13.7437
0.0315346
27.9108
21.3124
14.8411
12.3749
0.0842154
0.00197895
26.6637
-3.18568
-0.140362
-6.97084
15.0009
-57.3926
1.93785
9.82691
-0.139622
-6.78059
16.6869
-18.8898
-51.0021
9.03085
-1.31272
29.1793
9.16797
12.4908
15.7065
-32.1795
1.07788
23.3535
7.95655
18.8041
3.80935
3.51048
-2.7651
-2.58002
0.269071
-53.5239
14.8125
15.0453
-22.2478
0.0376401
-3.662
21.5544
17.4763
-3.19709
15.3012
10.8185
-6.4583
9.03919
12.5254
-60.3189
22.5117
0.0139423
-0.516356
23.8309
10.7324
-0.0343775
9.63071
-3.30956
-14.3271
5.61588
10.1639
16.5558
21.1274
-70.5236
7.33412
-71.3952
0.01854
20.6419
3.30446
-51.851
-7.02323
1.37693
0.205529
12.1416
-9.59692
-11.2631
15.3389
19.7088
-2.17191
15.7846
-48.9963
-35.6337
-15.464
5.18484
-70.2093
15.9784
0.844932
-130.383
12.6781
17.3979
-20.2765
-67.7216
12.5944
20.5526
4.25964
21.9965
0.834116
9.33553
2.61756
16.0129
0.348662
20.0364
-68.2554
3.94811
14.6321
-4.84485
-11.9611
14.1712
-49.6639
2.31109
17.5735
22.883
-4.14636
-1.0824
3.71434
1.64602
12.9612
10.1684
5.94744
-84.6734
-0.654
21.8302
1.76221
0.760928
-24.3299
22.9621
-5.43496
0.296739
13.5433
12.002
-2.61675
-4.3852
13.193
0.734053
-2.43555
4.83213
-14.453
22.2694
14.9477
10.0967
10.4941
0.191965
-16.215
24.888
3.89683
24.9736
-4.93933
14.0568
-0.0866003
-49.4109
9.9787
7.98338
26.0704
-16.5574
10.16
9.22407
-22.2698
7.83018
0.389797
-5.31841
14.4266
-66.8331
-11.3672
-15.0615
-1.29611
-5.13658
15.6266
-0.0204251
24.3464
14.6201
-0.560362
-33.5224
-8.61601
4.08689
-110.907
-3.06533
-52.5592
20.6528
0.00357148
0.289106
-81.1059
23.0985
0.0363528
2.74329
23.8573
12.4748
-43.1451
-2.20978
10.2676
0.513284
14.6181
0.32674
-5.54419
4.76001
13.2027
3.70607
11.8829
24.169
0.325803
-14.3405
14.1689
1.05821
-3.71309
10.2537
10.4075
5.92146
-46.9901
0.841488
-0.955898
1.21889
20.5885
3.80928
0.781318
0.757699
2.3775
-2.47402
14.8951
-0.214393
14.2137
13.8182
20.1061
0.351548
-9.85048
24.745
0.157214
-17.9424
15.1776
-14.8958
16.3315
0.325277
13.6423
-2.76953
-43.422
-18.0675
0.000501314
-50.7962
7.4292
25.4306
-5.05596
-43.4618
-6.35275
15.0636
-0.887426
5.93144
-97.0496
24.983
-44.8998
7.49183
-10.7198
8.04951
14.3594
5.81892
-28.8287
-1.93319
23.6014
14.003
7.07246
13.0047
2.2181
11.569
11.9917
8.24509
-32.378
-3.0252
18.0933
3.45978
-1.82945
12.8479
-14.2258
-4.99188
-1.11019
15.594
15.3931
-8.24289
0.522726
-39.2831
-1.98229
0.910761
-5.10011
2.45268
13.6139
-0.548953
-12.8445
17.3835
-0.705126
-6.21895
-1.45291
-7.79417
-8.56886
-16.7479
-1.0547
-53.3454
14.5973
23.1167
-0.0950729
-6.27301
23.8964
22.4066
-3.85805
-8.64266
15.4867
-38.9134
0.401236
-0.319963
-0.0237814
8.44596
-51.049
5.72011
9.36707
-7.016
-3.0636
-21.5377
-2.70026
12.7661
6.53224
9.21077
-11.2261
12.557
21.8764
-98.3216
-47.0782
16.8055
6.42365
9.31147
-1.44935
-8.49251
-12.6097
-2.4855
14.7294
25.0486
15.944
-0.0792952
-2.07291
14.2707
21.263
-4.30524
15.9318
14.3692
22.1758
3.71214
-0.948756
1.48339
-4.14606
21.8031
0.595316
1.23416
9.93012
-3.04252
3.30134
-2.07713
-15.4633
13.6722
12.5743
9.75111
6.57583
-51.8994
-4.65981
-4.69401
8.43046
-15.3279
-6.95621
0.283622
-53.5449
-134.238
7.23778
-8.56399
-40.7747
-36.0963
-5.44481
11.4447
-108.791
-24.5608
16.1549
-3.57714
22.979
-5.56625
-43.9781
17.6857
20.7409
-0.021158
0.35413
4.63613
14.8435
9.00702
-26.1028
-2.50175
-0.214895
-2.93343
13.6015
0.293996
8.16511
-0.851248
15.0078
-68.4751
0.355134
-0.110392
17.8765
-13.2758
-131.313
-24.7701
22.7555
-0.298894
-13.9069
-143.917
14.3685
-19.4443
-0.704496
3.02667
6.92356
-1.39755
10.3213
-9.85469
12.1318
13.729
17.1482
6.03793
-0.643816
-5.64369
10.708
-4.91977
17.9405
10.0956
-2.66827
-1.73005
-3.39392
-1.7016
-0.182172
16.3738
5.12898
2.44146
14.154
0.224002
11.7413
25.8194
-2.13955
-19.2456
9.54124
-2.37797
-1.09678
-3.53499
-2.46834
14.391
0.329605
0.211369
0.305762
0.835141
19.1666
-39.8
0.0298495
14.2614
-1.36732
20.4726
16.5716
19.6243
3.2793
9.509
4.27317
0.755883
11.3413
14.2849
-2.04955
-4.90502
-37.3581
-8.06499
-74.5
14.4586
-39.6622
-23.5282
-50.022
-2.08059
-0.131659
14.4315
0.0798
2.95095
-32.8313
14.1632
25.5671
-1.7518
-108.615
7.89702
-0.516852
14.2815
-1.32748
-1.50312
17.6682
-1.77529
24.248
9.91979
14.1269
-8.23328
18.8839
0.382087
16.5987
0.0093921
-20.5461
-4.53917
-18.7061
9.38587
-1.25582
-0.570135
22.8915
14.156
15.5766
20.7806
15.9166
17.7883
-4.60573
15.4529
14.1638
14.8024
-4.1805
-5.81316
-11.0362
-11.0883
3.65919
16.7825
-42.9975
23.3757
-13.1865
0.323549
24.7625
20.814
-4.71656
-20.2835
14.699
7.2686
1.4799
13.8716
-42.3372
-6.56264
14.105
20.3318
-1.45953
16.4915
18.7063
-0.0382102
-7.71703
18.7376
6.2187
-0.154238
-82.8214
0.628769
-15.1398
13.313
10.9455
-0.337887
-1.02007
-10.128
3.74955
-0.96961
3.13123
21.1581
-1.40936
27.6464
14.4923
4.54136
16.3188
-44.1634
-55.1867
-16.6393
14.3845
-1.48279
-32.2435
-2.00608
6.55144
8.29374
-1.26572
11.2126
-27.9759
7.75571
0.040609
-0.85243
11.7326
4.32183
19.088
14.6487
15.2318
14.0215
-4.64586
-16.5219
-13.1747
0.778029
-4.92877
-3.12885
11.561
-3.0554
-0.555385
-0.274588
1.44653
-98.5054
10.2378
6.65394
-2.37311
-10.6674
6.83921
-10.7828
-15.3334
1.64254
-1.33446
16.4576
10.4073
19.1265
-35.3126
12.7129
0.341007
20.3165
-0.700613
7.24427
0.573107
-2.69879
23.6933
24.0423
11.8023
8.74755
9.66623
13.6555
24.0119
10.3066
-18.2381
-88.64
2.56707
-11.7953
-45.6698
14.0371
14.0523
-1.53166
4.98403
12.7994
13.2132
26.1447
-47.3137
11.1362
-50.6499
-11.4889
20.7826
-3.24962
12.2447
-3.1042
4.11689
5.52333
27.1213
-6.4862
-10.9981
6.6913
1.80912
-66.8824
-41.1515
0.341971
16.0466
-7.60465
8.71321
22.3363
20.3662
-2.37878
-27.9669
-8.50844
1.99072
17.4878
13.8391
20.4652
8.55804
-146.787
21.4953
13.6967
-23.7234
11.5328
14.8577
18.6211
-100.736
-1.96624
0.00161553
12.0492
23.5585
7.35191
2.29657
-15.3709
26.2014
-110.395
-15.4204
24.4876
12.4486
-0.00786294
11.5879
-3.46788
8.35923
-7.09519
-112.754
-1.24982
-21.9129
-0.239417
-5.50104
-43.12
-50.6829
-41.3329
2.56015
-51.1733
-24.4713
11.8857
13.2294
8.72073
-27.3081
3.73425
1.71527
-4.97866
27.4315
9.9793
-11.7244
12.4341
-6.94766
-25.76
12.5714
12.5247
14.0739
27.7161
0.0353182
-3.19696
-22.4034
0.371109
10.2525
14.8432
-6.39924
21.7284
9.96454
15.265
-2.73923
-2.51611
0.359527
15.3664
14.3136
16.1135
14.3453
25.2905
25.1768
-7.0608
12.5084
18.5054
-11.3614
20.5453
-1.12567
24.8425
20.4334
-0.252901
16.3284
6.83493
11.4058
0.247272
14.7097
-15.964
12.6634
5.56767
10.4454
-3.11112
14.1902
-0.914388
3.51704
24.0088
23.94
9.82288
-36.4989
3.19196
2.56742
-3.04488
11.4907
21.4618
-37.9597
14.8563
14.1673
6.90637
15.2365
-54.4741
-3.02436
-0.355979
25.7059
4.19103
-12.3476
16.7091
-3.25742
0.305619
6.59779
2.51785
10.7749
7.04485
-8.26652
8.51219
12.0938
10.1327
11.2925
25.2112
20.5804
18.4963
19.3616
23.6673
6.97101
-1.2815
-0.13213
-14.6605
23.6525
-3.07633
14.4931
13.2407
-42.3753
7.80902
16.0161
-17.6258
7.04318
9.13431
28.0443
-71.1933
6.24273
-0.70078
17.0519
0.502994
-4.34862
23.309
19.992
14.2493
14.3669
-7.68734
7.56727
-53.3109
25.0991
0.0477041
26.9314
-0.217658
1.16779
-55.1641
8.85588
-47.9617
2.60224
-1.86628
4.34614
-1.50868
4.28731
-5.77879
0.0287621
-3.98954
-34.4403
-9.68583
-27.0517
-3.58937
-2.30954
-2.28105
-115.468
15.2999
15.5628
18.772
13.8588
5.74899
5.43044
29.0646
14.1346
-69.5415
0.0119742
-2.19888
10.8354
12.7669
21.7464
-14.8342
-14.9231
12.5292
0.0149713
3.33177
18.1344
-38.8211
-53.6989
-50.9304
25.4151
-5.71887
10.0408
18.5641
-0.0886899
11.5973
-0.78949
-83.4389
-73.0526
-0.438513
9.48265
17.5056
18.2263
-28.7403
-34.5412
10.349
-61.3928
-9.04594
-4.71194
2.95265
-6.25004
-2.46018
-7.01073
-72.8253
-20.875
22.4451
-2.54273
24.3902
-72.6347
-3.23917
5.41218
-0.210513
20.8661
14.8597
17.2533
-2.77256
-7.11499
-90.4234
20.3057
-32.265
10.3539
-0.974995
17.5397
20.6846
-1.08261
14.2611
23.4769
16.2137
15.538
-27.2618
-1.09886
5.92357
-14.0474
-1.88596
9.10919
11.2119
0.545662
-108.881
3.1379
-0.0713287
13.1352
11.3617
-9.18258
24.7545
0.398804
-0.00456018
1.6294
13.7512
-8.7488
0.0432894
15.9261
-8.23772
0.666065
-4.19845
15.8732
13.8319
13.1533
-2.49303
13.4129
16.514
16.5119
-6.80804
0.327613
2.89464
12.5527
-15.0886
-48.5308
-12.2939
-20.493
-3.4585
0.119709
-1.74514
0.299448
-42.647
-11.1921
-110.243
-0.166225
-7.01135
4.77817
-68.589
15.3018
29.4748
4.58966
-3.9236
6.15707
1.06642
3.15737
0.0889023
-8.48284
-42.8416
1.08894
19.3733
0.0126176
23.1273
0.0653739
13.1394
12.2236
6.29566
-54.0145
9.54798
25.2067
-2.17681
13.8426
13.6604
21.6573
1.06141
19.9162
16.0868
-54.5525
17.0173
-73.9236
-76.8432
20.4144
12.455
-25.0318
0.906073
18.7723
2.68021
-14.7851
0.295329
0.325472
11.1834
7.36439
14.5616
13.991
12.2058
-31.6534
-10.1499
-6.2805
14.1681
27.0302
-9.48741
-102.768
-54.1896
15.1106
0.811452
0.827305
7.21677
0.338816
11.4792
-1.562
3.14782
22.3493
5.62216
0.0741763
-2.25052
-10.0564
-14.5105
-49.8693
-20.6079
-56.1821
17.1651
7.24037
-11.2426
22.9143
0.0157882
-90.6182
-4.48711
-85.8109
15.8789
-32.0442
4.18561
14.6463
-3.23851
-6.99084
-2.11612
-72.2075
-4.53772
15.7139
-110.161
-0.909135
-51.0578
13.6864
15.4986
-6.14021
18.3503
17.064
22.2822
22.7252
16.4069
2.03637
25.471
-51.6778
14.3553
3.37229
-75.8396
17.517
-10.5186
22.0565
6.55304
-17.6571
-29.5136
-27.4799
15.3969
-11.9269
-7.10222
-3.00138
-10.3553
0.114841
8.55125
2.15149
10.911
25.3796
-40.4619
-19.4741
-7.84836
15.597
10.9177
-13.253
29.2083
-1.18934
-0.0363316
9.33615
-15.4012
13.4223
15.0882
16.7935
17.222
0.30683
8.11428
13.861
2.71303
-6.58286
-0.0906509
16.1335
16.1998
20.2643
-1.91162
0.55186
8.54566
8.3177
2.25538
-48.7497
11.7316
-3.61442
12.3297
14.7819
-50.8146
23.1485
-16.5899
24.6043
16.8814
-90.4133
0.0369936
-0.102057
6.15436
15.2153
-67.3985
19.8564
13.5049
8.20021
0.253222
2.75237
-3.55563
8.23599
-49.2399
9.5108
-4.10895
13.8422
-42.4052
-0.472755
-6.13062
17.8032
21.0049
7.46988
-38.4118
6.70557
-2.58954
0.278585
7.70519
-1.96666
-1.70688
24.4544
-7.96302
-1.39297
-15.2848
-90.0707
-1.84206
14.0471
-51.5506
-5.18885
15.1003
9.44083
15.5101
-21.0989
6.51215
24.5783
-30.4698
13.9647
4.40182
-2.6723
4.32401
2.89986
-6.43086
25.023
16.778
-0.697431
24.0731
19.0499
17.7168
-56.7589
-42.0164
10.5063
-19.0402
-1.67272
-40.1589
-17.0796
-36.1417
11.5001
5.47482
9.07773
9.90089
-1.80171
11.5534
14.1554
-129.363
15.7513
8.61569
13.9698
-2.60592
-0.0965797
-6.57749
-48.3911
-16.1532
-6.02933
13.9302
-75.8482
22.5904
-41.3815
13.5346
9.73147
-0.300465
2.89601
14.8326
6.53231
3.00149
13.1452
1.59282
0.050141
21.2933
17.0743
-14.2427
-48.1118
-0.615329
12.5414
-0.387195
7.47214
-28.1217
-0.69567
-2.69124
-11.35
12.5847
12.8496
1.88267
6.36994
-0.819686
-0.804569
-71.1423
17.6932
-8.99764
14.2531
0.0198884
12.1624
15.3389
7.8877
13.5816
-0.213174
-5.68906
-0.493902
-54.3376
-11.5871
-15.9246
-0.663153
-1.65526
11.2331
-1.59955
13.704
-0.804091
0.374877
-24.2483
-1.08106
15.1001
-73.6946
14.0972
3.4988
-40.3588
0.181549
-9.99857
10.2912
14.2372
-0.807341
2.41465
-58.8486
17.4334
0.262575
4.28554
-56.3726
18.1766
6.94977
0.00374407
15.3906
15.1628
17.6258
4.61207
17.7543
-33.0044
-0.443348
-2.4084
14.5794
8.98236
3.62596
1.80441
-35.3578
-58.6698
8.17404
0.465022
-65.4522
23.1118
-32.5123
17.497
10.3077
-6.92122
-1.29185
-2.70157
-2.37941
0.931097
1.76311
13.3566
-0.389115
14.2708
-24.9777
7.34948
-1.55302
3.53826
-40.5085
18.4337
24.6462
15.7589
9.00837
4.0316
9.45299
-66.1537
0.11804
-2.63375
-2.94163
-16.0224
-101.408
-42.2447
-10.8112
12.9678
14.7969
-39.838
3.33153
16.2325
-10.4306
-23.1221
15.5056
-1.36781
-116.442
0.242223
-4.14133
0.0239563
23.0253
-3.2667
14.2116
-16.0115
-10.7383
-10.3324
14.3038
3.82527
12.0829
-11.9456
-13.2148
-2.31136
2.46249
16.5371
12.6557
2.19096
-1.69065
-6.33113
25.7101
-1.90431
16.5457
18.4508
-0.71247
-1.68347
6.43609
-49.4943
-18.0421
12.377
8.14869
13.9393
-15.9793
15.6955
1.11056
20.522
3.08069
12.6402
18.2268
11.7946
2.5055
-45.9659
4.10372
-73.2789
13.0875
6.244
17.5328
0.769408
22.1416
2.16711
23.6893
-0.526849
18.5633
-2.64224
10.7585
-100.233
13.5551
6.81707
5.98738
21.6029
14.1924
3.31247
-9.91561
8.06472
13.2532
-1.00691
-50.7631
10.402
-7.08607
18.8007
-6.68106
22.6385
3.059
29.1565
22.5284
11.2503
10.4874
-113.053
0.234701
24.1914
-2.38636
-1.56362
-2.69257
23.5734
7.03964
12.4697
19.3976
-11.3963
15.5885
-5.04589
17.4984
0.295694
16.7049
14.6604
20.4661
-1.25381
-48.4355
3.98155
-11.2504
6.62668
3.67463
-12.5298
18.5414
21.1552
0.126535
5.56795
-4.48682
19.3228
11.7515
13.3718
8.48189
-2.28451
-54.7916
-2.87134
14.6447
-25.0014
-0.820338
0.774934
10.531
6.73527
-10.3612
25.2868
-1.16611
22.5315
5.34772
22.7827
-8.31305
3.12055
-0.235735
0.333626
12.1285
13.8853
0.357689
-0.787429
-0.919189
-0.910112
21.2677
-4.8259
-0.655396
-1.57984
-0.758534
6.13429
18.0524
7.52318
-0.820916
0.0300784
14.0647
27.0436
-12.6068
-2.68306
14.3116
0.062319
6.69831
-1.18644
11.0548
-0.745995
-24.9134
-1.65299
-3.57012
-3.25053
-1.82038
-38.1204
-15.1937
-0.438255
11.0972
15.3215
12.2238
26.342
-141.305
23.35
-52.1662
22.4962
-65.6295
-12.6235
25.5037
5.62956
-6.22553
15.0328
-1.34243
16.2353
-3.14889
-51.5295
2.10051
-10.1216
-12.5667
0.0063785
-3.2261
5.23167
18.3968
-62.3853
5.80273
-24.3904
3.58075
-1.65411
-0.985057
1.31379
-1.34013
-20.4209
18.5882
-0.654556
20.8063
5.43619
-72.591
4.63912
-13.3447
-0.177391
12.1665
18.1085
25.9458
10.664
12.3295
7.31909
-40.1512
25.1276
27.2103
15.6835
-10.0481
-16.3667
-76.622
13.4634
9.83985
5.21276
12.1831
-2.30385
-0.763298
-136.575
21.3807
1.52902
1.08204
-5.41994
14.2496
3.57163
28.7478
26.9823
12.8621
1.17646
4.03512
-38.1004
5.85436
27.5801
2.10622
-0.131889
11.0106
0.0578728
2.57474
-3.26776
-5.59044
2.72127
1.56202
6.46191
-0.0123965
4.15225
20.3478
5.81784
15.257
-6.40913
-6.46208
24.6594
-42.7154
2.30358
4.65463
5.91632
2.59719
-7.22533
3.9636
-0.834863
2.15751
28.6984
-55.8786
-38.4655
-22.4419
-9.16558
1.34184
4.81009
-5.32339
-34.3505
0.0112232
-31.0045
-12.2114
-13.7867
2.82498
-2.18671
0.732711
28.3936
0.906301
3.96234
-3.2197
2.36687
-35.6095
-6.21712
19.9166
14.4209
3.9549
-0.810143
13.7559
15.2823
0.115786
-92.0736
-2.51397
19.742
-10.7269
13.0258
-0.257914
22.3643
1.10338
-7.69866
0.456548
15.6309
-8.93537
12.6563
-11.5173
27.6316
-4.7814
-4.56479
-118.62
6.57555
-7.81631
-13.7429
-5.44039
1.27396
7.78093
-19.696
-1.5662
-2.17551
2.60017
-12.254
-12.3126
11.4576
-75.7977
12.6772
-6.31659
15.8383
25.041
13.8853
-38.9586
14.9143
1.0386
2.44804
-2.3958
-7.03865
-53.5623
-16.3289
-6.97226
7.6211
-0.630785
-9.14458
-0.422597
-90.2398
7.15216
14.1514
-11.5506
-9.02452
-5.75406
-0.0656944
-0.866091
8.63975
-25.8454
-10.2257
14.6199
-0.927182
9.34399
-17.2443
-117.727
-70.8367
-147.334
27.5629
4.50308
-12.9664
4.53425
23.6553
24.7205
-9.00681
-5.20509
14.084
-0.7398
-12.6607
24.1287
7.86322
13.4115
28.9281
-4.70889
5.33861
1.72134
21.5572
14.8162
15.3303
18.135
10.0675
0.216069
0.514459
6.34674
3.14009
-51.2568
24.8456
-5.38158
-7.62524
-0.0100626
-12.102
7.0988
-5.20056
-5.69789
3.27534
15.3053
15.5142
16.9914
-60.9605
21.3087
24.2371
-41.3999
9.08546
-2.57722
-1.78115
2.29998
8.13571
-1.78555
-10.6003
-13.3976
26.9821
-74.3204
16.9689
14.4564
19.5872
11.4143
11.2407
-0.915691
0.166211
9.55151
-1.62545
-101.314
-23.472
0.663098
-3.87407
17.8414
-17.7236
-0.542476
2.5309
-33.5644
-6.93921
-50.4878
12.6832
-5.10797
-3.07977
5.66771
-28.2317
5.0709
-43.4836
-2.54472
15.5103
-83.1187
24.7933
-0.00906969
25.9289
0.00972199
-2.81344
1.9109
12.4552
12.5179
-28.3894
-2.85851
-3.22012
1.64657
10.4355
29.185
19.5855
5.04194
-10.2721
7.89412
-0.245732
17.0098
-1.27282
8.24613
-3.31886
-4.92347
-34.3579
6.52749
0.219968
-33.1975
9.15468
9.28891
24.0797
25.5831
-50.2769
-52.93
0.200345
-14.8338
25.2845
1.88468
-5.8511
5.73678
10.2397
-3.76864
1.05154
1.26273
-1.3428
13.7727
-2.83386
4.97857
-0.86965
-11.6482
-27.4169
-4.40459
-27.1163
-24.9237
16.2688
-10.7193
-6.15905
-5.53785
0.431554
27.2715
11.5954
13.257
-5.82856
7.40041
-1.66589
6.09999
3.83276
-5.12681
-35.5375
25.2017
15.255
-0.893842
-50.9916
28.3265
-7.51569
-54.1136
-2.82062
7.97227
-9.20402
-3.30927
21.5974
-1.63725
13.5545
5.33473
-3.20777
0.986422
-5.27488
6.89447
-28.2762
-0.577308
4.40591
14.2555
-11.3208
-61.3977
1.56778
-7.75523
-16.409
-15.7192
26.6128
9.22383
-75.0283
7.65226
3.23328
23.4952
8.43142
-42.523
9.19582
18.337
16.2549
-10.5436
12.7019
-0.879191
25.0316
0.189058
14.6854
-76.6699
-9.90844
-0.0393629
-4.09111
9.49814
4.46337
-50.2489
-11.886
17.291
-0.625965
-2.22275
20.2546
11.1683
19.7072
13.0557
-13.7629
0.105035
-0.294825
14.5539
0.00284925
18.2204
12.0195
24.6737
-4.19312
19.1768
8.37385
24.6125
-2.96662
-10.7357
25.3936
-4.72346
11.8901
-78.2469
22.1259
24.3403
15.5477
-22.8911
13.8977
18.8979
-11.9049
6.02843
-6.51846
20.175
-5.36377
-1.60142
-54.5959
-55.9904
18.5196
7.89312
-74.2084
7.64772
24.3264
-7.06854
-2.52831
-57.8175
-13.4876
12.9289
-3.43478
13.4382
13.6387
-73.21
27.3235
-1.6751
20.7362
20.9167
-1.43012
-0.0859224
13.1533
-22.8613
-4.33023
13.1442
11.1951
-6.14465
13.7701
-2.6292
21.3387
15.6335
5.66262
1.91443
16.6012
-2.00776
8.79406
19.5104
2.8633
0.0186411
18.7922
15.6337
-10.9789
-38.8413
11.7547
16.436
24.8861
-53.8541
26.3341
25.046
26.6248
-1.58881
18.1524
-74.1013
14.242
19.8819
18.9999
16.2304
21.5118
28.8029
12.4575
-52.9365
2.86652
-28.8617
28.5144
7.86087
-0.937784
-7.89495
13.6514
21.4608
13.7156
4.96443
-2.67284
21.232
-35.6127
15.8694
-9.01285
6.00557
-0.836596
5.94983
9.45628
-50.4644
-46.399
-2.35501
-7.47793
-1.50034
17.7645
-3.32487
1.23228
13.4991
-82.4785
10.1397
-0.0777196
-66.5743
-75.1355
-50.653
20.4972
21.9224
-6.25723
6.17588
18.6575
16.9009
0.162425
-32.0446
15.9799
-53.3321
20.0266
-54.088
19.4447
9.05557
1.35679
18.1129
9.90211
19.208
5.27063
6.3991
-8.95483
-36.7246
-131.826
-2.19594
18.8217
-48.9362
-4.87187
-41.4408
20.8174
19.0668
5.09201
11.1181
21.0086
-24.7069
13.9651
-1.77144
-10.1964
13.8325
-7.31578
-70.9715
-14.6782
-49.6097
-5.67739
-83.2756
-2.08234
-84.9854
-41.9365
11.9457
25.0216
27.4055
23.7845
-52.5757
16.0053
-83.5781
13.3829
20.9025
1.64895
18.4491
-36.1383
5.16247
-9.84134
-1.96687
20.0931
-9.53658
16.6676
-64.8867
-4.53541
-49.7604
16.6194
16.4934
14.0762
-84.2593
13.7114
-2.16358
-66.093
-58.5876
4.75893
25.366
-28.2849
-5.73529
-10.2524
14.1175
13.5739
-1.61723
8.63147
-83.9826
21.3059
19.4984
-4.15453
-3.78222
20.878
-7.77702
-145.047
-0.723491
18.9633
21.4283
-65.8309
10.9972
-2.00962
24.5608
-87.476
-12.9618
-2.03955
23.1584
-0.92594
-8.40318
-0.994831
20.0913
11.1476
19.8345
-2.4745
-26.1459
16.2366
28.0713
-44.7534
13.705
-1.24659
-69.9466
-1.01769
5.29594
-11.3584
10.8247
-2.68756
9.10054
-2.33097
-13.6473
18.06
21.8295
13.5785
-21.5399
-12.5139
17.2594
-75.6772
5.87387
-10.6003
7.10753
-116.322
15.5879
17.224
-1.29014
16.3187
24.4614
-4.06458
12.3963
16.3952
-53.7879
8.65992
-6.98152
7.12004
6.02828
11.1901
0.0234887
4.9737
-4.21419
-24.8984
20.6317
6.53539
1.66741
-9.05576
-4.08178
14.8444
-94.9377
26.5542
-75.5525
-48.2737
-0.9221
18.422
16.8363
19.822
-28.4228
23.5702
-70.007
12.2314
0.866826
-67.9865
13.1556
6.54849
-4.87224
10.0917
-40.5991
11.5787
-49.1886
-8.67695
-0.0509446
-44.3673
-52.7612
13.2872
24.0669
-5.5782
-77.959
18.7748
-32.1653
21.9204
7.82404
-0.387114
8.55153
14.3639
7.6683
-1.51684
1.88093
-1.14927
3.44861
5.16007
-85.7211
-10.874
0.366626
9.7183
-0.559887
28.6785
15.9272
14.1878
22.2587
2.0335
16.0943
-32.6419
-23.4077
-14.6425
14.0955
28.1505
13.441
-11.7109
20.5306
14.2692
14.4408
-2.96262
-1.19232
7.53692
26.7484
1.94721
-13.4546
17.8866
21.0621
15.8314
14.3124
17.6715
10.2516
-1.95103
-32.9979
16.0046
-50.0889
-34.8105
14.0557
-20.2586
1.94255
5.72776
16.134
16.7777
16.9427
-1.52535
19.6424
20.1776
2.80328
17.7372
15.3256
12.8264
11.2751
10.8393
7.40085
-1.70501
18.43
17.7104
0.319926
13.7488
-1.73831
-0.353772
23.8437
18.2619
0.0672654
-61.4288
1.04096
18.8978
10.8889
3.60226
-0.893842
1.22229
-5.40211
2.35677
-20.0271
-3.54696
11.5634
-3.25797
-45.606
-85.9018
22.7098
-10.6396
-49.1467
-26.291
24.1087
-2.7852
3.333
2.62048
-65.042
11.7466
13.2417
9.56575
21.4411
11.3233
-0.550842
-37.8706
-52.0278
0.139418
16.7971
0.552839
-72.8914
-85.106
-6.06802
-47.7374
-20.0521
-35.1184
-3.95363
4.88241
13.9124
19.2938
-5.02807
-1.81095
21.4576
16.0302
-62.518
-1.67626
-34.0124
9.08888
0.0397995
7.79202
11.9013
-0.486548
-3.21959
-4.2085
3.75904
-61.997
-44.6916
0.282454
-32.0782
-50.1155
-72.2944
-41.2738
0.667799
-26.4887
7.36321
-72.0122
14.1173
12.5713
3.98996
18.6421
-74.7495
24.2885
-11.3526
-0.0872388
-13.7523
14.3516
8.56543
-36.7691
-20.1916
14.5826
17.4058
25.166
-69.2811
-52.5192
-58.355
-3.36717
0.0522896
-77.7201
5.97565
-55.3348
8.28857
-79.333
11.9043
2.16767
-2.20393
21.842
12.8898
-9.20849
-0.47907
-19.4561
-53.1482
18.8315
27.4683
-59.2071
18.1519
13.4895
0.0115842
-1.24221
18.1561
17.4611
-38.1198
-2.48145
-17.2187
-73.6833
-12.6713
-71.9826
-10.7114
9.6582
-1.28211
15.862
-91.0731
-76.5626
13.3189
-11.3041
-56.5823
0.224305
11.3476
-58.6027
-7.41569
-77.1759
-74.7493
-54.1987
25.577
-22.748
-3.38996
-86.3229
15.6643
-50.9013
-1.35737
-34.6907
-153.809
-9.33329
16.5319
0.0174136
-72.3728
12.4748
0.0411834
-11.0164
-71.1485
-91.6958
10.7103
12.0513
14.2822
-31.8583
21.9747
-7.66047
0.0220344
-1.38399
-24.7862
-39.204
-82.8389
-33.8222
3.18469
5.41837
-2.8163
-3.65601
-17.1948
13.801
-140.196
14.1797
-91.4223
8.64612
-5.55397
-1.19675
-0.126419
29.072
-0.876652
-60.3357
-27.1153
-16.6216
14.0517
-2.49622
0.0773848
0.273167
-79.9372
-64.4966
-42.0081
-65.6229
16.3199
-117.604
1.48235
-74.566
-1.61089
12.5856
-0.810235
6.88475
-7.33301
19.3273
-47.9917
-18.1278
20.7579
5.84365
-49.2171
-3.68668
-72.6766
-16.0844
-5.18698
18.7323
-10.0884
6.036
-51.7364
-60.1973
-144.245
-132.012
-46.3029
9.51423
-3.68098
14.2678
5.30209
-93.4439
22.2395
-51.2217
17.8648
21.674
-64.2245
0.893557
15.3813
13.7217
12.0935
-25.2716
-42.6169
-39.706
14.1216
3.64947
-18.7964
-97.2835
8.68154
17.1482
-3.02105
0.353406
0.148564
20.3761
-17.9145
-19.6267
-0.540236
12.0803
1.38926
-0.273174
22.0589
17.9215
-2.57077
-43.3534
18.5233
6.94927
-1.4318
13.9955
-7.94639
-36.5624
-48.1691
-37.363
17.512
15.8865
-2.74131
-10.6173
-1.21366
-0.397777
16.0762
-49.6323
12.0221
19.4444
20.902
-4.75173
14.4794
13.0862
16.5353
17.4927
-2.1396
17.4962
-0.00744306
14.2628
8.36754
15.5752
-47.5201
18.1591
17.3872
12.6291
9.49989
-16.2403
10.6119
-0.317595
-13.1716
19.9768
19.4032
-31.7354
17.2915
-33.1192
-49.5136
15.756
15.6075
-32.1356
-2.168
-50.8694
-38.8989
-11.1461
-6.82849
-35.4846
-3.98439
13.2645
26.2674
18.6826
-5.59853
-3.50462
15.6716
7.03631
-1.67456
-37.7573
-12.6573
-18.8358
-45.8195
-39.0897
13.4184
-0.975231
6.08962
0.146793
0.154172
-0.563469
0.186351
3.28652
8.00482
10.129
-10.8271
8.19911
-38.7605
-122.515
9.97992
7.57305
-2.23843
0.279614
9.69015
-1.25454
5.68104
-10.466
14.2964
11.8407
23.2698
14.2348
-25.5666
-4.40708
-10.4429
-11.059
-0.819375
-0.420462
-3.5017
-30.7805
26.5309
0.551132
-0.141924
21.6755
-11.5368
-9.07467
-2.94826
-49.6632
-36.8319
5.02345
-15.4232
14.481
-4.25904
-23.0065
0.0354682
-6.26125
-13.7714
-1.66364
-1.95774
11.1424
-5.23119
-7.63395
-16.7076
5.59336
-17.5152
15.526
22.3118
-10.553
15.7851
8.47848
10.1503
24.39
-15.5096
8.57164
7.44776
5.76152
21.0338
-3.707
-3.30967
-1.61277
15.2895
22.3347
-10.2878
-1.72992
-20.8428
-15.5841
7.21159
-17.9362
-26.453
-13.144
5.70001
-53.5228
3.05538
4.64045
12.4969
2.14591
-52.1662
-2.066
-1.21007
-2.67553
23.7322
26.5802
19.7932
27.3539
12.7702
14.4185
16.8215
14.6595
13.6048
-18.3168
14.892
-4.42978
-43.6643
21.5073
-4.42294
-16.3142
25.1855
-0.221867
-78.9089
7.37113
6.02924
17.5824
-36.3008
13.1983
23.1146
-12.703
-48.2965
-21.78
10.063
-78.2961
18.9639
-2.55112
17.6644
14.1313
-8.23007
17.0276
-9.57087
-44.8819
-50.1476
-24.2924
17.8607
-17.1187
14.1071
-1.54792
-75.1099
-2.14763
-0.944841
-12.9273
-15.3384
-38.2394
17.9636
2.48338
-52.415
-6.19238
9.38229
3.52317
-40.904
6.89876
-2.23949
6.81277
-54.7967
8.63219
3.6138
9.98039
-2.66472
13.7029
8.7864
4.04196
-48.3119
27.579
-13.3557
-68.0712
13.7411
11.7898
-61.5201
-15.6578
-41.4604
9.53394
7.89046
-15.1682
-2.15921
-4.14611
27.4466
-0.950317
-12.0931
-2.6266
-9.1933
10.6068
-5.07954
13.2557
9.38443
-75.8953
9.292
-53.708
12.1547
5.77121
14.7622
10.0102
0.0116282
0.0170166
7.31611
15.6383
2.63677
0.152686
-55.658
-7.34257
-7.68163
12.3894
-60.8097
7.32601
-37.1604
17.9279
-80.045
-3.93702
19.285
17.2679
7.09291
-22.5548
-35.0023
15.9408
0.278876
17.9769
7.67328
0.36985
14.4921
4.23997
3.93549
2.63655
-8.97648
-15.6272
9.76013
-0.929576
19.758
4.16921
27.7071
-1.16055
3.595
17.4493
1.41609
3.8284
15.3879
12.6119
8.90264
-19.3762
-1.32983
13.7039
9.42022
5.24248
-64.024
-3.45099
-45.4484
-68.3101
-10.2317
12.7778
-1.33847
11.5471
-1.10089
23.6859
18.2096
5.25408
12.0667
4.8981
-50.0283
13.4754
10.5129
0.465012
6.0671
17.8893
16.027
-1.95802
-50.1693
-23.214
13.0785
6.7583
0.508479
15.3147
-81.9265
13.6729
-29.6202
14.152
6.64059
-1.97852
6.05436
16.7535
-2.61394
14.9057
19.1515
2.28569
-6.7822
8.28821
1.55434
22.3151
-80.2994
20.2537
16.9985
-88.8578
-12.7442
-0.0239331
-9.00383
-89.2773
-6.79742
13.6167
20.4306
16.1263
20.7531
9.87886
18.8218
5.95514
0.896946
6.52281
-2.47843
1.22064
11.8705
0.0175379
21.5873
3.79104
-70.0988
10.3377
21.2938
22.3324
-146.521
8.3953
-20.2867
-41.3323
7.11067