/*--------------------------------*- C++ -*----------------------------------*\
| =========                 |                                                 |
| \\      /  F ield         | OpenFOAM: The Open Source CFD Toolbox           |
|  \\    /   O peration     | Version:  2306                                  |
|   \\  /    A nd           | Website:  www.openfoam.com                      |
|    \\/     M anipulation  |                                                 |
\*---------------------------------------------------------------------------*/
FoamFile
{
    version     2.0;
    format      ascii;
    arch        "LSB;label=32;scalar=64";
    class       volScalarField;
    location    "0.5";
    object      p;
}
// * * * * * * * * * * * * * * * * * * * * * * * * * * * * * * * * * * * * * //

dimensions      [0 2 -2 0 0 0 0];

internalField   nonuniform List<scalar> 
13486
(
7.63378
5.80427
0.0638776
-3.92445
1.29454
-0.698593
-0.478761
3.65481
4.8419
2.30873
-3.80043
1.02182
8.14574
-1.45319
1.04044
2.63114
-4.74572
-0.109864
1.16876
6.74285
-3.81716
8.03821
5.83728
-2.11895
2.12177
-2.09111
-4.07056
-1.94963
0.223659
-1.35632
-2.7347
0.819488
-2.58513
-1.23468
3.67736
-0.133088
-0.0524519
6.09787
-0.217967
4.94836
-2.21547
8.53123
0.0489924
2.1436
1.96529
0.975404
-6.90122
-0.30316
-0.0274728
-1.71825
3.8463
-0.274064
1.01961
6.18596
-0.118514
1.62565
0.23914
-0.129073
-2.47747
0.0878982
-3.51973
0.186743
-5.26143
-3.79614
-1.30054
-0.0336235
-3.6862
7.657
4.80054
0.0971019
-3.73925
-0.0413718
4.90285
-43.9428
0.0224689
0.208201
0.0481889
0.945445
-5.99624
-0.335455
0.139422
6.01114
-5.43138
0.430858
7.66268
3.11765
0.0706187
3.98837
4.86659
2.62943
0.707842
3.01372
7.32634
6.48473
5.02145
-0.184701
-4.02241
-3.30824
4.81331
-4.81114
0.0875393
-1.18677
-3.24502
-0.269655
3.715
-4.86026
4.91186
-0.300792
-6.38402
2.28967
4.49288
0.00544093
6.18856
-0.123453
9.25846
4.79106
2.07328
-1.30733
4.92365
-0.0398554
-0.0653826
-3.54829
5.31899
-0.134666
4.46846
-0.202123
2.9483
0.775375
-0.930331
-1.10568
-0.185599
-7.09935
-23.9465
-35.4736
4.10107
3.70148
9.89225
2.50439
-0.0530785
3.8301
-2.52162
0.855399
1.12882
-0.415496
0.11089
-3.8289
0.276245
6.96285
-2.04985
0.320634
2.4735
0.612444
0.0395233
6.14337
1.20204
0.275723
1.36178
-5.31093
5.37031
0.147367
-1.82962
5.35886
0.216356
8.46625
-0.359926
-2.31503
-0.647207
11.1309
0.256551
-38.5701
-20.1886
0.995436
3.15
2.18296
-0.113295
-2.57247
-2.50663
-2.92057
4.77733
1.19607
4.38571
-0.00697225
1.69849
-3.28277
0.34389
-1.99933
0.100612
-1.2763
-1.77794
5.1471
-0.0777886
0.041988
-0.465957
6.78401
-0.280077
-3.86017
-1.13609
-1.5421
6.88337
-2.13087
-2.50192
0.835041
6.10641
0.0399316
0.124616
-0.294111
-0.724062
5.31495
-0.206313
0.29918
-1.38325
-1.653
6.68085
4.84766
-0.844635
-0.725232
-1.52145
2.77359
6.84755
-5.91602
-4.78571
-2.10523
3.97227
-1.77432
0.602425
7.52817
-1.56335
-2.06805
-0.619917
0.0861076
4.38701
-5.81292
-2.56182
8.74267
-3.13259
7.17436
-1.26793
0.292986
7.26099
1.83688
-2.47828
3.30083
0.0841504
6.83071
-0.127089
5.65264
2.00972
-1.74936
-37.7199
2.43362
-3.07456
9.39079
4.51645
-0.401682
-0.525006
-2.6678
0.835337
-0.770608
-4.72318
-2.53038
5.40412
-0.137668
1.04704
-2.70748
1.56839
-3.30836
-0.680184
-2.89443
4.90475
0.236129
5.06263
4.62555
-1.56785
0.821271
7.54387
-1.6374
-0.644145
-0.402903
-0.301534
0.296593
-0.417622
3.86885
4.96568
-2.8033
-3.50793
-4.51647
-2.65649
-1.12601
0.641808
4.7578
-3.24948
-0.0225426
5.0256
4.24309
-1.25684
-1.27209
-1.64229
0.646384
4.9219
-1.14669
0.185516
-0.507395
0.292002
0.939632
-0.0836631
0.112209
-7.74563
1.88829
0.0311893
-0.111017
-24.8301
-4.03624
-1.48466
0.0851407
-3.42302
3.73624
-0.0216003
4.6809
5.43619
-0.857495
0.0379701
-0.134804
4.77507
6.42767
9.64759
0.769642
2.61248
3.77423
0.789967
2.32004
3.77111
2.64395
0.680547
7.09226
-0.61839
4.72276
9.65815
0.811832
2.64935
-0.101607
-0.680042
6.35217
2.06369
1.71333
-3.32043
-0.0416723
2.98135
9.24309
-5.67761
-0.0202566
2.87968
0.47519
0.789318
-3.99083
4.90085
0.0549803
-44.0455
3.03398
-0.0819931
-1.62488
1.52996
0.741295
5.37168
4.65842
-1.44784
-0.011145
-1.25814
-7.94029
6.776
3.20211
0.263889
3.07639
0.650217
-3.09816
-0.877193
4.22103
4.71704
-0.098402
-3.42246
-12.571
4.61228
2.5396
8.14273
5.34011
-7.7003
-0.738468
0.146735
2.64336
-6.74387
-4.69035
6.52568
-1.66495
1.78914
7.28103
7.55048
-0.0992652
-3.87067
-3.11964
-5.51255
-2.90001
-6.3008
0.764015
4.31004
-7.05671
-0.205391
0.261556
6.33744
-2.89189
3.38238
5.48637
2.6968
-5.08729
-1.70964
4.95562
4.67403
6.58004
-3.36475
1.67111
-17.626
1.9531
4.75236
-4.92521
9.28708
2.93876
-1.36919
-1.35285
0.811625
5.12454
-4.17212
-0.311476
7.92129
4.52222
1.67276
0.598549
0.790191
-1.92521
8.13879
-0.0662642
2.46926
7.51228
-7.71518
-1.60101
-30.9008
-1.79022
0.126687
5.78139
6.16884
7.98204
-12.1705
-0.0618384
-3.33253
2.8907
4.91212
-1.71734
-5.56937
4.56661
-3.19331
-2.4879
-2.81996
-3.69562
-1.03888
6.19071
-0.0723139
-0.242787
-4.07703
4.52072
-0.109219
10.3691
7.43865
4.93718
3.36775
0.111533
-0.0416093
9.57486
-0.470574
-0.10891
-1.35965
4.75156
-4.5828
0.717365
3.27304
0.155674
-2.41683
5.7
-4.37348
-5.09029
3.11034
-4.22591
11.0858
3.28543
3.78356
5.27613
-2.6644
0.611887
8.63653
1.1556
6.52301
-0.893171
1.35385
-2.69474
-0.510114
-0.224619
-4.90463
5.01164
4.66215
-3.03642
0.142515
-0.886677
7.66724
5.82918
-0.767987
4.78313
3.27552
-2.44265
1.48179
3.96236
-19.78
8.01327
-0.0254538
0.0385199
8.4328
2.57377
-0.582765
2.83051
-2.2977
-3.23874
1.72444
2.05408
5.39881
7.35856
-3.65931
0.782475
-3.70691
-0.134124
7.14068
1.02067
-3.34566
-3.16915
-4.1505
-3.61333
3.49713
-1.22755
-5.13207
4.79372
6.93898
-0.160178
5.30111
-3.98263
-3.11846
-7.54127
1.77197
-3.40187
5.50641
0.405683
-3.42807
3.90215
5.82053
-2.43919
-3.60445
4.05566
7.08719
1.09023
7.73213
0.557969
3.02288
1.14577
5.39142
0.030061
6.86997
-4.0013
0.629277
4.4397
-0.817434
-1.80107
4.90626
-8.27703
0.735003
5.95448
8.05135
-1.17162
-3.6593
1.06479
0.89038
4.26474
3.19705
-0.487735
-3.88918
0.019699
7.62966
0.595207
-0.127156
-1.9039
8.11423
-0.772315
0.0110262
4.51026
3.19748
-0.488477
-0.939587
3.70887
0.637831
0.131305
1.4412
-5.02591
7.80126
4.65136
3.43636
3.58929
0.528157
-2.60841
8.89192
1.37911
8.92086
-2.18013
4.68702
-0.14351
-39.5564
1.84595
2.41884
9.4217
-1.74422
2.33466
2.41874
-5.92097
2.27924
-0.389277
-2.98944
4.6735
-3.5727
-1.72542
-1.93706
-1.69488
-0.936778
5.1986
0.0162231
8.66084
4.83485
0.112598
-3.12016
-1.39338
1.27965
-3.56088
-1.9888
-4.8476
7.1176
-0.0406429
-0.0913664
-3.10197
8.16262
-0.053006
0.31541
8.44878
4.23433
-3.26235
-0.322485
3.1153
0.376221
4.42795
0.0312386
-1.31003
1.51679
4.29084
1.11662
3.56259
8.60047
0.0764577
-2.48207
4.92416
-4.31347
-0.854986
2.73543
3.27797
1.80361
-3.33733
0.273779
-0.120558
0.583946
7.12524
1.23598
0.555246
0.577983
-2.98077
-0.358354
4.82886
0.251043
4.30745
4.49098
6.99561
0.130298
-5.5265
8.84074
0.100329
-3.1902
5.08247
-1.98444
5.46739
0.0908033
4.4633
-7.31064
-48.2124
-1.81609
-0.0345111
-4.92148
2.3558
9.15073
-0.945981
-3.504
-1.7665
4.97874
0.195572
1.77024
-3.15768
9.07095
-3.29368
1.96267
-1.83862
2.53858
4.90817
1.42741
-11.9311
-3.99458
8.30387
4.94219
0.63335
4.43736
-2.62271
3.52285
3.43038
2.47397
-24.4947
-0.452575
6.18669
-0.50204
-0.260727
3.5989
-3.21863
-0.809988
-0.16914
5.29354
5.11149
-2.53389
0.528922
-3.25033
-3.95491
0.735845
-0.915723
0.72403
4.56228
-0.851642
-6.20017
5.74434
-3.53431
-1.0234
-0.126089
-2.00783
-2.63896
-1.82496
-0.137774
-2.72784
4.40839
8.11478
-0.132412
-1.01369
8.47856
7.84315
-1.2195
-1.15175
4.89407
-8.33721
0.141459
0.12925
-0.205985
1.84034
-4.9634
1.92499
3.18943
-1.86007
-0.562507
-2.25739
-0.756703
3.94051
1.79994
2.67913
-2.63529
4.16913
7.67941
-4.63174
-2.73406
5.43479
-0.27777
2.72285
-0.199569
-1.3979
-2.70456
-0.626278
4.95459
8.92758
5.37926
0.478221
-0.852741
4.81859
7.40079
-1.33003
5.11096
4.84807
7.82786
-0.311821
-0.105359
0.511339
-0.630681
7.75244
0.460048
-0.148071
3.349
-0.42882
1.09681
-0.304142
-3.23851
4.52417
3.7704
3.17101
1.83446
-5.39935
-0.994683
-0.828961
1.87551
-5.25377
-3.65429
0.117162
-2.39317
-3.37189
2.37903
-1.33489
-39.2114
-5.63164
-0.790028
2.96907
-3.98494
-2.42099
5.43537
-2.40614
8.08836
-1.92371
-39.8323
5.84974
7.15175
0.074598
-0.130621
-1.26535
5.02396
1.6962
-4.89053
-0.293918
-0.129835
-0.571811
4.48352
0.0262086
2.60606
-0.0219774
4.81481
-4.20195
0.0209026
0.0288627
5.99502
-2.29725
-3.68541
-1.91157
7.95336
0.237238
-2.40363
-3.88964
4.8889
-2.78026
-0.103774
1.07451
1.6272
0.0796634
2.79466
-1.27587
3.93597
4.49905
5.70109
1.881
0.135499
-0.841828
3.47778
-2.60923
5.97266
3.08252
-0.397676
-0.297349
-0.512649
-0.326377
-0.0818793
5.4426
1.7509
-3.60011
4.69796
-0.16166
3.55022
9.29024
-0.237511
-4.59278
2.96776
0.245309
-0.258013
-0.683837
-3.9325
4.6295
0.0989898
-0.162181
0.0381028
0.246565
6.44217
-3.24904
-0.0679425
4.81559
0.240456
7.26666
5.54402
6.72643
0.841042
2.81834
1.23549
0.242105
3.14189
4.74607
-6.64822
-0.855524
-5.95907
-1.17436
-3.11354
4.89144
-3.54288
-2.39977
-2.2912
-6.86665
-0.0633216
4.76905
-0.0353746
0.657855
-28.5737
4.76919
9.15586
0.404209
-3.32011
2.46147
-3.31999
4.94757
0.0475312
-0.0907067
5.95719
-0.143738
8.62485
3.06251
4.75527
-1.20256
6.48387
-0.0377509
5.58033
-0.070266
-2.56367
-2.54361
-1.76724
3.14237
0.100545
-3.88944
7.99923
4.72306
5.22482
7.22472
5.39153
5.96752
-0.795195
4.95867
4.6102
5.08181
-0.757825
-1.42238
-1.61375
-6.49164
1.08665
5.42965
-45.6924
8.52827
-6.16507
0.0272867
8.85674
7.21836
-0.765267
-1.74529
4.87369
2.23534
-2.99203
4.39092
-38.5549
-2.04384
4.68825
6.96299
-0.112283
5.32
6.40135
0.0377586
-1.55446
6.46293
1.83102
-0.0591315
-3.75017
0.347815
-3.13588
4.4993
3.53053
-0.0850898
-1.95236
-1.43301
0.863717
-0.0999013
1.03435
7.44175
-0.27445
10.1122
4.94332
1.00927
5.37745
-3.25025
-19.9321
-2.81214
4.63699
-0.111061
-22.6111
-2.29723
2.18303
2.52571
-0.123469
2.69467
-8.95823
1.74974
0.18996
-0.0648038
3.71573
1.26378
6.50487
5.01602
5.01628
4.53417
-0.805622
-2.33002
-2.2225
0.437835
-1.29656
-1.0805
3.64001
-1.99339
-0.00533898
-0.0653877
0.305386
-3.11599
3.41944
1.9616
0.162079
-1.42819
1.97086
-2.1974
-2.01413
0.701988
0.144323
5.31308
3.47629
6.44952
-30.4466
4.07475
0.01751
7.01669
-1.38988
2.3485
0.318694
-0.742451
8.42352
8.96163
4.10122
1.50852
3.18828
4.2633
8.54007
2.72623
-2.40079
-3.14479
0.871261
-6.44433
-5.70268
4.62266
4.74762
0.0995126
-0.899726
3.59534
4.46696
9.41853
-3.59361
3.60303
-5.6896
-0.462863
7.27068
-0.602748
3.7652
-1.01994
2.11808
1.76528
9.9176
0.0839411
-1.67359
2.20171
0.726728
-3.37862
-42.0716
0.0397755
5.37248
0.130889
1.59852
7.81162
7.04932
-0.369403
-10.6255
0.0713505
0.500615
5.77389
4.90143
7.05019
2.7991
-3.85084
7.44346
4.11197
-4.6186
3.30447
4.86086
6.29061
-3.25776
-5.28014
-0.0116449
4.03444
8.31926
1.92976
0.382184
-2.72906
9.47312
-4.42772
-2.68799
8.73584
3.81064
0.258596
3.63329
-3.7245
1.88308
-0.970326
-4.36955
-0.186745
-2.81782
0.0271679
-0.841737
-8.38921
-4.86515
-5.29839
-3.45421
-5.77615
-3.10984
4.80407
4.54528
1.27817
-8.60427
0.817611
0.420913
-0.816818
10.0466
2.53135
-2.03122
4.44884
-1.15155
-2.79005
3.48601
3.44961
4.38987
10.2057
0.237656
-0.46894
-2.05215
0.501193
2.74785
4.53453
-1.99644
7.59604
3.0876
5.2956
-2.44138
-0.266831
0.398197
4.8956
4.80457
5.13989
4.80164
9.217
8.98908
-1.15194
4.13853
6.37281
-2.1069
7.06072
-0.245395
8.86926
6.99584
-0.0300193
5.47014
1.96394
3.27716
0.0970846
4.82578
-2.29012
4.01009
0.615611
2.46605
-0.656586
4.79705
-0.138877
1.14057
8.51983
8.51857
2.73674
-37.2116
0.999569
-3.08674
-0.506681
3.82414
7.49938
-33.735
5.03513
4.43505
2.02288
4.8908
-2.99695
-0.940029
0.0193421
9.49131
0.356153
-0.0756457
5.64617
-0.339233
0.100342
2.20172
0.944105
3.51329
0.198385
-1.2482
2.55399
3.40181
2.45411
3.11268
9.02744
7.16805
6.20375
7.35935
8.32093
1.6971
-0.281786
-0.415662
-7.25757
8.38674
-1.82654
4.78892
4.10265
-3.2047
1.83257
5.44294
-1.75626
2.00948
2.83427
10.3643
-3.97015
1.85592
0.0257263
5.60065
0.269102
-3.00583
8.20716
6.88516
4.49173
4.89385
-1.11505
0.711925
-5.04191
8.96573
-0.0400253
9.82522
-4.95881
0.53598
-20.5728
1.34989
-46.4921
0.692266
-0.288828
1.25844
0.0354226
1.53657
-3.01318
-0.0508328
-0.707452
-28.3521
-1.62452
-5.08923
0.312758
-0.459474
-4.66863
-3.48867
4.81896
4.93518
6.5691
4.75693
1.65272
1.6566
11.2361
4.57745
-4.26368
-0.0320175
-0.712978
3.56191
4.13848
7.61747
-2.45017
-2.50829
3.44078
-0.0552958
0.905504
6.16518
-41.256
-3.24452
-5.26906
9.09014
-3.41017
3.169
6.28106
-5.92594
3.53004
-0.288728
-3.85347
-3.8303
0.0839415
3.21019
5.83204
6.09906
-4.49495
-30.5158
2.29564
-5.47278
-1.36168
-0.928542
0.754871
-0.985814
-0.0524946
-3.09811
-3.92903
-2.11044
7.90195
-3.67691
8.69652
-3.38024
-0.405524
1.31226
0.181002
7.19027
4.52143
5.80626
0.213876
-0.935671
-3.85859
6.93944
-28.7532
3.30328
-0.127018
6.05108
7.17758
-0.0960075
4.862
8.32827
5.2385
5.32597
-13.9939
-2.28446
1.69781
-1.79423
-0.324889
2.26524
2.70017
0.188118
-3.93
1.05804
0.110931
3.84688
2.92272
-1.67933
8.83733
0.460979
0.00657428
0.646484
4.59314
-1.144
-0.0256737
5.30736
-2.85669
0.5666
-0.931239
5.01565
4.66374
4.24486
-0.0190278
4.49979
5.67855
5.47652
-1.04326
0.0819017
0.786135
3.96671
-2.72076
-15.7501
-2.31817
-5.18956
-3.6858
-0.0464144
-0.385515
0.10828
-38.1017
-2.27226
-3.11339
0.114513
-1.02006
1.59704
-3.51747
5.25853
11.2621
1.24079
-0.717563
1.91186
0.21985
0.950462
-0.342555
-1.27095
-2.23177
0.656795
6.60335
0.159091
8.13533
-0.0320874
4.16411
3.52929
1.66177
-14.625
1.60439
9.27899
-4.78251
4.73754
4.56209
7.5724
0.384711
6.83523
5.14171
-23.2894
5.585
-3.99209
-4.63046
7.03476
3.85836
-4.90762
-0.639757
6.46511
-2.49587
-1.59382
-0.148941
0.0288227
3.47849
2.11139
4.78624
4.28275
3.95286
-10.9743
-1.65933
-1.0552
4.73522
9.8284
-1.47769
-4.57198
-16.5282
4.6624
0.318562
0.560472
0.622501
-1.07695
3.40381
-7.7594
0.309256
8.57677
1.77182
0.0774188
-2.95238
-3.24909
-1.86751
-5.50217
-2.14421
-3.21968
5.84635
2.57164
-1.93945
8.44934
0.0513663
-3.73838
-0.684226
-4.55566
5.17875
-25.1717
1.41721
4.70894
0.17188
-1.1343
-0.442389
-4.25647
-2.14368
5.2459
-3.16426
-0.179399
-5.08476
4.55562
5.20342
-3.35932
6.22734
5.65523
7.82508
8.01297
5.30909
0.86502
9.53163
-5.40824
4.47673
-0.972452
-2.67124
5.92643
-2.46928
7.83835
1.87286
-4.15257
-10.2715
-7.65156
5.25328
-2.20263
-1.05728
0.381856
-5.60493
0.0424342
2.87605
0.62232
3.0578
9.07844
-47.443
-2.0475
-2.97577
4.90923
3.36452
-1.69172
11.0523
-0.176421
0.136287
2.89852
-4.97062
4.55807
4.83478
5.57642
5.6913
0.125468
1.87233
4.5139
0.675045
-7.48701
-0.0825956
5.18807
5.3588
7.00008
-5.05577
0.210488
1.05295
2.50694
0.812573
-2.37821
3.78154
-0.896217
3.98426
5.01295
-4.83098
8.16029
-1.61331
9.11344
5.52468
-2.99975
-0.0469534
-0.139562
1.52084
5.15735
-2.82144
6.81002
4.54675
1.28155
0.00236644
0.917302
-1.65164
1.3037
-5.01192
2.33437
-1.97575
4.61526
-14.4722
-1.63269
-1.04459
6.04701
7.32986
2.10874
-13.1155
2.0606
-0.395531
0.381173
2.30189
-6.729
-5.08465
8.70506
-2.79747
-0.119706
-2.21486
-4.41632
-1.18913
4.90569
-4.91853
-0.872587
5.04047
2.68871
5.19471
-3.21671
1.92512
8.85449
-9.9302
4.63393
1.01293
-5.63225
1.3654
0.86368
-3.3652
9.06623
5.59563
0.228667
8.86796
6.49869
6.01895
-5.66659
-14.3163
2.10686
-4.79158
-1.76727
-3.92602
-4.70637
-4.00019
3.46345
1.50941
2.2691
2.69512
-6.46589
3.02312
4.61618
-4.18902
4.94069
2.79977
4.71831
-0.406453
-0.301938
-3.31
-5.6975
-3.2089
-1.00698
4.61626
-2.71137
7.87938
-3.22178
4.75121
2.03877
-0.114746
-1.09512
4.9367
1.94133
1.1225
4.23187
-0.305935
-0.268906
7.42954
5.89454
-1.72156
-3.08527
-1.58123
4.27145
-0.239821
0.416268
-4.2905
0.00773664
-0.209755
0.0863385
4.02437
3.60108
0.444151
1.72766
-0.434171
-0.137888
-2.50495
6.06921
-3.31003
4.6375
-0.0449356
4.21814
5.08415
2.48777
4.17885
-1.43421
-2.89713
-0.0782716
-16.789
-2.52548
-1.58459
0.120267
-2.51792
3.60633
-0.343635
4.67506
-5.70022
-1.06367
-6.19538
-0.217465
5.11107
-3.85698
4.61838
0.943163
-2.19646
-4.53432
-3.22065
3.2418
5.05535
-0.150098
0.631659
-22.9362
5.75003
-17.3552
1.01899
-3.2889
6.16471
2.01574
0.00635061
5.19412
4.90818
6.005
1.26344
6.1274
-10.8307
0.0867254
-0.413821
4.42908
2.80514
1.19299
-1.88204
-2.29659
-3.05703
1.96386
0.240717
-2.90942
8.43485
-15.3315
5.85718
3.25791
-1.07676
-0.166081
0.246573
-0.314268
0.41249
0.766891
4.47112
-0.0522654
4.84046
-6.25379
0.206302
-4.80559
0.106733
-2.37404
6.20127
8.87386
5.47729
1.61499
-1.3096
2.92452
-4.21049
-12.688
-0.0777575
-0.433101
-1.79337
-3.01211
-2.32491
-1.86398
4.14479
4.54442
-4.69218
1.01445
5.41576
-1.82695
-4.31631
5.23857
-0.286757
-3.62114
0.0113419
-0.859176
0.0544402
8.4393
-0.0623099
4.44774
-4.32265
-2.56533
-1.87868
4.54779
0.30884
3.66116
-4.77169
-2.12395
0.217832
-0.925774
5.4772
4.12015
0.62218
-0.439524
-1.17147
9.28813
-4.90719
5.4952
6.19733
-0.981503
-0.145948
1.83607
-15.4482
-1.34607
4.12404
2.5451
4.50551
-2.53976
5.28159
0.224092
7.23735
-0.906402
4.27849
6.30129
3.80561
0.866061
-3.28725
1.38925
-4.60752
3.73019
1.90627
5.99414
0.340115
7.78751
0.721242
8.38686
0.233123
6.27147
-0.771946
3.38915
-3.65959
4.59228
1.98797
1.62456
7.93678
4.76521
1.19918
-1.67222
2.46244
4.31047
-0.146531
-5.22796
3.21267
0.169633
6.48281
-3.31276
7.9148
1.09777
11.4212
7.98836
2.87382
2.18969
-3.57769
0.138664
8.57594
0.256513
-0.389476
-0.420352
9.03901
1.94187
3.79376
7.94181
-2.55762
5.27249
-0.89181
5.81102
0.0927308
5.43535
4.90308
7.03585
-0.162732
-5.92308
1.25438
-3.30485
1.8955
-1.87103
0.134082
6.41128
7.37763
-0.0386575
0.0105361
-0.632485
6.55829
3.93623
4.17809
2.43895
-0.386606
-14.796
-3.38046
4.9582
-6.52419
-1.23629
0.177409
2.88381
2.0192
-1.97825
9.1942
-4.35578
7.8763
-0.492349
8.33846
-1.2188
0.386492
-0.064857
0.0296467
3.74795
4.5717
0.60934
-0.800878
0.0930897
-1.79824
7.40592
-1.84427
-0.0367132
-4.93027
-0.362123
-0.351431
6.05062
1.1948
0.0601949
-0.111296
4.6941
9.852
-3.22153
0.133544
4.52218
-9.3283
2.02612
-0.124193
2.74413
-0.522137
-9.64932
-1.91752
-0.965862
-0.547082
0.268
-3.63353
-1.61348
-0.499788
3.29544
5.11507
3.89696
9.49443
-3.56164
8.87691
-17.9228
8.09326
-2.76133
-2.64404
9.13191
1.58009
-1.21574
4.66627
-0.22491
5.22605
-8.71447
-4.99299
0.770336
-1.77704
-1.77513
-0.198164
-0.469629
1.69971
6.18146
-2.52024
1.90229
-5.9187
0.863844
-5.00804
-0.118346
0.0601214
-4.86692
-5.06541
6.84263
-0.0311387
7.50663
1.44055
-3.89936
1.26279
-4.69274
-0.199687
3.7091
6.23268
9.60514
3.42771
3.98922
1.18345
-47.403
9.23042
9.91545
5.35774
-2.66568
-2.64625
-4.56967
4.22795
2.60748
1.2313
3.96555
-2.06844
-0.045711
-4.10457
7.83187
0.366382
0.51716
-2.88123
4.39987
1.25952
10.8619
10.0037
4.23262
-0.214605
0.148302
-12.9468
1.48439
10.3174
-11.0349
-0.11633
3.02986
-0.171066
0.988133
-0.387345
-1.04956
0.869147
0.81465
1.76942
-0.013011
1.34327
7.02058
-0.591098
5.18905
-2.65815
-1.20825
8.79245
-2.98475
0.146502
-0.699677
1.8549
0.190275
-3.29718
-1.3913
0.14735
0.871592
11.04
-14.9413
-4.44406
-1.87527
-4.39612
-5.07745
-0.778024
-3.50243
-3.7624
0.00294829
-5.5908
-4.28991
-1.90836
0.13208
0.255231
0.371653
10.6612
0.182187
1.14734
-0.51405
0.694936
-29.8577
-1.0461
6.92004
4.74772
1.14609
-0.216942
4.56219
5.1599
-13.1215
-3.05393
-0.0390309
6.78944
-1.76832
4.20103
-0.0370431
7.82098
0.68092
-2.49801
0.391958
5.20765
-1.49738
4.26303
-2.59786
10.1116
-3.41571
-0.798366
-3.95151
1.83006
-3.15852
-2.62805
-3.25351
0.635814
0.61826
-2.43976
-5.20623
-0.440138
0.802995
-1.58358
-4.24787
3.61786
-4.774
3.91173
-3.10213
5.56403
9.12256
4.35246
-32.5514
4.73233
0.343017
0.228184
-0.299997
-1.4698
-4.63536
0.23848
-1.05074
0.554931
-0.163048
-4.8077
-3.19072
-3.56443
2.30152
4.59173
-7.07851
-3.21907
-1.74507
-0.0973748
-0.308085
2.35664
-14.7392
-3.15278
4.75375
-5.05182
1.63091
-2.37374
-3.70202
-3.54946
-3.53084
11.0326
1.06896
-1.98207
0.910514
8.58267
8.81584
-2.30542
-0.928722
4.6293
-0.0294243
0.200964
8.82304
2.41016
3.89093
11.1264
-1.9809
-0.432273
0.593347
7.63645
5.1406
4.84843
6.25295
3.22799
-0.0299509
0.338734
2.02637
1.05495
-6.2028
8.97992
-3.36735
-3.56339
-0.0143729
-1.48686
1.92391
-2.74431
-0.96546
1.07075
4.94547
5.29148
5.56059
-4.27535
7.51157
8.68276
-4.20026
2.60831
-0.285694
-0.130072
0.0908395
2.59997
-2.95821
-1.96064
-2.77691
9.85213
-4.01832
5.6432
4.85997
6.68961
3.14002
3.59684
-0.44589
0.00803328
1.74602
-0.214436
-4.55126
-5.1424
0.378381
-3.5682
6.09101
-2.39485
-0.0728773
0.719649
-27.9275
-2.80404
-5.20388
4.38759
-0.953695
-0.0410807
2.06628
-2.14936
1.4005
-4.71619
-0.421053
5.18322
-3.80195
9.00598
0.00610574
9.80802
0.0396426
0.0603831
0.453379
4.14193
3.86232
-7.16875
-0.494948
-1.45425
0.721835
2.95875
11.2539
6.73434
0.785892
-2.08601
1.91263
0.0419641
5.56342
-0.293979
2.54279
-3.12038
-3.11278
-24.1791
-0.0124801
0.0383125
-26.9044
3.23279
2.59983
8.57336
9.39879
-5.20027
-4.59944
0.608522
-4.29228
9.031
-2.34776
-2.77762
1.92608
3.30732
-1.76039
-14.1813
0.709359
-0.194426
4.1312
-1.69748
-0.267166
0.151776
-2.99955
-6.36363
-1.55875
-7.07557
-5.77195
5.27792
-2.13548
-2.54331
-0.87302
-0.312942
10.0319
2.92812
4.41689
-0.878759
2.15648
-0.192992
1.36381
1.40931
-3.44171
-12.6088
9.00905
5.1481
-0.259876
-17.3932
10.5287
-2.92693
-16.001
-3.2382
1.55285
-3.09521
-2.07127
7.58746
-0.513744
4.23543
1.70043
-3.75998
-4.06604
0.25833
2.05081
-7.60959
-0.199235
1.10061
4.67364
-3.18574
-17.3368
-1.82169
-1.17808
-5.06744
-4.16079
9.77017
3.04722
-2.93838
1.30495
1.11295
8.31864
2.12458
-13.2288
2.25675
6.24573
5.26452
-1.66986
4.28106
-0.641434
8.92664
0.0300005
5.01328
-3.57139
-1.68334
-0.0951242
-3.00106
1.91126
1.20136
-13.2076
-3.05908
5.76942
-2.31982
-0.377342
7.06425
3.56771
6.86166
4.46618
-2.31388
-0.0642207
0.138352
4.63092
0.123679
6.13151
3.20935
8.80911
-3.51901
6.60865
1.12274
8.96691
-3.90412
-2.6679
9.16083
-3.3414
3.07979
-4.07254
7.74316
8.76914
5.13457
-9.33018
4.73737
6.39954
-1.40159
1.84057
-2.12175
6.94788
-3.18962
-4.41062
-4.72683
-4.84836
6.29441
1.15461
-5.02228
2.00414
8.76975
-3.40649
-1.15959
-5.04011
-2.82633
3.56702
-0.577429
4.62113
4.33301
-5.18543
10.1082
-0.365322
7.27456
7.23673
0.256902
-0.114743
4.04828
-4.76441
-0.671379
3.91493
3.33982
-1.90866
4.41605
-3.72725
8.15351
5.28242
1.49512
-3.31341
5.38955
-1.63711
2.67018
6.668
0.68052
-0.0548997
6.37782
5.18983
-1.95613
-44.0691
3.13156
5.40861
8.90167
-29.6528
9.46644
9.73254
9.66695
-0.371518
6.18992
-3.45701
4.76476
6.83627
6.494
5.39457
7.51826
10.8368
4.12389
-22.0599
-2.3655
-11.7413
10.6966
2.27663
-0.955841
-3.24853
4.43269
7.58859
4.68761
1.21138
-0.424096
7.48523
-4.3456
5.091
-3.20065
1.93387
-0.167788
-0.41256
2.90481
-3.28994
-3.21115
-1.99411
-1.2157
-0.144161
6.01441
-1.37041
0.654831
4.38843
-3.59396
2.01778
-0.0532534
-3.51516
-3.63723
-16.7831
7.10319
7.74422
-3.01044
2.24928
6.34707
5.98685
0.0316225
-2.11745
5.25883
-7.53007
6.9627
-3.49808
6.76986
2.76869
0.499226
6.23014
3.02893
6.50464
1.29947
2.11845
-1.56299
-34.7972
-3.96068
-0.157171
6.3951
-2.38226
-1.79927
-2.37525
7.45042
6.44249
1.28573
3.19241
7.33094
-5.38666
4.54096
0.0554704
-1.74871
4.39408
-2.36845
-4.11742
-3.98215
-5.55789
-0.974552
-2.919
0.0201602
-4.5641
-44.3315
3.77693
8.99739
10.0036
8.44829
-2.39403
5.16269
-3.58166
4.41145
7.35375
0.422243
6.27805
-2.24535
1.53944
-1.72027
-0.312534
6.89944
-4.50018
5.50275
-4.38533
-1.30159
-5.62261
5.71075
5.44875
4.70481
-3.95946
4.46241
-5.98403
-5.15884
-5.27399
1.19815
9.04349
-6.57882
-0.932032
-3.1009
4.61322
4.54411
-0.347173
3.08731
-4.12808
7.44079
6.89749
-1.81865
-1.1133
7.24552
-2.07243
-3.43026
-0.265262
6.47198
7.5063
-3.46365
2.76499
-1.12549
8.82259
-4.81285
-1.51034
-0.507738
8.19615
0.0936241
-1.45171
-1.40794
6.89413
3.48768
6.79477
-0.262295
-5.95075
5.35026
10.5344
-34.4102
4.0272
-0.318849
-5.33246
-0.235545
1.39432
-3.26282
2.63741
-4.08482
2.91908
-1.78113
-1.74305
6.10466
7.6348
4.47278
-4.49435
-1.54039
5.67597
-4.1908
0.706924
-2.0461
2.03193
-4.40856
5.21644
5.6593
-0.226547
5.254
8.71647
-0.623851
3.46715
5.66132
-5.31514
2.68129
-1.71476
2.02032
0.3215
3.71374
0.0951378
1.34415
-0.689851
-14.8054
7.11939
0.591754
0.152576
-1.94659
-0.731161
5.03551
-4.25915
9.61985
-3.95233
-6.76675
-4.36991
6.38129
5.44304
6.76623
-9.87049
8.33576
-2.7931
3.2898
0.55456
-3.99267
4.34557
1.90784
-0.959077
2.8417
-13.0351
3.95774
-4.96417
-2.16624
0.00141159
-3.32694
-3.61959
4.00528
8.56535
0.264202
-3.48951
6.40791
-4.13647
7.68866
0.764432
0.170299
2.54248
4.79093
2.04417
-1.67558
-2.69606
-0.143203
0.854254
1.3459
-3.88475
-2.97589
0.167858
1.80139
-1.38839
10.8253
5.1366
4.59749
7.79016
0.615363
5.36196
-2.22645
-7.91274
-2.17733
4.64086
10.449
4.31665
-3.0059
7.06653
4.29774
4.37084
0.0825146
-0.209333
2.24736
9.67451
-3.14772
-1.72488
7.54742
7.30104
5.02316
4.79311
5.9961
3.32146
-5.62291
-2.46918
5.28706
-43.8576
-30.6763
4.72799
-2.29601
-3.55908
-0.0330561
5.18134
5.47425
5.50344
-0.831302
6.71321
6.93614
0.358404
5.90241
4.98618
4.34569
3.52276
2.46664
2.1451
-0.191503
6.31116
5.86598
0.1567
4.13177
-0.876871
-0.00562015
8.45461
6.15307
-0.158501
-3.23872
0.47206
6.3655
2.80186
0.606565
-0.187868
0.596103
-1.0915
0.878724
-3.17112
-0.899706
2.89785
-0.573571
-2.97331
-4.00832
7.96696
-3.33849
-14.0843
-3.02353
8.57281
-0.801316
1.04542
0.651191
-4.85763
3.68741
4.43215
2.34905
7.47424
3.77717
-0.065776
-12.13
-3.18632
-0.268299
5.72582
0.198128
-3.53323
-4.96165
-0.984021
-13.798
-3.00954
-4.79884
-0.568305
1.67239
4.5851
6.54293
-0.754899
-0.136326
7.47758
5.32295
-3.43571
-1.31268
-11.5189
2.50975
0.507887
2.38265
3.57883
-2.04462
-0.848707
-0.951601
0.950388
-2.60417
-12.387
0.492586
-2.08696
-6.16959
-4.88761
-3.08506
0.370826
-9.84627
2.16603
-3.60561
4.72569
4.2723
0.440299
6.44533
-2.89521
8.6422
-1.70274
0.149272
-3.92936
4.77169
2.46545
-35.1672
-8.85421
4.84025
5.92542
8.99465
-3.32372
-7.22269
-2.67595
-0.50243
-0.0553612
-4.02436
0.347649
-4.50326
2.49715
-3.54926
3.1073
-1.54359
-0.401566
7.65824
4.13011
-4.85066
-0.191464
-4.32426
-19.5945
6.50469
10.0408
-25.2301
6.07281
4.56601
-0.0633545
-8.53342
6.27927
5.85853
-4.95069
-0.650264
-2.30648
-2.75794
-3.82728
-4.31734
-3.99482
2.96143
0.0439163
5.34862
-3.78339
-4.86416
4.37967
-3.89623
-4.74655
-0.0190049
3.62085
-4.89265
-2.08073
-5.02315
-3.92152
-4.64581
9.16953
-8.62596
-0.855248
-3.49304
5.337
-5.67952
-0.347742
-4.20127
-3.60214
-1.54163
5.51036
0.0790141
-4.04836
4.13583
-0.0323238
-1.32892
-3.82819
-4.05084
2.82283
3.69476
4.77807
-7.03786
7.68016
-1.0654
-0.0497656
0.168245
-8.50981
-2.54631
-4.06987
-2.3154
0.950382
2.02337
-0.0272967
-1.35839
-2.6257
4.31893
-3.26171
5.01519
-3.42224
2.91277
-0.941043
-4.08485
0.0968653
11.0363
-5.87882
-5.10289
-6.60876
-2.22102
4.70692
0.0317203
0.14537
0.00438477
-5.03143
-3.29535
-48.1835
-4.33551
5.28198
-4.35021
0.674984
-5.18477
-0.150649
4.18541
0.144561
1.05908
-1.49703
6.59369
-5.26605
-1.77454
7.15292
1.54247
-5.34122
-1.27397
-3.47078
-2.37909
-1.33156
6.36437
-2.36263
1.7902
-6.55036
-3.42195
-3.93043
-4.19776
-14.2427
1.89302
-0.600746
4.76753
1.4321
-3.04977
-0.231561
-2.66832
6.12611
7.62079
-4.99389
-0.157331
5.18742
4.52389
3.26875
-1.97699
-2.97374
-2.99774
4.78914
1.21249
-2.3293
-3.82672
2.04907
5.83573
-1.06185
-0.498271
-0.0241739
7.00126
-4.63032
-4.994
-0.0169613
3.98545
-0.28569
0.000346457
7.72632
6.1359
-0.0179508
-2.34528
6.30017
2.20995
-0.654316
4.17483
-1.05003
-2.50196
-3.35068
-2.31612
6.00175
5.07519
-0.295182
-1.76361
0.0877347
-7.96785
5.22263
-2.33736
2.99746
6.64323
7.22143
-1.03494
4.72996
3.94637
5.37156
5.77114
-0.825907
5.78579
0.025775
4.82864
2.31751
5.27556
-3.26013
6.20322
5.89207
3.88249
2.96948
-1.61412
2.91862
0.115141
-2.04401
6.86177
6.88288
-2.06238
6.74371
-2.19663
-39.9632
5.19612
5.24451
-3.67942
-0.419081
-6.45609
-2.21902
-5.59533
-2.7075
-3.64323
-1.56994
4.17606
9.6741
6.28797
-0.919927
-3.14962
5.04746
2.28503
-4.24438
-2.44557
-1.49557
-5.47501
-48.7005
-32.4514
4.56045
0.233894
2.21907
0.022705
0.021092
-0.0828307
-0.234974
0.990883
1.61921
3.30036
-1.61721
0.889653
-6.04004
-3.15946
3.05222
2.51342
-0.265524
-7.273
3.03808
-0.215602
1.51636
-1.67841
4.72219
4.14787
8.18599
4.78773
-1.97767
-1.43515
-1.84344
-1.35147
-0.119229
0.0344069
-0.499014
-2.03676
9.93324
0.263488
-3.95195
7.54415
-3.1512
-3.66365
-3.55967
-3.23909
-8.86261
-0.203119
-3.74632
4.48671
-0.611106
-1.88239
0.239082
-1.25548
-2.44176
-3.05222
0.171857
3.64355
-3.38902
-2.82941
-4.08107
1.49565
-2.4996
5.25966
7.8073
-1.30094
5.39438
2.16949
3.31399
8.69173
-3.18394
2.67289
2.2512
1.69925
7.34588
-2.13476
-0.495761
-1.80101
5.06204
7.80241
-2.04628
-0.0690343
-2.19299
-2.16897
2.266
-1.73476
-4.26169
-1.45285
1.53788
-8.45617
0.860074
1.12884
4.14546
0.953895
-26.6295
0.122572
-0.147155
-0.45241
8.4011
9.56479
6.78505
10.3457
4.179
3.93343
5.50415
4.53278
4.41413
-1.88064
4.93382
-1.28536
-48.5527
7.47466
-0.732779
-2.61524
9.09408
-0.147341
-3.03522
2.32419
2.03366
5.98149
-5.96733
4.38063
8.38818
-3.18867
-43.8338
-4.16649
3.33196
-3.62402
6.4322
-0.492049
6.11233
4.6553
-2.94989
5.63496
-1.60094
-15.2719
-19.7012
-2.34903
5.96123
-2.21605
4.96339
-0.244349
-4.12679
0.400386
-0.212886
-6.5468
-1.54672
-7.83676
6.09232
0.865484
-4.75963
-2.21361
2.94449
0.755704
-2.27029
2.15104
-0.0293059
2.19313
-5.13037
2.58876
0.886365
1.90125
-0.472217
4.6605
2.49768
1.15423
-5.74823
10.2053
-2.54359
-5.16797
4.62621
3.95696
-4.43543
-2.36318
-3.25522
2.38669
2.01256
-2.10452
-0.382731
-0.942474
10.3066
0.279895
-2.99943
0.309787
-1.49379
2.60034
-0.924113
4.28089
2.8213
-3.68757
2.75375
-7.8691
3.25511
1.83338
4.73401
3.23919
-0.0998087
-0.100641
1.833
5.35925
0.157915
0.280922
-5.40405
-3.20323
-1.51021
4.06078
-5.29882
1.97334
-6.78507
5.96949
-4.18643
-1.10616
6.56033
5.82774
1.82839
-3.18801
-10.7875
5.43856
-7.95535
6.11793
2.39127
0.344581
4.98339
1.04314
1.25493
0.924788
-1.64417
-1.7958
3.01172
-5.16204
6.75355
0.803494
10.4668
0.0392026
1.22088
5.88358
0.555685
1.38435
5.24349
3.69643
2.64231
-2.25332
-0.184904
4.49763
2.85275
0.894131
-2.47914
-0.623112
-3.12746
-4.38193
-1.63793
4.43127
-0.0867636
3.70453
-0.720176
8.60757
6.32153