/*--------------------------------*- C++ -*----------------------------------*\
| =========                 |                                                 |
| \\      /  F ield         | OpenFOAM: The Open Source CFD Toolbox           |
|  \\    /   O peration     | Version:  2306                                  |
|   \\  /    A nd           | Website:  www.openfoam.com                      |
|    \\/     M anipulation  |                                                 |
\*---------------------------------------------------------------------------*/
FoamFile
{
    version     2.0;
    format      ascii;
    arch        "LSB;label=32;scalar=64";
    class       volVectorField;
    location    "1.7";
    object      U;
}
// * * * * * * * * * * * * * * * * * * * * * * * * * * * * * * * * * * * * * //

dimensions      [0 1 -1 0 0 0 0];

internalField   nonuniform List<vector> 
13486
(
(7.16292 -1.05321 2.71377e-20)
(8.31458 1.36319 1.34205e-20)
(13.2876 0.0546138 0)
(-10.9629 4.55746 -8.08638e-20)
(11.4542 -2.19383 2.56285e-21)
(12.3185 1.03884 4.33811e-22)
(12.4899 -0.910923 1.82907e-22)
(9.7376 -3.47908 -1.03536e-20)
(9.51264 -1.81284 0)
(9.63337 3.71172 0)
(-6.039 12.707 -5.96739e-20)
(12.2958 -0.482829 0)
(6.32533 -1.97401 -2.69159e-20)
(11.733 4.22822 -1.11525e-21)
(11.7068 -1.18091 1.45771e-21)
(9.40062 3.83837 -1.01961e-20)
(7.45401 -1.57575 3.99946e-20)
(2.19697 -3.05579 1.21913e-20)
(11.1774 -0.117817 1.08368e-22)
(8.03568 -0.286551 -2.7329e-20)
(-10.3522 1.30604 -3.06492e-20)
(6.41005 -2.03352 3.46762e-20)
(8.32495 1.3055 -1.07507e-20)
(20.0002 -4.20559 0)
(10.04 3.04969 3.35772e-21)
(19.5138 -3.85506 -2.16239e-20)
(1.8335 -1.2041 4.87557e-20)
(14.4779 -0.638314 3.78376e-20)
(9.85702 0.69315 0)
(14.1515 -2.29638 -2.86597e-20)
(-10.4623 -1.76079 -1.93801e-20)
(11.546 -0.922483 -4.89575e-21)
(17.1897 0.0943839 2.99912e-20)
(12.1156 -1.06018 0)
(9.76344 -3.32863 0)
(8.92712 0.0979016 1.94e-22)
(7.51916 0.291422 -4.18955e-21)
(7.62889 -3.48022 1.28579e-20)
(8.71621 -0.994548 -1.10261e-21)
(9.66665 -1.07611 1.22858e-20)
(12.5 -3.80434 0)
(5.42558 -2.53781 -3.21073e-20)
(10.9354 0.0755477 0)
(10.1246 2.65972 -1.61347e-20)
(10.1234 2.67787 6.55602e-21)
(12.2702 -0.494216 3.83324e-21)
(-6.19714 6.99453 7.99294e-20)
(9.71064 0.682328 3.36804e-24)
(7.64841 0.410508 3.17429e-21)
(14.4664 0.447445 1.33912e-20)
(9.89622 0.13445 1.63677e-20)
(8.92745 -0.507124 0)
(12.2211 -0.969315 -6.47827e-21)
(8.02137 -2.73936 -1.87186e-20)
(2.26312 -4.29151 0)
(11.3143 -2.28637 -2.36385e-21)
(13.2716 2.50077 3.72544e-21)
(9.0193 -0.706284 -4.83431e-21)
(17.2978 0.299377 3.6045e-20)
(6.39493 -0.573478 0)
(-6.43752 13.3958 -8.03266e-20)
(6.24074 -0.166034 0)
(20.3465 5.16053 -2.89032e-20)
(-10.3713 1.4594 -3.37148e-22)
(10.3034 -13.5342 0)
(7.27229 0.368813 -2.20876e-21)
(-11.8885 4.68238 -8.39668e-20)
(7.10285 0.284779 9.33835e-21)
(9.53829 -1.96661 -6.74846e-21)
(8.33699 0.0499958 1.3794e-21)
(-11.8274 5.12083 9.69524e-20)
(2.33104 -4.08656 5.15457e-22)
(9.69563 -0.606314 9.49287e-21)
(-1.93628 -3.54463 -2.04918e-20)
(6.84752 0.709288 -6.1599e-22)
(13.2437 2.48908 -7.99738e-22)
(6.83381 0.830926 1.71752e-21)
(11.7428 -1.22114 -5.13397e-22)
(-5.98052 8.35667 -4.00896e-20)
(9.22743 -3.22254 0)
(9.43481 0.188566 -7.63065e-23)
(8.09135 1.86687 -8.7242e-22)
(13.2271 3.56526 4.67722e-22)
(13.4105 -0.0362332 -1.27366e-22)
(7.08287 -1.05055 -5.28215e-20)
(6.98625 8.0922 0)
(6.8291 -1.47412 -2.35161e-22)
(10.0238 0.220226 -2.51599e-20)
(9.27508 0.991837 -1.11054e-20)
(8.54137 5.01397 -1.22629e-20)
(11.6269 -1.20264 -3.94327e-21)
(10.3541 -2.85059 -4.72376e-21)
(7.51707 -1.54988 6.81914e-21)
(8.19742 0.384332 7.22932e-22)
(8.8259 -2.62763 2.75368e-21)
(9.64418 0.544187 -5.53e-24)
(1.73926 -0.672012 0)
(-13.5956 4.9031 5.28462e-20)
(9.71648 -1.06381 -2.34828e-20)
(5.97165 -0.0464955 3.07699e-22)
(9.44397 0.119125 0)
(11.6684 4.21531 -5.50355e-22)
(-14.3885 4.45417 3.02247e-21)
(8.96551 -0.627656 5.67515e-21)
(6.36616 7.59539 0)
(4.72212 1.54221 7.48275e-22)
(9.71729 0.176058 2.97248e-23)
(8.73602 -1.17269 -2.45245e-21)
(-4.52969 7.8461 5.3943e-20)
(9.98655 -4.52792 0)
(8.37585 -3.93841 0)
(11.223 -0.650458 -3.30553e-21)
(8.06316 -2.61441 2.26128e-22)
(11.9782 1.88208 -7.61689e-23)
(5.22303 -0.236456 0)
(8.18809 -3.87447 -9.89305e-21)
(9.85401 3.19182 0)
(12.4686 -1.01832 0)
(9.60694 -0.527168 0)
(8.01688 0.50151 -1.76663e-21)
(2.91481 -2.9154 -5.28011e-21)
(-8.65038 13.2142 0)
(8.67706 -2.35568 0)
(8.69281 -1.03209 3.55662e-21)
(9.20459 -3.28159 0)
(8.95885 -0.442093 0)
(10.7554 -1.19685 2.31469e-22)
(10.8389 0.557505 6.04754e-21)
(11.33 -0.62012 -3.71851e-21)
(11.7199 -12.7801 -3.06351e-20)
(8.81345 -0.375075 -6.04797e-22)
(-5.08059 6.10943 -1.99045e-20)
(-3.23764 -2.18375 2.83658e-20)
(0.136035 0.908087 2.3766e-20)
(9.96169 0.0620827 -2.65864e-21)
(9.29861 2.2226 -1.3245e-20)
(5.5269 4.1039 -8.24592e-21)
(9.6185 -4.21012 0)
(8.04072 0.568916 5.07913e-22)
(9.75443 -2.73978 -3.88639e-21)
(16.0252 0.72709 -2.92913e-20)
(12.3753 -1.03459 5.4816e-21)
(11.7786 -0.874708 0)
(9.17037 -3.05073 0)
(11.9712 0.0926192 -9.82851e-23)
(18.1196 2.46437 -6.17615e-20)
(10.3644 -1.84465 -2.50374e-22)
(-3.9204 7.63613 0)
(14.6301 0.58473 0)
(9.90802 0.66206 0)
(10.0626 0.0688822 2.66085e-22)
(11.9284 -1.51614 0)
(9.45747 0.18378 7.9861e-23)
(7.60327 1.79504 -7.41049e-21)
(10.7894 1.79966 0)
(13.4801 0.0479261 0)
(9.92349 -4.34421 0)
(-3.40439 3.91503 1.46906e-20)
(8.55268 -3.34634 2.53795e-20)
(8.58364 -1.82913 -4.43865e-21)
(13.66 0.264252 7.1766e-21)
(8.58742 -3.24708 -3.7995e-20)
(11.9172 -1.83924 4.38271e-21)
(4.94669 -2.42808 1.40866e-20)
(9.07741 -0.562505 0)
(12.3433 4.3142 -9.45869e-22)
(11.3348 3.8084 5.45237e-21)
(2.03479 -0.678217 -3.53069e-20)
(10.4077 -1.9454 -1.47774e-22)
(-0.0894404 0.652519 6.43534e-21)
(-3.96613 -1.66129 2.52122e-21)
(10.8197 1.62856 5.23473e-21)
(9.76843 0.336547 -2.09186e-20)
(11.2897 -0.838913 3.32063e-22)
(9.45289 0.358743 -4.27558e-23)
(-14.6338 4.71107 0)
(11.3612 5.67044 -1.40287e-21)
(16.6875 1.32856 3.78755e-20)
(9.86075 0.147969 -2.58106e-20)
(11.8467 -0.830246 0)
(9.8843 -1.37236 2.39032e-20)
(11.9567 1.75602 -1.04445e-22)
(11.5433 -0.807553 -9.94053e-23)
(-10.8753 6.78177 0)
(13.1007 -0.357216 6.16889e-22)
(13.8716 -0.441336 -1.71681e-20)
(10.2877 0.63769 -3.24004e-26)
(13.3593 -1.63532 -7.84648e-21)
(12.3471 -3.7223 0)
(7.57472 -3.65167 -1.38974e-20)
(7.78149 0.55167 0)
(12.9915 0.342345 0)
(9.21238 -0.912251 0)
(6.74546 3.95954 -1.60541e-20)
(9.3671 -1.03345 0)
(-7.99543 12.7531 -1.76107e-20)
(12.2438 -15.5806 6.65154e-20)
(13.9424 0.180927 4.26023e-21)
(6.87664 -3.31169 -5.98204e-21)
(12.1674 4.06038 4.31678e-22)
(-9.55713 -2.09414 1.85408e-20)
(10.8511 0.618485 -1.84512e-22)
(7.56767 -3.57079 -1.48998e-20)
(11.3244 -4.52841 -3.90562e-22)
(8.86942 -2.21139 5.56841e-21)
(9.5009 -0.996594 -4.1484e-21)
(0.00418192 -3.75318 3.69394e-21)
(9.33208 -0.17625 2.01974e-20)
(9.17056 -0.920528 0)
(13.1651 -0.279733 0)
(13.9802 -0.8232 2.62291e-20)
(19.0478 -6.80229 4.84628e-20)
(8.07991 -0.151367 2.50929e-20)
(9.55647 0.234691 8.30062e-23)
(12.3157 1.27797 -5.00278e-22)
(10.8956 -4.6464 3.43616e-21)
(14.3986 -1.97433 0)
(8.65023 4.63128 3.04963e-20)
(7.89298 -1.62808 0)
(15.2507 5.53166 0)
(5.82674 0.610159 -7.61535e-20)
(14.6137 0.724171 0)
(9.62175 -2.71616 9.02028e-21)
(13.9759 0.316814 0)
(12.3636 -1.18861 -1.11997e-21)
(6.37399 -2.86394 9.70204e-21)
(12.8994 2.26748 -1.90224e-22)
(-11.3177 -4.88408 1.98393e-20)
(10.5497 -2.9923 5.86284e-22)
(7.99368 -1.7193 -4.25848e-23)
(9.92245 -1.35174 -7.68788e-21)
(11.6816 -2.08799 3.37765e-20)
(16.2374 0.645196 3.66715e-20)
(5.27351 -2.45013 1.10311e-20)
(-13.2279 2.11001 0)
(6.25953 -2.98873 1.12824e-21)
(12.692 -1.50798 1.3293e-20)
(13.1635 0.276186 1.47389e-22)
(6.40333 -3.01191 3.11629e-20)
(11.6094 -0.521979 0)
(17.6207 -0.082034 0)
(10.0923 0.30262 3.21953e-20)
(12.1016 1.07809 0)
(6.24535 -3.04764 1.01837e-20)
(8.49231 -1.25312 -2.10718e-21)
(8.94906 0.300624 0)
(12.0971 -0.160581 -1.58052e-21)
(16.8214 -3.454 6.32951e-20)
(1.92037 -3.69884 4.86264e-20)
(9.9406 2.50187 0)
(-15.3374 7.75345 -2.68695e-20)
(5.09262 -0.115279 4.1043e-21)
(7.73938 -3.78525 1.23191e-20)
(8.75314 -1.1978 0)
(9.80094 -2.67831 3.01677e-21)
(-15.3594 7.12798 2.34891e-20)
(11.6277 -0.943603 4.50335e-21)
(10.7342 -4.83924 -4.34213e-21)
(2.0864 4.07712 -1.53809e-20)
(17.4578 -0.267678 2.69253e-20)
(8.7617 1.09343 0)
(8.5028 -1.19505 -8.27174e-23)
(11.6634 -1.19186 -3.62385e-21)
(-14.8744 5.70793 -2.93259e-20)
(11.0176 -3.32113 -3.14729e-21)
(-11.2493 7.82471 0)
(10.6347 -2.88602 -7.71952e-21)
(-11.3566 -0.703705 -3.16855e-20)
(10.279 -0.0218363 -1.13305e-20)
(5.01927 -2.38823 0)
(7.28579 4.52059 1.2219e-20)
(9.85974 0.250886 -7.07332e-21)
(14.3079 -2.23376 0)
(12.3154 -0.681623 3.26282e-21)
(6.55123 -3.00858 1.29312e-20)
(16.1973 -3.72899 -3.55095e-20)
(9.81309 -2.44212 0)
(4.25883 -8.54128 0)
(8.84347 -1.29394 -2.60499e-21)
(10.5119 -1.10586 1.49556e-21)
(4.2298 -8.92132 1.13453e-20)
(10.4228 -0.876119 -8.47042e-21)
(9.64057 0.311374 1.55128e-20)
(21.2644 -0.322092 -4.94298e-20)
(-9.73228 12.6208 9.74307e-20)
(1.67134 -1.12777 7.69906e-20)
(15.9994 1.14175 2.99787e-20)
(11.2088 -0.780126 4.88966e-21)
(13.8312 -1.23298 1.66112e-21)
(10.0144 -0.0362398 0)
(-13.8216 2.27114 0)
(7.98963 -1.29854 2.25996e-21)
(8.0887 -3.80016 1.03983e-20)
(10.0073 0.100199 -2.58025e-21)
(12.575 -1.42372 1.22922e-20)
(13.0182 -1.56735 0)
(13.3981 -0.0252286 -9.85787e-21)
(12.4893 -0.600997 -2.50191e-21)
(9.53092 0.304849 -1.41333e-20)
(12.9559 -2.02128 -6.0957e-21)
(9.13616 -1.97643 -5.37366e-21)
(0.313945 -3.84755 7.22269e-22)
(10.9655 -1.38535 -1.27452e-21)
(11.6215 -0.908304 4.8135e-21)
(7.86604 0.304188 7.00127e-22)
(9.66713 -4.72955 0)
(6.4722 -0.624012 0)
(10.922 -0.204128 3.18938e-21)
(7.83545 -1.81322 2.37439e-22)
(7.64054 0.498356 0)
(8.8598 6.68138 -4.02497e-20)
(-10.4936 4.39177 0)
(10.894 5.48439 2.29853e-21)
(11.6059 -0.71953 -4.41085e-21)
(6.05554 8.91788 0)
(9.29227 1.93213 -8.16031e-21)
(7.63047 -1.50697 -3.29484e-21)
(9.16871 0.953546 -9.48014e-22)
(9.3073 -0.136455 -2.2429e-20)
(10.9978 -2.9746 0)
(7.35511 0.478246 4.00449e-21)
(8.01555 -1.04882 -1.51495e-23)
(9.82749 0.193906 3.25448e-21)
(8.1543 0.656124 -1.36857e-20)
(3.13579 3.90787 1.50667e-20)
(11.8535 -1.12604 7.99205e-21)
(11.022 -1.61225 -1.77138e-20)
(10.4586 -0.854203 0)
(12.8441 -0.595306 6.56574e-23)
(11.1658 -1.64008 -2.7308e-21)
(10.0392 0.0425796 3.63738e-20)
(10.4263 -2.83817 0)
(11.3704 -1.3915 -2.17743e-21)
(7.10259 1.81886 0)
(11.9943 -0.743848 7.94895e-21)
(9.19792 -2.46975 -7.17271e-21)
(4.01545 -1.75146 1.36109e-20)
(11.8653 -1.66331 -8.27248e-22)
(10.1038 0.926908 0)
(8.42674 -1.22944 -3.22815e-21)
(10.8418 -2.91102 8.58667e-21)
(8.22318 0.630408 1.29416e-20)
(11.2895 -1.67716 1.14428e-20)
(11.5157 -0.795478 7.01121e-21)
(-12.3583 9.44756 -6.92173e-20)
(9.72336 0.644823 2.90371e-23)
(11.0102 -0.902205 0)
(4.98585 -1.5912 3.19179e-20)
(15.3251 5.66176 0)
(7.95976 -1.33783 -5.21474e-23)
(10.9015 -0.488911 1.37057e-20)
(12.6925 -0.604675 -2.40771e-21)
(12.5069 -0.689422 2.53976e-21)
(0.953655 1.2054 -5.81221e-20)
(9.68357 0.276784 1.76389e-20)
(8.98532 0.136219 0)
(-2.99429 -3.70831 -1.66018e-20)
(10.7458 -1.2347 -4.61022e-21)
(8.10931 -1.73597 -4.26177e-22)
(16.92 -6.953 3.68044e-20)
(12.9041 -0.14693 0)
(12.31 -1.2457 5.51992e-21)
(8.9088 0.680067 2.78837e-20)
(9.75981 0.261562 2.1479e-20)
(14.1877 -2.52202 0)
(9.52953 0.0755794 1.55243e-23)
(12.9298 -1.4341 -1.24847e-20)
(-6.13775 4.32364 1.10504e-20)
(7.82503 -0.223363 3.49714e-21)
(10.7007 -1.07536 4.39726e-21)
(11.2974 0.111669 7.48816e-24)
(10.9871 -0.830942 0)
(12.3688 -1.16894 -3.77309e-21)
(-15.208 8.66406 2.68157e-20)
(12.0114 2.43235 -9.30471e-22)
(10.0803 0.145982 1.35731e-20)
(8.41669 0.0513169 0)
(8.11762 -1.23097 -3.70634e-21)
(5.49262 10.1149 0)
(14.2584 7.34673 -8.31218e-21)
(10.3149 -0.058794 0)
(10.46 -3.28012 -3.7148e-22)
(6.71929 -0.553574 -7.59875e-21)
(7.53552 3.6696 2.8687e-20)
(-6.42024 5.19754 -4.43096e-20)
(10.0403 -2.44349 0)
(11.462 0.445271 -3.87696e-21)
(10.1439 1.05614 -8.68102e-21)
(8.10147 -3.9624 -2.69424e-20)
(-8.11876 -0.308399 2.62073e-21)
(8.1803 -0.207361 -3.76561e-20)
(14.4707 -1.99358 1.35173e-20)
(10.1702 1.0445 6.19915e-21)
(7.17329 -2.12089 0)
(6.74651 1.41166 1.52876e-20)
(8.2014 0.74671 -1.41271e-21)
(-11.3364 4.62558 4.76302e-20)
(-15.4863 7.83443 -9.32401e-20)
(8.41495 -3.49132 -5.22616e-20)
(16.1197 1.13902 0)
(8.46173 -3.67467 0)
(9.74688 5.87663 0)
(10.348 -0.383652 0)
(7.54157 -2.32013 -1.29657e-20)
(11.8607 -0.71664 0)
(6.90354 -1.13735 0)
(8.21035 0.494282 5.31761e-21)
(16.5692 1.28521 -3.89181e-20)
(10.8777 -0.779645 -1.08617e-20)
(8.27624 1.55222 4.67401e-20)
(10.0226 0.192211 -4.25698e-21)
(10.5578 8.0915 0)
(14.8993 -1.35 0)
(9.58048 0.300968 1.5101e-20)
(9.85796 0.0657243 2.58893e-21)
(5.9579 4.30815 0)
(-11.4427 6.75189 6.97277e-20)
(10.8605 -3.39684 3.53045e-21)
(-4.84051 -2.16664 0)
(11.605 -0.516683 7.2841e-21)
(10.0349 0.20367 -1.72645e-20)
(3.21011 1.47224 -5.34328e-21)
(4.95325 -1.53365 0)
(9.96137 1.03232 1.61075e-20)
(13.2909 1.43173 0)
(13.3047 -1.55875 0)
(11.0066 1.14886 -8.80467e-22)
(9.55051 0.349953 8.13519e-21)
(2.90941 -0.766951 -6.38204e-20)
(11.2682 3.69388 2.17723e-21)
(6.62203 -1.59886 -1.31794e-20)
(10.297 -0.3586 1.58407e-21)
(10.3613 1.16849 4.85458e-21)
(13.7968 -1.13972 8.88672e-21)
(11.3198 -3.23258 0)
(16.4897 -2.69335 2.97921e-20)
(6.75084 -0.240451 0)
(8.05466 -1.25034 2.08287e-21)
(11.2826 -0.873931 0)
(7.20013 0.233383 1.99311e-20)
(-1.93894 2.43584 -7.54945e-20)
(14.5942 -1.78066 0)
(0.225095 0.0587301 1.07303e-21)
(15.1333 -1.60317 -2.91144e-20)
(8.54344 -1.17629 -1.03022e-21)
(8.88725 -1.24916 3.38251e-20)
(6.98313 3.55917 -1.78061e-20)
(6.59555 -1.56498 -3.78299e-20)
(14.5878 7.4234 0)
(7.8665 0.49621 1.72143e-21)
(-12.3379 9.95269 -1.68809e-19)
(9.98742 1.07272 0)
(9.16318 1.08283 1.03863e-21)
(13.9412 0.226347 -2.9107e-21)
(12.4561 6.08205 0)
(10.0312 0.0389677 0)
(-13.7253 6.95829 0)
(-14.0671 2.88394 1.10495e-19)
(20.0073 -0.351022 5.8549e-20)
(16.9359 2.73254 1.45396e-21)
(10.8535 5.21577 0)
(8.47686 -0.889138 2.37376e-20)
(9.42641 0.363875 1.10094e-22)
(11.2174 3.39317 -4.63692e-21)
(-10.1257 2.89631 6.08397e-20)
(9.53577 0.775182 0)
(9.77399 0.673503 0)
(3.90446 -0.588395 -2.17276e-20)
(7.04543 -2.09221 -9.15551e-21)
(9.69201 -0.843057 0)
(9.19978 -4.28513 -7.84576e-21)
(9.58968 0.0872144 -1.17485e-22)
(9.68713 0.506606 3.00645e-23)
(4.28343 -1.83929 0)
(10.1203 -0.510556 5.01614e-21)
(8.14438 0.56355 1.35366e-21)
(13.3464 1.39884 6.01513e-21)
(9.00907 -2.55099 0)
(3.37446 -3.05807 -1.15735e-19)
(12.4633 -0.611331 2.73234e-21)
(9.96251 0.498646 3.2937e-21)
(8.70277 0.182361 5.7245e-22)
(12.6498 4.27023 0)
(8.32327 1.54651 -1.24132e-20)
(15.7797 4.17091 -1.02763e-20)
(8.259 -3.16723 1.02391e-20)
(10.0603 0.254658 0)
(-7.97046 -0.0900763 -2.68928e-21)
(2.3795 -0.447423 0)
(10.1613 0.218575 -1.28147e-20)
(9.97017 0.298986 5.44053e-21)
(9.38811 0.165804 -2.97341e-21)
(-15.108 5.11661 0)
(13.1719 -0.0736448 -5.8186e-22)
(5.54768 2.41598 4.14759e-20)
(11.2815 -3.23962 0)
(8.10498 0.4035 1.63189e-20)
(12.5519 -1.99142 7.02575e-21)
(10.9294 0.104748 0)
(-10.4897 -2.25746 1.64234e-20)
(9.17349 -2.9247 -4.89846e-21)
(11.3595 0.0761104 0)
(3.1928 1.99735 7.27219e-20)
(9.03803 0.995116 0)
(8.64549 -3.91053 9.69587e-21)
(-15.8162 7.51914 5.52709e-20)
(10.2625 0.72663 6.45328e-25)
(12.4656 1.06663 -1.92901e-21)
(6.6805 1.36589 8.07309e-21)
(8.82066 -1.34869 -1.23476e-20)
(10.039 -2.17758 -3.25902e-21)
(8.72439 -3.83039 1.79802e-22)
(10.6588 -1.06842 4.33809e-21)
(12.5601 4.20855 2.34745e-21)
(10.6833 -4.7014 0)
(9.97033 0.0607429 -1.20311e-20)
(-4.02156 -1.89424 -1.42669e-20)
(6.91448 -0.31149 0)
(7.98741 1.27704 -4.44281e-22)
(8.37177 0.0583632 0)
(6.08357 -1.63345 3.32588e-20)
(10.262 -3.60572 0)
(9.28609 0.0473029 -3.7589e-22)
(11.2054 -0.43835 -7.8642e-21)
(-9.96112 -2.45669 2.97805e-20)
(-14.5645 7.47856 8.42269e-20)
(12.5703 -0.0923251 -6.64327e-23)
(9.52448 -4.51008 5.11075e-21)
(8.61915 -2.36198 1.15492e-20)
(7.41661 -1.54068 0)
(-4.68799 4.41906 -3.5915e-20)
(11.4148 -3.02826 -7.72528e-22)
(-5.3432 5.65556 -4.24059e-20)
(9.68256 0.572649 -1.62417e-23)
(7.16763 -2.58016 0)
(11.0491 0.105234 -7.10346e-23)
(-11.5552 7.48739 0)
(-14.3201 4.97366 2.71912e-21)
(1.69017 1.59291 5.66341e-21)
(1.89682 4.26739 0)
(10.1898 -2.47752 2.73561e-21)
(11.0018 -14.2553 0)
(12.4802 5.84802 0)
(8.32315 -3.92964 -1.27578e-20)
(7.1498 1.48785 1.24793e-20)
(8.01703 -3.5702 0)
(9.01988 0.849861 -7.70789e-21)
(15.8388 3.17193 6.87022e-20)
(-15.0414 9.13633 1.22661e-19)
(12.308 7.19801 0)
(10.4117 0.001626 0)
(-11.6962 10.1906 -7.23813e-20)
(9.31834 -0.535899 0)
(13.0753 -0.18473 0)
(-8.57686 13.6402 -1.32437e-21)
(10.1887 -1.80805 -1.41833e-20)
(8.62405 -2.05255 1.0132e-20)
(17.8467 -0.811951 4.01926e-21)
(-6.37934 6.01527 7.79716e-20)
(9.86995 0.201924 6.23589e-21)
(7.70809 -1.68357 0)
(10.62 2.60502 -2.68976e-21)
(7.09495 -0.933134 0)
(12.8504 0.0602443 0)
(9.96036 0.537294 0)
(10.8985 1.09623 -7.04243e-22)
(9.31828 -0.150267 1.03422e-20)
(11.9195 0.836989 1.21737e-22)
(7.86932 -1.74536 0)
(0.335992 0.139482 -4.69945e-20)
(9.67647 5.58023 5.35111e-21)
(9.23946 -3.34205 9.83385e-22)
(11.1098 -0.789676 -7.90488e-21)
(15.8619 -3.38011 5.53387e-20)
(10.1754 0.0625266 -9.88875e-21)
(-1.03591 1.52209 0)
(12.3818 -0.60792 0)
(6.70271 4.32383 0)
(5.97396 -2.56012 -2.39643e-20)
(-3.09421 -9.92661 -3.27524e-20)
(2.83186 0.305067 0)
(10.7776 2.59421 0)
(12.8535 -1.28635 4.82904e-21)
(9.81923 -0.0828816 -2.51395e-21)
(9.37204 3.2135 1.4372e-20)
(11.7218 -4.60181 0)
(-8.97803 11.024 -1.9885e-20)
(11.6731 0.471449 1.15201e-21)
(6.88969 -1.95348 -2.19024e-20)
(11.0063 0.52835 -3.93502e-21)
(11.1332 3.40614 6.90647e-21)
(20.9506 -6.52603 6.24141e-20)
(5.89814 -2.54327 4.13694e-20)
(11.1942 -7.25241 2.14892e-20)
(12.1067 1.65237 -1.50825e-22)
(10.0312 0.0478784 -3.00462e-21)
(8.36778 -4.04842 -2.10234e-21)
(9.15863 -2.69063 2.08108e-21)
(7.39577 10.1111 -3.99318e-21)
(8.95074 -4.20295 4.36367e-21)
(12.6375 -0.521556 0)
(7.99683 -1.36201 -9.41708e-23)
(10.5647 0.0228552 -1.15419e-20)
(14.0135 5.08217 3.88515e-21)
(6.75464 -1.77332 -2.01369e-20)
(9.12514 -3.19845 -1.09538e-20)
(10.353 -0.0691377 2.22553e-20)
(12.7976 -0.267215 -1.27896e-20)
(6.89533 -1.7998 -2.83918e-21)
(16.0071 1.42418 -1.58969e-20)
(5.66533 -0.680044 -4.55978e-20)
(10.9056 0.0791709 -9.47919e-21)
(5.62157 -1.029 0)
(-11.4221 -3.0677 -8.36033e-20)
(10.497 0.0959478 2.43107e-20)
(8.56265 0.0571096 6.28716e-23)
(-2.37779 -4.34736 0)
(9.65003 -4.33205 0)
(9.97194 2.30421 1.2594e-20)
(5.02213 -0.654809 2.84523e-20)
(9.43021 -11.3005 -1.23869e-19)
(10.6047 -3.2616 -3.54069e-21)
(11.1111 -1.6438 9.62201e-21)
(15.5929 5.32066 0)
(9.98449 2.53519 7.01794e-21)
(1.471 -3.12819 -3.65124e-22)
(11.6555 5.54086 -4.4699e-22)
(9.79006 -1.22445 -1.3882e-20)
(-6.46042 5.60148 -1.26321e-19)
(15.3524 -3.54033 -5.2762e-20)
(17.074 -2.90545 1.6694e-20)
(10.5244 6.12121 0)
(11.8115 -2.81172 -6.17725e-21)
(9.38032 0.153954 2.67684e-21)
(9.46528 0.223146 -7.45419e-23)
(4.90842 -2.35392 3.89513e-20)
(9.69934 -1.23534 2.09508e-20)
(10.0797 -2.76264 2.52309e-21)
(-15.1939 8.28985 -7.03395e-20)
(13.2461 -0.82168 -1.31806e-20)
(10.7468 0.166002 8.47728e-21)
(-8.61057 12.7082 -1.20793e-20)
(11.238 5.33313 4.97963e-21)
(4.50272 0.967808 -7.90155e-20)
(6.55537 -3.10086 -1.22143e-20)
(9.5294 0.176245 0)
(12.8029 2.51474 2.12583e-21)
(-12.7359 12.4142 -5.42031e-20)
(6.62378 -0.644711 4.05758e-20)
(10.6201 0.552149 0)
(10.6382 -2.05175 4.76955e-21)
(5.71766 -2.22271 9.48629e-21)
(10.0281 0.178173 -2.66727e-20)
(-13.301 8.25806 -7.2213e-20)
(8.03168 -3.44153 -8.81271e-22)
(10.8468 -0.833648 7.41184e-21)
(11.3362 0.488224 5.5878e-21)
(8.74796 -3.96363 -1.29293e-20)
(12.0905 1.06957 -3.09984e-22)
(-2.41493 -11.3112 -1.09504e-19)
(10.6749 0.0454592 1.08252e-20)
(10.2785 -0.28526 -6.8946e-21)
(10.6631 0.68308 -2.38235e-22)
(11.6321 -0.110407 -1.43844e-20)
(5.50276 -2.29422 -1.83235e-20)
(12.0272 1.54611 0)
(-14.4245 1.94389 7.46173e-20)
(10.3633 0.0843145 1.91144e-21)
(5.64361 0.707328 -5.16853e-21)
(12.6681 0.381692 -1.35448e-21)
(10.8525 -1.69933 -6.46278e-21)
(10.0227 0.097004 -2.12275e-20)
(10.3263 1.79891 3.78687e-21)
(-11.4145 7.34583 -7.16732e-20)
(13.2515 -0.11977 0)
(8.20815 -1.1379 1.93885e-21)
(12.6153 -0.64272 2.46776e-21)
(7.21054 -2.50548 0)
(10.5364 0.549068 6.86329e-21)
(12.6469 -0.581797 2.62263e-21)
(13.2016 -0.0631441 8.13177e-26)
(13.0145 -4.24819 6.33127e-21)
(9.69861 -0.995406 0)
(8.74498 1.87649 2.31603e-20)
(10.5954 -3.9417 -6.38864e-21)
(8.6979 -4.06706 1.04764e-20)
(9.96216 -0.826505 0)
(7.15121 1.5274 -3.6046e-20)
(3.45096 -2.52144 -5.40909e-21)
(11.2815 7.38816 -5.10578e-21)
(5.7483 -0.759136 4.45529e-20)
(11.2267 0.191508 -2.43727e-23)
(-14.873 7.68196 6.69727e-20)
(9.62771 -0.462512 -1.55617e-20)
(16.5905 -2.03902 -4.00906e-20)
(8.84938 0.748101 -1.60725e-20)
(11.4578 0.134608 0)
(10.0274 0.0768125 -1.13303e-20)
(-1.49343 -0.170453 5.98077e-20)
(-1.7696 -2.87004 0)
(18.8679 -6.22301 0)
(9.47691 0.229377 0)
(7.86601 -2.32239 0)
(10.1396 1.66789 0)
(5.38261 -0.633842 0)
(11.372 -4.60704 -5.10631e-22)
(18.7464 1.77174 -3.72348e-20)
(13.0584 2.44863 0)
(9.11251 1.78196 3.45704e-20)
(5.24128 -2.90089 7.39973e-21)
(10.2956 1.16 3.00304e-22)
(-11.3034 13.0688 -2.35468e-20)
(5.43307 0.322548 -9.981e-24)
(-12.641 7.55519 6.20622e-20)
(10.4948 -0.0095522 -5.06433e-21)
(14.3675 0.369278 1.94815e-21)
(10.0911 1.58611 -8.46472e-21)
(9.3245 0.887006 -2.19911e-20)
(9.43339 5.17775 -1.1443e-20)
(14.5828 7.366 0)
(-9.20865 0.69483 9.29194e-21)
(6.17917 -1.72825 -3.64048e-20)
(10.0171 0.0128317 -3.39726e-20)
(11.5775 -2.94293 -3.74516e-22)
(11.1597 -0.0531636 2.39691e-21)
(13.9786 -2.47276 -1.17494e-20)
(10.5978 -1.33557 -1.57216e-21)
(10.2597 -2.42514 -9.41868e-21)
(10.0486 0.891349 8.99798e-21)
(8.48851 6.28758 0)
(9.96747 -2.01019 -2.97934e-21)
(8.33811 0.329571 -4.92172e-21)
(11.6031 -0.535532 0)
(8.90856 -1.14786 0)
(9.21254 -4.12091 -1.6155e-22)
(-14.2982 6.74322 7.24791e-20)
(11.2836 -4.74668 -1.83233e-20)
(8.51869 -0.303088 0)
(9.3951 -0.275779 -2.09121e-20)
(8.90242 1.05177 -4.2563e-21)
(-14.1373 -0.0347609 4.05292e-20)
(12.9776 -0.341635 9.03641e-22)
(-13.4036 7.88065 0)
(-9.70831 1.00372 1.16469e-20)
(12.9722 -0.521378 0)
(11.6459 -2.92974 6.58732e-21)
(11.7739 -1.2662 -4.1515e-21)
(10.1282 0.0968387 -4.64376e-23)
(11.4258 3.88771 -9.67759e-21)
(12.325 6.61355 -1.23932e-21)
(8.44256 -2.29735 2.42767e-20)
(-5.814 -2.79282 0)
(8.47114 -13.1525 -5.65376e-20)
(6.54604 -5.47047 0)
(13.4189 2.54358 -2.1722e-21)
(-15.4172 1.6686 7.27598e-20)
(19.7284 -5.91311 5.17142e-20)
(8.31356 -1.12004 -1.9728e-21)
(-14.7491 9.44696 -1.51285e-19)
(7.89569 -3.70429 -1.20999e-20)
(6.39099 -1.75817 -2.10135e-20)
(8.08014 0.69372 5.0991e-22)
(9.99375 -12.1158 4.63227e-20)
(5.57362 -2.35097 1.50355e-20)
(6.64285 -1.92022 2.25889e-20)
(-3.333 -9.18485 4.17842e-20)
(13.018 -13.0629 -3.05762e-20)
(8.92783 -2.6801 1.11772e-20)
(-7.04414 4.22305 5.248e-20)
(12.3244 0.301987 -1.7375e-22)
(5.31098 -3.13311 -6.23261e-21)
(11.5599 2.55163 -2.57406e-21)
(11.2472 -2.35957 0)
(7.74369 -2.76649 -9.98534e-20)
(10.284 -0.0107815 -1.32549e-20)
(9.96304 0.602632 0)
(13.2365 2.3114 0)
(5.50309 -10.863 -1.90737e-20)
(18.4233 -1.71698 -4.29497e-20)
(12.2475 1.44553 3.36316e-22)
(10.1176 -1.75818 1.86133e-20)
(9.30845 4.92207 1.03762e-20)
(9.10235 -0.0397843 1.42126e-20)
(-16.8891 2.61288 -5.55229e-21)
(8.65401 3.16913 0)
(6.81553 -2.0643 2.13657e-20)
(-4.67236 11.0228 1.23598e-20)
(-13.2311 6.99986 1.15989e-19)
(8.53325 -3.162 3.93477e-21)
(10.0931 -4.69633 4.60092e-22)
(10.2886 -0.0807082 7.10847e-21)
(8.56279 -1.02068 1.18734e-21)
(13.715 -2.40102 2.98232e-20)
(-15.2311 2.56634 -5.35145e-20)
(12.1132 1.3908 -2.02213e-22)
(9.59403 0.244983 8.77023e-21)
(5.56566 -0.991296 -1.83086e-20)
(9.42432 -0.443934 1.29239e-20)
(5.62513 -1.5896 0)
(12.0281 2.42475 1.70115e-21)
(9.86027 0.163805 1.9471e-21)
(7.34279 -1.34283 -6.90295e-21)
(9.15506 8.38586 -5.3922e-22)
(8.7976 -2.5941 8.56569e-21)
(10.129 0.0146122 3.68879e-21)
(6.67583 0.661142 -2.71931e-20)
(12.0551 -0.874257 0)
(8.26168 -1.04273 -3.77528e-21)
(11.0567 0.566241 5.32677e-21)
(11.0633 -0.895433 0)
(7.00709 0.20957 1.54109e-20)
(13.0152 -0.363553 0)
(7.68068 8.38028 1.54767e-20)
(12.293 -0.150416 0)
(9.9275 -2.22884 0)
(12.4018 -0.314901 1.90836e-21)
(12.0962 1.14143 7.16637e-22)
(15.5049 2.45762 -2.03106e-20)
(9.54085 0.698851 -9.97474e-21)
(7.07835 5.23925 -8.25035e-21)
(9.6647 0.420796 -4.04511e-21)
(10.2155 1.72849 0)
(-1.53823 7.02905 -7.20022e-21)
(12.7398 1.10036 2.98416e-21)
(11.4 -2.89887 -1.33393e-20)
(11.2542 -2.38189 0)
(14.1117 4.97386 6.01349e-21)
(9.96224 8.1609 -4.94797e-23)
(12.1427 0.181821 -4.82166e-22)
(8.645 1.23221 0)
(-5.62653 13.8569 7.25288e-20)
(10.1041 0.885029 0)
(13.9166 -1.93022 -1.46934e-20)
(2.19169 -3.38128 0)
(5.27695 3.10408 0)
(10.9775 -8.24696 0)
(10.0425 -3.59591 0)
(-7.0966 11.631 -9.46543e-21)
(-14.0005 2.02482 -2.39885e-20)
(9.373 -0.142646 -1.54669e-20)
(-12.111 -2.42041 -4.03261e-20)
(6.01995 -2.45407 0)
(-9.78724 -4.69136 -3.53354e-20)
(1.77949 -3.99998 -4.82292e-20)
(7.78524 -3.57419 0)
(7.19422 -2.32958 -2.25401e-20)
(6.51124 0.734523 -7.50217e-22)
(11.5155 2.43232 6.52056e-21)
(12.5125 -3.93972 -3.67457e-21)
(9.38054 0.806005 0)
(10.8901 -3.18501 0)
(17.9959 4.07633 1.03278e-20)
(9.13996 -2.35362 5.49111e-22)
(7.88619 0.251033 -1.37834e-21)
(5.09721 -9.25803 1.07235e-21)
(9.95062 -0.00648939 8.37963e-22)
(12.8391 2.73165 -1.0583e-22)
(9.98157 0.847601 1.27862e-20)
(8.0216 -1.12563 1.97935e-21)
(9.1943 -2.40067 0)
(-1.82544 2.89569 0)
(12.0481 0.905116 0)
(8.69371 0.145214 0)
(8.46319 -1.42839 9.17601e-21)
(15.2887 0.395297 0)
(-7.70421 13.0243 1.30722e-19)
(17.926 -9.68291 -2.07697e-21)
(6.49791 -1.96234 -3.41803e-20)
(4.94356 -2.64078 -3.7778e-21)
(-15.3902 -0.502734 -4.09125e-20)
(-4.98641 12.9707 -6.03192e-20)
(10.474 0.0987924 2.91158e-21)
(-15.6812 5.64903 -5.5022e-20)
(7.98661 -1.18627 3.12878e-21)
(12.5278 -0.260769 0)
(11.5588 -1.42371 0)
(6.49778 -2.24271 0)
(10.8553 -1.82465 3.31891e-21)
(12.6918 -13.0222 0)
(8.76804 3.10226 0)
(10.0711 0.00727349 0)
(8.68625 -2.01184 9.47925e-21)
(10.5437 1.08505 -1.24275e-20)
(8.36281 0.0369254 0)
(11.9056 -4.52722 -1.74432e-20)
(9.77849 0.997547 -1.21152e-20)
(11.6908 5.32111 6.00562e-22)
(7.83899 -3.52615 1.28414e-20)
(9.19389 3.57636 1.5489e-22)
(9.06855 -3.30202 -3.78146e-22)
(8.78273 -1.31406 2.56022e-21)
(10.1123 -2.83269 -6.26235e-21)
(11.9826 1.19493 -7.29979e-22)
(8.00232 0.363296 -2.89363e-21)
(9.00476 0.395466 -1.54158e-20)
(10.5684 0.0423842 0)
(8.85475 2.17104 3.9703e-21)
(9.6529 0.207275 1.58461e-20)
(2.15706 -3.40282 -5.75027e-21)
(10.573 -1.25857 -4.68649e-21)
(5.16384 -0.774724 -3.09498e-20)
(12.0573 1.02426 6.85753e-23)
(15.7706 4.21912 1.48657e-20)
(9.99624 0.434158 0)
(6.99017 -0.832303 -6.27645e-22)
(8.60562 -0.512128 -1.16727e-21)
(10.2647 -2.87768 1.28291e-20)
(-10.5519 2.29737 -6.94074e-20)
(9.94454 0.0307001 7.94444e-21)
(12.2192 1.43732 1.44692e-22)
(11.0776 0.204883 2.10612e-23)
(11.7746 0.910122 0)
(4.17502 -1.91544 0)
(7.302 -3.39105 1.64457e-20)
(-13.4283 8.07859 7.80056e-20)
(9.48616 0.13474 -1.33473e-23)
(9.88479 0.24454 3.15374e-20)
(7.32971 -1.12643 2.11672e-21)
(7.13532 1.27183 0)
(8.8952 0.413857 0)
(7.94296 -1.54716 -2.00961e-22)
(12.2788 -0.155178 2.7782e-21)
(9.4522 3.34421 1.98663e-20)
(11.8246 -0.766164 0)
(12.5679 0.127741 0)
(10.2929 -2.68958 1.16551e-20)
(9.77829 -0.723188 1.15478e-20)
(1.23631 3.70106 -5.21327e-21)
(10.776 -0.555282 0)
(-2.82907 2.62228 1.02322e-20)
(13.5664 -5.2518 -7.98116e-21)
(-12.4215 11.7072 -6.36734e-20)
(9.86916 -0.112048 -1.66695e-20)
(21.4109 1.18846 0)
(18.7441 -1.29442 3.43808e-20)
(11.0427 -0.383942 -1.47283e-19)
(-0.977889 2.31518 0)
(8.58805 0.162549 -1.83222e-21)
(9.54822 0.504034 -1.05064e-20)
(9.42939 0.0805231 -1.0104e-24)
(12.0574 -1.25179 2.52201e-21)
(6.42179 6.81057 1.13474e-20)
(10.5688 0.0493317 0)
(5.04626 -1.69747 -2.33681e-22)
(6.42526 -0.857307 -2.04781e-21)
(8.60855 7.58536 -1.05892e-19)
(10.1169 1.63202 1.00237e-20)
(-5.31158 -2.98468 8.18662e-21)
(10.0407 0.0477504 -3.72196e-20)
(8.65026 -2.59949 -1.43299e-21)
(8.56193 -1.23829 2.31944e-21)
(8.47472 -1.79159 0)
(8.89886 -0.150496 -5.5892e-21)
(5.39127 -2.38478 1.21426e-20)
(10.9552 -0.445505 -1.53044e-20)
(9.92603 0.156921 -1.42185e-20)
(13.5344 -1.99993 1.30602e-20)
(8.25944 -0.775006 3.49529e-20)
(12.2442 0.241378 2.0762e-22)
(8.82513 0.486472 8.97549e-21)
(7.90007 1.24338 -1.79913e-21)
(17.8858 -0.585403 -4.41958e-20)
(11.4124 5.78238 1.06867e-21)
(11.9823 -11.3173 9.68483e-20)
(10.184 -0.0675452 0)
(7.09531 -2.0399 0)
(10.2999 -0.830967 0)
(6.48538 -1.79461 2.64085e-20)
(10.1524 0.0716555 -2.25857e-20)
(8.92056 1.12085 0)
(7.57494 -1.42814 -2.01889e-20)
(8.89387 0.999569 0)
(8.58981 -1.30366 -1.51089e-20)
(11.2766 -3.00674 -1.43753e-20)
(9.16917 -2.26624 -1.23225e-20)
(10.7181 0.0463137 0)
(9.66722 0.166469 0)
(11.1004 -0.951767 7.13587e-21)
(12.898 2.0786 1.89248e-22)
(14.4031 -0.0866561 1.57537e-20)
(10.4892 8.51043 -1.13368e-21)
(11.6382 -0.964486 0)
(8.5607 -3.02896 -6.45622e-21)
(-2.05021 -0.719366 0)
(3.39777 3.47239 -1.56803e-20)
(12.4594 6.58139 0)
(12.0947 1.34798 -2.62875e-22)
(5.71846 -0.566892 1.1852e-20)
(7.58113 -0.502152 1.15177e-20)
(10.5008 -0.607018 -7.10796e-21)
(16.1853 -9.78458 -2.35969e-19)
(9.71144 -0.869925 2.9167e-20)
(10.1925 1.68956 -3.07512e-22)
(13.346 -2.60625 1.44317e-20)
(9.89145 -2.05013 -5.94578e-21)
(-0.921109 1.47052 1.73992e-20)
(12.9618 3.24867 0)
(9.81097 0.165022 2.99829e-23)
(7.82295 -1.80125 0)
(8.5266 -1.15648 -2.48532e-21)
(8.66622 -3.05726 -3.29608e-21)
(8.32483 -0.648451 -1.14376e-20)
(9.45782 0.0602816 -1.72365e-23)
(13.6514 0.430758 -9.57317e-21)
(8.20129 -0.0809412 2.41094e-20)
(11.7383 -0.405438 -5.20601e-21)
(7.89809 0.436996 0)
(-8.76156 9.92461 0)
(13.304 -0.065263 1.68255e-22)
(15.4768 2.47826 0)
(9.47397 0.820554 -5.44518e-21)
(7.93824 5.62175 -1.26184e-20)