/*--------------------------------*- C++ -*----------------------------------*\
| =========                 |                                                 |
| \\      /  F ield         | OpenFOAM: The Open Source CFD Toolbox           |
|  \\    /   O peration     | Version:  2306                                  |
|   \\  /    A nd           | Website:  www.openfoam.com                      |
|    \\/     M anipulation  |                                                 |
\*---------------------------------------------------------------------------*/
FoamFile
{
    version     2.0;
    format      ascii;
    arch        "LSB;label=32;scalar=64";
    class       volScalarField;
    location    "4.4";
    object      p;
}
// * * * * * * * * * * * * * * * * * * * * * * * * * * * * * * * * * * * * * //

dimensions      [0 2 -2 0 0 0 0];

internalField   nonuniform List<scalar> 
13486
(
14.9232
14.8573
5.16978
-44.8971
-6.36332
5.59237
-15.0367
0.627789
6.3411
12.2703
-5.93383
6.09791
15.2779
6.62851
-5.92016
12.5571
-6.48146
-22.0626
5.3648
13.9808
-55.0068
15.0256
14.6858
-25.2073
11.04
-23.9522
-3.30511
0.791441
0.73678
1.86162
-74.2174
-1.23762
-1.75713
0.851801
0.777672
0.574561
2.30928
8.65009
-1.04243
7.64607
-21.7439
15.9991
1.21493
10.8529
10.8187
6.23905
-20.4587
0.899337
2.28815
2.09139
11.6315
-1.05271
6.61367
9.32507
-35.8929
-5.42704
2.68373
-0.880765
-3.57774
2.53182
-7.71315
2.51198
-3.90888
-55.8798
-81.0494
2.38706
-47.446
16.4168
6.11424
1.69394
-45.2433
-27.7494
9.21933
-16.3519
2.4367
2.10098
2.39444
-6.6944
-15.0789
-106.02
0.340452
15.5457
-4.0509
5.71432
14.8999
17.1318
-1.63987
11.501
12.8927
14.198
1.60867
-1.30291
13.5332
14.341
5.85015
0.542791
-3.36427
-47.5766
7.73484
-6.33138
0.564064
6.94426
-48.888
-0.81186
18.4745
-6.62185
11.6928
-2.04483
-16.8374
-3.94551
3.82393
-7.57544
9.32226
2.96113
19.2004
4.09483
11.3112
1.23387
9.31887
2.2225
-19.5326
-7.56885
7.03951
-1.69482
3.78399
-0.658733
2.92508
8.17497
1.2917
-62.6486
-0.71922
-22.1996
-16.92
-13.2216
11.698
12.706
23.3402
-3.58355
2.1724
1.93499
-0.417832
7.02584
3.31867
-97.2032
2.72786
-0.96315
7.59772
23.8149
1.77666
0.0620453
10.2883
-9.39564
0.29579
15.878
8.74397
5.17893
-7.71301
-35.0904
6.50364
3.18486
3.25802
6.51445
-2.82989
15.708
-1.05991
5.09594
7.57634
23.2026
7.45047
-13.2726
-18.9264
8.74568
10.91
1.75008
0.466776
-51.7167
6.72832
-0.74582
11.599
3.57662
6.27738
2.87424
1.84656
-13.2248
6.60443
0.819434
0.270582
1.33745
-21.5408
5.68911
2.26897
3.98205
-2.57441
19.1174
-3.99727
-6.06878
-70.1342
3.24541
11.2714
5.51071
-80.0037
8.08992
8.60159
-10.9535
3.50381
-4.02084
-34.8068
10.9559
-2.36405
6.46179
0.955957
-19.3118
13.8594
11.7209
5.49245
-18.7862
0.236501
14.1521
12.2753
-2.70187
-6.72104
1.6649
2.41183
3.1727
8.15209
12.9872
4.40053
-110.017
-22.3988
-2.25218
6.21704
-43.4406
-0.984951
16.6865
-59.0001
12.0662
1.00269
4.2223
12.3804
3.65844
-4.28614
10.8821
2.64891
10.921
-1.21692
12.8801
4.71311
-13.9558
-14.8503
11.2552
-32.9196
19.5382
3.02766
-3.00478
-46.1788
-42.0038
-0.618195
-9.05297
-28.7681
-3.53146
13.7449
-0.506661
-5.66916
-41.5723
-7.09003
-12.2816
-14.9872
-75.2242
9.41669
-3.04307
16.8694
11.8029
0.237255
6.8798
13.0996
-9.185
-31.4075
-69.4953
-4.40448
8.1499
-68.1234
5.45928
11.9548
-10.6943
-7.89544
-3.7332
-0.20308
0.934165
8.36311
9.55105
-58.317
2.26018
5.37039
11.6777
1.07343
1.12845
3.05421
7.24796
11.8956
-19.3434
-3.06421
-37.9011
7.85974
-1.41134
2.18483
-12.337
-46.2499
4.56118
-5.8261
2.28857
-5.30913
-43.3334
8.23907
-6.84343
-6.00162
12.8459
2.29181
12.9816
11.1684
-10.559
2.34666
1.8573
11.6077
14.6155
22.8375
1.40095
-0.387702
5.24642
7.52338
-1.38701
11.5316
-2.1649
1.10265
17.209
-14.7453
4.9533
19.2801
-8.83885
10.7497
-0.35517
-12.5087
14.5948
-2.07003
1.75361
-14.3884
0.864744
3.28796
18.2629
-2.80116
2.08004
4.39315
7.67416
7.177
-3.91681
11.836
1.4381
-14.2351
2.98271
-4.81518
-17.6876
5.23746
3.38582
13.3641
11.8277
0.712085
0.0672409
1.41027
-29.2986
14.1805
3.21889
0.925522
3.53719
8.61527
-28.3284
6.23122
11.616
11.666
1.39096
-4.67001
-6.91181
9.03387
-3.43458
16.4908
16.9693
-28.1246
-28.1954
6.99034
10.6716
-14.0408
-52.22
13.5072
0.198869
9.49193
12.8862
17.7622
2.19799
-46.0702
-29.2008
-11.7746
-0.416219
-13.5639
11.8222
7.45047
-44.0477
-13.6458
7.16309
14.2344
-0.830444
4.10843
14.6311
10.3313
7.57763
-0.343561
11.9823
11.6354
18.8819
-16.3722
-6.71781
-25.4561
3.58963
11.6372
-25.6273
18.3928
10.9501
3.85355
1.54558
8.10339
12.049
-3.19757
7.89603
15.095
7.58439
9.41053
8.82653
-9.56153
-10.9559
16.7139
2.0203
1.8625
16.2041
-23.5172
0.218622
-12.31
-0.64393
2.08955
10.102
18.2434
15.251
-7.0604
2.22746
-13.9867
10.8646
13.1011
1.95261
3.09552
11.7728
-31.4587
-57.9105
-11.0688
0.0808702
8.50841
11.9092
0.551248
7.92834
-49.437
12.4347
0.808383
21.3589
13.2706
8.2913
-0.809139
0.91252
0.620704
19.1467
-0.378029
2.18344
3.75591
5.00039
-4.53137
7.27371
11.065
1.79971
4.30034
14.7571
-1.11573
-9.97328
10.7667
-56.4654
23.0014
10.8141
11.67
12.0474
-47.2489
6.23076
20.1888
-8.71522
14.3828
-17.7457
8.50901
-75.8955
-88.892
1.36211
-6.38438
13.1729
3.89336
-33.6037
-3.23338
5.30711
17.7131
10.0923
-20.3949
4.30459
3.45709
4.52897
-7.50516
11.6295
-22.7125
16.4092
2.31973
1.6678
16.2415
-3.41679
0.494915
4.61573
-93.5542
-35.0032
4.60956
-5.20849
7.28314
13.5398
-8.25998
-9.96137
-7.34196
0.743833
12.1076
8.06314
-15.6913
-48.7672
-24.5734
-31.3794
1.00481
-89.6755
3.03765
4.31551
16.9442
-80.1724
13.3886
-0.441746
-25.0092
1.86231
9.27861
-11.6918
10.3762
6.16241
-8.59274
3.40956
8.8824
-5.26073
-8.69654
11.6879
12.8547
9.39377
15.1793
6.03614
10.8573
8.11059
11.2248
2.46921
12.2422
-3.60267
11.806
3.68866
1.06081
-8.94258
11.3805
-23.8846
6.96399
17.9689
14.6964
-147.887
-31.4795
9.19449
7.31734
7.96595
12.9527
-14.8127
-5.34032
6.55792
13.938
7.67764
8.04841
-33.5803
14.8027
-4.68649
2.98182
11.7385
-1.5664
-76.2597
15.1787
0.71394
7.29301
3.61602
9.09342
0.574234
14.5489
4.31829
4.80701
5.72459
8.74912
0.0527587
18.0261
8.6218
17.8005
-103.893
10.0963
0.76699
-15.1022
-5.47755
11.1432
19.2075
-85.9378
-3.95899
-0.994054
-3.40747
11.1903
-32.6701
6.13213
6.96504
-8.58398
-5.0063
-11.0212
9.07386
1.35175
11.959
0.409353
16.4347
7.21135
3.15382
-26.1746
1.00266
8.71296
-7.61042
7.31685
-6.29811
11.9604
0.0673069
2.47781
-17.4701
16.4643
0.417673
-1.02104
15.9309
11.6274
-19.1008
-80.9184
3.79952
7.10507
3.20588
2.81787
-158.29
9.01377
7.9372
8.59309
6.6699
16.2548
2.75894
-68.4234
11.3594
-21.4482
5.27766
0.128116
11.1304
9.85722
-18.1879
6.18299
1.28336
7.77665
12.0814
8.63153
7.63343
5.78861
-24.9772
-3.95631
14.0413
3.15961
2.42349
7.36035
16.8793
-11.0017
5.66735
17.7955
0.850596
-32.2668
9.6431
-7.38178
13.4316
2.6938
11.7263
-48.8036
-12.9025
-28.4866
0.325395
-8.15877
10.4943
18.5768
2.37667
-1.10113
4.10761
14.2242
-6.11774
9.62622
-13.7103
19.3426
-16.8448
4.91896
1.72103
10.7592
12.8411
12.5787
-5.19726
-53.4989
15.9501
11.8118
-10.258
8.12438
-26.2012
3.227
0.949505
10.5654
-10.5985
-14.65
13.9071
-12.6253
-3.79906
0.150984
-36.6995
-1.39856
0.630356
10.6519
13.4575
-76.8264
6.75034
-20.6298
-52.8301
7.18965
-2.37259
2.93202
11.7207
7.55021
2.79556
8.40919
-61.5684
-85.1291
-34.3585
3.52229
-70.7506
-27.7336
0.783218
-34.6222
3.14476
15.4531
2.18704
-64.763
15.9272
14.6213
-148.658
-50.9266
5.53892
-31.6859
3.07796
-8.0454
7.21833
-5.50354
-9.39754
9.57327
10.9232
3.77434
-73.9743
-9.02073
5.73819
3.67359
12.6326
4.98508
-64.473
14.1968
13.9346
-5.34843
-36.333
6.92417
-14.0622
5.88646
-1.08328
1.39341
-61.2462
5.84093
11.7691
17.9814
10.4045
8.47451
6.17574
11.6199
13.9009
13.095
6.19694
10.7702
17.4024
-12.6974
1.19919
7.58215
-0.180079
16.5417
6.76993
15.4958
5.42237
-23.4959
6.03866
6.00801
0.28091
12.3593
16.989
11.0356
10.142
-3.88009
4.80582
-2.70957
-5.60963
0.166529
9.26859
2.57719
-38.7617
-8.85201
10.1647
1.57289
-14.6635
-3.25035
-11.8189
-2.02665
-5.40265
-64.4934
11.3256
-91.6473
14.8552
-120.763
-15.062
7.89185
12.3828
2.46056
7.34402
-18.8776
12.9076
-6.09225
-2.02178
-55.2908
2.21121
-71.7225
11.7423
2.47694
10.5296
1.71571
5.24094
-3.40517
2.63934
1.40866
10.2919
0.594136
-6.75733
-34.1345
14.8841
-7.59896
-76.2591
-5.78505
10.6765
-47.4367
1.97282
6.18316
-3.97708
-4.10331
-0.133001
-71.1917
14.0617
11.7629
8.6983
9.72119
1.6411
12.1865
11.5001
6.19953
8.25256
13.1219
-106.198
-3.79022
-33.4177
6.17349
2.20365
12.8107
9.26738
-19.8228
11.7833
-29.2342
3.57455
18.8889
5.97927
-1.4764
10.8759
6.19498
0.89164
-27.5373
-51.6596
10.5883
2.86383
1.02247
2.39495
1.9609
9.92895
-20.953
0.149612
11.7787
6.54726
17.0796
13.0917
11.9184
5.97098
12.7884
3.55259
4.85157
-0.836948
7.9828
-44.719
1.0391
-6.14556
17.7943
-18.3886
9.84722
-2.1456
-9.9097
-37.4763
-42.4173
1.74746
12.2742
1.32526
0.743813
-12.9875
11.6293
18.0004
6.91235
-6.6521
10.6954
-48.1438
10.2978
3.2638
-1.29218
9.47862
-2.55059
16.2961
4.74973
11.6376
1.11653
12.633
2.99735
13.2132
2.30151
-5.01647
6.86318
-72.068
4.45046
-4.64704
-34.7807
15.1839
11.6411
13.6645
13.3018
13.6779
10.4323
-6.14398
6.07042
11.698
11.631
0.295297
4.39365
1.08758
7.60475
1.95034
6.95351
-12.5848
22.8007
2.44893
2.76151
18.0641
14.5802
1.62146
-41.8832
8.21802
10.4542
-27.3285
4.69271
-12.0373
4.11875
11.6289
12.5309
-1.23437
6.56997
12.5611
0.195048
3.43169
13.4062
4.21846
2.24707
-6.11325
5.73494
0.484143
12.3653
16.0438
2.36654
-68.4104
0.926555
0.689938
0.702751
6.10557
16.2507
-0.133983
20.5206
9.9873
5.56168
11.0689
-19.1439
-13.2279
-48.5327
10.6712
-1.28537
-12.1658
-83.7765
9.81213
11.2078
0.224316
-3.13275
-34.7052
-3.58478
2.28723
1.6658
5.1769
3.88365
11.2767
11.9517
13.406
7.45857
1.69535
-3.05916
0.746775
5.98031
-159.349
12.9521
4.94787
-105.351
1.74302
2.4555
-2.38547
-14.8671
5.12856
10.9129
4.04786
-3.79876
2.16328
1.93264
-8.38127
7.68106
-4.42949
6.59696
11.1524
9.91083
-13.2833
11.6504
2.59503
13.7997
9.63957
10.1826
-2.11993
5.81784
16.3556
20.5767
6.40753
-7.49655
11.1915
4.3147
16.4337
-1.5941
-1.25377
-15.4322
6.68742
4.76151
-6.16896
11.5882
9.72437
-2.76096
-16.7512
-0.0408833
7.81627
18.756
-1.10719
11.6839
-12.5466
16.0971
15.9997
0.325266
2.77875
-135.15
17.0121
5.00657
20.0262
2.51763
1.13528
9.89057
7.56316
-12.2754
-11.9598
-14.7818
13.4576
3.95801
-6.52766
14.7153
13.989
-4.27003
-5.31628
2.41084
8.23199
7.61737
9.14385
12.0564
5.06889
-4.89354
13.2153
2.77523
-2.32633
0.187477
12.9828
9.64161
-5.81247
-43.3037
-2.02638
11.6318
15.4983
4.76177
-0.226166
0.144865
18.8996
-4.99564
-0.116803
16.5647
11.6153
7.40607
3.87534
-47.1142
-2.45305
15.4704
-4.86661
0.387184
-42.5919
6.79639
9.37886
-30.8427
-7.89449
-1.99531
-25.4497
-12.5073
-31.525
19.7975
12.359
-8.0482
-34.9893
-0.735068
8.14571
1.32865
20.3964
-2.48073
1.44298
11.649
11.216
-41.2675
0.12794
-0.402915
9.78048
21.1376
0.154242
-0.591848
-24.2838
6.63165
-1.44801
3.58852
4.18052
13.2952
12.7987
12.0628
-88.2681
-64.9111
3.31669
5.81781
11.5886
5.50456
12.1936
19.4641
17.4369
13.8162
11.6489
13.49
1.32538
11.8018
0.74367
17.0672
11.6583
6.7507
13.2914
10.2817
0.419055
4.27512
13.31
-2.01845
5.82378
-8.67675
-3.6553
5.51723
10.2365
0.749987
2.37239
16.1297
15.8683
-0.0257746
-12.6477
5.96129
-26.2328
-5.56503
12.5432
13.5419
-12.7566
11.7186
5.57119
3.5022
5.90617
-23.1321
-131.315
2.3753
21.0587
-7.64112
3.0005
14.4655
5.30299
2.21989
9.84556
6.75407
11.4722
-12.3299
1.06176
5.13122
0.797504
-2.30334
-0.411288
18.308
14.4914
8.99452
24.3177
15.6925
-3.57204
0.307725
-39.2901
1.96853
16.1937
-113.23
8.2587
4.44153
-20.806
-3.1899
10.9524
-36.9808
3.75455
12.1881
21.3036
-4.14151
4.02903
7.45865
6.97341
5.19176
-63.9843
15.6994
11.4271
5.8523
10.6369
15.1086
-11.231
-7.83599
17.3573
2.35243
19.8823
-36.2027
1.07642
-22.0769
-7.88836
-12.787
2.16918
-4.18444
8.78628
-2.27338
8.80514
-58.3769
0.130161
-80.4247
-13.944
0.744814
-3.24178
3.32698
-3.2009
-45.1877
-8.31368
4.84997
5.30041
18.0952
11.7026
1.9481
4.82359
24.0334
8.077
-3.74477
0.706033
6.04246
11.5521
6.08128
13.2297
0.35335
0.404197
-0.472832
0.134728
5.98249
15.0283
-12.8497
-16.4681
-9.77756
17.6666
-45.4973
5.13878
12.1043
-36.6065
2.05084
1.31851
-5.32646
-5.55589
3.07764
11.1558
8.68812
11.9302
-2.3582
-13.7147
-4.20761
-10.4138
2.53167
1.0613
2.5209
-2.83743
-9.08962
-50.439
-4.30497
-17.8822
14.517
-55.64
17.748
-11.5938
-43.1015
-0.494262
-1.78785
12.6415
3.57006
15.4267
3.77464
18.5144
-5.20087
11.4785
-13.1554
11.1748
1.31277
16.2853
13.3381
0.889416
10.5894
16.2048
7.31966
10.6742
-4.87061
-72.8162
1.73589
-5.25379
-5.93183
-3.34861
-2.91532
5.3003
-5.54554
6.16813
3.04668
1.39844
-1.79128
0.70869
17.0194
6.32577
0.936524
7.53153
11.7147
-39.3318
1.13786
7.6941
3.51375
4.91305
5.03559
5.13926
11.7074
11.7039
-7.72646
12.2862
13.0063
8.70306
8.27573
2.84363
8.61348
4.96493
0.423889
-31.2965
-84.142
-2.17464
-47.3464
0.57843
-3.0763
2.82295
-11.4981
1.74325
-13.8963
3.10378
-1.47263
9.12619
-9.5529
12.2152
23.4101
9.48443
-70.5913
9.97132
7.6969
5.94183
0.387733
5.43853
-45.1216
6.23818
11.5464
-2.62535
15.6643
0.331701
11.6921
1.56817
2.19975
-25.3883
-6.31407
20.5638
-41.6689
11.776
11.7896
13.2134
6.0084
11.3988
5.52828
-20.3486
6.95812
-4.07951
-5.82215
11.6557
11.6275
-2.34648
9.5582
13.6079
-23.1574
-67.1216
2.9304
2.567
12.5047
10.1616
13.1925
3.15475
6.52366
-7.07759
0.95184
13.365
13.1981
19.6798
2.63907
-4.12392
-26.4146
3.98451
6.02431
5.97968
-10.2669
-36.0315
2.18143
-39.9594
-5.46738
22.2774
9.53081
-13.5672
-70.629
-39.9393
-14.8583
-11.7374
-18.1642
-16.7012
14.5048
10.1142
-0.276496
19.7296
0.749557
-6.00608
-54.6057
-5.82113
7.46704
-11.0086
8.83213
6.06119
-1.2505
10.2226
-56.2864
-3.7598
-106.875
13.4553
-13.3101
1.31344
-8.18827
11.8142
10.9094
-44.8472
12.252
9.875
14.3118
16.3496
7.46043
7.10809
21.3741
-10.0722
4.4154
-18.4938
-18.2175
14.7622
-77.7289
17.4438
9.88802
-0.646026
-34.6583
-27.5956
12.9777
-91.3629
-48.038
7.08992
5.10591
-18.4998
10.599
7.64134
0.946577
17.6715
-13.4143
-23.9898
12.3028
4.79422
12.3193
-17.7234
23.2531
0.625879
3.01624
12.3765
0.0871632
11.7164
6.84541
9.43712
7.25443
-11.0912
-2.48537
7.57711
6.21666
-49.6979
0.970996
6.73097
11.1161
11.7537
-42.5867
5.14966
-8.90359
10.4612
3.67791
-18.2225
11.9188
-129.854
11.6153
12.2687
-6.77148
15.0793
-32.2168
20.389
8.27774
-18.5825
-0.349076
2.39024
12.978
12.9217
-27.7745
11.9568
12.4262
-7.69803
2.22469
6.26421
6.11089
-8.19214
-8.2948
-3.72865
-110.21
11.7972
-28.838
-36.7362
13.3555
13.7509
12.3605
13.6084
-28.3786
9.96307
-13.7553
6.14725
10.261
-44.6488
-45.14
17.4684
3.71951
-33.8353
-1.90247
-5.36826
-45.9944
11.8213
-7.94126
0.256478
12.9969
-0.150307
11.4939
-30.1235
3.8485
18.9592
-7.35583
13.1453
0.986728
-39.7498
8.78163
5.94285
12.0154
18.9652
8.91926
5.00327
19.9316
11.3558
14.2663
-10.5392
-32.3151
-4.56814
-1.64501
-33.4267
-1.06318
-0.728898
-1.24849
3.55274
5.02594
-3.10292
-0.27762
-38.4205
-1.65799
13.7637
-4.75934
4.97743
10.6425
11.6743
-17.7302
1.7739
-46.3963
-12.5218
-33.5873
0.71694
13.7859
-17.0479
14.3449
-20.4958
11.7253
-4.82603
2.48977
-19.2515
9.276
10.3704
8.31418
5.10824
9.76489
-31.1894
12.7447
15.9829
-15.7244
-4.0428
-36.8906
12.1197
6.8926
-11.0252
-2.19319
6.54961
0.865853
2.73547
6.01097
0.202215
1.67407
10.3672
6.71855
1.36028
-28.9967
14.773
-39.6553
10.2945
0.618866
11.6669
9.74383
10.4058
5.85417
-29.541
-62.3985
2.3943
-16.9623
-71.3536
-33.1061
-2.43594
-46.5442
11.7246
6.15924
11.7172
-46.937
-33.9645
-4.33977
0.87603
9.73375
-5.07562
7.87416
5.9622
-46.3283
-33.6993
-40.886
5.00296
11.9906
1.5711
6.86316
-13.1171
7.48595
-28.8488
0.232796
-15.5484
12.2409
4.22971
1.8523
11.1988
7.11639
10.5082
16.0645
16.0229
-7.52381
3.15729
-54.8078
3.08523
10.659
5.87555
-22.155
-19.7513
-20.854
-2.10029
4.61032
-23.6532
21.2256
-6.34759
9.36025
4.15785
-61.1903
-0.482436
3.9675
-42.8243
7.37462
7.46903
12.211
2.45668
11.676
-4.7725
-11.4443
-47.5466
-7.51098
-20.2977
8.92859
18.683
11.6474
-6.98473
-19.7028
12.2421
-3.26886
-35.6572
-2.60996
-6.11059
-24.8003
-16.7169
-20.5566
0.0976082
5.07102
3.93073
-1.54702
5.9516
12.575
1.64348
-2.0734
12.8946
-0.164009
-6.77481
2.09362
5.08508
-4.45426
20.0965
-1.62839
4.3801
-0.262848
2.20389
1.69131
6.59629
-6.07876
2.38578
2.10509
0.101194
4.0176
-15.9183
13.3522
6.24618
7.96823
-68.3143
1.14694
19.0843
-46.4122
9.26824
8.99784
8.37657
-2.40002
4.19914
-29.5812
16.7133
12.0078
11.0775
7.96844
-65.0532
12.8491
7.48079
16.0246
-14.4265
12.2311
13.2142
11.8962
6.49094
-17.919
8.74908
-5.49379
0.469623
9.90248
10.5659
7.14705
14.2358
7.01319
15.6764
0.881483
9.65502
5.85787
4.32133
-1.73703
11.763
2.18562
10.2
20.1086
12.1634
5.37691
0.899728
4.06661
11.7066
0.975061
-10.9629
5.14133
3.75099
12.813
-41.7173
14.8338
8.30343
24.0668
17.0753
-2.15175
-4.41872
-2.36108
6.98774
17.2977
7.35896
6.23476
-11.9459
22.2502
10.7146
4.65369
20.9769
1.87124
10.8957
-0.81881
8.97434
2.45314
7.01085
9.14312
11.681
-0.632853
-14.3074
5.77409
-37.6657
1.67533
-20.324
3.01884
16.8756
13.9267
1.98167
-13.6183
1.76065
10.1914
5.91452
5.76309
10.5341
-51.4053
-19.1031
-59.2888
12.2487
-4.61163
-63.2578
13.9613
0.786108
4.16434
1.15929
19.2788
-48.679
14.3296
-15.1294
20.6703
7.65232
-4.60496
2.51731
3.20621
6.51669
11.6976
9.34901
-59.3176
-1.03721
-64.8114
12.7546
5.13664
6.53154
-39.5704
-47.8876
-14.6121
8.93202
-6.70201
3.02978
2.35995
11.8283
19.8144
-37.7226
3.76903
5.55681
-38.0116
9.8932
0.906039
-2.85898
-52.5872
-31.6217
11.7655
-140.555
-67.1999
7.04462
-1.28714
-73.8908
7.31823
11.4101
9.95655
11.5802
18.7794
-7.20463
21.5308
-13.5523
19.7883
-29.8701
1.30172
17.8508
9.62223
-144.469
3.68562
-1.01868
6.13711
-51.3528
-7.82384
6.96699
-0.207106
-4.52994
0.580705
-40.8163
9.29671
8.94203
-27.6318
9.50793
-3.99666
1.39397
-51.1786
1.04344
-7.25876
-47.3299
-2.05674
18.7301
1.6823
19.1617
4.85345
-4.75644
9.54057
1.22427
2.588
11.5753
11.5638
20.8416
11.4271
12.8891
-6.35521
-13.3042
20.2464
19.9651
12.9235
2.47241
-55.7359
-5.24014
6.06125
-1.96862
-0.179077
15.358
-99.3506
1.54988
-4.2974
19.551
2.31424
7.44286
-65.4367
4.15884
15.374
22.6899
21.3607
7.2499
10.0973
-8.3845
-9.39376
11.0315
21.7147
-26.7953
2.49469
-0.16328
0.303333
6.95109
5.51501
4.08807
6.15438
6.90651
5.04871
2.27768
8.9452
13.0107
-15.3051
10.0319
-73.5443
3.91795
16.8201
-4.40503
-5.38607
-16.9909
9.8045
10.6123
-42.999
-18.8793
3.30622
4.39992
23.2963
-23.0657
-0.992461
-26.2555
4.03427
-29.8884
-16.4224
-44.4657
-1.12364
1.90569
-4.45801
1.75488
-4.1682
10.3832
4.69115
7.21334
22.5616
7.55439
5.74265
-69.3098
7.74547
-12.8956
3.07509
16.4333
10.7993
5.81578
-45.2006
9.24546
10.7202
-35.9992
-17.2928
-1.40254
16.5495
1.2221
11.6846
6.74696
15.1204
8.4728
-82.1331
0.594038
11.8295
1.31414
12.0287
1.85844
20.6956
-49.0669
4.82001
-5.60938
11.1515
-47.057
0.786142
-50.8469
6.99128
-10.5598
-68.2927
-45.7035
-2.81974
3.85621
-9.77964
1.63552
6.55626
-6.02264
4.70127
-53.118
11.7495
19.6403
3.57524
-12.0217
5.42561
6.06316
-3.78471
-3.42903
3.60717
-4.23403
4.29181
19.0364
-10.4989
6.76831
5.55024
-39.126
-0.923242
4.83662
11.6693
7.18802
-42.3028
4.46495
2.20731
-50.871
0.698286
-4.61045
-42.7247
13.835
-48.0242
-6.78186
-1.21643
-2.85823
-8.79348
-7.50651
24.2058
-0.65266
-0.564719
11.7439
19.6214
16.8828
-89.4368
-0.38078
11.6516
1.47336
4.56673
19.5659
3.60306
1.12013
23.9215
5.31706
-14.8322
7.70421
16.0291
12.0249
5.45388
16.5797
11.1061
2.56817
3.65803
9.79423
6.22274
-13.7418
18.4647
10.3071
4.49604
2.25192
-7.4459
0.27379
-70.8691
2.617
5.35991
6.79851
12.7122
7.38736
-2.83081
17.0739
17.8288
0.277955
4.45742
-114.814
-52.7143
-6.32355
10.6813
-46.6656
1.63411
12.8228
20.0549
-3.86049
8.70856
10.4852
10.5511
-0.331555
5.39674
-54.7314
2.32966
-6.48842
-0.934967
-4.99039
-2.71622
4.94996
-48.7976
11.3457
-75.0032
2.04317
8.41739
-12.5725
-63.5717
-9.76597
7.61882
-0.0436225
-1.72254
9.58286
-30.1765
0.7338
-1.08651
-107.33
11.3289
-5.46502
19.8005
2.15353
21.8432
0.235416
-3.02408
6.36007
11.7018
4.34561
-8.01609
-17.877
6.03862
6.71088
0.953513
24.5507
10.5215
-7.12207
1.02706
-2.1177
-27.6359
7.32065
-53.2017
10.7617
-65.8013
-57.2601
-14.119
-13.5411
2.7085
-16.2045
10.7444
4.26284
16.9364
20.4349
-10.5139
-3.84162
8.90325
0.31909
17.5901
-25.7748
5.47994
9.47794
11.1618
-122.894
-29.107
8.74502
-0.940627
2.4416
-113.01
-15.1729
5.3718
1.74277
-5.46789
5.22886
-5.92607
-4.56152
7.55849
-99.2059
-79.9395
4.24681
-26.3161
20.6301
-2.11519
11.781
1.98424
0.90573
6.08564
-4.42235
8.66417
-46.0314
-35.1551
17.4269
11.1695
6.59703
-16.1579
21.8542
-56.2848
-24.9435
-61.5339
-4.96952
-46.312
-101.863
15.7245
6.3269
4.87403
9.32654
-48.0048
-30.8958
3.28261
4.77186
-7.27887
6.70643
9.32219
7.75596
-39.8337
-19.2726
-25.0165
10.442
-0.368518
0.00367761
20.9497
10.939
-22.022
-6.07927
8.43163
16.3655
-1.48745
-35.1387
-4.06504
13.8681
5.84031
-0.21102
12.0808
-61.3285
17.2267
2.43867
12.7765
-8.55661
0.325232
2.25741
-65.2486
-5.10334
8.9974
-31.2333
-42.9293
9.78519
-56.9402
5.77623
14.1259
11.3393
13.7244
11.6805
0.0849571
1.41106
6.86437
6.27849
0.383348
9.68546
-0.765967
17.4555
-48.389
13.3633
-9.03483
19.5128
-47.3643
2.16423
18.7234
-50.1232
-1.72062
-4.35996
13.8175
18.5848
11.6987
-3.059
11.6835
11.5262
-7.97751
10.4514
-104.567
12.5919
-52.9029
-50.7642
-5.17021
-6.35981
11.3132
-8.26872
-7.50796
1.8566
18.2276
4.87215
6.3392
-7.74459
0.896101
0.239188
-62.1344
11.7533
6.62535
-7.86856
21.4087
-2.51287
16.4663
12.2766
3.90958
1.4683
3.77305
-2.30621
-8.17505
2.38535
1.26479
4.39331
6.46808
-53.0994
21.2972
13.1422
-0.20178
-27.6026
6.3263
-100.824
11.4479
10.7662
6.08418
2.12768
10.7431
7.45298
1.54073
-12.9052
-0.991115
8.10881
17.2179
-19.894
18.822
22.687
19.4834
-62.0078
11.1441
-10.3493
11.5657
10.9266
14.0665
8.12604
13.4418
22.4332
12.0699
-24.4457
-23.0961
-30.1146
22.5001
2.4037
-66.8322
-43.006
13.4918
17.2507
9.19413
-0.592205
-10.06
15.6848
-1.40663
6.68804
-43.4782
9.60401
1.44347
-15.2998
3.51543
-16.9265
-19.6717
-55.081
5.35379
-32.0012
10.9412
5.82951
7.49839
6.80262
-0.69728
-4.96655
2.23478
-0.640126
-7.49352
-29.9974
12.9199
16.0338
-56.0461
15.7543
12.9923
17.2041
1.84048
-60.7903
8.12006
-15.4074
14.0455
-1.24391
13.6541
11.5182
7.60867
13.6535
5.06573
11.7946
0.319671
9.79913
1.2425
-11.8338
-2.97264
-36.7026
11.5868
-29.4007
-125.974
-26.3627
18.737
11.0285
9.93508
1.71056
15.2512
-3.48787
6.55742
-15.4601
0.905912
6.72605
-89.759
-3.61486
0.442663
-11.9965
1.65644
-21.4767
-16.3569
-5.56475
-14.4938
4.25597
18.4325
20.5314
16.8708
-32.884
6.74373
-8.0035
6.94347
16.752
7.96678
11.4257
-23.0376
1.2835
0.881216
6.07668
12.6432
3.64765
8.28563
-3.82956
5.04557
-11.9911
12.0096
8.36932
11.6471
-4.95116
6.89123
-46.5073
-8.49895
-9.13645
-0.125286
17.7644
-6.3327
6.50451
-43.9935
9.91968
11.7808
-2.36483
10.5968
-4.71044
15.5729
18.4178
-116.131
5.32437
13.6504
-107.287
-8.49759
6.6241
13.2905
14.3278
-10.3309
-2.35401
6.71846
18.2346
-5.19709
-49.866
6.01904
15.829
6.47606
1.0779
-70.2713
11.6791
11.3376
12.3828
5.79625
-4.50415
8.31162
21.8939
-10.9176
1.64564
6.36961
-7.75717
6.52515
2.14256
-39.8407
-3.03009
-49.5601
10.7422
-102.093
-8.21336
11.192
13.4519
7.0461
-2.09703
-37.7898
7.32903
-4.24545
-9.35898
1.44213
1.97638
-4.60012
14.0862
7.77588
6.44093
5.89653
16.6964
-57.5445
0.136347
11.7586
-9.60876
10.997
3.8178
0.682993
-11.9973
11.618
0.772088
1.55962
2.05866
-1.73519
11.9485
-10.7857
-3.81027
-117.287
-26.4623
11.5669
-5.14646
19.3119
-4.45444
-20.3093
-36.5985
13.6174
8.07186
10.8655
-36.8867
15.6135
-11.5257
-0.911086
8.60803
0.33749
12.0765
2.44966
1.58436
0.576606
-25.3082
11.4784
-8.57531
-99.5305
0.156575
-1.99543
0.103825
2.78108
16.7926
3.65637
-9.65431
10.8524
-1.47548
14.1311
-10.4454
6.71912
13.2387
12.1377
2.1579
-83.7541
-28.5447
6.43005
8.87812
9.72207
0.226498
-47.2338
2.78169
-5.7946
9.20548
23.013
6.90511
11.3479
13.9942
8.1753
12.5219
-21.7653
-27.5168
-88.3491
11.5902
22.2093
7.16141
1.72427
12.2758
2.61565
3.53613
-0.995748
6.51646
3.88602
19.3413
-29.0143
-5.14151
20.7817
12.5092
5.17196
8.32877
11.0144
5.0813
-44.3438
-53.8477
8.32183
-13.0195
-11.6428
10.7014
-78.672
-27.7352
-13.4739
6.15939
6.60534
8.10222
6.90843
11.0677
11.3401
-4.81501
8.52128
7.0041
17.3188
13.4961
-3.74066
1.46902
-2.72212
12.9238
7.97474
-4.40989
2.95793
6.73351
2.30755
16.7432
9.27417
0.411328
-15.7379
4.2179
9.61294
-1.15407
10.6223
1.35941
6.97611
-144.247
6.7252
-31.668
5.40387
-2.37916
-54.2824
-7.82147
-5.00016
14.5691
-40.2444
-15.197
-31.7679
17.3758
-115.025
2.19269
8.54338
-6.3628
13.5928
11.8023
-3.09345
12.9793
5.73609
6.69089
-36.4935
-18.4895
0.573657
14.3523
-8.19719
-9.16109
-5.91871
-51.8227
-20.2596
-36.0368
-1.94716
-0.618167
9.15309
11.6871
10.1278
-54.1612
-39.0321
13.3124
10.6369
-11.531
7.77326
-33.3043
-0.506
8.74541
4.07184
11.5046
-53.6228
-118.649
-135.292
9.07015
-18.3498
-34.4333
6.24165
-53.2677
-14.0365
-6.81665
-23.9975
5.85645
-29.0728
2.23047
-8.03278
12.0973
11.7221
-6.3171
13.8672
-24.1118
16.4577
-3.86705
6.87489
0.860384
8.50977
4.24718
-13.0907
-29.4269
12.3106
14.3612
17.5156
-13.148
-16.5422
-35.134
2.00883
0.128322
-4.12224
-11.772
-3.52744
4.20455
-8.63681
-1.55099
-21.2211
-5.02943
15.5935
5.35592
5.10128
1.89032
-1.42316
-24.7173
16.5187
20.2818
-15.6821
8.60971
8.84934
0.623916
-44.1069
13.4818
14.214
-2.25959
-99.5409
-80.9219
-27.6474
1.32646
-4.31406
2.57609
12.1923
-24.8696
13.217
-6.08244
-6.2128
12.083
2.0579
-5.31562
7.24061
13.2782
-6.51888
3.74819
-6.47422
-4.65399
-4.23
17.862
-31.0774
5.52253
-9.00327
10.4689
-12.2801
-55.1483
-1.38279
-7.03071
1.25688
8.89769
1.35473
-3.59004
6.80906
0.259599
-27.0729
0.350003
-4.896
-0.856623
2.7064
11.4673
-21.5023
13.6109
-36.9228
0.544314
3.86575
-4.30358
-46.1622
-4.3314
-18.7035
2.83936
9.42772
-4.44603
5.61744
-1.14563
5.05707
-10.1872
11.9437
-2.91317
10.6003
-0.110316
-58.3307
-15.5882
24.8857
-39.6841
-7.6272
-11.3247
-4.66045
11.6356
-0.431756
-8.73995
2.59735
-4.97091
-14.2241
-14.1601
-3.34019
5.89656
-4.52345
7.51457
-6.09097
6.13035
7.02674
3.74501
-7.62538
3.3956
10.4886
-10.4509
-26.5452
12.0655
-0.592808
-10.2691
5.49454
-0.590412
-1.75519
4.67288
11.0836
-84.0972
10.1146
-14.234
-1.46729
-5.0189
-3.97862
-24.0484
-5.5336
-55.0187
11.0845
9.98907
-8.87132
22.2783
-36.9968
14.043
13.1441
-7.32063
8.37721
10.3068
11.7474
-0.48587
-22.2867
-6.7022
-4.33963
11.5374
8.63245
-6.43933
-0.97202
-3.65063
14.3058
5.89633
-35.7392
7.17375
12.0158
-1.06984
-1.77411
2.03232
11.5523
9.48142
-25.0889
13.738
13.2391
-5.87097
-31.3558
10.6213
10.2449
6.47349
2.13548
14.6789
-14.3176
-2.36424
-26.2424
14.0199
5.74207
-1.8357
1.27846
-7.24132
-44.888
7.427
-32.0254
-1.46009
10.7568
12.286
-142.657
10.5039
2.67731
6.22272
7.65262
6.3975
8.14214
0.485503
12.088
12.1317
11.5802
-17.4953
12.6571
10.7738
11.6353
11.6914
-28.3973
0.228925
3.16972
-1.0401
11.073
18.0767
-64.7721
21.6118
-22.5146
-11.6964
8.13089
10.4596
-1.43111
5.89249
-14.8303
-41.828
3.94793
-69.2876
-0.719834
5.52863
5.99908
21.2162
9.31508
-52.2657
-63.5492
6.68629
10.0065
-51.3124
-15.6071
-42.5495
-1.62821
-13.2879
-11.7147
11.7386
-6.94499
9.7997
2.22494
2.27747
-36.6487
1.64675
3.33558
-4.50682
14.126
-2.28717
-8.83277
17.1378
-13.3386
3.97326
10.2728
-3.89429
-25.8457
12.0285
-0.445103
10.0567
0.0251255
11.126
6.05642
15.5204
11.4805
-29.1296
5.20759
0.929347
-39.2446
1.4894
2.20248
-40.3072
-59.2857
21.6308
5.45119
-41.7766
13.4667
-41.012
3.5043
-35.369
-17.937
-35.4259
-14.1968
0.0942227
4.34482
-16.6706
-24.9449
-4.91457
-153.444
0.74639
-70.5237
7.55991
11.6258
-47.9162
-60.1388
-0.373516
2.64933
-2.99998
11.0913
14.0028
-55.6093
11.2315
-0.871575
11.1186
17.2805
-34.5444
10.9063
4.25274
9.52636
12.4057
6.72949
1.76523
-86.1203
10.3562
14.0134
-107.882
-45.6216
-11.1103
-4.57665
10.2907
-30.7482
-2.05336
-59.8049
10.006
-15.923
6.12768
1.00917
11.9417
6.7687
-21.1227
4.77162
0.192502
-54.6966
15.7174
19.0858
11.1301
22.1276
13.0301
22.8983
6.65524
3.52459
14.9362
-31.7268
8.18859
5.06126
-13.5004
14.6502
1.77436
-1.00005
18.8466
6.93817
-18.9017
10.1926
9.62429
13.2365
-6.60714
12.1361
19.124
-38.5198
-11.703
-1.78899
4.8675
-7.62357
10.1
5.73047
13.8255
11.591
-53.2935
10.0238
2.38562
-32.2878
-26.9992
-69.808
8.55257
-5.85134
11.8055
-1.69347
-3.93621
7.09649
-46.1955
3.24471
-51.0553
-29.5614
9.66195
8.08898
-5.25108
4.53057
11.9749
5.76411
-48.275
10.52
-0.985256
9.99346
-7.93962
12.0032
8.67
-5.62234
-3.74096
8.89907
4.44054
8.92784
-12.7711
21.2166
0.949144
-7.58774
9.06142
6.24621
-3.47058
-0.843138
-19.5219
-2.72183
-1.66874
-2.89387
5.89406
5.16242
22.4756
-2.64309
-44.6911
6.78105
0.746308
-1.60249
-2.09328
7.0743
12.1467
-6.9073
4.56652
-17.2076
-1.1732
4.81406
6.39551
11.3007
0.579013
0.290554
-2.44355
11.199
-5.78182
5.86623
-9.7736
4.56255
3.0958
12.9703
-8.73866
0.273521
-21.431
8.27486
-4.15213
5.28209
11.7282
10.3784
12.3646
-30.206
-29.2776
11.4088
-35.2476
12.787
10.2308
2.16546
10.7863
1.26141
8.83819
6.64275
0.96199
-27.9439
11.8826
-49.3071
12.4345
5.44533
22.6543
6.32348
8.48536
11.1265
7.45961
5.79493
11.0694
2.15963
3.32709
-8.22313
-0.234484
7.6682
3.70503
-6.6929
-28.6791
-55.9788
-22.0367
-3.73163
-0.0677149
11.7605
3.4489
11.4708
6.99088
19.1733
17.5882
9.43004
3.15123
9.28994
-13.0311
13.3643
5.12204
7.30069
2.50961
11.9536
8.69209
-10.0628
-20.8336
-3.36536
4.46273
-3.09328
1.8213
11.5481
-23.2632
3.74672
-4.78078
8.39664
9.90295
-10.8662
9.65798
9.76832
-3.26339
6.9395
10.3997
6.83449
19.1577
11.9379
7.81027
15.2362
-0.0674048
13.0443
8.92881
-4.79367
-28.8645
2.18201
1.23549
-8.23966
-125.634
11.7404
14.6183
12.9965
13.6583
11.2152
12.4175
9.76059
7.1061
10.0144
4.6806
7.66773
6.84339
2.92806
17.0431
4.15326
-6.30223
11.4779
14.3201
16.6199
-8.557
0.225932
-26.823
-14.2922
10.0844
-16.4722
-50.4539
11.9913
19.3275
-26.3007
0.141112
-10.6725
9.65232
5.58347
7.83866
5.66404
5.29234
-42.7181
6.88903
-8.59358
-10.3573
12.1377
11.7093
13.1097
-3.26668
-21.1438
-1.68644
4.48918
-2.96182
-3.62724
5.71819
2.96276
-1.58689
2.78118
0.0790533
2.22923
8.9275
-3.65905
5.75497
10.0904
1.38983
1.64875
-5.30063
-25.5297
-8.43628
11.7352
6.09886
-41.3855
11.4766
12.6696
-30.8078
0.840661
-3.03609
-4.06706
-73.4868
3.84169
2.71262
-0.921164
9.99884
-21.7707
10.6493
2.2183
4.01989
15.1286