/*--------------------------------*- C++ -*----------------------------------*\
| =========                 |                                                 |
| \\      /  F ield         | OpenFOAM: The Open Source CFD Toolbox           |
|  \\    /   O peration     | Version:  2306                                  |
|   \\  /    A nd           | Website:  www.openfoam.com                      |
|    \\/     M anipulation  |                                                 |
\*---------------------------------------------------------------------------*/
FoamFile
{
    version     2.0;
    format      ascii;
    arch        "LSB;label=32;scalar=64";
    class       volScalarField;
    location    "9.2";
    object      p;
}
// * * * * * * * * * * * * * * * * * * * * * * * * * * * * * * * * * * * * * //

dimensions      [0 2 -2 0 0 0 0];

internalField   nonuniform List<scalar> 
13486
(
1.62779
1.64866
-0.019657
-5.35497
-1.24422
0.284224
-1.36153
-0.461269
0.382103
1.18985
-2.91468
0.192718
1.6859
0.416166
-0.716255
1.2486
-2.78995
0.663388
0.193068
1.49912
-6.12689
1.63949
1.62328
-4.26454
1.10446
-4.02418
-2.92084
-1.00138
-0.00219641
-1.58329
-4.89838
0.0457563
-1.35158
-0.948675
-0.4365
-0.00121838
-0.155143
0.682301
-0.144163
0.6022
-3.80709
1.80417
-0.0187261
1.07314
1.05534
0.189481
-3.02372
-0.00276663
-0.148393
-0.474511
1.19809
-0.210921
0.272108
0.777889
0.196526
-1.12066
-0.598944
-0.200941
-1.33184
-0.218676
-3.40483
-0.231313
-1.29272
-6.11831
-11.7307
-0.175782
-5.05543
1.85538
0.341306
-0.104477
-5.00612
0.374739
0.781808
-2.07881
-0.225195
-0.525063
-0.212824
-0.80283
-3.04613
-0.304724
-0.000309617
1.73705
-1.33187
0.0193925
1.62423
1.49497
0.102857
1.17961
1.35765
1.35486
0.357982
-0.70122
1.42452
1.56838
0.283562
-0.00187903
-2.92125
-5.05186
0.577904
-2.93995
0.0188538
0.475654
-5.24667
-0.199081
1.64821
-3.01808
1.18809
-0.142035
-3.08217
-1.2239
-0.0953399
-0.147907
0.783305
-0.221834
2.26218
0.0582328
1.12013
-0.889157
0.793924
-0.129759
0.676385
-3.26665
0.450758
-0.14808
-0.018555
-0.196475
-0.0160723
0.708159
-0.831393
-9.43021
-0.194584
-2.97185
-2.68018
-1.81756
1.21213
1.33484
2.71161
-1.12072
-0.12191
-0.258843
-1.00146
0.284563
0.18979
-0.317136
-0.095955
-0.40317
0.0226845
2.18534
-0.531555
-0.000957981
1.03172
-1.21786
0.00192731
1.78083
0.795702
-0.0246998
-1.70428
-4.01812
0.366284
-0.0976408
-0.200125
0.373665
0.64559
1.78799
-0.21203
0.220452
0.558706
2.80986
0.0118868
-1.82521
-2.81946
0.800862
1.11608
-0.0642059
-0.00551367
-7.71889
0.364352
-1.0256
1.1699
0.187657
0.38494
-0.193477
0.0126164
-3.0385
0.0593655
-0.947212
9.71925e-05
-1.22815
-3.5056
0.217079
-0.144252
-0.0961032
-0.226544
2.10143
-0.27307
-2.84075
-10.0771
-0.251673
1.02667
0.270848
-4.95243
0.694013
0.687597
-2.40719
-0.112816
-0.291315
0.256665
1.04272
-0.213292
0.059573
-1.09198
-6.01693
1.48393
1.1951
0.289572
-1.34556
-1.51646
1.35312
1.23043
-0.96817
-2.83796
-0.533505
-0.179401
-0.258908
0.28828
1.34347
0.113459
-7.89987
-0.721088
0.0847344
0.380383
-6.07497
-1.04861
1.88638
-5.98021
1.18047
-1.09559
-0.0889228
1.21812
0.117412
-1.50495
1.10431
-0.130227
0.996307
-0.100658
1.35034
0.180034
-2.77921
-1.80015
1.13035
-4.47408
2.3147
-0.0594261
-0.149912
-0.470556
-7.5659
0.105298
-1.33894
-3.53124
-1.63733
1.47816
-0.100496
-0.629129
-7.29519
-1.49675
-3.02793
-0.71953
-5.57726
0.771439
0.562822
1.77254
1.21059
-1.53772
0.218104
1.34791
-2.51064
-0.465194
-2.82538
-0.160569
0.048948
-3.16757
0.29828
1.22213
-3.07875
-3.17697
-3.02267
-0.84154
-0.840247
0.269637
0.803456
-5.87559
-0.113807
0.167234
1.21533
-1.06168
-1.16653
-0.218367
0.194737
1.20668
-2.63046
0.706341
0.2912
0.0255125
-0.00784718
-0.125138
-2.32279
-6.88898
0.188574
0.0768286
-0.149938
-1.82802
-5.42501
0.550894
-0.0663109
-2.57389
1.36205
-0.114351
1.37328
1.07591
-0.877589
-0.167185
-0.113776
1.17631
1.60338
2.65599
0.31606
-0.394888
0.265139
0.1401
-0.513784
1.18229
-0.82151
0.434602
1.95558
-1.58835
0.159035
2.27271
-1.2194
1.08221
-0.0939766
-0.771417
1.60608
-0.602991
-0.0169386
-3.10183
-0.00254499
0.0581528
2.12626
-0.994423
-0.108824
0.184479
0.17387
0.209407
-2.89792
1.19837
-0.0525787
-2.13261
-0.00994965
0.0599588
-5.33091
0.181932
0.38735
1.42301
1.21384
-1.60918
0.00127556
-1.14314
-3.05257
1.52616
0.0316536
-0.020194
0.0914078
0.259052
-4.31061
0.390601
1.20602
1.2276
-0.0982493
-2.42378
-1.56201
0.724584
-0.989247
1.87643
1.82168
-3.01339
-0.50835
0.513434
1.06908
-1.90933
-4.4853
1.4367
-1.50015
0.918842
1.32269
2.03577
-0.120734
-5.22233
-4.22539
-2.18448
-0.943119
-1.97662
1.01855
0.542056
-7.46766
-1.21488
0.218242
1.54325
-1.06811
0.160141
1.59869
1.04079
0.110748
-1.36451
1.21959
1.21654
2.06035
-3.10316
-1.46045
-3.03712
0.105639
1.17701
0.644597
2.14802
1.10791
-0.0186963
-1.21052
0.704416
1.23458
-2.92777
0.628478
1.64562
0.55918
0.907952
0.242392
-1.87011
-2.42085
1.90587
-0.109156
-0.038928
1.82645
-2.76084
-1.47363
-1.78021
-1.44379
0.0170007
0.929648
1.97658
1.68044
-1.68512
-0.130342
-3.12013
1.09497
1.39395
-0.471774
-0.212827
1.24385
-3.85376
-8.34342
-3.32686
-0.640781
0.624402
1.18505
-0.0061778
0.635934
-6.02503
1.30126
-0.00179263
2.57823
1.38287
0.678952
-0.657172
-0.00388599
-0.00213743
2.24474
-0.537033
-0.118773
-0.0161714
0.170112
-3.06737
0.194947
1.127
-0.0704349
0.0892915
1.63079
-0.847009
-2.39929
1.08418
-4.49293
2.79916
1.09295
1.20742
1.22265
-7.30888
0.0819498
2.3583
-1.69495
1.56847
-2.47113
0.748663
-5.79543
-0.285836
-0.0307464
-3.18663
1.40596
-0.00948753
-4.72648
-1.38317e-05
0.238086
2.02916
0.914591
-0.491577
0.0526275
0.0845225
0.128344
-1.66086
1.20674
-2.91265
1.8565
-0.172968
-0.102874
1.82662
-1.03215
-0.0198828
0.212115
-6.17709
-4.14069
0.161693
-1.34972
0.505621
1.41599
-2.89793
-1.81737
-2.89683
-0.00259648
1.20108
0.737274
-3.08262
-5.32659
0.763614
-3.52882
-0.342716
-11.5951
-0.182109
0.0575531
1.91741
-0.152576
1.42703
-0.363081
-4.12547
-0.377886
0.903579
-3.03795
0.964335
0.0662532
-3.67379
-0.00656235
0.750547
-1.87233
-2.92423
1.20682
1.32345
0.873605
1.67242
0.0715188
1.11162
0.717466
1.10939
-0.0859441
1.22408
-2.90977
0.989447
-0.0421956
-0.803531
-2.50495
1.15086
-2.64556
0.200528
1.92758
1.59472
-7.50014
-2.32835
0.83217
0.314327
0.592053
1.34917
-2.75465
-2.81166
0.456942
1.48052
0.627591
0.661976
-9.45427
1.62286
-3.22094
-0.186772
1.23089
-0.713309
-0.289589
0.731897
-0.495584
0.112091
0.123206
0.876513
-0.507073
1.56731
0.0649758
0.292679
0.321396
0.344994
-0.788082
2.08944
0.766785
2.06219
-7.48294
0.878824
-0.0059282
-2.11765
-1.45086
1.11982
2.26566
-13.6006
-1.06833
-0.478814
-1.11666
1.11004
0.592632
0.253451
0.477016
-2.93388
-2.34021
-2.67818
0.572654
-1.0688
1.2029
-0.00351381
1.85525
0.52962
-0.117309
-4.11036
-1.07197
0.797932
-3.02852
0.449633
-3.10521
1.14904
0.000172521
-0.546475
-4.8587
1.86098
-0.00189599
0.691967
1.77711
1.20403
-3.21298
-0.131436
0.119547
0.541169
-0.130692
-0.119776
-8.95858
0.865789
0.607054
0.776607
0.446938
1.83295
-0.167369
-7.89336
1.15486
0.405412
0.216965
-0.377902
1.14135
0.958336
-3.13457
0.0664686
-0.100593
0.169102
1.20052
0.789098
0.133009
0.0360209
-4.26343
-0.333256
1.51043
-0.172795
-0.207547
0.544173
1.91245
0.762093
0.00248468
2.05873
-0.0173021
-3.95968
0.874926
-2.0936
1.43152
-0.0908058
1.22351
-7.87485
-1.89325
-5.5307
-0.00228307
-2.58406
1.04752
2.17934
-1.53987
-1.01263
0.0602062
1.5441
0.493378
0.935365
-4.4844
2.28593
-3.17665
0.189499
-0.544582
1.08678
1.35437
1.1278
-1.37128
-6.1827
1.77747
1.26406
-1.8609
0.591852
-3.64027
0.00959777
-0.348017
1.0584
-1.80544
-0.433117
1.50247
-1.00898
-0.181139
-0.56102
-4.20868
-1.54115
-0.152513
1.01507
1.44277
-7.40295
0.075647
-3.2698
-6.25283
0.113715
-1.0663
0.391877
1.22243
0.533471
-0.265143
0.653638
-1.88829
-8.54844
-0.299133
-0.0527919
-7.01262
-5.53591
-0.104814
-7.19969
-0.16126
1.70151
-0.124102
-8.18183
1.78475
1.57874
-6.97575
-9.35598
0.233937
-2.99271
-0.119495
0.456124
0.563116
-1.14083
-2.45839
0.972291
1.11668
0.0037214
-4.56336
-2.30136
0.320761
0.0330651
1.17442
0.250621
-7.05954
1.49964
1.4927
-2.99472
-7.14712
0.424581
-2.63018
0.330835
-0.133888
-1.47129
-6.81865
0.349348
1.18434
2.08245
0.975608
0.362769
0.38525
1.17674
1.48383
0.684629
0.341515
1.00957
1.98358
-1.07592
-0.111518
0.613921
-0.708665
1.88592
0.0869697
0.864495
0.276116
-0.443572
0.177067
0.357521
-0.661729
1.29116
1.60116
1.12284
0.994952
-1.38409
0.148264
-0.972492
-1.07924
-0.583108
0.329283
-0.0975806
-9.52007
-3.83818
1.01012
-1.38728
-1.80194
-1.21988
-3.68954
-0.833103
-2.77107
-8.71697
1.12142
-6.47178
1.61524
-8.1544
-1.82333
0.57443
1.24416
-0.254954
0.582247
-3.17355
1.36317
-1.38522
-1.16852
-0.247528
-0.130211
-4.07825
1.23425
-0.576901
1.05767
-0.10969
0.210491
-2.92486
-0.109257
-0.0524613
0.944314
-0.840146
-3.01759
-10.0912
1.61377
0.546065
-8.4089
-2.8779
1.00274
-6.58782
-0.113823
0.175807
-0.646208
0.299544
-0.417979
-11.0108
1.47239
1.23838
0.702372
0.947241
-0.111265
-1.69936
1.18741
0.292843
0.62849
1.33147
-0.341105
-0.146137
-0.580353
0.389143
-0.124527
1.33627
0.893986
0.589028
1.20453
0.518747
0.0565443
2.21852
0.356418
-0.887997
1.11788
0.154922
-0.146557
-0.655559
-6.08331
0.974052
-0.162173
-0.0193076
-0.0820655
0.72054
0.852317
-3.25945
0.00167431
1.20224
0.174039
1.95188
1.38713
1.1792
0.18101
1.27662
0.172224
-0.0728174
-0.617946
0.625162
-7.54095
-0.813028
-1.55799
-2.61817
-4.76874
0.868961
-1.06925
-2.30847
-9.86014
-7.58417
-0.0672483
1.27333
-0.0257299
0.396214
-1.96918
1.21588
2.08985
0.19206
-3.06817
1.07289
-1.44852
0.899747
-0.107454
-0.109283
0.84115
-0.245315
1.84188
0.237455
1.18351
-1.31776
1.29493
-0.124933
1.40827
-0.178981
-1.7842
0.383949
-13.4074
0.261877
0.202072
-5.65439
1.65754
1.21808
1.46854
1.38517
1.4658
0.958358
-0.970595
0.337157
1.23721
1.16141
-0.725533
0.108027
-0.734294
-0.0627295
0.218186
0.431327
-1.88475
2.47062
-0.282011
-0.146535
2.09927
1.58199
-0.814669
-10.7431
0.659157
1.03562
-3.89953
0.156676
-1.81105
0.0699191
1.18438
1.26719
-0.117173
0.38113
1.28976
0.000253771
-0.164611
1.42139
0.147134
-0.136734
-2.86999
0.0137744
-0.640695
1.29778
1.54637
-0.15339
-2.58801
-2.14957
0.177479
-0.143447
0.176376
1.83466
-0.183379
2.45403
0.892374
0.202433
1.06415
-3.24523
-2.23717
-6.37889
0.983664
-0.125765
-1.72914
-4.75749
0.974282
1.1361
-0.0956539
-1.02284
-3.27692
-0.724004
0.526119
-0.103351
0.257617
0.174019
1.08425
1.21686
1.4311
0.555671
-0.824812
-1.40131
-0.79221
0.0511187
-8.38327
0.765287
0.227577
-5.96744
-0.115016
-0.154697
0.731771
-4.79769
0.266139
1.07441
-0.0289702
-2.32639
-0.00638778
-0.441984
-2.28428
0.202906
0.189165
0.38586
1.14178
0.858487
-1.80211
1.20857
-0.100611
1.46788
0.629845
1.01152
0.689086
0.33941
1.8539
2.41878
0.470564
-1.57308
1.14001
0.0813575
1.86059
-0.648984
-1.32812
-4.50497
0.192613
-0.116101
-1.65804
1.20572
0.83643
0.282225
-2.90202
-0.5613
0.590868
2.19839
-0.763624
1.21372
-2.24915
0.850537
1.79993
-0.560438
-0.0647128
-5.78563
1.31684
0.170488
2.39062
0.0338013
-0.788643
0.983694
0.202959
-3.04011
-1.83025
0.774909
1.43669
-0.0229045
-1.42373
1.59589
1.4972
-0.315378
-1.28939
0.00576847
0.720333
0.535445
0.750511
1.1972
0.234713
-2.80442
1.36378
-0.154442
-1.08533
-0.438351
1.37112
0.838332
-3.03722
-7.45353
-3.16301e-05
1.20581
1.71061
0.192427
0.706971
-0.661826
2.22592
-2.97439
-0.948769
1.88605
1.20174
0.31827
0.108415
-5.1773
-0.635953
-3.16998
-2.97498
-0.104065
-6.33961
0.479136
-1.71034
-2.88076
-2.61688
-0.880648
-1.94023
-2.06272
-4.27156
1.79363
1.29815
-1.77613
-3.16869
0.140565
0.702575
-0.812463
2.4393
-0.758282
-0.650976
1.20609
-1.95847
-6.43876
-0.546446
-0.631389
0.842712
2.53649
-0.00167344
-0.534164
-4.67891
0.0675181
-0.611295
-0.0732942
0.0721557
1.38108
1.31713
1.23191
-5.77698
-0.24477
-0.124137
0.293364
1.16891
0.221636
1.26236
2.30459
1.99926
-1.9032
1.20681
1.43022
-0.630209
1.13693
-0.152256
1.95375
1.10157
0.485151
1.41429
1.01275
-0.416734
-0.144244
1.42181
-1.3005
0.347026
-1.10561
-1.04238
0.269956
0.917639
-0.137557
0.239369
1.81243
1.79247
-0.360945
-1.80439
0.176915
-4.3042
-0.454128
1.3255
1.42185
-1.78868
1.17481
0.269087
0.103439
0.313031
-4.99684
-5.92889
-0.148861
2.4976
-0.584729
-0.00265696
1.5806
0.258391
-0.399412
0.987853
0.19878
1.1868
-2.36274
-1.27346
0.224544
-0.406659
-0.798288
-0.534868
2.13424
1.57119
0.739822
2.26623
1.71009
-0.591051
-0.164529
0.130069
-0.402076
1.8261
-6.06661
0.665269
0.137615
-3.48147
-0.657769
1.04064
-10.1784
0.113943
1.24728
2.56391
-2.88853
0.137285
0.293396
0.441185
-0.0218512
-6.15791
1.74335
1.10102
0.317656
0.976847
-2.32669
-2.0284
-3.20041
1.99387
-0.238556
2.36779
-5.59516
0.666438
-2.15815
-1.7297
-2.02936
0.435567
-0.178969
0.84234
0.124971
0.82635
-6.04561
-0.000777994
-5.96741
-1.79723
-0.863167
-1.24201
0.103728
-0.345879
-6.38844
-3.33109
0.132316
0.200094
2.01141
1.22183
0.0365468
0.160297
2.89794
0.635449
-2.92141
-0.00711674
0.373725
1.2005
0.380302
1.38666
-0.682397
-0.730782
-0.640109
-0.000374036
0.183217
1.65965
-1.82309
-3.29334
-3.07834
2.03628
-4.83288
0.263971
1.21008
-6.15095
-0.135134
-0.124265
-2.84242
-2.87218
-0.139758
1.13667
0.706642
1.19326
-1.09546
-1.84486
-1.16041
-3.11626
-1.93904
-0.817929
0.361892
-4.2494
0.0488306
-5.5574
-2.87773
-3.35585
1.5755
-6.05195
2.05462
-3.14018
-1.14643
-0.0995349
0.479273
1.27903
-0.0819092
1.69964
0.143782
-2.91329
-2.77779
1.07284
-1.77413
1.14169
-0.107728
1.81908
1.39345
-0.111314
0.995297
1.82692
0.511492
1.01515
-1.28705
-2.59899
0.0143764
-2.00268
-0.159158
-0.833245
-1.01432
-0.0117193
-2.74352
0.176183
-0.208517
-0.346538
-0.792753
-1.08042
1.94421
0.0522326
-0.00169394
0.184908
1.22362
-8.58793
-0.00414177
0.575841
-0.0241286
-0.0810823
0.184016
0.166696
1.22097
1.21766
0.0303427
1.28296
1.3708
0.717396
-1.72499
-0.144251
0.770289
0.236258
-0.646813
-3.16945
-8.5756
-0.928269
-5.27971
0.0308563
-0.167893
-0.320508
-1.82875
-0.499264
-5.00712
-0.188804
-4.76123
0.870701
-2.93691
1.24883
2.84843
0.894379
-5.62712
0.973902
0.641756
0.177913
-0.00708458
-1.8888
-10.7919
0.085431
1.11816
0.000157561
1.74062
0.00458035
1.21686
-0.267627
0.0395042
-2.33103
-1.5765
2.43615
-6.33481
1.25052
1.21486
1.37461
0.0844991
1.09478
0.224067
-2.07582
0.438493
-2.88932
-3.28599
1.12572
1.20237
-1.16683
0.714653
1.44769
-3.85587
-12.4571
-0.299692
-0.0939946
1.30783
1.01254
1.39952
-0.0888588
0.452186
-1.626
-0.910929
-1.82962
1.40245
2.33286
-2.11677
-2.82397
-2.45656
-0.011846
0.0596533
0.0673594
-1.91976
0.609492
-0.136375
-6.63303
0.072225
2.46238
0.951191
0.60612
-5.19651
-4.50023
-2.85867
-2.39995
-3.1134
-3.46324
1.58471
1.01172
-1.23055
2.29724
-0.00736443
-2.81221
-5.57168
-3.24143
0.53848
-1.79287
0.829424
0.349739
0.0484866
-1.66576
-2.11621
-2.90922
-7.10317
1.43915
-4.70911
-0.138499
-3.1001
1.21727
1.04235
-4.8293
1.24047
0.886601
1.54235
1.84463
0.533945
0.182984
2.53153
-3.15749
0.119421
-2.07675
-6.79311
1.62511
-7.74371
2.00743
0.966942
-0.75136
-3.44264
-2.98828
1.36821
-9.07634
-7.8607
-0.00234607
-0.0367642
0.579367
1.07675
0.630535
-0.313536
2.03438
-1.86504
-3.67253
0.405848
0.113713
1.28333
-4.27352
2.81805
-0.150918
-0.230479
1.27116
-0.58807
1.22181
0.458826
0.823043
0.486925
0.69264
-0.603579
0.57253
0.170304
-6.86742
-0.0266225
0.390531
1.06706
1.15133
-7.18468
-0.0315624
-1.85256
1.06141
0.420372
-6.499
1.24662
-6.83189
1.19855
1.26773
-2.71844
1.65137
-10.3142
2.40821
0.628399
-5.57179
-0.00137518
-0.187612
1.16632
1.36102
-6.6342
1.18686
1.30488
-1.58006
-0.0672433
0.156874
0.346894
-1.65074
-2.89065
-0.973842
-6.86646
1.21238
-3.30748
-3.9757
-1.85575
1.47635
1.25051
1.27792
-3.36135
0.981657
-0.319319
0.0352931
1.02494
-7.51384
-7.2347
2.00862
0.00366486
-0.286971
-1.29901
-3.06198
-5.43014
1.27073
-2.81121
-1.00589
1.37184
-0.351343
1.12966
-3.79133
0.12907
2.22433
-1.64061
1.39958
0.0895159
-5.71206
0.830525
0.172977
0.276639
2.22987
0.743236
0.206853
2.34275
1.09966
1.55132
-3.13628
-3.31294
-1.30584
-0.851929
-4.57061
-0.809214
-0.648576
-0.920945
0.0627556
0.166489
-0.783997
-0.407797
-6.01533
-0.781112
1.49096
-2.78328
0.121938
1.08123
1.21582
-0.321444
-0.070657
-4.91695
-2.48463
-4.03063
-1.13027
1.49405
-6.37494
1.52277
-3.35984
1.22268
-1.21999
-0.15359
-2.07794
0.803081
1.01074
0.709565
0.241758
0.784217
0.466315
1.30081
1.78107
-4.8093
-1.61674
-3.42972
1.27047
0.513375
-2.14999
-1.04978
0.451996
-0.466792
-0.0109019
0.372957
-0.546128
0.657958
1.01228
0.483308
-0.133332
-7.99255
1.63306
-4.49725
0.915952
-0.000210253
1.21094
0.86917
1.04371
0.337554
-2.89327
-6.27082
-0.133187
-2.798
-7.59864
-9.61742
0.455906
-6.87916
1.22907
0.398668
1.22207
-3.43238
0.470227
-1.25855
-0.147351
0.847905
-2.86997
0.610281
0.179866
-11.1053
-5.19103
-4.60589
0.286344
1.30917
-0.132441
0.188744
-2.24009
0.522915
-0.847564
0.0816683
-3.15271
1.23801
0.152787
-0.0540568
1.08707
0.498047
0.984997
1.12775
1.79563
-1.72881
-0.152037
-2.91861
-0.131656
1.08087
0.183186
-3.18463
-5.64477
-4.70933
-0.531039
-0.0585072
-5.73061
2.40128
-1.44026
0.808145
0.172332
-8.40169
-0.186146
-0.0494132
-0.2129
0.600139
0.187511
1.27319
-0.14345
1.18632
-1.31908
-2.33147
-6.93778
-0.220164
-5.70767
0.735449
2.18164
1.15411
-1.5216
-3.03183
1.26055
-2.93146
-1.01423
0.0118839
-0.427581
-6.1325
-5.48075
-6.49692
-1.19218
0.240322
-0.0122504
-0.716568
0.180704
1.30813
-0.607936
-1.03064
1.35485
-0.173044
-2.98036
-0.059014
0.177502
-0.00058057
2.34075
0.00471804
0.102129
-0.584879
-0.263172
-0.573101
0.428585
-0.191808
-0.113028
-0.261455
-0.934733
-0.0255953
-1.10471
1.42217
0.406189
0.674592
-2.60839
-1.00835
2.24974
-7.14253
0.798838
0.733164
0.615844
-0.23041
0.151136
-2.68673
0.579859
1.25206
1.12334
0.621662
-7.65694
1.34356
0.611459
1.80691
-0.883919
1.2781
1.39003
1.23878
0.264673
-3.15201
0.814348
-3.229
-0.486766
0.967343
0.997071
0.541932
1.53842
0.188857
1.74341
0.393805
0.8376
0.344738
0.188733
-1.02103
1.21449
0.0247202
0.980366
2.28308
1.25924
0.231804
-0.83
0.160756
1.21993
-0.147574
-2.26551
0.323769
-0.0317458
1.32724
-4.64694
1.61343
0.746349
2.94083
1.95575
-0.837492
-1.25859
-1.37682
0.509074
1.97797
0.00843871
0.394453
-0.34935
2.54032
1.05963
0.193228
2.35061
-0.320065
1.04358
-0.946337
0.742806
-0.459363
0.44527
0.785708
1.11367
-0.181543
-2.89385
0.186315
-4.30849
-0.0270826
-3.49198
0.00705005
1.89511
1.49051
-0.032765
-2.15951
-0.793151
0.905257
0.377563
0.331786
1.06874
-2.02813
-2.86446
-5.99319
1.26733
-1.3284
-1.70154
0.972012
-0.305789
0.14507
-0.770483
2.27979
-7.54522
1.52463
-2.57849
2.36157
-2.00251
0.133543
-0.181715
-0.122957
0.4449
1.20133
0.320303
-1.37283
0.413109
-2.08719
1.29436
0.20998
0.442138
-7.55194
-0.808022
-2.67636
0.728562
-1.2283
-0.133998
-0.250133
1.21244
2.35706
-4.33922
-0.0416271
0.276594
-0.480223
0.99403
-0.0993118
-0.954934
-1.07171
-3.41708
0.633092
-6.77504
-0.740186
0.0633856
-0.964722
-13.07
0.555788
1.15928
0.911879
1.19765
2.20757
-3.28071
2.48839
-2.35657
2.27387
-7.15398
-0.457904
2.06362
0.925315
-9.93447
0.0117615
-0.187999
0.323358
-7.45206
-3.01348
0.178348
-1.34989
-1.96245
-0.00557876
-0.525639
0.894579
0.728662
-8.62258
0.933015
-1.26973
0.21365
-7.48491
-0.142827
0.794331
-6.7369
-0.929126
2.09357
-0.0988682
2.17129
0.171495
-2.87219
0.899861
-0.35382
-0.195917
1.19264
1.14108
2.48654
1.17851
1.35096
-1.13011
-1.86071
2.40225
2.3739
1.3597
-0.201465
-7.1621
-3.20281
0.371316
-0.669129
-0.0620801
1.5721
-5.06022
-0.129739
-2.63004
2.24389
0.637716
0.576154
-6.33412
0.0668775
1.14403
2.75184
2.56307
0.515471
0.816981
-0.603659
-2.04276
1.03705
2.62048
-1.19611
-0.202256
-0.483842
-0.00361473
0.219024
0.253225
0.0691948
0.16455
0.344593
0.19815
-0.152232
0.829178
1.34742
-2.85018
0.916659
-6.81755
-0.0214506
1.91714
-1.93631
0.387855
-2.59979
0.953514
0.886336
-4.58305
-3.13572
-0.128618
0.417315
2.83296
-2.1562
-0.768962
-8.96168
-0.0116863
-2.19062
-2.69266
-4.77978
-0.999628
-0.0590554
-1.43251
-0.291205
-1.85735
0.866851
-0.00588928
0.544285
2.72593
0.617791
0.186163
-0.780785
0.6651
-1.76196
-1.20226
1.84482
1.00559
0.189029
-0.572723
0.743584
1.01703
-0.526512
-5.20716
-0.0086757
1.86723
-0.795339
1.21575
0.479016
1.65569
0.215796
-7.45162
0.63508
1.18536
-0.989854
1.25154
-0.317319
2.47438
-5.15254
0.153967
-2.80182
1.08438
-5.18519
-0.595588
-5.3816
0.129605
-2.1229
-8.44591
-7.61538
-0.316562
0.355441
-5.20321
-0.319165
0.42955
-3.35429
0.191812
-5.69529
1.1744
2.32523
-0.0131494
-1.75854
0.243056
0.0892972
0.358596
-0.371371
-0.0696986
-2.99432
0.0241514
-2.14318
-2.15802
0.49283
0.0633405
-4.85258
-1.04023
0.191786
1.22608
-0.133872
-4.72363
0.123163
-0.126734
-0.926311
-0.20293
-1.14708
-4.91998
1.4942
-4.08236
-1.56718
-1.22586
-1.39947
-2.92986
-3.38079
2.91229
-0.0175037
-1.1681
1.03212
2.29465
1.92376
-8.24483
-0.953546
1.19098
-0.127754
0.0352815
2.30914
0.116592
-0.408463
2.89192
0.256404
-2.5034
0.637384
1.81446
1.22573
0.237348
1.85269
1.12856
-0.354609
-0.11114
0.95756
0.2073
-2.17333
2.16703
0.410475
0.0572242
-0.144302
-4.18012
-0.160541
-6.57544
-1.1471
0.241238
0.448745
1.32465
0.499638
-2.94167
1.94293
2.06793
-0.679589
0.19043
-0.327991
0.0255677
0.317863
1.08181
-5.94105
-0.60165
0.392559
2.39232
-2.89304
0.712824
0.973321
0.955436
-0.547703
0.316052
-1.18967
-0.229434
-1.50629
-0.192335
-3.02865
-1.1333
-0.0604664
-5.26729
1.10405
-8.7248
-0.13046
0.748138
-1.77263
-6.44709
-2.8543
0.578092
-0.905345
0.0594069
0.98168
-7.78766
0.00532082
-0.566474
-0.306872
1.10983
-2.85339
2.33945
-0.109772
2.60389
-0.00133147
0.0265721
0.100751
1.21215
0.142168
-1.85715
-0.39203
0.359035
0.113986
-0.263548
2.94307
0.965223
-0.66935
-0.741206
-0.517985
0.42006
0.493947
-1.15804
1.09128
-6.07281
-5.93172
-1.74725
-2.49003
-0.312823
-1.80354
1.09136
0.169763
1.93573
2.42743
-2.46417
-2.96577
0.348926
-0.506417
2.02485
-2.15065
0.223784
0.927988
1.13773
-6.68506
-1.40675
0.221435
-0.183647
-0.201901
-5.5851
-2.30205
0.225647
-0.321312
-1.5066
0.241775
-1.58363
-1.3153
0.549861
-9.1431
-7.11354
-1.53161
0.761264
2.47426
-0.896054
1.21745
-3.19455
-0.0986081
0.388136
-0.555122
0.803279
-4.91633
-3.38838
2.00161
1.08352
0.466806
-1.68569
2.6363
-6.06444
-3.17215
-6.00266
-1.01109
-5.27665
-6.36366
1.74747
0.417227
0.199483
0.896788
-5.4252
0.862627
0.064284
0.194198
-1.77867
0.488984
0.86205
0.597918
-4.60749
-2.89095
-2.39919
-1.92553
-0.657669
-0.594765
2.5039
1.11606
-5.69065
-1.13281
0.733985
1.84963
-0.463387
-3.13625
-0.938077
1.48736
0.265711
-1.45169
1.25723
-1.50609
1.96602
-0.293599
1.34484
-2.91549
-1.28166
-0.147441
-6.199
-1.2531
0.84448
-2.74969
-5.20293
0.856912
-1.45892
0.339562
1.52094
1.16479
1.46549
1.21604
-0.954391
-0.0118747
0.50966
0.378161
-0.00146083
0.853528
-0.676078
2.011
-5.13384
1.40904
-1.84787
2.30363
-5.45864
-0.260835
2.198
-5.30803
-0.826658
-2.8549
1.45618
2.17697
1.16854
-1.07126
1.21623
1.12371
-4.62657
1.03194
-8.09387
1.28526
-5.59151
-6.11918
-3.11219
-3.24102
1.09576
-1.62103
-3.31653
-0.0500153
2.12813
0.121406
0.406419
-3.33009
-0.515212
-0.556812
-0.814151
1.21508
0.446917
-3.17175
2.56849
-0.233149
1.85824
1.21329
-0.0469088
-0.0576033
0.0340965
-1.06141
-1.15335
-0.174379
-0.266169
0.133688
0.415495
-5.98455
2.37065
1.39022
-0.102211
-4.40915
0.33927
-4.43972
1.16362
1.00366
0.164196
-0.0983884
1.01184
0.547833
-0.574143
-1.83637
-0.690271
0.626553
1.97765
-2.23422
2.20427
2.64859
2.3094
-2.14901
1.07093
-2.96194
1.16942
1.01208
1.50878
0.636638
1.40539
2.72571
1.2584
-2.51455
-3.68679
-3.4379
2.71429
0.0098608
-1.83935
-4.67506
1.43713
1.97284
0.739953
-0.050431
-0.346628
1.76013
-0.891498
0.405212
-4.87657
0.947859
-0.13405
-2.73753
0.0952003
-3.12573
-3.46699
-6.41976
-1.74844
-0.136159
1.04658
0.327859
0.151933
0.473296
-0.730444
-1.34243
-0.139159
-0.696515
-2.90555
-2.85294
1.33456
1.79553
-5.93408
1.31551
1.35607
1.89145
-0.0282752
-12.0221
0.640514
-1.98056
1.5114
-0.928857
1.45625
1.17453
0.64021
1.45235
0.266139
1.16361
-0.0345638
0.959509
-0.956705
-1.77769
-1.75714
-0.106314
1.13224
-8.8049
-7.79039
-8.03066
2.13589
1.0442
0.936715
-0.197653
1.68118
-1.23647
0.422588
0.143127
-0.8691
0.454412
-7.83509
-2.90829
-0.52515
-2.64724
-1.07242
-6.06714
0.114423
-3.23041
-1.86966
0.151237
2.15454
2.45103
1.92374
-9.22666
0.423159
-2.8948
0.494316
1.90303
0.682739
1.10735
-7.15332
0.0285535
-1.04288
0.387192
1.29352
-0.11423
0.649468
-2.95606
0.224756
-2.89449
1.21326
0.661404
1.20868
-2.81543
0.481836
-7.64883
-3.38336
-3.36259
-0.00175395
2.04981
-1.66682
-2.78261
-5.1266
0.847257
1.21538
-0.220936
1.07185
-2.80917
1.7283
2.06213
-7.11052
0.265104
1.44524
-8.56646
-3.67156
0.479653
1.40019
1.54542
-2.9607
-0.859068
0.451384
2.12441
-3.05514
-10.8801
0.356403
1.77042
0.460752
-1.01923
-2.19185
1.1378
1.16677
1.24994
0.322624
-1.42243
0.666134
2.65466
-1.80729
-0.336418
0.430409
-2.92655
0.459871
0.0659762
-4.36876
-0.968377
-5.81898
1.09232
-5.05164
-2.24794
1.08449
1.40966
0.504108
-0.977425
-9.51298
0.489125
-2.87522
-1.33739
-0.703171
-0.022371
-2.74643
1.53551
0.559003
0.436533
0.280243
1.89526
-4.7403
-0.520968
1.17089
-3.25643
1.11792
-0.0253792
-0.119999
-1.94
1.19817
-0.00303572
0.0618925
-0.757016
-1.12108
1.16685
-1.80104
0.611423
-9.53606
-1.18932
1.15103
-2.86864
2.28075
-2.87498
-2.92202
-4.98218
1.45194
0.587918
0.997784
-3.36758
1.73101
-4.60284
-0.711309
0.148576
-0.0219692
1.25647
0.0436605
-0.806521
-0.288893
-3.27434
1.17443
-2.67707
-8.67296
0.00453683
-1.2352
-0.669163
-0.108839
1.91217
0.0524172
-2.95612
1.0296
-0.999125
1.51425
-2.04059
0.500612
1.29047
1.25448
-0.0174663
-3.21963
-1.84132
0.427429
0.801859
0.924693
-0.366606
-5.64189
-0.251477
-1.46789
0.606176
2.7846
0.446697
1.1376
1.48634
0.709296
1.29492
-6.25068
-3.05856
-9.50382
1.19787
2.67473
0.521818
-0.318417
1.22986
-0.197309
-0.0659032
0.0341846
0.448891
0.139415
2.28232
-3.08975
-2.06827
2.27307
1.25077
0.168946
0.672194
1.05663
0.283624
-7.39765
-8.54416
0.668493
-2.02639
-1.75074
0.991433
-9.65988
-4.63871
-2.23121
0.328129
0.387488
0.60392
0.489322
1.04392
1.07889
0.212908
0.671647
0.484661
1.71424
1.40352
-1.12439
-0.0652669
-0.232892
1.34642
0.584129
0.681073
-0.12731
0.4671
-0.147073
1.90566
0.781939
-0.00450903
-3.45191
0.563224
0.820296
-0.616736
0.922266
-0.13519
0.126847
-9.12309
0.176567
-4.00574
0.228052
-0.923758
-3.5422
-2.51645
-2.79122
1.56581
-4.35441
-2.74726
-4.79723
1.99651
-5.33945
0.267165
0.761041
-3.37343
1.41469
1.21964
-0.825264
1.33149
0.364272
0.475599
-3.2985
-3.66563
-0.0216748
1.56209
0.794375
-2.90978
-2.98417
-6.95413
-3.0177
-4.95252
-0.948495
-0.672808
0.874215
1.20256
0.890761
-5.85666
0.0956491
1.38436
1.00903
-2.97089
0.533705
-3.44851
-0.378149
0.168175
0.155627
1.19016
-1.03905
-6.07237
-7.64271
0.824218
-6.39227
-2.96116
0.0430163
-11.9302
-2.41789
-3.37282
-4.40135
0.0399746
-3.41519
-0.00785312
-2.9096
1.25019
1.21389
-0.282217
1.48979
-6.115
1.86038
-2.16527
0.526006
-0.441507
0.693763
0.179065
-1.81997
-3.31892
1.27633
1.57118
2.01876
-3.27657
-2.20703
-7.74214
-0.608828
-0.00192962
-2.86795
-1.86837
-2.97927
0.177297
-2.90822
-0.809008
-2.40627
-0.305415
1.73528
0.281259
0.0248446
-0.100604
-0.87652
-2.36708
1.84634
2.41953
-2.48336
0.680644
0.696403
-0.00283661
-7.16066
1.43338
1.54531
-0.8468
-4.63426
-9.32133
-7.10253
-0.349238
-2.93287
-0.186866
1.24729
0.120631
1.39929
-2.80436
-3.32578
1.25547
-0.246732
-3.19672
0.573685
1.37817
-3.31082
0.0127772
-3.22394
-2.87368
-3.06112
2.06871
-3.2476
0.297443
-3.00849
0.980316
-3.11424
-1.55351
-0.94142
-3.21155
-0.930804
0.743258
-0.0197681
-2.90933
0.473816
0.0112883
-8.39884
-0.21072
-2.74611
-0.582826
-0.0677732
1.15165
-2.82655
1.42242
-7.83912
-0.00100996
-0.0457793
-1.21693
-8.11412
-2.81747
-5.02052
0.291366
0.923693
0.0511878
0.307883
-1.14509
0.208109
-4.1797
1.30164
-1.49582
1.07579
-1.15524
-3.58123
0.533562
2.93557
-6.79673
-3.37409
-2.23463
-1.74349
1.208
-0.0274068
0.625765
-0.92824
-2.60418
-3.27453
-1.88718
-2.93715
0.281359
-2.83951
0.597513
-3.0396
0.382442
0.488209
-0.067439
-1.22013
-0.109416
0.960553
-2.70552
-7.89723
1.1767
-0.1323
-2.94497
0.27959
-0.887541
-1.21964
0.158472
1.06079
-8.18818
0.985198
-2.03413
-0.967598
-2.64216
-2.45202
-3.12674
-1.33045
-4.36429
1.07383
0.962621
-3.77894
0.918903
-7.71051
1.51939
1.38778
-3.39496
0.691057
0.951267
1.23419
-0.631166
-6.74963
-2.35886
-1.80702
1.19039
0.790759
-1.93882
-0.718421
-0.835631
1.55961
0.34998
0.52436
0.558521
1.18926
-0.746741
-0.836842
-0.131895
1.19414
0.768212
0.339083
1.45192
1.39593
0.0240689
-8.91126
0.991383
1.01337
0.444127
-0.264929
-2.88265
-4.0016
-1.24639
-7.97056
1.51943
0.264575
-0.454845
-0.762162
0.398449
-2.07835
0.525042
-9.52697
-0.857875
1.00057
1.21053
-8.3766
0.971721
-0.119255
0.33464
0.536059
0.42963
0.614606
-0.00467329
1.24494
1.19813
1.14815
-3.20443
1.30435
1.02119
1.20633
1.2008
-8.82061
-0.385312
-0.158899
-1.25475
1.03972
2.03881
-12.1668
2.13121
-7.03684
-1.90613
0.643868
0.983351
-1.04902
0.351497
-2.25824
-10.4421
-0.110475
-6.76185
-1.03316
0.275422
0.364579
2.52674
0.778613
-6.75494
-6.05778
0.42069
1.00626
-6.35065
-4.48427
-10.1109
-0.78091
-1.95145
-1.76637
1.21534
0.334787
1.02392
-0.162342
-0.130995
-0.0538001
-0.0536551
0.272956
-0.920647
1.41671
-2.01179
-1.97682
-0.278539
-4.83124
0.148384
1.03005
-0.324666
-1.53582
1.2329
-0.176707
0.959325
-1.23319
1.07837
0.40121
1.71648
1.15437
-7.55253
0.234816
-0.813357
-9.76897
-0.131799
-0.136812
-1.17121
-12.3733
2.59088
-0.00193375
-0.525798
1.40965
-4.77209
-0.0458129
-6.64831
-3.30431
-3.10532
-2.18466
-0.594241
0.0860572
-2.01991
-8.09623
0.637356
-9.90279
-0.671131
-4.36217
0.0830551
1.19819
-5.02823
-6.32535
-0.675704
0.0747031
-1.4391
1.06731
1.48611
-10.1547
1.09696
-0.400304
1.13397
1.98625
-4.17408
1.10846
0.164432
0.959485
1.25854
0.381831
-0.605106
-3.74128
0.955745
1.48189
-9.63406
0.0793455
-2.52213
-1.72127
1.02349
-8.68528
-1.05235
-11.363
0.959441
-1.87447
0.174377
0.0643645
1.2417
0.170552
-2.413
0.182291
-0.122449
-2.45628
1.74484
2.2412
1.05454
2.67027
1.3923
1.70566
0.389949
-0.0453721
1.57792
-4.35989
0.656747
0.22079
-1.93237
1.58973
-0.777606
-1.09162
2.2176
0.516782
-5.2544
1.01898
0.952208
1.3955
-1.58602
1.2647
2.23201
-4.4558
-1.92861
-0.965475
0.243659
-2.88942
0.900079
0.320015
1.48452
1.17876
-5.9385
0.907973
-0.433504