/*--------------------------------*- C++ -*----------------------------------*\
| =========                 |                                                 |
| \\      /  F ield         | OpenFOAM: The Open Source CFD Toolbox           |
|  \\    /   O peration     | Version:  2306                                  |
|   \\  /    A nd           | Website:  www.openfoam.com                      |
|    \\/     M anipulation  |                                                 |
\*---------------------------------------------------------------------------*/
FoamFile
{
    version     2.0;
    format      ascii;
    arch        "LSB;label=32;scalar=64";
    class       volVectorField;
    location    "9.2";
    object      U;
}
// * * * * * * * * * * * * * * * * * * * * * * * * * * * * * * * * * * * * * //

dimensions      [0 1 -1 0 0 0 0];

internalField   nonuniform List<vector> 
13486
(
(1.53556 -0.279931 3.94798e-19)
(1.70097 0.201032 2.35005e-19)
(2.70004 0.025537 0)
(-1.4537 0.471029 -1.77482e-18)
(2.56724 -0.24288 -3.0506e-19)
(2.42602 0.173241 -2.81011e-20)
(2.47767 0.315197 -2.97699e-20)
(2.21457 -0.712941 9.49428e-20)
(2.06471 -0.355703 0)
(1.92875 0.64823 0)
(-0.388294 1.86267 -4.93384e-19)
(2.4139 -0.0703486 0)
(1.39291 -0.478581 -3.8198e-19)
(2.32516 0.719996 -5.01035e-20)
(2.3856 0.0603912 -1.14729e-19)
(1.89445 0.636319 -2.07683e-19)
(1.29524 -0.526985 4.55798e-19)
(-0.0093588 -0.606679 3.17852e-19)
(2.10136 -0.00899943 1.01841e-21)
(1.69339 -0.101828 -4.10384e-19)
(-3.00244 0.927723 -9.22301e-19)
(1.41352 -0.496601 4.93232e-19)
(1.71794 0.193601 -1.87794e-19)
(4.29902 0.21076 0)
(1.99211 0.525768 7.25199e-20)
(4.25751 0.0828707 -3.87029e-19)
(0.251336 -0.107044 5.33061e-19)
(3.19606 -0.184929 4.45147e-19)
(1.99572 0.195947 0)
(3.16434 -0.415812 -4.82009e-19)
(-2.93692 0.941724 -6.38954e-19)
(2.16241 -0.0133947 -4.22034e-21)
(3.27102 0.263012 2.75192e-19)
(2.44922 -0.212085 0)
(2.22042 -0.677157 0)
(1.63475 0.0171026 3.14148e-21)
(1.58047 -0.0867114 -6.67949e-20)
(1.60907 -0.748764 1.03282e-19)
(1.89093 -0.227954 -1.1154e-20)
(2.05709 -0.216862 1.08678e-19)
(3.22322 -0.586397 0)
(0.967482 -0.480066 -4.62984e-19)
(1.97133 -0.00567591 0)
(2.01443 0.436757 -3.36e-19)
(2.02713 0.437477 1.38587e-19)
(2.41456 -0.0712632 4.23595e-20)
(-1.29026 -0.997703 9.65718e-19)
(1.95968 0.187081 4.24263e-22)
(1.57341 -0.0660599 5.04064e-20)
(2.8153 0.0604781 9.92997e-20)
(1.99947 0.010804 2.83882e-19)
(1.95876 -0.0572858 0)
(2.34893 -0.206137 -1.06207e-19)
(1.76506 -0.639907 -1.69396e-19)
(-0.108915 -0.975846 0)
(2.51969 -0.265044 1.56235e-19)
(2.91659 0.0125306 1.18162e-19)
(1.97526 -0.114651 -5.89634e-20)
(3.26919 0.298313 3.56976e-19)
(1.58884 -0.27238 0)
(-0.705956 2.51892 -6.30413e-19)
(1.58335 -0.272976 0)
(3.38049 0.546553 -2.06566e-19)
(-2.97588 0.961831 -1.10928e-20)
(1.76232 -1.43652 0)
(1.55619 -0.113079 -3.5682e-20)
(-1.68927 0.674722 -1.54966e-18)
(1.49958 -0.0293351 1.52856e-19)
(2.06708 -0.376204 -3.72664e-20)
(1.50984 0.0115999 1.61881e-20)
(-1.49941 0.647518 1.77752e-18)
(-0.0855672 -0.862989 1.04416e-20)
(2.05484 -0.111377 1.03258e-19)
(-0.602795 0.39862 -2.94292e-19)
(1.46924 -0.169472 -8.98615e-21)
(2.87962 0.0896095 -2.38229e-20)
(1.4309 -0.133387 3.28144e-20)
(2.40275 0.0757597 5.18941e-20)
(-1.01629 -0.777432 -5.13074e-19)
(1.96131 -0.880217 0)
(1.91275 0.0376939 2.10667e-22)
(1.64132 0.282958 -1.53789e-20)
(3.10129 0.384578 -5.3968e-20)
(2.75564 0.00127587 -1.24436e-21)
(1.52928 -0.289988 -7.71058e-19)
(1.30188 1.3535 0)
(1.57801 -0.417935 2.12058e-20)
(2.00116 0.020836 -4.44685e-19)
(1.8891 0.147878 -1.89274e-19)
(1.76463 0.862759 -2.63573e-19)
(2.10835 -0.150731 -5.89688e-20)
(2.35727 -0.527533 8.75757e-20)
(1.60033 -0.373078 9.26596e-20)
(1.70938 0.0188603 1.16035e-20)
(2.00349 -0.582237 1.27346e-20)
(1.93847 0.15376 -1.63934e-22)
(0.287964 -0.153613 0)
(-2.47429 1.1738 8.22954e-19)
(2.06904 -0.210186 -2.08335e-19)
(1.29892 -0.508404 6.42529e-21)
(1.79066 0.024839 0)
(2.30091 0.713781 -2.17897e-20)
(-2.66401 1.2158 3.68396e-20)
(1.96236 -0.0962513 6.90594e-20)
(1.25962 1.29038 0)
(1.10413 -0.507043 6.51362e-21)
(1.99946 0.0359056 -8.95203e-22)
(1.90357 -0.261543 -2.3612e-20)
(-1.02716 -0.753476 6.6092e-19)
(2.1228 -0.914532 0)
(1.4594 -0.690249 0)
(2.08667 0.181956 4.84722e-20)
(1.77576 -0.620043 4.37158e-21)
(2.73359 0.422509 -4.0393e-21)
(1.17076 -0.148419 0)
(1.38415 -0.676287 -4.98771e-21)
(1.98483 0.54104 0)
(2.59903 -0.186691 0)
(2.0473 -0.110871 0)
(1.60004 0.0073584 -3.11462e-20)
(0.193718 -0.662122 -1.42222e-19)
(-0.829372 2.43344 0)
(1.96456 -0.523677 0)
(1.90325 -0.230266 3.64483e-20)
(2.07352 -0.679478 0)
(1.95677 -0.0536779 0)
(2.26617 -0.15611 3.60834e-23)
(2.17229 0.0639557 1.58386e-19)
(1.99183 -0.119987 -6.26901e-20)
(2.41224 -1.95937 -1.07555e-18)
(1.91742 -0.0378738 -7.39978e-21)
(-1.43804 -1.13311 -2.47371e-19)
(0.461206 0.658758 6.12545e-19)
(-0.230392 0.181493 3.68847e-19)
(2.00006 0.00408008 -4.51462e-20)
(1.8867 0.337744 -2.51144e-19)
(0.754459 0.53379 -1.57269e-19)
(2.13009 -0.88716 0)
(1.60544 0.0209709 8.89311e-21)
(2.21327 -0.529213 1.26297e-20)
(3.08389 0.233173 -2.80709e-19)
(2.32604 -0.209961 9.17734e-20)
(2.24009 -0.0939171 0)
(2.00495 -0.834566 0)
(2.09655 0.00750707 -6.28011e-21)
(2.63054 0.664097 -1.19482e-19)
(2.01096 -0.245519 -2.23655e-21)
(0.413294 1.28527 0)
(2.82613 0.102832 0)
(2.00741 0.185105 0)
(2.00776 0.00898819 5.48315e-21)
(2.53073 0.0166711 0)
(1.89779 0.0250425 -2.21116e-22)
(1.6156 0.279843 -1.33357e-19)
(2.151 0.288698 0)
(2.90691 0.0331346 0)
(2.02357 -0.863874 0)
(1.30267 1.95698 7.99561e-19)
(1.89165 -0.735652 1.3133e-19)
(1.80804 -0.245105 -3.35261e-20)
(2.70931 0.0447103 3.10021e-20)
(1.90063 -0.709062 -1.9202e-19)
(1.8719 -0.202505 1.08978e-19)
(0.867129 -0.41263 1.99798e-19)
(1.99016 -0.0734961 0)
(2.42435 0.727445 2.63689e-20)
(2.26473 0.644973 1.62627e-19)
(0.587223 -0.222768 -6.13817e-19)
(2.00383 -0.217672 3.79505e-21)
(-0.243039 0.206781 9.97725e-20)
(0.43479 0.622032 2.42234e-20)
(2.14581 0.262777 1.26651e-19)
(1.99722 0.052571 -4.03418e-19)
(2.29457 -0.0594929 -1.04848e-21)
(1.8965 0.0799597 -8.06504e-22)
(-2.16582 2.10261 0)
(2.27031 0.994886 -8.88909e-20)
(3.10969 0.34139 3.51168e-19)
(2.00756 0.0369258 -4.00331e-19)
(2.25859 -0.100796 0)
(2.1179 -0.247236 1.46021e-19)
(2.68351 0.394506 -6.51498e-21)
(2.28046 -0.0526172 3.01399e-21)
(0.336347 -0.130083 0)
(2.60757 -0.0733358 9.89969e-21)
(2.9039 -0.16197 -1.97599e-19)
(2.12254 0.181773 -1.2231e-23)
(3.00959 -0.3547 -1.22763e-19)
(3.15766 -0.550474 0)
(1.24809 -0.59665 -3.78722e-20)
(1.56456 -0.0264451 0)
(2.59003 0.0540687 0)
(2.02975 -0.178997 0)
(1.31246 0.662157 -3.06337e-19)
(2.09265 -0.22303 0)
(-0.350811 1.49355 -1.36009e-19)
(1.92087 -1.91219 2.37565e-18)
(2.65473 0.0169386 2.17978e-20)
(1.20794 -0.594424 -6.06342e-20)
(2.40962 0.690821 3.38066e-20)
(-2.86268 0.840704 6.71749e-19)
(2.18194 0.0836229 -4.92845e-21)
(1.48954 -0.713253 -1.19434e-19)
(2.2551 -0.882565 -2.30019e-19)
(1.80807 -0.255192 4.11558e-20)
(2.12756 -0.208672 -5.67341e-20)
(-0.614739 -0.41923 5.7134e-20)
(1.97122 -0.0653772 2.65061e-19)
(2.01047 -0.183461 0)
(2.62805 -0.059768 0)
(3.25581 -0.246458 3.62907e-19)
(4.46202 -0.570173 1.15339e-18)
(1.71001 -0.090227 3.75415e-19)
(1.99155 0.0349026 -7.27857e-22)
(2.42086 0.208827 3.23692e-20)
(2.59456 -1.18273 8.23421e-20)
(3.16136 -0.332862 0)
(1.76803 0.848028 6.14921e-19)
(1.69267 -0.386572 0)
(2.95611 0.845803 0)
(1.19647 -0.570143 -8.5755e-19)
(2.85758 0.144781 0)
(2.18577 -0.526793 -3.91417e-20)
(2.65378 0.0551663 0)
(2.38984 -0.276465 -2.23433e-20)
(1.3651 -0.64364 1.2053e-19)
(2.51898 0.379854 1.35619e-21)
(-2.6193 0.758099 4.76096e-19)
(2.40279 -0.763216 1.44634e-20)
(1.62953 -0.417692 -2.63289e-21)
(2.12207 -0.236711 -4.86689e-20)
(3.2971 0.766066 1.60749e-18)
(3.11815 0.255593 3.50512e-19)
(0.993078 -0.484731 1.62396e-19)
(-2.98944 1.12892 0)
(1.17266 -0.569832 1.28008e-20)
(2.87452 -0.344793 2.1961e-19)
(2.61351 0.0454947 6.16716e-21)
(1.03565 -0.498989 3.58065e-19)
(2.30255 -0.0453163 0)
(3.35816 0.329468 0)
(2.00079 0.0367563 6.17246e-19)
(2.67355 0.203096 0)
(1.04129 -0.515352 1.03969e-19)
(1.83476 -0.274158 -1.78842e-20)
(1.85788 0.030042 0)
(2.16595 -0.000436139 -1.00981e-20)
(3.71585 -0.316992 1.0584e-18)
(-0.379767 0.16013 6.0217e-19)
(1.98707 0.410407 0)
(-2.15835 1.77562 -2.95193e-19)
(1.13799 -0.121948 6.84064e-20)
(1.20129 -0.58477 -1.34462e-20)
(1.91725 -0.26484 0)
(2.20389 -0.733293 4.79426e-20)
(-1.90856 2.36427 2.55716e-19)
(2.15043 -0.0274699 2.9331e-20)
(2.54578 -1.24475 -1.04348e-19)
(1.93425 1.79875 -8.11539e-19)
(3.38883 0.278639 2.87804e-19)
(1.80792 0.158127 0)
(1.82352 -0.268908 -1.36024e-21)
(2.35061 0.0658633 2.55139e-19)
(-2.02233 2.22959 -3.14337e-19)
(2.57628 -0.620009 3.27481e-19)
(0.338555 -0.119184 0)
(2.43271 -0.72547 -1.34631e-19)
(-3.08784 1.00751 -9.83664e-19)
(2.19539 -0.0018412 -1.27605e-19)
(0.901245 -0.663189 0)
(1.52497 0.745052 2.35422e-19)
(1.99226 0.0371574 -1.14275e-19)
(3.19037 -0.353155 0)
(2.41265 -0.142782 4.57422e-20)
(1.29275 -0.62263 1.57076e-19)
(3.62895 -0.42588 -5.93934e-19)
(2.21278 -0.668282 0)
(0.396262 -2.07455 0)
(1.93621 -0.300724 -2.66354e-20)
(2.10456 -0.25839 9.07339e-21)
(0.333475 -2.23929 7.31037e-19)
(2.19478 -0.136837 -4.90168e-20)
(1.9712 0.0463368 2.43165e-19)
(2.59542 0.956444 -4.20253e-19)
(-0.88937 2.25022 7.52718e-19)
(1.2564 -0.169694 9.33308e-19)
(3.02166 0.318 2.53335e-19)
(1.94943 -0.151288 8.21902e-20)
(2.48409 -0.274922 3.42498e-20)
(2.15661 0.00845445 0)
(-3.04237 1.08751 0)
(1.73257 -0.247773 2.06803e-20)
(1.41601 -0.673948 2.99919e-20)
(1.99926 0.00882977 -4.41001e-20)
(2.95993 -0.341932 2.05154e-19)
(2.94969 -0.357632 0)
(2.17132 -0.0198745 -4.55813e-20)
(2.45181 -0.124928 -3.65503e-20)
(1.96823 0.0349979 -2.19042e-19)
(2.92131 0.157478 -5.28625e-19)
(1.75521 -0.246445 -1.28211e-19)
(-0.57442 -0.416841 2.70192e-20)
(2.18266 -0.235989 -7.79817e-21)
(2.18528 -0.00525691 1.0868e-20)
(1.62572 -0.0229327 1.04648e-20)
(1.91052 -0.837095 0)
(2.83397 0.672839 0)
(2.15388 -0.0120533 1.98126e-20)
(1.63737 -0.445997 -1.51775e-20)
(1.56751 -0.0470165 0)
(1.68508 1.19475 -6.86026e-19)
(-1.07904 0.337371 0)
(2.18718 0.959705 7.48778e-20)
(2.07126 0.156678 6.43033e-21)
(0.369753 2.27874 0)
(1.87579 0.331268 -1.58868e-19)
(1.73519 -0.250354 -3.06549e-20)
(1.87997 0.140552 -1.62837e-20)
(1.96033 -0.0608521 -3.0171e-19)
(2.54439 -0.725338 0)
(1.53621 -0.092193 6.5277e-20)
(1.7428 -0.226092 5.02942e-22)
(2.01233 0.0357044 5.09882e-20)
(1.69547 0.0614603 -2.23029e-19)
(0.839545 0.510814 2.83613e-19)
(2.11889 -0.118696 1.33455e-19)
(2.34127 -0.186118 2.47113e-19)
(2.20939 -0.138176 0)
(2.54035 -0.124914 1.73507e-22)
(2.37447 -0.162748 8.75378e-20)
(2.00079 0.0108751 6.43635e-19)
(2.39924 -0.512819 0)
(2.04653 -0.187792 -4.56398e-20)
(1.49055 0.266695 0)
(2.5476 0.34097 7.86692e-19)
(2.07177 -0.517581 -1.43017e-20)
(0.800221 -0.382134 2.13283e-19)
(2.53655 -0.014628 2.94563e-19)
(2.00733 0.143963 0)
(1.81199 -0.268075 -2.68949e-20)
(2.48402 -0.72946 1.47553e-19)
(1.70016 0.0667603 2.10609e-19)
(2.39948 -0.152851 -2.64923e-19)
(2.28198 -0.0484835 -1.6273e-21)
(-0.87092 1.28893 -5.43954e-19)
(1.96224 0.173745 1.25204e-22)
(2.27177 -0.0896988 0)
(1.1384 -0.426017 4.96171e-19)
(2.96948 0.829224 0)
(1.74655 -0.241425 -7.22958e-22)
(2.29626 -0.0484973 6.52752e-20)
(2.49617 -0.14085 -3.83707e-20)
(2.42588 -0.138143 3.78826e-20)
(0.264188 -0.198484 -6.10557e-19)
(1.9754 0.0362897 2.71978e-19)
(1.80115 0.0278607 0)
(-0.456541 0.514708 -2.80823e-19)
(2.26383 -0.148304 -1.1682e-21)
(1.66836 -0.426035 5.85946e-21)
(4.14516 -0.857542 8.61281e-19)
(2.30491 -0.0142721 0)
(2.16268 -0.203609 1.10663e-19)
(1.8347 0.0966916 4.56027e-19)
(1.98896 0.0418062 3.49154e-19)
(3.19294 -0.434567 0)
(1.89341 0.0169714 -9.7962e-23)
(3.00818 -0.352221 -2.06271e-19)
(-1.43379 -1.15428 1.37047e-19)
(1.67575 -0.108255 5.22768e-20)
(2.2662 -0.132223 1.1107e-21)
(2.02192 0.00630866 1.47885e-21)
(2.26704 -0.100688 0)
(2.41205 -0.288748 -7.91365e-20)
(-2.04435 1.9114 2.60293e-19)
(2.37081 0.406106 -7.3002e-20)
(1.99853 0.0113663 2.37005e-19)
(1.39572 0.0277997 0)
(1.77 -0.239472 -3.29935e-20)
(0.518389 2.229 0)
(3.00085 1.28398 -1.58058e-19)
(2.20778 -0.0198755 0)
(2.41547 -0.640622 -1.04092e-20)
(1.42681 -0.187976 -1.18486e-19)
(1.51489 0.68686 5.43202e-19)
(-1.48488 -1.07149 -5.81477e-19)
(2.26422 -0.661069 0)
(2.34446 0.0590778 -1.39296e-19)
(2.01193 0.150984 -1.73245e-19)
(0.516045 -0.461245 -1.89491e-19)
(-2.71119 1.36435 1.08563e-19)
(1.73476 -0.0996159 -5.57011e-19)
(3.19255 -0.282103 2.0176e-19)
(2.07093 0.161888 1.36355e-19)
(1.58313 -0.505497 0)
(1.43124 0.200286 2.66708e-19)
(1.59707 0.0620893 -2.73201e-20)
(-1.39083 0.492125 1.0176e-18)
(-2.0366 1.78073 -9.08632e-19)
(0.759457 -0.59578 -4.29136e-19)
(3.06019 0.28992 0)
(0.500826 -0.541045 0)
(1.89993 1.03015 0)
(2.18047 -0.0645588 0)
(2.72859 0.123466 -9.24643e-19)
(2.42879 0.341471 0)
(1.42892 -0.352478 0)
(1.73191 0.038125 8.41559e-20)
(3.12412 0.360794 -3.64491e-19)
(2.2488 -0.09969 -3.84346e-20)
(1.73453 0.236567 8.13679e-19)
(2.00431 0.0112165 -8.80013e-20)
(2.103 1.51113 0)
(3.16868 -0.165569 0)
(1.96013 0.0363982 2.34734e-19)
(2.03222 0.0460546 4.23615e-20)
(1.33119 0.702684 0)
(0.257719 -0.098854 5.97847e-19)
(2.56197 -0.649937 -3.68982e-19)
(0.0113683 0.399034 0)
(2.30595 -0.0453256 2.65868e-20)
(2.0026 0.0332315 -2.70718e-19)
(1.11903 0.45732 -1.36578e-19)
(1.13118 -0.414786 0)
(1.99922 0.155477 3.13077e-19)
(2.59187 0.244644 0)
(3.02109 -0.354192 0)
(2.18529 0.18249 -2.32562e-20)
(1.96405 0.0494173 1.30355e-19)
(0.318627 -0.111435 -6.90363e-19)
(2.23044 0.631421 5.92758e-20)
(1.45906 -0.404034 -1.87362e-19)
(2.18934 -0.0561296 1.50656e-20)
(2.07394 0.158689 1.08904e-19)
(2.53826 -0.289241 1.95434e-19)
(2.70596 -0.567338 0)
(3.64589 -0.170382 4.55008e-19)
(1.43063 -0.130253 0)
(1.74223 -0.245572 1.88825e-20)
(2.28603 -0.0712927 0)
(1.52281 -0.0147253 3.2385e-19)
(-1.00626 -0.938412 -7.51357e-19)
(3.15649 -0.274756 0)
(-0.188863 0.119474 1.6474e-20)
(3.19646 -0.182716 -4.00048e-19)
(1.67392 -0.295262 6.44087e-21)
(1.89037 -0.276558 3.81206e-19)
(1.41439 0.661662 -3.46071e-19)
(1.44694 -0.395711 -5.53112e-19)
(3.13171 1.26706 0)
(1.59705 -0.00939775 2.82862e-20)
(-0.935157 1.48525 -1.33223e-18)
(2.00267 0.161216 0)
(1.86677 0.158122 1.77293e-20)
(2.96424 0.0231895 -2.15137e-20)
(2.51592 1.0933 0)
(2.00417 0.0112961 0)
(-0.838304 0.633533 0)
(-2.02528 2.02863 1.33271e-18)
(2.57035 1.23052 5.01093e-19)
(2.72029 0.755826 -2.63636e-20)
(2.16224 0.918427 0)
(1.8143 -0.199522 3.13397e-19)
(1.88166 0.0779226 1.6354e-21)
(2.23263 0.582417 -1.37287e-19)
(-2.3177 0.62367 1.82416e-18)
(1.92748 0.109955 0)
(1.97387 0.187949 0)
(0.875396 -0.212186 -3.71999e-19)
(1.55353 -0.498157 -1.20157e-19)
(2.0526 -0.162102 0)
(1.56414 -0.736591 1.25775e-19)
(1.80455 0.0255273 -8.75497e-22)
(1.94497 0.139233 3.27242e-22)
(0.891062 -0.423923 0)
(2.02237 -0.0763173 8.75871e-20)
(1.61344 0.0336024 2.44465e-20)
(2.59108 0.221144 -6.60356e-22)
(2.06065 -0.545882 0)
(1.36483 -0.202822 -1.41658e-18)
(2.46203 -0.140242 3.98601e-20)
(1.99903 0.055776 6.21883e-20)
(1.7511 0.0287186 9.84777e-21)
(2.48943 0.725692 0)
(1.71369 0.235074 -2.16424e-19)
(2.96742 0.61912 -1.10969e-19)
(0.979445 -0.611355 9.6001e-20)
(2.00491 0.0281222 0)
(-2.87329 1.2318 -1.12949e-19)
(0.633604 -0.194899 0)
(2.00287 0.0277644 -2.47807e-19)
(1.99407 0.034323 9.50752e-20)
(1.93306 0.0113817 -4.54419e-20)
(-2.03536 2.13388 0)
(2.25574 0.0140682 -9.81729e-21)
(1.17381 0.311946 7.57296e-19)
(2.64661 -0.568608 0)
(1.70848 0.027525 2.60127e-19)
(2.88886 0.0504448 6.02228e-19)
(2.19118 -0.0197224 0)
(-3.0088 0.892556 4.71771e-19)
(1.98765 -0.791399 -6.96701e-20)
(2.04342 0.000928543 0)
(0.974256 -0.393132 9.31016e-19)
(1.85758 0.149291 0)
(1.88808 -0.837869 -1.67962e-21)
(-2.23462 1.8452 5.76965e-19)
(2.11488 0.202067 1.24917e-23)
(2.44752 0.171875 4.19233e-20)
(1.42987 0.182672 1.389e-19)
(1.88271 -0.299806 -1.38118e-19)
(2.26648 -0.599721 -5.22961e-20)
(1.92224 -0.838619 4.64253e-21)
(2.24732 -0.139186 1.10878e-20)
(2.47382 0.729949 -3.89932e-20)
(2.2583 -0.937122 0)
(1.99856 0.00809867 -2.1024e-19)
(0.167688 0.481598 -3.31417e-19)
(1.45896 -0.141975 0)
(1.48364 0.120094 -1.22647e-20)
(1.46876 0.00898614 0)
(1.33989 -0.423676 4.88777e-19)
(2.39582 -0.754865 0)
(1.66129 0.00430378 -8.00749e-21)
(2.31311 -0.0570475 -3.82438e-20)
(-2.86752 0.774764 8.60807e-19)
(-1.20972 0.843647 9.06969e-19)
(2.21794 -0.00431667 -4.24085e-22)
(1.69332 -0.781825 -2.99544e-19)
(1.94391 -0.519176 8.19148e-20)
(1.59896 -0.374647 0)
(0.38664 -0.207295 -3.51026e-19)
(2.70864 -0.438599 7.21797e-20)
(0.418764 -0.222575 -4.0989e-19)
(1.94616 0.160164 -1.58324e-22)
(1.57534 -0.618683 0)
(2.20879 -0.0264177 -1.75244e-21)
(0.2604 -0.0889534 0)
(-2.64067 1.32716 3.82745e-20)
(1.08609 0.429018 1.59195e-19)
(1.98292 1.70645 0)
(2.26497 -0.45353 -1.87407e-20)
(1.65101 -1.57012 0)
(2.53428 1.02235 0)
(1.6586 -0.769674 5.43966e-22)
(1.51885 0.243641 2.1609e-19)
(1.66668 -1.04253 0)
(1.83809 0.119571 -1.2862e-19)
(2.5099 0.585457 8.95303e-20)
(-1.9225 1.98076 1.12882e-18)
(2.47279 1.3201 0)
(2.17093 -0.0491752 0)
(-0.734297 1.32893 -5.71165e-19)
(1.96896 -0.118363 0)
(2.66419 -0.00885371 0)
(-0.8806 2.6454 -6.70116e-21)
(2.20982 -0.300884 -5.71694e-21)
(1.8855 -0.430962 9.28529e-20)
(3.49498 0.275692 4.32211e-20)
(0.384797 -0.194827 7.46611e-19)
(1.9949 0.0291024 1.0724e-19)
(1.6349 -0.402437 0)
(2.11913 0.43244 -6.15202e-20)
(1.51904 -0.263549 0)
(2.38051 0.022986 0)
(1.99626 0.0751997 0)
(2.1746 0.162678 -1.90106e-20)
(1.94499 -0.0607069 1.42079e-19)
(2.61508 0.16041 9.5684e-21)
(1.68458 -0.400156 0)
(0.216716 -0.13175 -5.00357e-19)
(1.93559 0.974524 1.28621e-19)
(2.07209 -0.69087 -1.41825e-21)
(2.19145 -0.188638 -1.39383e-19)
(3.59003 -0.453755 9.90201e-19)
(2.05883 0.0645976 -1.53038e-19)
(-1.00473 -0.86735 0)
(2.43981 -0.129914 0)
(1.43918 0.680115 0)
(1.33 -0.604334 -3.24557e-19)
(-1.36966 -0.734267 -1.22091e-18)
(2.06397 1.45848 0)
(2.14187 0.446378 0)
(2.35869 -0.284879 9.65732e-20)
(1.96825 -0.0220488 -2.435e-20)
(1.86229 0.535592 2.87633e-19)
(2.32303 -0.879588 0)
(0.417922 -0.309341 -1.89954e-19)
(2.3813 0.069182 7.38065e-20)
(1.5183 -0.463881 -2.97791e-19)
(2.22085 0.0591674 -1.17845e-19)
(2.22451 0.588368 1.88266e-19)
(3.42298 0.578732 1.12117e-18)
(1.32457 -0.611422 5.70563e-19)
(2.91856 -2.07477 7.08922e-19)
(2.71813 0.332565 -7.3682e-21)
(2.00105 0.00616529 -5.0466e-20)
(1.44434 -0.651932 5.19203e-20)
(2.01045 -0.736502 2.89635e-20)
(1.48348 1.7254 -9.83335e-20)
(1.5619 -0.727104 -4.93688e-20)
(2.55214 -0.110859 0)
(1.54216 -0.366738 -6.17543e-21)
(2.19924 -0.047894 -2.78612e-19)
(2.75158 0.82147 4.70992e-20)
(1.48699 -0.431301 -2.81393e-19)
(2.04772 -0.664647 -1.73823e-20)
(1.93698 -0.00933705 1.54135e-19)
(2.37744 -0.0455506 -8.79943e-20)
(1.28941 -0.318081 -8.32328e-20)
(2.99877 0.319701 -1.3768e-19)
(1.25982 -0.236749 -7.25888e-19)
(2.12308 -0.0331959 -2.30049e-19)
(1.24825 -0.300552 0)
(-2.86419 0.876498 -1.95617e-18)
(1.92378 0.0372948 3.05112e-19)
(1.46658 0.00130661 2.89332e-24)
(-0.637794 0.370661 0)
(1.95059 -0.845983 0)
(1.99611 0.378585 2.55784e-19)
(1.13066 -0.240648 4.6472e-19)
(0.945011 0.30705 -2.51611e-18)
(2.44391 -0.627594 1.28995e-19)
(2.36325 -0.189002 -1.41842e-19)
(3.02786 0.803328 0)
(2.00006 0.415989 1.44601e-19)
(-0.256042 -0.503492 -1.9828e-20)
(2.31996 1.00261 -6.24476e-20)
(2.09465 -0.230264 -1.08757e-19)
(0.423519 -0.217039 -1.21461e-18)
(3.51048 -0.516477 -9.18461e-19)
(3.69625 -0.186644 2.3049e-19)
(2.10776 1.094 0)
(2.72726 -0.643068 -1.15909e-19)
(1.94442 0.0100037 3.99854e-20)
(1.89691 0.0521183 -6.44185e-22)
(0.900472 -0.437383 5.62009e-19)
(2.07261 -0.232425 1.65498e-19)
(1.8279 -0.270765 2.01702e-20)
(-1.93006 1.86202 -6.43751e-19)
(2.69213 -0.247289 -1.80848e-19)
(2.25388 -0.0299481 2.05661e-19)
(-0.693795 2.00923 -9.2515e-20)
(2.2434 0.945934 1.86745e-19)
(1.16679 -0.421502 -1.00935e-18)
(1.06811 -0.520213 -1.38244e-19)
(1.92399 0.0440775 0)
(2.88573 0.190468 9.36529e-20)
(-1.40486 2.64516 -4.75314e-19)
(1.42368 -0.213075 6.30857e-19)
(2.21397 0.158416 0)
(1.86614 -0.327105 1.31429e-19)
(1.29241 -0.553038 1.37198e-19)
(1.9976 0.019278 -4.62296e-19)
(-0.410765 0.588766 -5.94587e-19)
(1.67438 -1.00095 -1.09136e-20)
(2.25568 -0.10082 2.43518e-20)
(2.30102 0.0624266 2.07592e-19)
(1.91966 -0.84896 3.7515e-20)
(2.64644 0.205004 -1.71319e-20)
(-1.15947 -0.697753 -3.24767e-18)
(2.11035 -0.0473049 2.61425e-19)
(2.18539 -0.0488847 -6.74584e-20)
(2.13278 0.0837764 -4.28329e-21)
(2.1381 -0.0261014 -1.24747e-19)
(1.23059 -0.558887 -2.65782e-19)
(2.67701 0.321891 0)
(-2.5772 1.70402 1.13807e-18)
(2.12461 0.0698845 2.97019e-20)
(1.4098 0.45772 -1.16688e-19)
(2.41404 0.0441242 4.61734e-20)
(2.32898 -0.243486 6.33232e-20)
(2.00033 0.00909411 -3.96794e-19)
(2.0689 0.281218 8.23026e-20)
(0.242788 -0.0770634 -6.15e-19)
(2.69745 -0.00747019 0)
(1.77184 -0.239717 1.73915e-20)
(2.51114 -0.154096 3.92753e-20)
(1.58539 -0.603392 0)
(2.12583 0.0621935 1.69514e-19)
(2.54907 -0.130358 4.19306e-20)
(2.66209 0.000259612 1.36844e-24)
(3.33016 -0.605733 5.72507e-19)
(2.18675 -0.20413 0)
(1.79075 0.275132 4.11329e-19)
(1.92523 -0.333801 -3.46076e-20)
(1.5021 -0.71247 -3.3593e-20)
(2.11504 -0.150443 0)
(1.51728 0.205316 -6.20923e-19)
(0.414405 -0.560876 -1.60892e-19)
(2.26122 1.36505 -2.56758e-20)
(1.27058 -0.260932 7.02305e-19)
(2.17885 0.00593051 -6.36652e-21)
(-1.05913 0.804338 6.82129e-19)
(2.02615 -0.100253 -1.85651e-19)
(3.53283 -0.0700839 -5.69827e-19)
(1.82644 0.0962956 -2.65295e-19)
(1.9544 0.012906 0)
(2.00372 0.0173447 -1.88811e-19)
(1.42461 0.254608 4.40912e-18)
(-0.348505 0.431009 0)
(4.24491 -0.256395 0)
(1.89695 0.0506554 0)
(1.15536 -0.59268 0)
(2.02776 0.271656 0)
(1.19801 -0.232552 0)
(2.75846 -1.12604 -1.12442e-20)
(2.93258 0.881539 -1.30229e-19)
(2.5428 0.409126 0)
(1.77216 0.274045 6.20893e-19)
(0.960479 -0.8052 2.3169e-19)
(2.06164 0.164812 3.78548e-21)
(-1.23152 2.66853 -1.92248e-19)
(1.19529 -0.0190659 1.65671e-21)
(0.139654 0.0363215 5.31182e-19)
(1.68636 0.00660983 -3.04103e-20)
(2.86172 0.0591411 1.61431e-20)
(2.00846 0.252051 -1.72495e-19)
(1.8913 0.131252 -3.71062e-19)
(1.88632 0.894163 -2.55579e-19)
(3.00304 1.22716 0)
(-2.8098 1.04324 4.21089e-19)
(1.36504 -0.440837 -5.34981e-19)
(2.01208 0.0226826 -5.78513e-19)
(2.71256 -0.462627 6.87898e-19)
(2.00306 -0.0167442 2.29647e-20)
(3.21422 0.0977772 -7.92955e-19)
(2.23934 -0.205025 5.0463e-22)
(2.27104 -0.436512 6.69919e-20)
(2.0142 0.135345 1.80384e-19)
(1.62559 1.07512 0)
(2.23216 -0.521744 -4.50249e-20)
(1.7516 0.0175678 -8.00743e-20)
(2.34961 0.331332 0)
(1.96129 -0.265729 0)
(2.0224 -0.887284 -6.84563e-21)
(-1.70392 1.13592 7.62114e-19)
(2.69922 -1.20927 -4.42801e-19)
(1.84748 -0.0485853 0)
(1.98534 -0.0630876 -2.75391e-19)
(1.83269 0.155575 -7.20083e-20)
(-2.83952 1.31316 6.65912e-19)
(2.59014 -0.0730261 1.29099e-20)
(-0.0181863 0.147947 0)
(-2.88118 0.996524 4.4332e-19)
(2.57979 -0.107136 0)
(2.70375 -0.690521 1.24007e-19)
(2.12487 -0.199024 -7.54104e-20)
(2.00299 0.0136735 2.87158e-22)
(2.27486 0.659138 -2.88812e-19)
(2.47707 1.2163 -2.35089e-20)
(1.89063 -0.503283 1.93236e-19)
(-2.06289 0.587003 0)
(1.37999 -2.1232 -2.26563e-18)
(1.09832 -1.61929 0)
(2.60106 0.411336 -6.43922e-21)
(-2.85187 1.43974 1.30479e-18)
(4.65881 -0.337523 1.08237e-18)
(1.79442 -0.240279 -1.77012e-20)
(-1.69394 2.50497 -1.50997e-18)
(1.3048 -0.636053 3.88111e-20)
(1.40693 -0.444612 -2.98512e-19)
(1.58707 0.0451598 9.78643e-21)
(1.91919 -2.10736 1.86193e-18)
(1.27235 -0.574742 2.1964e-19)
(1.46376 -0.464947 3.15819e-19)
(-1.44997 -0.423923 1.42558e-18)
(2.669 -1.79952 -1.09734e-18)
(2.02377 -0.580756 3.78086e-20)
(-1.48991 -1.0351 5.83879e-19)
(2.48254 0.0429037 -9.23584e-21)
(0.938116 -0.880779 -1.94841e-19)
(2.28099 0.418469 -8.24703e-20)
(2.5242 -0.30015 0)
(0.992835 -0.580669 -9.22472e-19)
(2.10353 -0.0439692 -3.21571e-19)
(1.9938 0.0821997 0)
(2.57604 0.386314 0)
(0.457882 -2.29599 -1.13217e-18)
(3.72677 0.304127 -4.86452e-19)
(2.40562 0.237381 -1.38137e-19)
(2.20234 -0.29444 4.86935e-21)
(1.87592 0.863251 2.2323e-19)
(1.38841 -0.0200734 8.68772e-20)
(-2.74417 1.61664 -6.15423e-20)
(1.76724 0.532704 0)
(1.49642 -0.493398 2.92371e-19)
(-0.166187 0.472297 1.41505e-19)
(-1.77334 2.40728 1.16623e-18)
(1.88952 -0.692399 2.11666e-20)
(2.07162 -0.891387 2.69962e-19)
(1.59436 -0.0128738 5.4528e-20)
(1.87156 -0.228029 1.15716e-20)
(3.11012 -0.463556 4.93057e-19)
(-2.62552 1.62891 -8.01355e-19)
(2.38849 0.227384 1.04719e-19)
(1.98369 0.0328525 1.33447e-19)
(1.23979 -0.291135 -2.8789e-19)
(1.97615 -0.0964037 1.64137e-19)
(1.16175 -0.331248 0)
(2.36998 0.399148 1.32036e-19)
(2.00984 0.0379712 3.01109e-20)
(1.57924 -0.347973 -9.66238e-20)
(1.69174 1.58279 -6.9507e-20)
(1.98704 -0.572218 4.74875e-20)
(2.12322 0.0317727 5.06394e-20)
(1.43998 0.0527903 -4.55322e-19)
(2.39777 0.283589 0)
(1.78414 -0.218934 -3.61553e-20)
(2.23432 0.0813653 1.59896e-19)
(2.39789 -0.210961 0)
(1.47439 -0.0447166 2.51255e-19)
(2.59988 -0.0754015 0)
(1.59838 1.57408 3.69687e-19)
(2.31618 -0.0249637 0)
(2.228 -0.581384 0)
(2.44618 -0.0462519 1.97522e-20)
(2.38434 0.178285 8.80165e-20)
(2.9242 0.418079 -1.72633e-19)
(1.9341 0.0973094 -1.70349e-19)
(1.5225 1.00696 -1.61334e-19)
(1.99738 0.0609727 -7.76767e-20)
(2.05121 0.2804 0)
(-1.01072 -0.786441 -2.4002e-20)
(2.4971 0.171428 -3.88932e-20)
(2.6367 -0.680848 -2.48007e-19)
(2.50385 -0.294927 0)
(2.78469 0.811786 8.03539e-20)
(1.98929 1.49315 -1.01504e-20)
(2.44176 0.0269752 -3.5766e-20)
(0.324179 2.38922 0)
(-0.704714 2.67994 5.68192e-19)
(2.03158 0.135042 0)
(3.08228 -0.382276 -2.3572e-19)
(-0.343686 0.152472 0)
(1.6882 -0.109155 0)
(2.90385 -2.2524 0)
(2.32649 -0.759082 0)
(0.0999536 0.609008 -8.30229e-20)
(-2.10553 1.92787 -3.01476e-19)
(1.93539 -0.0525585 -2.1396e-19)
(-2.96833 0.830405 -1.07239e-18)
(1.35479 -0.599651 0)
(-2.59042 0.605588 -8.84759e-19)
(-0.485826 0.176381 -5.94378e-19)
(1.63617 -0.759409 0)
(1.58574 -0.565661 -2.76406e-19)
(1.44507 -0.198512 -1.28004e-20)
(2.2701 0.400805 2.11395e-19)
(3.06221 -0.643182 -4.76646e-19)
(1.88388 0.118461 0)
(2.55475 -0.582217 0)
(3.14611 0.572982 9.03116e-20)
(2.00377 -0.642473 6.72276e-21)
(1.62593 -0.0374557 -2.0989e-20)
(0.501585 -2.34182 6.69575e-20)
(1.9997 0.00404546 1.41062e-20)
(2.90117 0.230788 -7.82997e-21)
(2.0141 0.135768 2.58325e-19)
(1.75793 -0.22573 1.8609e-20)
(2.06329 -0.495771 0)
(0.604773 -0.140391 0)
(2.64785 0.185043 0)
(1.6731 0.0248615 0)
(1.85669 -0.32856 1.03883e-19)
(2.99673 0.140817 0)
(-0.646394 2.19551 1.02865e-18)
(2.8623 0.432591 1.01786e-19)
(1.43323 -0.481509 -4.79812e-19)
(0.866955 -0.73743 -1.17257e-19)
(-2.49276 1.53353 -5.97909e-19)
(-0.474395 2.04309 -4.86853e-19)
(1.87709 0.0533639 4.03535e-20)
(-2.49853 1.88824 -6.85092e-19)
(1.74374 -0.228157 3.01455e-20)
(2.48989 -0.0344085 0)
(2.39373 -0.0359518 0)
(1.3622 -0.585357 0)
(2.33719 -0.261178 -3.9304e-20)
(2.34203 -1.66423 0)
(1.78782 0.541241 0)
(2.00249 0.00657227 0)
(1.90748 -0.437285 8.65742e-20)
(2.0623 0.166696 -2.72835e-19)
(1.55529 0.0291814 0)
(2.90002 -1.05727 -3.91412e-19)
(1.97556 0.132315 -2.25682e-19)
(2.33291 0.927249 1.27502e-19)
(1.67184 -0.771633 9.74702e-20)
(1.85565 0.592757 2.43241e-21)
(1.97439 -0.932125 -6.29199e-21)
(1.91806 -0.292674 2.62802e-20)
(2.29752 -0.752283 -1.05545e-19)
(2.36434 0.182856 -1.17038e-19)
(1.62431 -0.0109444 -4.62328e-20)
(1.86869 0.0337796 -2.39678e-19)
(2.11474 -0.0456148 0)
(1.34651 0.410937 8.53036e-20)
(1.99093 0.0379099 2.53936e-19)
(-0.0746975 -0.728904 -1.42474e-19)
(2.23003 -0.198627 -5.44191e-21)
(1.1599 -0.258378 -5.07026e-19)
(2.38311 0.162768 1.94686e-20)
(2.98028 0.649459 1.59313e-19)
(1.99613 0.0522084 0)
(1.47429 -0.344342 -2.12175e-20)
(1.83719 -0.0967812 -1.29062e-20)
(2.34365 -0.764619 2.2929e-19)
(-2.64179 0.736181 -2.04084e-18)
(2.1092 0.0345143 1.06005e-19)
(2.69862 0.268462 6.75812e-21)
(2.23874 0.0138386 4.71363e-21)
(2.5858 0.175906 0)
(0.772801 -0.422004 0)
(1.48163 -0.705465 1.5431e-19)
(-0.434441 0.541759 6.40826e-19)
(1.91548 0.0252061 1.62441e-22)
(1.99157 0.0397765 5.01505e-19)
(1.46962 -0.349181 6.8265e-20)
(1.49137 0.189232 0)
(1.84348 0.0479886 0)
(1.71823 -0.387566 -8.30769e-21)
(2.36402 -0.0139458 3.09229e-20)
(1.8954 0.582097 4.02051e-19)
(2.26657 -0.0858955 0)
(2.13621 0.00983906 0)
(2.33679 -0.493969 -2.15208e-19)
(2.09048 -0.143208 1.12123e-19)
(0.0391011 -0.561783 -5.6143e-19)
(1.73753 -0.103918 0)
(1.32473 -0.224342 1.02794e-19)
(3.38001 -1.06614 -1.83021e-19)
(-1.45273 2.52886 -5.30869e-19)
(2.08933 -0.0248507 -2.05591e-19)
(3.35345 0.764587 0)
(3.71619 0.35277 3.97319e-19)
(0.714069 2.26133 -1.65504e-18)
(-0.134289 -0.531574 0)
(1.70926 0.0273721 -3.04577e-20)
(1.94271 0.0707151 -1.71101e-19)
(1.65758 0.0178268 -1.4106e-23)
(2.07968 -0.144857 4.4152e-20)
(1.19783 1.03861 2.23126e-19)
(1.86854 0.0450361 0)
(1.15331 -0.448984 -6.49522e-21)
(1.43466 -0.345176 -6.42554e-20)
(0.753863 2.23848 -7.26798e-19)
(2.01747 0.255008 2.04711e-19)
(-1.82442 0.671408 3.26568e-19)
(2.06093 0.0271279 -4.6863e-19)
(1.78183 -0.269465 -9.79707e-21)
(1.84859 -0.276624 1.9666e-20)
(1.86214 -0.402029 0)
(1.73077 0.0205808 -7.42028e-20)
(1.19991 -0.56247 1.74998e-19)
(2.28432 -0.0591336 -8.67904e-20)
(2.01131 0.0374688 -2.25131e-19)
(3.05446 -0.402567 2.06462e-19)
(1.76131 -0.195012 4.85383e-19)
(2.37631 0.0336244 1.16065e-20)
(1.82846 0.0527845 1.45773e-19)
(1.46519 0.0892705 -4.66856e-20)
(3.47194 0.326676 -4.71194e-19)
(2.25823 1.01988 1.16623e-19)
(1.24627 0.41217 1.98627e-18)
(1.86625 -0.0144113 0)
(1.4963 -0.52465 0)
(3.12479 0.837607 0)
(1.42997 -0.450433 3.79247e-19)
(2.16094 0.0672633 -3.68382e-19)
(1.8175 0.167959 0)
(1.62486 -0.359544 -2.70692e-19)
(1.81488 0.14053 0)
(1.8641 -0.299277 -1.69251e-19)
(2.61457 -0.716809 -2.74624e-19)
(2.02736 -0.469335 -5.38903e-20)
(1.94624 0.0450915 0)
(1.99242 0.0275317 0)
(2.44491 -0.226525 1.2521e-19)
(2.52341 0.34741 -1.35293e-21)
(2.95326 -0.0268454 1.42912e-19)
(2.12656 1.58333 -8.22941e-21)
(2.17758 -0.0951571 0)
(1.8998 -0.672535 -3.17544e-20)
(-0.256626 0.457406 0)
(0.900564 0.751887 -2.98932e-19)