/*--------------------------------*- C++ -*----------------------------------*\
| =========                 |                                                 |
| \\      /  F ield         | OpenFOAM: The Open Source CFD Toolbox           |
|  \\    /   O peration     | Version:  2306                                  |
|   \\  /    A nd           | Website:  www.openfoam.com                      |
|    \\/     M anipulation  |                                                 |
\*---------------------------------------------------------------------------*/
FoamFile
{
    version     2.0;
    format      ascii;
    arch        "LSB;label=32;scalar=64";
    class       volVectorField;
    location    "6.5";
    object      U;
}
// * * * * * * * * * * * * * * * * * * * * * * * * * * * * * * * * * * * * * //

dimensions      [0 1 -1 0 0 0 0];

internalField   nonuniform List<vector> 
13486
(
(4.35411 -0.641754 1.04496e-20)
(5.03766 0.804201 5.0594e-21)
(7.32671 0.187073 0)
(-7.66744 3.5515 -2.67204e-20)
(7.04125 -1.34445 1.99853e-21)
(7.23008 0.471371 -8.92992e-23)
(7.69086 -0.400391 3.90106e-23)
(6.0381 -2.13232 -4.56988e-21)
(5.79222 -1.12902 0)
(5.88353 2.09583 0)
(-2.95193 9.02462 -1.8216e-20)
(7.7588 -0.370473 0)
(3.95107 -1.26069 -1.03657e-20)
(7.17568 2.17393 -2.55257e-22)
(7.08996 -0.667976 1.47233e-21)
(5.79122 2.18203 -3.69386e-21)
(3.38142 -2.0563 1.34784e-20)
(3.13632 -2.79087 8.24596e-21)
(6.87911 -0.10462 5.96951e-23)
(4.86763 -0.157827 -1.0534e-20)
(-6.93278 0.438031 -1.2001e-20)
(3.99903 -1.29158 1.33539e-20)
(5.10103 0.79354 -4.05297e-21)
(10.2404 -2.4685 0)
(6.12336 1.69907 1.22801e-21)
(9.62159 -2.30652 -4.72694e-21)
(2.76282 -0.328884 1.67301e-20)
(7.90678 -0.55662 7.15279e-21)
(6.09729 -1.01293 0)
(7.67239 -1.54407 -5.643e-21)
(-5.81448 -2.25222 -8.28386e-21)
(6.79219 -0.716734 -3.78192e-21)
(9.32282 -0.371663 6.94788e-21)
(6.58763 -0.488367 0)
(6.05456 -2.04232 0)
(3.16467 0.374148 2.31696e-21)
(1.13839 8.66215 -3.78532e-20)
(4.77521 -2.21933 5.10657e-21)
(2.44928 1.1963 -8.17525e-22)
(5.86333 -0.664452 5.06511e-21)
(7.78985 -2.39767 0)
(3.32958 -1.60015 -1.23032e-20)
(6.94432 -0.112824 0)
(6.11985 1.44742 -5.9298e-21)
(6.14333 1.44832 2.41288e-21)
(7.85205 -0.364233 2.04123e-21)
(-2.8452 -0.573268 2.06752e-20)
(6.37637 -0.997557 -1.60716e-22)
(3.82014 8.13132 2.92055e-20)
(7.96169 0.0401745 2.85585e-21)
(5.9769 0.0799748 6.30412e-21)
(3.03304 1.12977 0)
(8.26865 -1.55248 -4.10896e-21)
(4.94416 -1.78384 -7.46112e-21)
(3.14387 -3.79155 0)
(6.95043 -1.40958 -1.50382e-21)
(5.44627 1.12984 -2.25127e-21)
(3.81496 1.08101 7.52972e-22)
(9.31849 -0.297737 8.26318e-21)
(1.89453 5.88975 0)
(-2.434 7.80414 -2.29708e-20)
(2.25379 6.90697 0)
(10.6358 1.55787 -6.65554e-21)
(-7.12644 0.384799 -1.26962e-22)
(7.69274 -6.51051 0)
(0.74861 8.0623 -1.62301e-20)
(-8.45583 3.83697 -2.79581e-20)
(4.32635 0.141736 3.54514e-21)
(5.79572 -1.1977 -2.80314e-21)
(6.63006 0.674951 -2.62659e-21)
(-8.12509 4.01169 3.22815e-20)
(2.99145 -3.33115 2.96755e-22)
(5.84828 -0.314969 3.84815e-21)
(-1.14538 0.00477575 -8.49254e-21)
(0.397633 6.33295 -2.29949e-21)
(5.60796 1.06815 5.02599e-22)
(0.428762 5.5359 8.45647e-21)
(7.13051 -0.689038 -5.53288e-22)
(-3.28571 -0.637847 -1.1874e-20)
(4.80702 -3.54018 0)
(4.64439 0.516473 -8.86758e-22)
(4.89852 1.0922 -3.27469e-22)
(10.6067 1.51441 -1.52978e-22)
(8.13976 0.399002 1.64624e-22)
(4.34242 -0.674306 -2.03439e-20)
(4.30351 4.83357 0)
(6.24586 -3.70818 -3.60239e-21)
(5.98433 0.128532 -9.67214e-21)
(5.58588 0.5743 -4.22615e-21)
(5.33627 2.89203 -4.34832e-21)
(6.30852 -1.23403 -3.44518e-21)
(6.40202 -1.77818 -2.25182e-21)
(4.53589 -0.960715 2.65087e-21)
(4.98939 0.243454 2.76206e-22)
(5.55665 -1.6816 1.13638e-21)
(6.62896 -0.609606 3.01595e-23)
(2.91386 -0.679842 0)
(-8.29147 3.81447 1.75795e-20)
(5.87597 -0.645641 -9.68394e-21)
(2.88852 -2.09118 -2.67185e-22)
(3.50835 0.333228 0)
(7.10489 2.17724 -1.51728e-22)
(-7.89536 3.27737 9.68853e-22)
(2.0682 1.02625 -1.00146e-21)
(3.94385 4.63325 0)
(2.23755 -2.1823 -1.14821e-22)
(5.8875 0.13881 1.36701e-23)
(2.40753 0.354936 -2.61327e-21)
(-3.40416 -0.635932 1.50605e-20)
(6.11249 -2.76372 0)
(4.85286 -2.28079 0)
(6.62072 -0.229342 -3.57117e-21)
(4.97342 -1.73266 7.7547e-23)
(5.87648 -0.0252582 1.58939e-22)
(3.30789 -0.203867 0)
(4.75045 -2.26098 -4.1491e-21)
(6.0534 1.81345 0)
(6.51384 -0.367903 0)
(5.82798 -0.294745 0)
(4.72618 4.97863 -3.6722e-20)
(3.39197 -2.84324 -3.18149e-21)
(-3.11629 7.89928 0)
(5.45674 -1.52184 0)
(1.93309 0.581651 2.35609e-21)
(5.70679 -1.97989 0)
(3.91341 0.94747 0)
(6.5045 -0.725246 1.07448e-22)
(6.45253 0.277209 2.47393e-21)
(5.51655 -0.165716 -3.59084e-22)
(8.17144 -6.65563 -7.59286e-21)
(2.90874 1.16874 3.07804e-22)
(-2.52603 -0.488227 -5.18149e-21)
(-0.156994 1.36806 1.37451e-20)
(-0.524232 0.18525 1.22456e-20)
(5.98615 0.0382691 -1.02612e-21)
(5.66758 1.23052 -4.94002e-21)
(2.53456 1.99786 -3.06908e-21)
(6.05781 -2.70211 0)
(8.88484 2.98329 1.22563e-20)
(6.07584 -1.69666 -1.69048e-21)
(8.80594 0.0487131 -6.77963e-21)
(8.1187 -1.68464 3.4788e-21)
(7.11077 -1.01435 0)
(4.88845 -3.33116 0)
(6.72674 -0.127078 3.73789e-22)
(12.7059 0.912216 -1.47558e-20)
(9.52213 0.09125 1.09644e-21)
(-1.48975 4.07581 0)
(8.16602 0.0954823 0)
(6.0433 -0.960357 0)
(6.01305 0.0438623 1.02895e-22)
(7.33581 -0.874481 0)
(4.44451 0.416028 9.28052e-22)
(4.81186 1.05314 -2.77678e-21)
(6.49039 0.950385 0)
(8.34378 0.228967 0)
(5.92905 -2.61972 0)
(-1.24267 1.70482 1.08384e-20)
(5.27522 -2.06588 1.03385e-20)
(13.5148 3.76806 -1.38594e-20)
(7.98816 0.0664624 1.44448e-21)
(5.29447 -2.01062 -1.55026e-20)
(5.8255 -0.975055 3.33432e-21)
(3.04493 -1.5064 5.40706e-21)
(3.49721 0.827112 0)
(7.50265 2.17822 -4.92649e-22)
(6.94202 1.99363 1.82003e-21)
(1.51359 -0.413767 -1.34676e-20)
(9.45415 0.199396 -3.22205e-21)
(-0.53215 0.157505 3.32276e-21)
(-2.17888 0.814555 3.84773e-22)
(6.47376 0.866323 2.02414e-21)
(5.98872 0.222617 -8.04962e-21)
(6.80907 -0.581869 1.79398e-22)
(5.94103 0.476939 -6.09535e-22)
(-2.96243 1.68561 0)
(7.13036 3.11258 6.81892e-23)
(9.16895 0.288676 9.099e-21)
(5.89655 0.115918 -1.00746e-20)
(7.13644 -0.976224 0)
(5.99384 -0.809589 1.007e-20)
(6.01668 -0.109985 3.17047e-22)
(6.96629 -0.623544 -1.35702e-23)
(-0.925068 1.23239 0)
(8.07412 0.49473 -6.79954e-22)
(7.75739 -0.457217 -3.21932e-21)
(5.82568 -0.770992 -1.15694e-22)
(7.16974 -1.10791 -1.43696e-21)
(7.71909 -2.37948 0)
(4.36576 -2.0934 -5.70587e-21)
(4.23522 7.14516 0)
(6.93811 -0.0588086 0)
(2.24902 -0.470925 0)
(4.36886 2.42557 -5.95286e-21)
(2.96022 -1.12678 0)
(-3.88204 9.60147 -5.1892e-21)
(8.25706 -7.15734 1.66868e-20)
(7.90489 -0.00966025 8.02583e-22)
(4.1199 -2.0299 -2.35344e-21)
(7.42175 2.03327 7.03374e-23)
(-5.03277 -2.40692 7.96122e-21)
(6.49613 0.318565 -7.62268e-23)
(4.70103 -2.24707 -5.91741e-21)
(6.48509 -2.65862 1.75251e-22)
(13.5654 4.28765 1.79174e-20)
(3.37654 -0.86587 2.71983e-22)
(1.5143 -3.28085 3.48842e-21)
(5.65481 -0.102504 7.97503e-21)
(2.37977 0.38222 0)
(7.93054 0.545829 0)
(7.80146 -0.681124 5.04701e-21)
(8.96536 -3.33046 1.04071e-20)
(4.91911 -0.0817102 9.67341e-21)
(5.86637 0.147492 2.22786e-23)
(7.23655 0.582897 1.02982e-22)
(6.14433 -3.30589 9.20721e-22)
(7.92077 -1.33819 0)
(5.43573 2.7493 1.08543e-20)
(4.77578 -1.02949 0)
(9.17149 2.19652 0)
(2.85645 -2.09744 -2.54363e-20)
(8.21159 0.15232 0)
(6.03007 -1.67923 3.93734e-21)
(8.03502 0.142634 0)
(9.61219 -1.30707 -7.07136e-22)
(4.06851 -1.88292 3.76385e-21)
(7.59394 1.05116 -4.18439e-23)
(-1.69563 -2.6417 7.07443e-21)
(5.31586 -2.47602 1.79678e-22)
(5.13745 -3.8637 -1.07737e-21)
(6.01527 -0.79111 -3.23661e-21)
(6.27719 -1.4996 1.01937e-20)
(8.98149 -0.0358784 8.49556e-21)
(3.28708 -1.56513 4.22418e-21)
(-6.97197 1.748 0)
(3.83849 -1.86804 4.41227e-22)
(6.83651 -0.85832 2.40375e-21)
(6.79077 -0.106402 -2.18017e-22)
(3.76846 -1.80547 1.21608e-20)
(7.0076 -0.442354 0)
(9.48119 -0.490031 0)
(5.99726 0.186211 1.24051e-20)
(6.4483 -0.102545 0)
(3.63715 -1.79484 3.99004e-21)
(1.15063 0.123185 -4.36846e-21)
(5.42785 0.20211 0)
(7.2705 -0.0876859 -8.36463e-22)
(8.59061 -2.06282 1.38011e-20)
(-0.0887472 -0.264011 1.99959e-20)
(6.01856 1.37086 0)
(-7.77975 5.18845 -8.14916e-21)
(3.22483 -0.117795 1.55572e-21)
(4.37412 -2.13735 5.22543e-21)
(2.14839 -0.0917524 0)
(4.81824 -2.63748 7.18845e-22)
(-2.197 2.0922 5.87321e-21)
(6.71227 -0.762192 3.45997e-21)
(6.27026 -3.4961 -1.16346e-21)
(1.46275 2.03054 -1.13484e-20)
(9.42548 -0.553095 6.08964e-21)
(5.33457 0.632238 0)
(1.17056 0.933177 8.43387e-22)
(7.06446 -0.683707 -3.44883e-21)
(-2.83636 2.70273 -7.33298e-21)
(6.85469 -2.0918 -1.99019e-21)
(-0.312152 1.21404 0)
(5.57509 -2.30263 -1.26832e-21)
(-6.35115 -1.27386 -1.30125e-20)
(6.153 0.00523109 -4.57053e-21)
(4.36834 -3.07906 0)
(4.52164 2.57122 4.4912e-21)
(5.89911 0.152679 -2.75267e-21)
(7.72641 -1.39221 0)
(8.19366 -0.577292 1.73625e-21)
(4.13522 -1.94529 5.01753e-21)
(8.73761 -2.21482 -7.75175e-21)
(4.76834 -2.48247 0)
(4.48254 -6.04965 0)
(2.23176 -1.02576 -2.30344e-21)
(9.19321 0.280996 -1.35502e-21)
(4.49095 -6.11851 4.54517e-21)
(6.28671 -0.546676 -3.68715e-21)
(5.80034 0.206261 6.00105e-21)
(12.5819 -1.25378 -1.15825e-20)
(-3.96209 8.23782 2.77659e-20)
(3.60685 -1.60242 3.16814e-20)
(8.90272 0.234315 7.26701e-21)
(5.71807 -0.307649 4.72185e-22)
(9.50249 -1.17016 1.0644e-22)
(6.05104 -0.00946415 0)
(-7.45235 1.80807 0)
(-0.500695 6.69797 1.47367e-20)
(4.72067 -2.2439 4.2658e-21)
(6.00333 0.0549211 -1.00129e-21)
(6.78131 -0.897664 1.89591e-21)
(6.98086 -1.05827 0)
(7.20043 -0.0597447 -1.88012e-21)
(8.30458 -0.332003 -1.03222e-21)
(5.76987 0.169453 -5.48087e-21)
(8.07325 -1.22716 -1.5174e-21)
(5.41697 -0.974141 -3.97628e-21)
(1.51092 -3.13296 3.15964e-22)
(9.07781 0.181979 1.15474e-21)
(6.75081 -0.673607 3.67773e-21)
(7.28947 6.95502 6.50458e-21)
(5.65428 -2.67639 0)
(3.47804 -0.875273 0)
(6.62906 -0.133132 1.63407e-21)
(7.14516 -4.88523 4.05198e-21)
(1.40251 7.47212 0)
(6.01934 4.216 -1.94509e-20)
(-7.94424 3.50961 0)
(6.82428 3.05904 5.88661e-22)
(6.69605 -0.298758 -4.12505e-21)
(3.77989 2.89299 0)
(5.66007 1.11621 -3.03073e-21)
(-0.389978 6.37017 -2.18057e-20)
(5.5703 0.566157 -3.59621e-22)
(5.63867 -0.0888254 -8.8181e-21)
(5.77071 -2.42725 0)
(2.27412 8.05566 2.94276e-20)
(-0.0611542 4.90203 -1.37798e-21)
(5.92035 0.12257 1.27102e-21)
(4.94637 0.368808 -5.20543e-21)
(2.30419 1.97639 5.69231e-21)
(6.65228 -1.09489 6.68105e-21)
(6.6817 -0.99006 -9.09164e-21)
(6.32255 -0.538199 0)
(8.51722 0.172358 1.22152e-22)
(6.76576 -0.979783 -1.55955e-21)
(5.98534 0.0666012 1.39929e-20)
(6.48828 -1.78116 0)
(6.04132 -1.21254 -1.74534e-21)
(4.38171 1.08626 0)
(7.60916 -0.264339 9.60599e-22)
(5.74708 -1.56354 -3.01945e-21)
(2.5178 -1.1631 5.17105e-21)
(7.2903 -0.995213 -1.48046e-21)
(6.03042 0.53514 0)
(0.612314 0.481439 -9.67034e-21)
(5.63735 -2.191 1.50059e-21)
(4.98617 0.377928 4.92246e-21)
(6.82842 -1.00199 6.27628e-21)
(6.92649 -0.606131 4.16975e-21)
(-6.40597 7.15586 -1.86694e-20)
(6.38306 -0.872667 1.11019e-23)
(6.62423 -0.553786 0)
(3.1797 -1.06104 1.21741e-20)
(9.14614 2.13794 0)
(-0.85485 4.91813 3.06985e-21)
(6.49069 -0.313661 6.45831e-21)
(8.55086 -0.101504 -5.31348e-22)
(8.33148 -0.570313 1.19934e-21)
(2.02986 -0.657274 -1.86816e-20)
(5.79255 0.164054 6.84313e-21)
(3.16116 -0.206046 0)
(-1.05428 -0.266016 -7.34582e-21)
(6.51048 -0.724261 -2.15606e-21)
(6.83205 -4.81044 -2.64704e-21)
(9.16104 -3.76057 8.25324e-21)
(7.81782 -0.0787472 0)
(6.79853 -1.67494 4.5704e-21)
(5.39414 0.433597 1.06467e-20)
(5.88838 0.178591 8.34565e-21)
(7.58311 -1.60966 0)
(4.31646 0.299093 1.60913e-22)
(7.0697 -0.969562 -2.25758e-21)
(-2.03973 -0.498443 2.97111e-21)
(4.80757 -0.125779 1.34666e-21)
(6.50961 -0.637025 2.05649e-21)
(7.26221 -0.0901472 -2.74015e-22)
(6.58344 -0.526772 0)
(9.83574 -0.580919 -3.05274e-23)
(-7.47451 5.54905 7.72659e-21)
(7.13288 1.19421 -5.09812e-22)
(6.00684 0.0770224 5.27409e-21)
(4.71865 0.00639179 0)
(-0.560574 2.49443 -1.95398e-20)
(5.12217 2.9934 0)
(9.39011 3.31253 -4.36926e-21)
(6.18029 -0.0359524 0)
(6.49161 -2.0688 -1.28846e-22)
(4.08096 -0.342521 -2.90077e-21)
(4.49875 2.19239 1.05525e-20)
(-2.2863 -0.355699 -1.16753e-20)
(4.72097 -2.37654 0)
(6.70729 0.212309 -1.84612e-21)
(6.04125 0.573919 -3.31509e-21)
(1.64403 -1.20253 -6.78323e-21)
(-5.1986 -1.03942 9.67557e-22)
(5.00024 -0.145745 -1.45535e-20)
(7.87962 -1.18056 2.76127e-21)
(6.21627 0.563444 2.38671e-21)
(4.46792 -1.35402 0)
(4.20177 0.846727 5.73043e-21)
(4.97275 -0.841072 -3.98395e-20)
(-8.253 3.67288 1.5639e-20)
(-7.61934 5.473 -2.72128e-20)
(1.87535 -1.61394 -1.36545e-20)
(8.83917 0.240646 0)
(1.48039 -1.3845 0)
(6.05338 3.36716 0)
(6.24484 -0.218462 0)
(3.44639 -1.42407 -3.86055e-21)
(7.48959 -0.234181 0)
(5.70809 -2.58267 0)
(5.02891 0.292774 2.03305e-21)
(9.09537 0.274507 -9.349e-21)
(6.52328 -0.502417 -5.03103e-21)
(5.13678 0.910785 1.75459e-20)
(6.01026 0.0914882 -1.65567e-21)
(6.79576 4.8143 0)
(8.09152 -0.939951 0)
(5.74829 0.185734 5.85074e-21)
(5.98355 0.0670773 1.01507e-21)
(3.82927 2.63432 0)
(-1.82693 1.42915 1.84786e-20)
(6.76112 -2.17206 2.23243e-21)
(-1.55496 -0.309985 0)
(7.00712 -0.455705 4.02307e-21)
(5.88973 0.13823 -6.73247e-21)
(3.55565 1.04783 -4.57974e-21)
(3.16783 -1.02665 0)
(6.00507 0.584331 6.13542e-21)
(7.687 0.608184 0)
(7.25645 -1.01536 0)
(6.55968 0.587108 -3.5357e-22)
(5.78582 0.221727 3.14888e-21)
(3.3166 -0.488349 -2.19295e-20)
(6.85796 1.94583 7.45355e-22)
(4.11052 -1.02416 -5.07953e-21)
(6.17445 -0.199948 6.6382e-22)
(6.24101 0.594276 1.87373e-21)
(9.50086 -0.355336 -1.42036e-21)
(7.07159 -2.07033 0)
(8.90458 -1.72223 6.42503e-21)
(4.10501 -0.164878 0)
(-0.903132 5.18572 1.31663e-20)
(6.78486 -0.592751 0)
(4.38689 0.148117 7.57152e-21)
(-1.87408 -0.926617 -1.83794e-20)
(8.10441 -1.22445 0)
(-0.350596 -0.0315825 5.48224e-22)
(8.25489 -1.03483 -5.97995e-21)
(9.22776 -3.50491 -1.29868e-20)
(5.35683 -0.765411 1.34801e-20)
(4.25268 2.1261 -6.53486e-21)
(4.096 -0.992006 -1.45383e-20)
(9.99664 3.17643 0)
(6.59895 6.37788 2.96525e-20)
(-7.26738 8.55251 -4.65954e-20)
(6.0042 0.60376 0)
(5.5356 0.638468 3.94003e-22)
(8.32105 -0.0241464 -6.22421e-22)
(7.87854 3.19552 0)
(6.0035 0.0280431 0)
(-7.57533 4.92247 0)
(-1.71002 0.778112 2.677e-20)
(12.9892 -1.6927 1.37185e-20)
(11.1171 1.09607 3.77087e-22)
(6.76834 2.91162 0)
(5.16063 -0.484713 9.2984e-21)
(5.83849 0.555876 1.21086e-21)
(6.83149 1.79503 -1.6225e-21)
(-7.54835 1.8478 2.16127e-20)
(5.72757 0.464758 0)
(6.237 -1.00823 0)
(2.40583 -0.385161 -8.257e-21)
(4.39494 -1.33536 -3.55668e-21)
(5.85279 -0.503105 0)
(5.2732 -2.47152 -3.53823e-21)
(3.03385 0.336453 -1.63465e-21)
(6.45958 -0.451818 -1.16939e-24)
(2.74552 -1.23511 0)
(4.22294 -0.280691 -6.02903e-23)
(7.10382 1.47985 3.58089e-20)
(7.73909 0.586814 1.25922e-21)
(5.71102 -1.63374 0)
(3.66308 -1.49572 -4.81416e-20)
(8.32862 -0.289818 1.12729e-21)
(5.99251 0.268267 1.26677e-21)
(7.2815 -3.3405 4.22902e-21)
(7.66496 2.11415 0)
(5.10121 0.908779 -4.66505e-21)
(9.0695 1.5171 -3.19545e-21)
(2.34606 -1.83273 3.14721e-21)
(5.99745 0.146684 0)
(-5.64899 -0.966452 -9.92843e-22)
(1.65752 -0.271908 0)
(6.0093 0.135737 -4.94362e-21)
(5.9678 0.170855 2.09938e-21)
(5.63477 0.133018 -1.14488e-21)
(-2.89456 1.86374 0)
(7.22874 0.330553 -5.52777e-23)
(3.43629 1.30926 1.55654e-20)
(7.02073 -2.04991 0)
(4.95729 0.259729 6.24256e-21)
(7.8727 -1.2056 1.75087e-21)
(6.58997 0.086326 0)
(-5.19239 -1.81879 6.81415e-21)
(4.6505 -3.23828 -2.22982e-21)
(7.1678 -0.110789 0)
(1.80744 -2.12367 2.78104e-20)
(5.51075 0.576484 0)
(5.43577 -2.45924 4.05536e-21)
(-7.40426 4.8693 1.62182e-20)
(5.81466 -0.814296 1.17754e-22)
(7.2798 0.477238 -1.19528e-22)
(4.15637 0.809152 3.0261e-21)
(5.33819 -0.843359 -4.93557e-21)
(4.91873 -2.39078 -5.71846e-22)
(5.45696 -2.41297 5.73422e-23)
(6.48374 -0.647095 1.99272e-21)
(7.65076 2.10003 1.15435e-21)
(6.44794 -2.84874 0)
(5.99529 0.0496302 -4.6758e-21)
(-1.15301 0.202399 -7.48611e-21)
(4.17577 -0.188126 0)
(-0.452839 -0.998852 -9.24125e-21)
(10.0827 -0.252411 0)
(3.80068 -1.05743 1.27545e-20)
(6.40044 -2.28359 0)
(3.05807 0.193944 -4.125e-21)
(6.71255 -0.287222 -3.70147e-21)
(-3.97862 -2.01118 1.2535e-20)
(-8.88358 5.37972 2.39318e-20)
(7.57687 -0.113326 -3.56058e-23)
(5.40498 -2.57045 2.70499e-21)
(5.42622 -1.51873 4.70061e-21)
(4.51621 -0.971337 0)
(0.622465 -0.668058 -1.08433e-20)
(7.13595 -1.9174 -4.70865e-22)
(0.999372 -0.843779 -1.25258e-20)
(6.55211 -0.693531 4.65345e-23)
(4.46236 -1.69336 0)
(6.72953 0.0255025 -2.85941e-23)
(-0.93109 1.6819 0)
(-7.80186 3.46153 9.66699e-22)
(3.54288 1.54168 5.5005e-21)
(3.19513 2.17163 0)
(6.26542 -1.5445 1.22431e-21)
(7.77685 -6.91325 0)
(7.88483 3.06282 0)
(5.12692 -2.41295 -5.33349e-21)
(4.47472 0.94044 4.67455e-21)
(4.5853 -3.46848 0)
(5.41467 0.501619 -2.93064e-21)
(11.0415 1.32905 1.62582e-20)
(-7.15559 5.90092 3.50338e-20)
(7.95776 4.03356 0)
(6.42606 -0.0205467 0)
(-6.72535 8.66814 -2.014e-20)
(5.63856 -0.297789 0)
(8.10371 0.400931 0)
(-2.2898 6.94965 -1.49745e-22)
(6.20378 -1.11127 -6.21459e-21)
(5.30964 -1.2382 4.07677e-21)
(9.63782 -0.811441 9.0623e-22)
(1.14243 -0.632208 2.32981e-20)
(5.95811 0.135929 2.40603e-21)
(4.63881 -1.04941 0)
(6.44562 1.41041 -9.94371e-22)
(4.32623 -0.57464 0)
(7.10267 0.285592 0)
(6.00099 0.32592 0)
(6.55001 0.559754 -2.8726e-22)
(5.62195 -0.0849075 4.07146e-21)
(6.82616 -0.242497 -7.42908e-22)
(4.75366 -1.0835 0)
(2.01283 -0.293659 -1.54902e-20)
(5.99904 3.17095 1.7686e-21)
(5.70425 -2.00756 4.17743e-22)
(5.73891 -0.402903 -7.75598e-22)
(8.35102 -2.07609 1.19359e-20)
(6.10016 0.0732073 -3.89164e-21)
(-1.82551 -0.744266 0)
(8.17923 -0.424971 0)
(4.22592 2.48295 0)
(3.84803 -1.69369 -9.242e-21)
(1.71865 -4.82725 -1.26392e-20)
(4.77043 1.81911 0)
(6.51662 1.407 0)
(8.22415 -2.53939 2.39882e-21)
(5.78979 -0.0493378 -1.0521e-21)
(5.6974 1.83216 5.2432e-21)
(6.675 -2.69376 0)
(0.839248 1.43516 -5.64318e-21)
(6.81006 0.224366 7.73866e-22)
(4.2928 -1.23202 -8.48562e-21)
(6.5499 0.253351 -1.70298e-21)
(6.84122 1.81082 2.44109e-21)
(11.5125 -4.52637 1.26779e-20)
(3.79859 -1.67244 1.59443e-20)
(6.96344 -4.57863 5.9625e-21)
(6.18756 -0.12677 3.2751e-22)
(5.99604 0.0291646 -1.1678e-21)
(4.79189 -2.30129 -1.01158e-21)
(4.76009 -3.2632 1.09696e-21)
(4.82234 6.13466 -1.30719e-21)
(5.14961 -2.43373 1.91352e-21)
(8.5918 0.286968 0)
(6.74412 -3.23933 6.90629e-22)
(6.50643 -0.0117782 -4.60093e-21)
(8.46209 2.24336 1.52261e-21)
(4.20186 -1.12364 -7.77417e-21)
(5.65699 -1.93245 -4.58125e-21)
(6.12839 -0.0579421 1.01038e-20)
(7.88546 -0.224723 -5.80662e-21)
(4.40041 -2.61811 2.85805e-22)
(8.80282 0.37809 -3.81008e-21)
(3.55879 -0.491203 -1.73504e-20)
(6.56974 0.00709419 -3.83553e-21)
(3.52152 -0.693884 0)
(-1.78348 -2.21982 -3.03186e-20)
(6.42909 0.0675282 9.69261e-21)
(2.52232 0.181885 8.62911e-22)
(-0.995709 -0.261668 0)
(5.76935 -2.61639 0)
(6.04639 1.27804 4.65599e-21)
(3.18124 -0.466964 1.08122e-20)
(6.54938 -4.70932 -2.4792e-20)
(6.57899 -2.0375 -1.77995e-21)
(6.72924 -0.997558 4.95901e-21)
(9.32931 2.05548 0)
(6.05257 1.38317 2.58162e-21)
(2.35791 -2.74283 -2.84434e-22)
(7.28038 2.97325 3.21435e-22)
(5.93585 -0.737305 -5.76752e-21)
(0.693247 -1.00108 -3.75575e-20)
(8.38312 -2.20446 -1.13582e-20)
(8.72867 -1.77972 3.62707e-21)
(6.58839 3.44336 0)
(6.14208 -1.82545 -1.02677e-21)
(5.65512 0.114352 1.04036e-21)
(5.10192 0.586185 -9.537e-22)
(3.054 -1.48524 1.49165e-20)
(5.88627 -0.754304 8.69454e-21)
(10.902 6.79946 1.31473e-20)
(-7.27305 5.73473 -1.97843e-20)
(7.18865 -0.508036 -2.58086e-21)
(6.57376 0.0896673 3.43608e-21)
(-3.75805 8.75292 -3.46228e-21)
(7.02649 2.92525 1.03609e-21)
(2.13333 -1.97631 -3.02176e-20)
(3.87212 -1.87135 -4.77369e-21)
(5.09878 0.396534 0)
(5.51608 0.765177 -1.93472e-21)
(-3.39502 5.70165 -1.4053e-20)
(4.04747 -0.423865 1.5504e-20)
(5.87536 -0.758843 0)
(5.2916 -0.939949 3.479e-21)
(3.65552 -1.45354 3.64053e-21)
(5.98016 0.0982548 -1.02743e-20)
(-7.04148 6.54237 -1.8798e-20)
(4.9979 -3.45481 -7.34866e-22)
(6.55602 -0.528264 3.44783e-21)
(6.78546 0.217193 2.71801e-21)
(5.50752 -2.49408 -5.49048e-21)
(6.62424 -0.151218 1.06207e-21)
(2.13926 -4.89598 -3.39828e-20)
(6.43054 0.00711983 4.31589e-21)
(6.15403 -0.166637 -2.86899e-21)
(6.36833 0.339131 -8.18168e-23)
(7.09814 -0.00976212 -6.12352e-21)
(3.53493 -1.51666 -7.02968e-21)
(6.20913 -0.150985 0)
(-3.55111 0.317918 2.13071e-20)
(6.39472 0.0762307 7.48696e-22)
(4.60786 1.14903 -4.75897e-21)
(7.47644 0.126236 7.40314e-23)
(6.58679 -1.08036 -3.10595e-21)
(6.00105 0.0475277 -8.21608e-21)
(6.25349 0.963864 1.43066e-21)
(-1.82734 1.85961 -1.89935e-20)
(8.15336 0.41307 0)
(-0.228214 3.1489 9.15276e-21)
(8.41053 0.0251823 5.44601e-22)
(4.48781 -1.64673 0)
(6.36502 0.282591 2.74617e-21)
(8.52798 0.235195 -3.50706e-23)
(7.92612 0.369707 -7.31418e-26)
(8.04916 -2.61908 1.76655e-21)
(3.91741 -0.324953 0)
(5.33271 1.06228 8.67974e-21)
(8.06432 5.09423 3.44761e-22)
(5.04114 -2.36657 4.44795e-21)
(6.03253 -0.491601 0)
(4.43445 0.906567 -1.35151e-20)
(3.98848 -2.6313 -3.1558e-21)
(7.24613 4.28292 -2.95121e-21)
(3.59565 -0.545165 1.6961e-20)
(7.68607 -0.184012 1.20813e-21)
(-8.66683 5.4355 1.82614e-20)
(5.79837 -0.249122 -6.2572e-21)
(8.98628 -1.37593 -8.77462e-21)
(5.35731 0.430809 -6.13578e-21)
(6.47685 -0.10198 0)
(5.99008 0.064606 -4.4113e-21)
(-0.504981 -0.206891 1.7939e-20)
(-1.11825 0.152567 0)
(9.66991 -3.36789 0)
(5.10617 0.567321 0)
(2.89995 -2.01547 0)
(6.12786 0.923054 0)
(3.39963 -0.465149 0)
(6.41798 -3.17856 -1.26621e-22)
(11.5374 0.490796 -8.79941e-21)
(7.68064 1.1184 0)
(5.24185 0.99043 1.29008e-20)
(4.08417 -3.29727 1.28223e-21)
(6.2003 0.609386 1.08247e-22)
(-2.88444 6.1677 -6.39191e-21)
(3.4319 0.21279 -3.00884e-23)
(-2.87656 3.00907 1.59379e-20)
(6.11392 -0.00474677 -2.5923e-21)
(8.12643 0.0215476 4.12122e-22)
(6.06183 0.891007 -3.19091e-21)
(5.61809 0.528422 -8.37773e-21)
(5.83495 2.94058 -3.97892e-21)
(9.78576 3.44981 0)
(-6.8224 -0.251514 3.48478e-21)
(3.84893 -1.10956 -1.39629e-20)
(6.01008 0.0321323 -1.33348e-20)
(7.21478 -1.85327 -1.60958e-21)
(6.87278 -0.0394032 9.91162e-22)
(8.60269 -1.53362 -3.5055e-21)
(6.37871 -0.861775 -7.15883e-22)
(6.2925 -1.51172 -4.25754e-21)
(6.04203 0.516598 3.43607e-21)
(6.256 4.48878 0)
(4.48487 -1.91156 -3.55949e-22)
(5.10553 0.22343 -1.87692e-21)
(7.27138 -0.0849724 0)
(2.07619 -0.486951 0)
(5.80049 -2.61752 -6.2238e-23)
(-8.70167 5.10087 2.08919e-20)
(6.41465 -3.14447 -4.48862e-21)
(3.90312 2.2107 0)
(5.71259 -0.136019 -8.29408e-21)
(5.42281 0.604918 -1.61736e-21)
(-4.27327 -0.0127294 1.2603e-20)
(8.15833 0.41093 -3.95776e-22)
(-4.08558 3.94516 0)
(-7.05003 -0.0252384 4.43544e-21)
(7.90043 0.248275 0)
(6.17708 -2.1005 1.07225e-21)
(6.05906 -1.48055 -3.32798e-21)
(5.99667 0.0567652 -8.39479e-24)
(6.95017 2.02508 -3.21458e-21)
(7.87813 3.60587 -5.39447e-22)
(5.26742 -1.46281 9.83393e-21)
(-3.27214 -2.18553 0)
(7.25708 -7.03139 -1.64895e-20)
(4.37112 -3.99629 0)
(7.85588 1.10528 -5.74326e-22)
(-5.6159 0.892162 2.47801e-20)
(9.17567 -2.91821 1.12943e-20)
(0.616446 2.28534 -7.16399e-21)
(-1.76783 2.71514 -3.62735e-20)
(4.54675 -2.12478 -5.13718e-21)
(3.97377 -1.12311 -8.0852e-21)
(7.54387 0.646936 1.41095e-20)
(7.41294 -6.83517 1.35142e-20)
(3.59225 -1.53796 5.76673e-21)
(4.14675 -1.20767 8.72073e-21)
(1.76867 -5.20666 1.59439e-20)
(8.52 -6.3049 -7.77385e-21)
(5.60166 -1.69811 4.64576e-21)
(-1.97938 -0.513085 1.27195e-20)
(6.8824 -0.172465 4.6657e-22)
(5.25822 -3.61 -7.36649e-22)
(6.91789 1.29925 -1.01216e-21)
(6.93604 -1.46271 0)
(2.62264 -1.78833 -2.85832e-20)
(6.2984 -0.017708 -5.26209e-21)
(5.98287 0.349924 0)
(7.75492 1.02852 0)
(5.09038 -6.98442 -7.19345e-21)
(9.85802 -1.26575 -9.63252e-21)
(7.20817 0.684114 -7.43204e-22)
(6.18917 -1.07583 8.15633e-21)
(5.79794 2.85408 3.64048e-21)
(4.98546 -0.0949399 6.66176e-21)
(-5.63893 1.51618 -7.4148e-22)
(5.3387 1.86039 0)
(4.25662 -1.3066 8.27685e-21)
(-4.12936 4.70141 4.12558e-21)
(-2.27456 3.04394 2.78375e-20)
(5.25572 -1.96542 1.60253e-21)
(5.95046 -2.68549 -2.0645e-22)
(5.91064 -0.0626409 3.39456e-21)
(1.90842 1.15003 1.33094e-21)
(7.39576 -1.56043 5.87308e-21)
(-5.34954 1.46664 -1.69378e-20)
(7.1709 0.665058 5.81941e-22)
(5.80583 0.148429 3.41291e-21)
(3.49941 -0.669418 -6.9715e-21)
(5.65481 -0.227638 5.14211e-21)
(4.72115 -2.5116 0)
(7.16877 1.16932 9.80576e-22)
(5.91381 0.117353 7.59389e-22)
(4.49321 -0.871225 -2.66873e-21)
(5.69784 5.07825 8.41089e-23)
(5.52071 -1.66134 3.51716e-21)
(6.0094 0.0370071 1.4618e-21)
(4.13603 0.403688 -1.02606e-20)
(7.4088 -0.37726 0)
(0.778733 3.29247 -1.09574e-20)
(6.62417 0.276397 2.30548e-21)
(5.56437 -0.554816 0)
(4.28381 0.104703 5.85292e-21)
(8.07376 0.472055 0)
(4.90677 5.07379 5.09979e-21)
(7.54126 -0.140245 0)
(4.59591 -1.97766 0)
(7.80289 -0.192831 1.01002e-21)
(7.10582 0.517689 7.34649e-22)
(8.75631 0.824437 -5.39676e-21)
(5.73886 0.409422 -3.8152e-21)
(4.58395 3.14941 -2.95553e-21)
(5.97953 0.262728 -1.55062e-21)
(6.20175 0.951863 0)
(-1.13975 0.837436 -1.41468e-21)
(7.40789 0.468601 3.50922e-22)
(5.8394 -2.10845 -2.11817e-21)
(6.93771 -1.46727 0)
(8.56561 2.18971 2.36916e-21)
(6.36695 4.83754 6.03712e-23)
(6.97576 -0.151021 2.17821e-21)
(5.5424 -1.32546 0)
(-1.7414 6.66029 1.97831e-20)
(6.11583 0.509189 0)
(7.61541 -1.36057 -2.88278e-21)
(-0.0675591 -0.153172 0)
(6.98899 1.14693 0)
(6.55594 -4.59364 0)
(6.26838 -2.26278 0)
(-2.78784 7.69319 -3.1268e-21)
(-1.4417 -0.232551 -5.93452e-21)
(5.58493 -0.0794872 -6.08919e-21)
(-4.72309 -1.75649 -1.61907e-20)
(3.84985 -1.61044 0)
(-0.20458 -3.23316 -1.20889e-20)
(-0.317992 -0.228053 -1.98328e-20)
(4.859 -2.26902 0)
(4.48471 -1.53127 -8.80379e-21)
(0.224517 5.74055 -2.36101e-21)
(6.87816 1.23793 2.56954e-21)
(7.69511 -2.38957 -7.12183e-22)
(5.56789 0.484422 0)
(6.78563 -2.01372 0)
(9.86071 1.27906 2.74212e-21)
(4.67409 -3.44574 2.84315e-22)
(5.46383 7.89252 -1.56708e-20)
(4.80296 -6.43536 3.03327e-22)
(5.99184 0.0130297 3.26892e-22)
(5.54965 0.742339 9.27239e-23)
(6.04897 0.508207 4.89129e-21)
(0.04982 3.75751 7.78272e-21)
(5.73645 -1.52111 0)
(3.4511 0.129562 0)
(6.54724 -0.163266 0)
(2.67688 -0.116471 0)
(5.24281 -0.917686 3.64941e-21)
(8.46229 -0.0570835 0)
(-3.26903 8.39071 3.7753e-20)
(10.2423 -5.11929 -2.06027e-22)
(4.05565 -1.25131 -1.31822e-20)
(4.90149 -3.15302 -1.09159e-21)
(-1.88562 -0.452979 -1.18478e-20)
(-2.87005 8.25826 -1.76362e-20)
(6.40196 0.111481 1.15878e-21)
(-5.67394 2.95261 -1.62033e-20)
(0.183836 4.55693 1.43644e-20)
(8.01458 -0.104085 0)
(6.99469 -0.842961 0)
(5.17124 -3.06808 0)
(6.58418 -1.13814 1.61819e-21)
(8.49369 -6.61564 0)
(5.44363 1.81155 0)
(6.00361 0.0161691 0)
(5.35713 -1.22788 3.82777e-21)
(6.2041 0.572467 -4.78169e-21)
(8.05896 0.337567 0)
(6.72366 -2.95822 -4.06293e-21)
(5.92247 0.545147 -4.62168e-21)
(7.2772 2.83792 -7.93176e-22)
(4.91836 -2.24687 5.12359e-21)
(5.62559 2.01604 3.81363e-23)
(5.10442 -3.4078 -1.52005e-22)
(2.48998 -0.00428546 2.26379e-21)
(5.00623 -2.51971 -1.45426e-21)
(7.07121 0.558985 -9.32578e-22)
(7.09599 6.56092 -4.89383e-20)
(5.45203 0.236648 -5.93629e-21)
(6.3513 0.00705068 0)
(4.70663 0.9404 3.51712e-21)
(5.87883 0.162602 6.15937e-21)
(2.8637 -3.03423 -3.87485e-21)
(6.35257 -0.81774 -2.1188e-21)
(3.26573 -0.534374 -1.1761e-20)
(7.11253 0.463506 1.4402e-22)
(9.1306 1.57192 4.62268e-21)
(5.99769 0.233291 0)
(7.0704 -2.44626 8.23153e-22)
(4.13632 2.31887 9.74158e-23)
(5.12018 -2.48115 2.59442e-21)
(-7.13856 1.36104 -2.46573e-20)
(6.00048 0.0522611 3.14751e-21)
(6.37427 -0.1095 -3.29015e-22)
(7.34086 -0.1742 -9.08445e-22)
(6.57985 -0.252467 0)
(4.88352 -2.66788 0)
(4.56887 -2.16725 6.48494e-21)
(-6.02792 5.33142 2.0305e-20)
(4.46029 0.398616 -1.5038e-22)
(5.87878 0.158252 1.22628e-20)
(6.80709 -2.97659 -1.86551e-21)
(4.41327 0.801172 0)
(5.40228 0.284909 0)
(4.85906 -1.0136 -6.60124e-23)
(7.44486 -0.0307889 1.46479e-21)
(5.76278 1.89456 7.18441e-21)
(7.17017 -0.835865 0)
(5.97242 -0.244055 0)
(6.39392 -1.69328 5.51919e-21)
(5.95748 -0.439236 4.75112e-21)
(-3.43132 -0.441561 -2.68991e-21)
(5.16399 -0.128626 0)
(6.33653 0.95097 2.67682e-21)
(7.39837 -2.95072 -1.82375e-21)
(-3.7697 5.78934 -1.73998e-20)
(5.95353 -0.049733 -6.67884e-21)
(10.9967 0.217043 0)
(10.0569 -1.15962 7.69803e-21)
(6.34749 -1.94184 -2.73616e-20)
(-1.61339 -0.131011 0)
(7.78625 -2.65124 -1.10551e-20)
(5.74166 0.30744 -4.04525e-21)
(2.27753 0.213116 -1.2662e-23)
(6.59274 -1.32544 1.94249e-21)
(4.59241 4.65867 5.77335e-21)
(6.41099 0.0644892 0)
(3.22448 -1.12735 -8.47077e-23)
(6.74543 -2.19726 1.16863e-21)
(5.32954 1.97186 -2.69374e-20)
(6.0876 0.897209 3.77855e-21)
(-3.00508 -2.07264 1.32321e-21)
(5.92152 0.0441597 -1.48299e-20)
(11.7684 6.0881 -5.1155e-21)
(1.9663 0.753386 4.80853e-21)
(5.26531 -1.13294 0)
(4.43685 0.414647 2.91091e-21)
(3.51216 -1.58147 4.65991e-21)
(6.58555 -0.271492 -7.09623e-21)
(5.9301 0.116199 -5.54812e-21)
(7.34674 -1.34021 2.457e-21)
(5.0435 -0.436071 1.36087e-20)
(6.71851 -0.143664 -5.23693e-22)
(5.36121 0.316484 3.44176e-21)
(-0.185481 1.23698 -2.57086e-20)
(9.63372 -0.714677 -9.99222e-21)
(7.15199 3.1391 -5.66614e-22)
(6.74456 -4.77547 1.94244e-20)
(5.97171 -0.101107 0)
(5.87067 -3.3094 0)
(5.94324 -0.935913 0)
(4.04243 -1.13814 1.01664e-20)
(6.03306 0.0565439 -8.86679e-21)
(5.37915 0.658051 0)
(4.60394 -0.923414 -7.85829e-21)
(5.35096 0.597742 0)
(5.27252 -0.818702 -6.00808e-21)
(5.96483 -2.21083 -2.75214e-21)
(5.67012 -1.41283 -5.12087e-21)
(6.51887 0.0621348 0)
(5.81495 0.117515 0)
(5.4623 -0.610864 4.37574e-22)
(7.58568 0.957574 4.16288e-23)
(8.21466 -0.216325 3.22134e-21)
(6.72862 5.05914 -3.1891e-22)
(6.74614 -1.01194 0)
(5.28155 -1.90298 -2.64387e-21)
(-0.955433 0.241541 0)
(2.65768 2.32957 -5.75015e-21)
(7.95774 3.56339 0)
(6.30256 -0.117455 6.28239e-22)
(3.58422 -0.420392 4.50678e-21)
(4.60314 -0.351149 4.43889e-21)
(5.39583 -0.382539 -5.34805e-22)
(10.33 -5.5661 -4.87388e-20)
(5.87936 -0.515769 1.19788e-20)
(6.13739 0.936253 -1.09467e-22)
(8.34618 -1.76803 4.30576e-21)
(5.98843 -1.23112 -2.54085e-21)
(-0.665195 0.450186 8.74772e-21)
(7.7079 1.49195 0)
(5.93748 0.116058 1.22781e-23)
(4.68299 -1.1004 0)
(1.3575 0.638594 -3.50931e-21)
(5.34669 -1.89917 -1.36139e-21)
(5.08331 -0.356267 -4.45993e-21)
(3.94471 0.290128 -1.78642e-22)
(7.81181 0.151363 -1.92687e-21)
(5.04065 -0.0712683 9.31707e-21)
(7.18651 -0.374436 -2.84115e-21)