/*--------------------------------*- C++ -*----------------------------------*\
| =========                 |                                                 |
| \\      /  F ield         | OpenFOAM: The Open Source CFD Toolbox           |
|  \\    /   O peration     | Version:  2306                                  |
|   \\  /    A nd           | Website:  www.openfoam.com                      |
|    \\/     M anipulation  |                                                 |
\*---------------------------------------------------------------------------*/
FoamFile
{
    version     2.0;
    format      ascii;
    arch        "LSB;label=32;scalar=64";
    class       volScalarField;
    location    "2.6";
    object      p;
}
// * * * * * * * * * * * * * * * * * * * * * * * * * * * * * * * * * * * * * //

dimensions      [0 2 -2 0 0 0 0];

internalField   nonuniform List<scalar> 
13486
(
2.28685
1.82683
0.191762
-0.392837
0.731944
-0.115143
0.345109
1.27424
1.55413
0.782119
-1.27033
0.416776
2.40617
-0.290824
0.589539
0.8748
-6.78165
-0.382208
0.550529
2.06299
-0.320425
2.37746
1.7894
-0.677962
0.745564
-0.6429
-1.09177
-0.462718
0.00450834
-0.34765
-0.231481
0.401071
-0.91987
-0.262624
1.27847
0.00547744
0.0654149
1.86111
0.0473676
1.55902
0.127207
2.49639
0.0299687
0.749696
0.711127
0.402834
-10.544
0.00287697
0.0606054
-0.542562
1.34563
0.0159076
0.265226
1.89418
-0.328236
0.794537
0.094047
0.0155801
-0.889301
0.089471
-0.979653
0.0889898
-2.75051
-0.3016
-0.371595
0.0683498
-0.422832
2.29071
1.54388
0.0460809
-0.423922
-0.367145
1.57347
-5.47002
0.0780909
0.0896465
0.0672057
0.575506
-9.04705
-0.00567671
0.00882454
1.84831
-2.99849
0.204949
2.29598
0.870943
0.131365
1.26631
1.51448
0.870515
0.179699
1.10665
2.19286
1.96221
1.60693
0.0116785
-0.953717
-0.436417
1.53391
-6.72052
0.0285711
-0.203507
-0.435027
0.015437
1.08585
-6.97856
1.541
0.0382084
-9.93632
0.983281
1.47967
0.341272
1.89324
0.0762553
2.6962
1.54966
0.746424
-0.24107
1.58374
0.0542447
-0.472258
-0.941381
1.68131
0.0403875
1.47734
0.0171323
1.1075
0.396986
-0.197969
-0.31932
0.0175022
-10.2474
-4.5551
-5.67111
1.41037
1.21802
2.75296
1.0267
0.0559068
1.31934
-0.810681
0.239496
0.409789
-0.00936336
0.0643432
-1.78323
0.196867
1.77546
-0.589753
0.00973166
0.901909
0.541508
0.00540321
1.88646
0.440716
0.190013
0.794667
0.0885702
1.68772
0.134618
-0.414906
1.68856
-0.0991847
2.48921
0.0143105
-0.536421
-0.0489204
3.13105
0.196122
-5.71687
-4.91487
0.456702
1.06182
0.830169
0.0111109
-0.50655
-0.55202
-0.992694
1.54508
0.428876
1.4615
0.0725612
0.662369
-0.461032
0.240808
-0.464517
0.00306593
-0.330235
0.201682
1.63105
0.062886
0.132243
0.0113616
1.98222
-0.00789688
-1.25588
-0.333175
-0.425061
2.0526
-0.447155
-0.239758
0.38327
1.86489
0.552625
0.126306
-0.0148001
-0.198816
1.68302
0.0123351
0.239261
-0.381958
-0.463391
2.03666
1.5404
-0.11887
-0.141338
-0.375408
0.894563
2.07789
-1.96807
-7.03968
-0.614405
1.3547
-0.437177
0.166151
2.22407
-0.394912
-0.347579
-0.0966582
0.129545
1.44461
-0.34209
-0.839519
2.54802
-0.385698
2.13797
-0.280917
0.135542
2.16004
0.69549
-0.883357
1.04448
0.0788569
2.03543
0.0684982
1.75487
0.720059
-0.488639
-6.22714
0.851876
-0.499484
2.72882
1.49718
0.038976
-0.0460138
-0.548421
0.376825
-0.131627
0.131958
-0.816762
1.67346
0.0690641
0.578442
-0.537463
0.811073
-0.456779
-0.100066
-0.265265
1.48778
-1.50317
1.523
1.49987
-0.388578
0.327334
2.22771
-0.467145
-0.0466798
-0.205524
0.0336734
0.199383
-0.1983
1.29037
1.55572
-1.02557
-0.802325
-3.47147
-0.856284
-0.214454
0.188263
1.49501
-0.380852
0.0973678
1.60543
1.42735
-0.272512
-0.306794
-0.39774
0.321191
1.59024
0.243282
-0.146633
-0.230056
0.202022
0.43932
0.0573311
0.580397
-0.354387
0.754798
0.121239
0.0582866
-5.16947
-0.385399
-0.279576
0.331383
-1.39621
1.24475
0.100895
1.5156
1.68919
-0.131644
0.0726465
0.0832569
1.52661
1.97366
2.70845
0.224583
0.979309
1.26281
0.276042
0.904668
1.28237
1.05508
0.0876618
2.10633
0.326329
1.51746
2.79039
0.577226
0.945014
0.0743474
-0.116896
1.95306
0.870417
0.679884
-0.486582
0.00895944
1.04184
2.69018
-1.94857
0.093402
1.00347
0.289665
0.315153
-0.730022
1.5808
0.0398775
-5.10078
1.08406
0.117591
-0.454151
0.545684
0.1357
1.70442
1.5014
-0.370889
-8.54014e-05
-0.286015
-10.1675
2.08382
1.09645
0.0261579
1.05842
0.172722
-0.508226
-0.116877
1.37446
1.55829
0.084069
-1.3755
-3.27287
1.47453
1.02049
2.41309
1.61303
-10.6214
-0.0589426
0.171864
0.925012
-7.68129
-0.176476
2.00392
-0.438447
0.669891
2.17917
2.25009
0.0544042
-0.406634
-0.505595
-8.25512
-0.862554
-7.99702
0.343887
1.37826
-0.38132
0.38114
0.129531
1.9335
-0.939737
1.11845
1.72005
0.91739
-1.22743
-0.489529
1.59447
1.54179
1.91124
-0.457993
0.834775
-5.79972
0.719817
1.54645
0.135513
2.70031
0.989833
-0.41937
-0.316915
0.356121
1.5496
-1.23232
0.0476027
2.35893
1.38176
0.654748
0.184536
0.659012
-0.558871
2.40097
0.0901153
0.872993
2.25363
-11.88
-0.408277
-5.81875
-0.488768
0.134771
1.82158
1.79619
2.37308
-3.32651
0.0531613
-0.49591
0.963112
1.54134
-0.531898
-1.37582
1.53029
-0.498468
-0.504875
-1.006
-1.69424
-0.154138
1.92749
0.012797
0.0792215
-0.356231
1.46307
0.00555105
2.96121
2.2154
1.56984
1.21997
0.0167569
0.00639259
2.77337
-0.0741644
0.0527241
-0.403909
1.53112
-4.00908
0.313134
1.0782
0.043074
-0.660998
1.76878
-1.53509
-8.22152
1.01146
-0.189845
3.1197
1.02321
1.35803
1.67345
-0.520566
0.240787
2.50619
0.723434
1.98532
0.298162
0.463997
-0.279246
-0.00324191
0.0339236
-6.69627
1.57522
1.51569
-0.500229
0.00509081
-0.148927
2.27276
1.82632
-0.0592431
1.54514
1.13522
-0.645659
0.806705
1.39113
-5.25159
2.37339
0.0574618
0.0390117
2.48148
1.03032
0.00101471
1.02837
-0.292833
-0.494223
0.637851
0.934816
1.70637
2.1979
-0.420066
0.654002
-0.436203
0.0103577
2.13338
0.462389
-0.461994
-0.441177
0.0916147
0.129332
1.2346
-0.359918
-1.30184
1.54954
2.08308
0.0053096
1.66991
-1.95419
-0.512257
-1.85599
0.666907
-0.507404
1.6968
0.232675
-0.923652
1.30978
1.80523
-0.79125
-0.440243
1.35384
2.14218
0.471931
2.30631
0.226156
1.03373
0.385339
1.70935
0.0652307
2.08447
-0.826445
0.319406
1.47206
-0.172227
-0.442257
1.52318
-11.7189
0.326946
1.75551
2.36976
-0.288068
0.126568
0.413927
0.148272
1.39067
1.07049
0.445977
-0.759388
0.105235
2.26887
0.301631
0.10353
-0.594524
2.38548
-0.200033
0.0763298
1.49656
1.2002
-0.00505024
-0.336277
1.29465
0.260311
0.14526
0.632511
-1.45457
2.31636
1.51523
1.0871
1.12002
-0.0866465
-0.880849
2.60657
0.491137
2.61325
-0.337566
1.52306
0.014866
-5.61894
0.893878
0.848889
2.73739
-0.453124
0.976974
0.942351
-2.07535
0.808813
-0.272498
-0.687583
1.50453
-0.437181
-0.424118
-0.564177
-0.31407
-0.181032
1.66513
0.00878538
2.52963
1.53899
0.124816
-0.509601
-0.370515
0.523969
-0.827398
-0.410537
-6.43207
2.12137
0.00187571
0.0984759
-0.642476
2.42079
0.00367273
-0.213273
2.47616
1.35777
-0.488453
0.0140152
1.09242
0.203489
1.45954
0.0703381
-0.318717
0.609938
1.41067
0.48187
1.27805
2.51256
0.0740201
-0.446759
1.51343
0.21286
-0.126353
1.0462
1.14651
0.671322
-0.476916
0.23268
0.0790211
0.278534
2.13021
0.509327
0.262961
0.211059
0.032913
-0.0221138
1.53489
0.114085
1.42693
1.46169
2.11159
-0.761652
-1.32781
2.59261
0.0128228
-0.499956
1.61874
-0.590883
1.73042
0.0707643
1.49545
-0.378109
-5.67601
-0.551014
0.00766288
-7.86393
0.82055
2.66953
-0.166536
-1.48478
-0.459937
1.57278
-0.740354
0.69266
-0.705289
2.64395
-0.487505
0.815242
-0.561362
0.887734
1.53028
0.545806
-3.06425
-0.269524
2.45229
1.56557
0.621554
1.39347
0.0125026
1.20722
1.21476
0.907003
-5.30036
-0.0527418
1.91549
0.358473
0.0227866
1.26088
-0.492556
-0.158568
0.037558
1.6641
1.62745
-0.409305
0.239643
-0.492814
-0.291364
0.267632
-0.176089
0.134461
1.49342
-0.10548
-1.56929
1.78686
-0.128277
-0.277254
-0.146351
-0.569846
-0.41208
-0.504786
0.068492
-0.583642
1.44988
2.40311
0.0524256
-0.272005
2.4824
2.32929
-0.281653
-0.335216
1.57761
-11.351
0.0951395
-0.568714
0.0741848
0.832709
-8.01123
0.736529
1.04304
-0.501736
-0.216233
-0.787741
-0.109326
1.32131
0.639499
1.00632
-0.433737
1.29612
2.28132
-3.93394
-0.567076
1.71215
0.480792
0.994466
0.0498172
-0.338718
-0.446871
-0.0672353
1.57778
2.61964
1.69015
-0.136829
-0.109594
1.53196
2.22229
-0.368224
1.63303
1.53282
2.3201
0.380646
0.0720398
0.279731
-0.132235
2.31076
0.248431
-0.101013
1.06565
-0.0534367
0.414146
-0.0396188
-1.07264
1.45781
1.13783
1.0681
0.733831
-4.40692
-0.231224
-0.157127
0.840906
-1.53357
-0.870744
0.0682813
-0.671284
-0.943989
0.82115
-0.350049
-6.19364
-3.58374
-0.206108
1.11565
-1.41031
-0.48985
1.72452
-0.309139
2.37924
-0.340956
-6.21756
1.80524
2.14774
0.0826769
0.108244
0.288868
1.57797
0.840954
-1.9964
0.00183802
0.0560241
-0.202369
1.50296
0.0940906
0.911037
0.0817552
1.53538
-1.34944
0.0696051
0.0269628
1.86282
-0.670255
-1.14394
-0.574141
2.35896
-1.1607
-0.445248
-1.64021
1.53765
-0.484123
0.0872526
0.386934
0.72083
0.0192191
1.04829
-0.362055
1.23628
1.5176
1.77163
0.709098
0.0408174
-0.201289
1.16332
-0.597017
1.83268
1.02324
-0.0116443
0.0390686
-0.0734172
-0.0131435
0.055334
1.73729
0.653099
0.16316
1.53585
-0.342459
1.22539
2.70666
-0.0369282
-1.62155
1.05605
0.153205
0.0397067
-0.0849138
-0.347572
1.54346
0.0790822
0.0238306
0.0649201
-1.98366
1.95349
-0.492184
-0.00114779
1.53813
0.145502
2.1697
1.75794
2.04103
0.420387
0.936455
0.454588
0.144887
1.13027
1.51047
-0.358786
-0.179041
-4.03061
-0.29564
-0.616982
1.54153
-1.47486
-0.830142
-0.663236
-0.348065
0.04369
1.53909
0.0267517
0.133877
-5.54443
1.54935
2.66729
0.14002
-1.26733
0.859153
-0.125357
1.52422
0.126856
0.0595656
1.84073
0.00578813
2.52056
1.06967
1.52036
-0.340134
1.98776
0.0888599
1.7672
0.0602916
-0.818736
-0.556794
-0.476318
1.04605
0.103547
-0.27669
2.37408
1.54072
1.64568
2.16384
1.68239
1.85833
-0.149424
1.59278
1.56394
1.58376
-0.141193
-0.380751
-0.551783
-1.54593
0.335132
1.71103
-5.54335
2.3662
-1.55568
0.0798272
2.59859
2.18632
-0.17101
-0.501067
1.54934
0.794205
-0.0149529
1.43646
-5.74918
-0.54199
1.52404
2.11383
0.0591774
1.68318
1.9676
0.00529905
-0.406866
1.97677
0.681668
0.0565743
-0.598348
0.198376
-1.01503
1.4328
1.07906
0.0818964
-0.181276
-0.386402
0.341985
0.0364656
0.40692
2.23485
0.0218163
2.90033
1.55319
0.539136
1.72748
-0.493797
-4.55063
-0.477425
1.54232
0.0531551
-5.1679
-0.230358
0.77838
0.885901
0.0768202
1.06472
-9.50257
0.781672
-1.32662
0.086061
1.23808
0.464118
1.9831
1.56686
1.60443
1.47951
-0.184276
-0.742783
-0.676535
0.205921
-0.307884
-0.224074
1.21449
-0.276678
0.0423812
0.0772345
-0.235396
-0.722883
1.07866
0.706004
0.159578
-0.399741
0.737838
-0.617624
-0.592347
0.28298
0.112821
1.68051
1.14926
1.95629
-5.76394
1.39974
0.0683052
2.13619
-0.249273
0.817767
-2.25874
-0.146177
2.47826
2.58078
1.29972
0.803725
1.04825
1.40067
2.50592
1.03522
-0.827916
-0.664233
0.355856
-1.55595
-4.90504
1.53912
1.50764
0.0465836
0.347643
1.26392
1.40911
2.73249
-1.59477
1.20116
-8.74264
-0.180056
2.19186
-0.0763336
1.27177
-0.250284
0.579659
0.602697
2.85313
0.142323
-0.537069
0.791452
0.30363
-0.490217
-5.62666
-0.561436
1.69697
0.149659
0.814506
2.32754
2.14364
-0.0204115
-2.88826
0.138128
0.270951
1.78534
1.4827
2.11971
0.935979
-1.63553
2.22238
1.3806
-1.83761
1.16608
1.56497
1.91973
-1.23539
-0.333756
-0.000506777
1.31053
2.4388
0.819808
-0.319628
-0.988104
2.7455
-2.9881
-0.814668
2.5477
1.36521
0.00793914
1.22487
-0.409389
0.838816
-0.244806
-2.75819
0.0694169
-0.49395
0.143252
-0.190583
-11.7042
-7.49743
-3.33364
0.247887
-7.98498
-0.504519
1.29946
1.42247
0.763359
-10.148
0.346034
0.238388
-0.188409
2.88557
0.996307
-0.626704
1.34276
-0.249962
-0.50227
1.23988
1.22696
1.5121
2.9241
0.00958063
-0.0796208
-0.671169
0.240867
1.03087
1.48493
-0.5196
2.24561
1.03965
1.62744
-0.27698
0.00545772
0.101151
1.57846
1.53954
1.62844
1.53095
2.67889
2.61767
-0.260813
1.36339
1.94854
-0.606091
2.11199
0.0383272
2.58641
2.09176
0.129785
1.73626
0.756357
1.15699
0.142179
1.54943
-0.729098
1.3427
0.549798
1.008
-0.0959513
1.52349
0.0292864
0.325828
2.49617
2.48776
1.01613
-5.69085
0.418143
0.00565796
-0.0654755
1.22804
2.23305
-5.82039
1.58762
1.4629
0.749235
1.57033
-0.565405
-0.250507
0.0804506
2.73619
0.447614
0.141751
1.75517
-0.0939141
0.0912558
0.793718
0.350226
1.17178
0.560004
-0.342845
0.907653
1.21614
0.992865
1.1314
2.64212
2.16352
1.89413
1.93431
2.4387
0.727957
0.0284885
-0.237659
-1.83084
2.46906
-0.276049
1.5315
1.37112
-0.503005
0.793164
1.6961
-0.486964
0.766234
0.949423
2.96094
-0.65928
0.67912
0.0544344
1.7377
0.19438
-0.377052
2.42642
2.06734
1.47751
1.53409
-0.279913
0.674196
-7.5513
2.61215
0.0639289
2.83175
-0.242912
-0.39877
-7.55518
0.778618
-5.21185
0.0788231
0.0251477
0.572676
0.128149
0.558763
-0.405528
0.00193636
-0.23131
-5.81511
-0.476359
-2.15606
0.149129
-0.0203475
-0.361871
-0.843089
1.55264
1.5836
1.9446
1.52874
0.61372
0.610069
3.14331
1.49752
-1.63277
0.00754053
-0.0955233
1.17708
1.35589
2.24987
-0.893176
-0.862419
1.22527
0.00360298
0.419237
1.90748
-5.71657
-0.500735
-8.88818
2.64277
-0.436451
1.06313
1.95003
-0.306933
1.20777
0.0441743
-0.663167
-0.489545
0.118207
1.03481
1.8116
1.91502
-1.97165
-5.70245
0.979274
-7.8347
-0.348872
-0.179726
0.176567
-0.237738
0.109485
-0.436526
-0.592955
-0.688457
2.33787
-0.331786
2.5588
-0.528606
-0.0947061
0.571421
-0.804402
2.15876
1.48561
1.79394
0.142948
-0.247146
-0.801547
2.07677
-5.79717
1.13211
0.0766573
1.83744
2.15766
0.0672393
1.53169
2.45382
1.67443
1.65408
-3.30178
-0.177136
0.634598
-0.561073
0.0327185
0.911659
1.06251
0.189179
-1.21292
0.408479
0.111707
1.31693
1.112
-0.41047
2.57788
0.230077
0.00649248
0.295024
1.50971
-0.323219
0.00833
1.65833
-0.771403
0.156604
-0.200049
1.60345
1.52053
1.45086
0.104479
1.43735
1.7634
1.72093
-0.251701
0.0823207
0.352629
1.3226
-0.949862
-7.28264
-0.430607
-1.79277
-0.405322
0.033098
0.0297607
0.0715471
-5.48888
-0.633298
-0.789964
0.110102
-0.254735
0.595612
-0.450016
1.62835
3.15351
0.524752
-0.223996
0.693584
0.197673
0.417184
0.0345466
-0.322512
-0.628421
0.245929
2.00996
0.00541781
2.40951
0.0310053
1.44602
1.24334
0.672449
-9.08197
0.847242
2.68063
-0.368905
1.54598
1.47247
2.24063
0.218558
2.05906
1.62832
-7.02593
1.73454
-0.744696
-4.31301
2.10284
1.3678
-1.98916
-0.0276072
1.9753
0.0886261
-0.436141
0.0738741
0.0681987
1.17089
0.853347
1.52855
1.41904
1.31047
-3.16183
-0.47798
-0.22759
1.49306
2.82706
-0.362908
-3.62967
-8.56545
1.51632
0.220094
0.225893
0.628103
-0.176358
1.18341
-0.331974
0.308356
2.40673
0.712159
-0.64869
-0.245221
-0.478444
-0.534915
-8.93048
-0.695102
-0.512649
1.81375
0.843532
-0.503373
2.46605
0.0105627
-0.647098
-0.2237
-4.00745
1.64957
-5.24537
0.540873
1.52128
0.126941
-0.262037
-0.184478
-1.6897
-0.321627
1.6617
-0.775973
0.0404966
-8.08819
1.47236
1.64634
-0.444086
1.93189
1.78733
2.31685
2.38
1.69425
0.331515
2.74187
-9.25195
1.47837
0.271717
-0.832032
1.85315
-0.420595
2.32684
0.739062
-1.40935
-8.29127
-9.33194
1.63461
-0.427314
-0.282944
0.202883
-1.35698
-0.50922
0.961036
0.326633
1.10765
2.64013
-5.84505
-0.643155
-0.817018
1.57533
1.14454
-0.446512
3.11495
0.0384845
0.109112
0.968694
-1.47965
1.46655
1.57057
1.75449
1.76055
-0.828824
0.819111
1.47102
0.385593
-0.374541
0.0172698
1.64558
1.71395
2.09704
-0.333168
0.176529
0.741567
0.954896
0.079573
-0.791556
1.26739
-0.260614
1.34619
1.57988
-7.01241
2.39977
-0.456946
2.62998
1.73368
-0.708657
0.00513308
0.0767149
0.576882
1.61091
-0.626874
2.06792
1.45087
0.754623
0.0578295
0.362284
-0.372937
0.752579
-8.11453
0.925532
-0.30533
1.49213
-6.48439
-0.0750418
-0.215908
1.88326
2.17464
0.738114
-6.44694
0.762508
-0.0220257
0.219632
0.883799
-0.335491
-0.281288
2.55936
-0.761391
-0.176669
-0.695188
-3.01863
-0.187015
1.57338
-7.78473
-0.185849
1.60205
0.976694
1.64579
-0.503515
0.701023
2.59093
-3.05729
1.47024
0.445856
-0.309894
0.558522
0.401469
-1.02644
2.64431
1.74502
0.129501
2.57266
1.98123
1.86569
-8.5601
-7.25527
0.947084
-1.62365
-0.164894
-1.83285
-1.50184
-1.7831
1.20767
0.588029
0.909485
1.01673
-0.322991
1.13056
1.49273
-2.32458
1.58438
0.970298
1.52179
-0.0221698
0.0413199
-0.442348
-9.43905
-0.496257
-0.229575
1.47428
-0.852903
2.32526
-0.497605
1.47479
0.916036
0.084863
0.24465
1.57357
0.699344
0.419021
1.37315
0.092092
-0.285484
2.20074
1.798
-0.461817
-1.27871
-0.0141454
1.34968
0.0608079
0.639958
-1.83507
0.10077
-0.0450182
0.13514
1.33511
1.26375
-0.575914
0.690623
0.014335
0.0472029
-0.730241
1.87931
-0.477138
1.52531
-0.000383413
1.31411
1.62596
0.883405
1.4186
0.0737378
-0.399428
0.0959314
-4.91256
-0.432044
-0.445981
-0.669438
-0.220615
1.22348
0.0099723
1.50098
-0.121608
-0.172886
-2.24832
0.0379565
1.59568
-0.510723
1.49303
0.428673
-0.617794
-0.211484
-0.47505
1.08646
1.61769
0.0527104
0.348511
-4.6184
1.78079
0.115595
0.431696
-0.491977
1.914
0.752106
0.0397363
1.64138
1.58043
1.84807
0.313561
1.8705
-3.23007
0.116274
-0.191102
1.46173
1.0084
0.45043
0.104788
-0.777921
-0.56805
0.832411
0.169713
-0.60464
2.4141
-3.58929
1.81561
1.10533
-0.289442
0.0182193
0.150922
0.014084
0.235477
0.309215
1.43792
0.0974439
1.53697
-2.32767
0.576588
-0.25992
0.361908
-0.799004
1.89069
2.59738
1.67226
0.830358
0.2613
0.987407
-1.35629
-0.0333089
0.11224
-0.0561754
-0.48777
-0.752875
-0.771083
-0.488979
1.3576
1.4906
-2.36926
0.4263
1.72653
-0.517098
-1.7133
1.63937
0.0253862
-0.921187
0.0521851
-0.167454
0.00558306
2.4493
0.113283
1.45851
-1.39466
-0.781501
-0.499827
1.48848
0.37865
1.2561
-1.27216
-0.647703
0.157866
0.321383
1.75932
1.34905
0.321097
-0.214426
-0.266082
2.70257
-0.313717
1.7302
1.8887
-0.138949
0.00846324
0.707233
-8.79417
-0.625085
1.33246
0.881638
1.47937
-0.462538
1.66561
0.242356
2.17328
0.332851
1.34924
1.92296
1.26648
0.288477
-0.486324
0.539132
-3.89025
1.29824
0.709101
1.84064
0.214921
2.30969
0.332929
2.45734
-0.260749
1.91405
-0.150832
1.15126
-1.69276
1.46787
0.73737
0.635494
2.30504
1.51689
0.371858
-0.480599
0.879987
1.45959
0.0346292
-8.131
1.11571
0.143592
1.97811
-0.453277
2.35206
0.426007
3.18104
2.37314
1.10024
0.962389
-1.61775
0.181134
2.52765
0.199906
0.0174196
-0.0322548
2.55196
0.750786
1.30778
2.18819
-0.796678
1.66033
-0.177114
1.80996
0.0957563
1.70768
1.55673
2.09914
0.0227434
-8.28527
0.477536
-0.486251
0.708864
0.182645
0.145437
1.94576
2.21611
0.0301354
0.476229
-0.16962
1.98061
1.26458
1.40301
0.968327
-0.172096
-4.87896
-0.334309
1.56623
-2.35683
-0.179303
0.11062
1.0758
0.731351
-0.502944
2.67536
-0.208446
2.32554
0.405856
2.4029
-0.3118
0.289672
0.0821218
0.0971891
1.29895
1.50312
-0.050793
-0.197398
-0.348191
-0.168433
2.19584
-0.45617
0.0977222
-0.291874
-0.238957
0.46829
1.85655
0.711055
0.118189
0.0626367
1.51871
2.8365
-0.487881
0.155178
1.48086
-0.0537419
0.810887
0.0757352
1.06686
-0.211766
-7.8094
-0.410416
-0.262565
-0.0660392
0.179642
-1.57458
-0.446198
-0.0111889
1.21135
1.6304
1.34591
2.75091
-1.09781
2.52616
-4.39719
2.36385
-0.633169
-0.855481
2.65589
0.644925
-0.319593
1.53315
0.0197527
1.65702
-0.408788
-7.7422
0.336355
-0.443972
-0.503007
0.00857519
-0.0574566
0.637289
1.88472
-0.702149
0.715581
-2.23778
0.32183
-0.255442
0.0399922
-0.0861881
-0.222361
-1.74775
2.00564
0.0562565
2.20328
0.596573
-0.551777
0.518297
-1.29591
0.0859827
1.32701
1.90528
2.77556
1.15817
1.28026
0.708023
-5.98951
2.67587
2.85139
1.66489
-0.797585
-0.467254
-3.83954
1.41263
0.990951
0.550915
1.23308
-0.245462
0.0438209
-2.17082
2.29216
-0.635147
0.253907
-0.384513
1.46112
0.36354
3.07136
2.86988
1.37322
0.0873585
0.420921
-3.66677
0.581315
2.94625
0.231436
0.0849252
1.1149
0.00859577
0.348408
-0.0938771
-0.24272
0.386197
0.106882
0.705078
0.0537699
0.508182
2.12376
0.417563
1.6205
-0.3883
-0.325056
2.5646
-1.19386
0.142059
0.352596
0.672686
0.212195
-0.465982
0.256132
0.122353
0.0659138
3.10722
-8.70755
-2.14391
-0.564441
-1.06958
0.244364
0.347037
-0.433369
-1.63677
0.0405368
-2.78882
-1.1924
-0.560812
0.208125
0.175678
0.217423
3.02616
0.177957
0.486468
-0.0662585
0.361418
-5.92063
-0.240358
2.08282
1.51754
0.489908
-0.248109
1.47855
1.63075
-0.0236356
-0.69579
0.108842
2.07415
-0.526153
1.4326
0.14601
2.33223
0.235622
-0.395108
-1.95034
1.66255
-0.399522
1.35761
-0.82396
2.90323
-0.426052
-0.21884
-1.43233
0.676
-0.452508
-0.828811
-0.424177
0.289768
0.642312
-0.475032
-0.294945
-0.0236982
0.181405
-0.425356
-1.20021
1.22796
-5.0142
1.32548
-0.42399
1.68221
2.65608
1.42005
-5.84463
1.53301
0.22489
0.154746
-0.0261986
-0.360611
-4.46554
0.16086
-0.253582
0.625356
0.0517126
-1.16096
-0.21874
-1.59466
0.787911
1.55652
-1.69818
-0.467712
-0.447258
0.0522753
-0.235402
0.909157
-3.48194
-0.469494
1.53277
-0.145776
0.83913
-0.810039
-1.72004
-0.4566
-1.11631
3.06991
0.462384
-0.59008
0.40351
2.5025
2.57063
-0.401859
-0.190398
1.52371
0.0419239
0.161259
2.5715
0.860549
1.33042
3.11142
-0.438216
0.410345
0.286694
2.28083
1.57966
1.56922
1.90084
1.09295
0.0588231
0.112211
0.734395
0.399008
-8.96331
2.62276
-0.774992
-0.879135
0.0513476
-0.42022
0.758487
-0.377972
-0.2109
0.357479
1.58968
1.64826
1.73836
-1.60332
2.24437
2.55131
-2.00495
0.97247
-0.00827813
0.0279092
0.178746
0.902227
-0.251478
-0.522897
-0.865184
2.84032
-0.862814
1.75906
1.54683
2.00803
1.13974
1.21871
-0.225176
0.0546901
0.86701
0.0232894
-3.59336
-1.9655
0.1663
-0.409981
1.87572
-0.459979
0.0699405
0.332273
-5.76375
-0.407156
-8.80352
1.37527
-0.183236
0.124688
0.751736
-0.657867
0.534906
-2.4359
-0.00525221
1.65237
-0.614939
2.62158
0.0524607
2.80799
0.00724719
0.118339
0.299746
1.34673
1.30658
-3.09343
-0.0415313
-0.298252
0.27191
1.0774
3.12957
2.01487
0.520474
-0.502397
0.810135
-0.428899
1.74004
-0.230822
0.910848
-0.332351
-0.399681
-5.389
0.514104
0.0596383
-5.66847
1.02339
0.981802
2.52114
2.72265
-8.56762
-4.09572
-0.135009
-1.31671
2.63049
0.196126
-0.66698
0.698204
1.11952
-0.289991
0.142755
0.218836
0.0228527
1.38625
-0.260121
0.420213
0.123879
-0.897577
-2.60715
-0.363449
-2.70402
-2.2857
1.6851
-0.409594
-0.383673
-0.192819
-0.29487
2.88461
1.11138
1.43808
-0.211976
0.789272
0.02357
0.633101
0.501908
-0.433519
-7.96984
2.62134
1.62485
0.038351
-6.61985
2.99799
-0.425057
-5.92018
-0.323251
0.773651
-0.4562
-0.29172
2.26937
-0.0490057
1.40767
0.640343
-0.392941
0.0158342
0.146088
0.762595
-2.98545
0.0812964
0.485789
1.50685
-0.479071
-5.16867
0.133816
-0.290513
-1.5617
-1.35149
2.81517
1.01862
-0.633313
0.73035
0.448829
2.45859
0.867744
-9.00741
0.914312
1.93029
1.6504
-0.453348
1.35942
-0.20577
2.59875
0.0587857
1.56282
-0.496811
-0.41526
0.0587646
-0.358248
0.892176
0.556927
-9.67378
-0.470255
1.79939
-0.145413
-0.0199482
2.12894
1.22442
2.07244
1.43523
-0.684395
0.0290123
0.116907
1.51172
-0.00134187
1.88778
1.17512
2.57925
-0.421871
2.01784
0.73432
2.61547
-0.388144
-0.809159
2.67035
-0.421401
1.14453
-1.06739
2.28773
2.57162
1.6537
-2.52954
1.52182
1.97075
-0.409512
0.659948
-0.365975
2.10441
-0.418756
-0.227903
-5.17889
-6.1491
1.93585
0.725512
-6.28882
0.805543
2.56764
-0.822006
-0.222192
-7.2151
-0.919356
1.27098
-0.0783079
1.46051
1.43693
-6.5127
2.8971
0.00672489
2.17852
2.15292
0.157136
0.0513737
1.35186
-1.8219
-0.133846
1.33533
1.15073
-0.48118
1.44089
-0.348225
2.30175
1.65668
0.599046
-0.0521703
1.68651
-0.225809
0.93034
2.01467
0.39655
0.0477341
1.95482
1.63158
-0.581846
-5.78868
1.15398
1.70595
2.59676
-6.255
2.74617
2.7443
2.79344
-0.214323
1.89967
-0.50266
1.53377
2.04194
1.9942
1.69059
2.23428
3.06499
1.32553
-7.01052
0.102502
-6.96936
3.03593
0.834725
-0.194444
-0.464818
1.43024
2.25828
1.47344
0.521634
-0.0317418
2.24373
-2.02514
1.62816
-0.464905
0.735031
0.0472332
0.438854
1.00845
-0.48513
-0.503491
-0.208715
-0.28378
-0.138335
1.8626
-0.289308
0.286097
1.42946
-1.64154
0.92758
0.0530032
-1.578
-0.473855
-8.07171
2.13926
2.30424
-0.418702
0.646132
1.96625
1.7863
0.0354903
-0.567837
1.67023
-8.63257
2.10537
-1.48938
2.05004
0.962109
0.277482
1.90995
1.03673
2.00086
0.557454
0.741651
-0.403249
-5.80802
-2.02357
0.0455464
1.96349
-0.704531
-0.320791
-0.717915
2.19274
1.97952
0.548234
1.13767
2.20699
-2.13504
1.4564
0.0983086
-0.485609
1.45243
-0.390208
-1.16128
-1.24028
-9.50757
-0.211668
-0.681758
0.10009
-4.06203
-6.20447
1.2578
2.63024
2.87941
2.49409
-0.686483
1.6457
-0.565622
1.42018
2.20102
0.251402
1.92838
-0.727054
0.544033
-0.4389
-0.0238656
2.09775
-1.13834
1.72677
-2.28035
-0.325487
-9.89335
1.76778
1.71419
1.52901
-0.845225
1.44702
-0.319209
-7.35701
-8.24496
0.497158
2.64057
-2.85149
-0.205589
-0.466461
1.50822
1.47296
0.0121679
0.981682
-1.35216
2.23914
2.03979
-0.30475
-0.24885
2.18274
-0.378009
-1.03205
0.0757533
1.99627
2.24478
-0.455095
1.07464
-0.198503
2.58317
-4.72221
-0.414365
-0.0182123
2.41943
0.0719168
-0.375497
-0.18247
2.07976
1.22469
2.0655
-0.0676337
-2.46384
1.69451
2.99845
-5.50764
1.36254
0.0297153
-6.26281
0.0380217
0.566735
-0.48581
1.04695
-0.366957
1.02497
-0.243469
-0.520928
1.89276
2.25963
1.4382
-1.68236
-0.417569
1.75984
-1.47088
0.568079
-0.523105
0.766061
-3.02519
1.64623
1.76581
-0.00361967
1.65556
2.54626
-0.205717
1.23394
1.73981
-8.73432
0.949127
-0.446323
0.762575
0.536174
1.20859
0.00962366
0.522263
-0.141961
-3.49821
2.12518
0.595287
-0.0627022
-0.386466
-0.116188
1.58997
-2.15619
2.7811
-0.668986
-11.6691
-0.239741
1.94414
1.72157
2.03201
-9.13544
2.44738
-0.968886
1.19092
0.226726
-1.96791
1.41426
0.709208
-0.179745
1.04811
-5.86602
1.24554
-8.09547
-0.396532
0.00188718
-1.38441
-1.60606
1.35824
2.51482
0.150319
-0.527251
1.95546
-1.80042
2.28302
0.667312
0.118222
0.847349
1.54029
0.805296
-0.199115
0.223409
0.0553712
0.402613
0.572497
-1.92987
-0.458286
0.111339
0.878938
-0.234387
3.0605
1.64086
1.52201
2.3031
0.27722
1.71031
-0.728058
-8.73375
-0.440898
1.53947
2.97721
1.42499
-0.93075
2.12917
1.42727
1.45123
0.125252
-0.00193164
0.824125
2.79456
0.175505
-0.52831
2.10234
2.17151
1.6014
1.51691
1.85452
1.07408
-0.346733
-0.524336
1.67373
-5.01481
-5.87783
1.50559
-0.472724
-0.0783461
0.476095
1.64819
1.70833
1.73754
-0.129673
2.02904
2.07602
0.24328
1.8238
1.59749
1.30776
1.15359
1.01507
0.79029
0.00508918
1.94401
1.8086
-1.14722
1.38512
-0.143311
0.0764368
2.49314
1.88157
0.0168193
-0.524324
-0.496702
1.93579
1.08595
0.309352
0.0452867
0.285041
-0.301113
0.351435
-0.502636
-0.124531
1.10553
-0.182849
-1.10255
-0.995614
2.34909
-0.472964
-4.54204
-0.505635
2.52584
-0.242092
0.298917
0.328305
-5.82372
1.19581
1.43938
0.95491
2.21594
1.23577
0.104737
-8.87454
-0.518077
0.0236933
1.76637
-0.932561
-0.473751
-5.10371
-0.260771
-5.09273
-0.494766
-2.33252
-0.117362
0.606251
1.50471
1.97546
-0.231278
0.0470441
2.22618
1.69883
-0.45528
-0.244694
-7.74315
0.939996
0.225612
0.843421
1.31589
-0.145155
-0.249289
-0.271868
0.425386
-0.854263
-9.82802
0.222385
-0.580978
-9.81711
-5.73951
-0.5234
0.206872
-7.02808
0.78458
-0.453473
1.50962
1.35665
0.407901
1.96692
-0.647218
2.52653
-0.434892
0.154573
-1.20894
1.51632
0.928253
-5.65985
-8.01812
1.55808
1.84197
2.6233
-0.5356
-9.72039
-0.61025
-0.081007
0.0122535
-0.895935
0.535542
-3.33524
0.904246
-0.525927
1.14964
0.155367
-0.0149016
2.29291
1.35393
-1.18461
0.0442398
-1.55305
-7.71875
1.97527
2.88122
-4.4467
1.85886
1.46421
0.00980671
-0.319441
1.91595
1.83647
-2.49557
-0.23515
-0.457897
-0.663338
-1.15479
-2.06671
-1.08754
1.0015
-0.160927
1.68206
-0.741119
-5.61252
1.42756
-1.07629
-5.41972
0.123192
1.1571
-6.38458
-0.574333
-5.98506
-0.599004
-4.56059
2.66293
-8.78601
-0.189581
-0.592936
1.66594
-9.99287
-0.221927
-1.87253
-1.2338
-0.429345
1.72372
0.0210191
-0.973681
1.33178
0.00485123
-0.37498
-1.83244
-1.25273
1.07912
1.25235
1.53641
-8.8629
2.26928
-0.296804
0.00393627
0.154011
-2.52272
-0.545834
-1.1251
-0.793745
0.276099
0.693575
0.118424
-0.289958
-0.840988
1.42837
-0.970901
1.61599
-1.44692
0.984532
-0.19924
-0.161295
-0.612019
3.05286
-0.368991
-7.39669
-4.88598
-0.685965
1.53045
0.105761
-1.07125
0.0951788
-4.85591
-0.519209
-6.08304
-1.90075
1.65559
-2.78101
0.276214
-5.98341
0.0259046
1.35199
0.15564
0.676011
-0.385036
1.99389
-8.97433
-0.517041
2.13455
0.61564
-9.23263
-0.284773
-1.54395
-0.761873
-0.32077
1.95176
-0.418059
0.663555
-8.56226
-1.47621
-1.84607
-2.39931
-5.49885
0.8847
-0.198201
1.51283
0.584987
-1.11898
-0.151549
-0.587161
1.88032
2.25032
-6.60922
0.0905889
1.63482
1.50698
1.18731
-0.647765
-1.11071
-1.2015
1.53252
0.479736
-0.729403
-1.86772
0.86697
1.81055
-0.224573
-0.242762
0.114906
2.11023
-1.53463
-1.71028
0.066325
1.33012
0.0919068
-0.420135
2.28404
1.89365
0.107437
-0.690315
1.92688
0.776979
-0.0625993
1.39621
-0.289516
-0.870761
-1.38405
-0.701906
1.8551
1.61915
-0.0404882
-0.50936
-0.394465
-0.0836675
1.66245
-0.675999
1.1337
2.0087
2.14987
-0.289029
1.54731
1.33945
1.68239
1.78447
-0.14935
1.79719
0.00729674
1.53296
0.83717
1.65525
-0.4913
1.91488
1.82655
1.38919
1.00376
-0.464818
1.07768
0.120454
-0.598923
2.05542
2.04462
-0.545371
1.81698
-0.706095
-5.26696
1.6492
1.65559
-1.5861
-0.0163695
-9.52642
-0.64006
-1.38714
-0.402323
-1.54626
-0.374959
1.39636
2.78844
1.91303
-0.249902
-0.347757
1.61736
0.837696
-0.256461
-0.842961
-0.403448
-1.73121
-5.65257
-5.69844
1.46499
-0.0699046
0.802546
0.0528672
0.0511772
-0.310467
0.0375636
0.302537
0.782177
1.03191
-0.419302
0.691052
-2.06487
-0.847859
1.06702
0.864916
-0.0234061
0.261863
1.01139
0.0224909
0.603429
-0.471196
1.52629
1.27717
2.42021
1.53416
-0.628888
-0.352718
-0.50399
-0.375985
0.0482846
0.0736754
-0.0976335
-0.558334
2.8471
0.202162
-0.108588
2.24692
-0.47766
-0.961942
-0.3275
-0.499193
-10.7981
0.427597
-1.2449
1.47983
-0.145926
-0.581361
-1.91362
-0.32566
-0.788462
-0.209194
0.179868
1.19663
-0.433892
-0.419812
-1.35735
0.600206
-0.775194
1.64614
2.3037
-0.364205
1.68128
0.873521
1.12488
2.55354
-0.494305
0.939734
0.814573
0.741046
2.17615
-0.457883
-0.0796454
-0.207057
1.62574
2.30031
-0.404677
0.0313353
-0.74453
-0.650391
0.807824
-0.499468
-1.75707
-0.400923
0.61555
-8.15462
0.411051
0.477356
1.34516
0.338194
-6.40126
0.1384
0.0611627
-0.168915
2.45849
2.76944
2.04427
2.94927
1.351
1.01695
1.71129
1.48175
1.38641
-0.594266
1.56907
-0.310415
-5.88049
2.25596
-0.153919
-0.818796
2.65217
0.0911827
-0.65565
0.842673
0.736557
1.86189
-4.424
1.41417
2.45121
-0.487078
-5.28056
-1.59792
1.09208
-0.49669
1.95558
-0.0610476
1.86421
1.52536
-0.437293
1.78579
-0.510764
-8.16534
-7.15355
-0.489098
1.83586
-0.691654
1.57107
0.0137519
-1.21301
0.20788