/*--------------------------------*- C++ -*----------------------------------*\
| =========                 |                                                 |
| \\      /  F ield         | OpenFOAM: The Open Source CFD Toolbox           |
|  \\    /   O peration     | Version:  2306                                  |
|   \\  /    A nd           | Website:  www.openfoam.com                      |
|    \\/     M anipulation  |                                                 |
\*---------------------------------------------------------------------------*/
FoamFile
{
    version     2.0;
    format      ascii;
    arch        "LSB;label=32;scalar=64";
    class       volScalarField;
    location    "3.6";
    object      p;
}
// * * * * * * * * * * * * * * * * * * * * * * * * * * * * * * * * * * * * * //

dimensions      [0 2 -2 0 0 0 0];

internalField   nonuniform List<scalar> 
13486
(
9.85257
8.27856
0.110912
-9.93278
2.73257
-0.735279
0.932449
5.2753
6.5053
4.25116
-32.1298
1.66634
10.3558
-0.115233
2.23414
4.64313
-22.0737
0.957536
2.21433
8.97166
-6.76982
10.2271
8.11216
-15.8848
4.05664
-14.4901
-22.7915
-5.61929
-0.010622
-5.71573
-4.19516
1.90138
-10.0615
-3.87809
5.28887
-0.00412496
-0.334978
7.92992
-0.950819
6.5629
0.183972
10.7678
0.0778282
3.95888
3.79895
1.56938
-19.3288
-0.000542715
-0.321689
-4.68965
5.99039
-1.06359
1.36242
8.04071
0.614355
3.05741
-0.139262
-1.07118
-9.55187
-0.617593
-39.1102
-0.506842
-13.1461
-6.16656
-16.8363
-0.347615
-12.0113
10.0186
6.44687
-0.46547
-12.1805
0.732349
6.65638
-14.5785
-0.354946
-0.121492
-0.31521
2.15316
-18.6377
-1.27701
0.00030868
8.38595
-13.5833
0.180659
9.89033
4.50007
-0.294544
5.68782
6.83458
4.77944
1.56602
4.49085
9.41073
8.65226
6.73713
-0.00137717
-22.9039
-16.3212
6.44312
-22.0354
0.0295342
0.198003
-16.4613
-1.05276
5.0929
-21.9582
6.787
-0.962911
-19.728
3.99941
6.18453
1.5292
8.03815
0.0613419
11.6308
6.51316
4.10419
-3.6793
6.7236
-0.250242
0.944964
-37.4935
7.07637
-0.966024
6.1542
-1.00711
4.48909
1.92844
-3.29755
-10.9282
-0.990746
-18.1484
-18.5229
-11.8394
6.2409
5.87217
11.8714
4.19485
-0.229379
5.43665
-7.77659
1.38994
1.91915
-1.34223
0.0667689
-16.9995
0.221016
7.77636
-5.04039
-0.0112756
4.09283
1.89641
0.00881103
8.55332
2.36197
0.0698318
3.19113
-1.2087
7.12402
-5.66884
-3.37318
7.11779
1.36675
10.7064
-1.08296
-1.24645
0.705509
13.3601
0.187024
-11.8803
-18.6913
2.40903
4.88746
3.33108
-0.00381132
-41.3125
-0.494126
-8.72031
6.78566
1.9644
6.07243
0.0748709
2.75281
-27.6845
0.318942
-5.52743
-0.00101522
-4.99531
0.50273
6.856
-0.277543
-0.00387833
-1.20157
8.96961
-1.36953
-30.8922
-12.4736
-3.78692
8.79211
-0.962642
-4.47177
1.826
7.94215
2.05137
-5.9059
-1.41321
0.689627
7.26445
-1.14495
0.31989
-5.18197
-12.6593
8.85733
6.79078
-0.700051
-3.13734
-5.82864
4.91869
8.89515
-7.96729
-22.1084
-5.14391
5.60185
-3.74911
0.971574
9.58006
-1.82229
-15.1282
-2.35482
-0.408659
5.99841
-2.76335
-8.13151
10.9938
-12.7766
9.15176
-4.30797
-0.00101317
9.24722
2.87079
-10.481
4.78588
0.0920369
8.71985
-0.878162
7.73675
2.93866
-9.38398
-12.9617
4.37519
-28.1448
11.7644
6.2406
-0.99518
-1.81073
-48.0252
1.86294
-2.98198
-1.03092
-10.4199
7.54195
-0.867198
2.20954
-45.6265
3.19081
-27.8007
-2.41375
-6.09062
6.2989
0.717962
7.24411
6.64022
-6.03295
1.32127
9.59508
-8.61976
-1.83143
-1.38785
-1.05416
0.345139
-1.74198
5.32403
6.8588
-24.4825
-36.1788
-22.2406
-7.02395
-3.44583
0.92547
6.37187
-12.0918
-1.0575
6.74073
6.29754
-4.1312
-4.64297
-3.64853
1.19479
6.97393
0.441873
1.32163
0.73239
0.27721
1.98904
-0.311337
2.14897
-2.71934
3.13257
-0.460649
-0.287648
-11.4133
-9.30025
0.511278
1.5722
-35.4725
5.99865
-1.1585
6.86641
7.31295
-2.83505
-0.327465
-0.855886
6.72251
8.7245
11.7566
1.63495
3.90823
5.18689
0.760874
3.55745
5.73648
4.21499
1.46512
9.44656
0.800434
6.33509
12.0141
2.06833
4.43824
-0.854766
-2.60967
8.65434
3.37331
2.80814
-31.6912
-0.00112169
4.2415
11.5768
-8.19033
-1.00959
4.069
0.937002
1.24944
-23.0846
6.91664
-0.0930919
-14.8184
4.36845
-0.457274
-11.6435
2.29408
1.45939
7.60825
6.6664
-5.92145
3.20063e-05
-4.46591
-18.3078
9.06304
4.43241
0.0657565
4.33278
0.850507
-31.2015
-0.179304
6.11667
6.75552
-0.873145
-33.9416
-11.006
6.17461
4.13399
10.4485
7.58843
-18.8301
-1.95232
0.745367
4.32749
-21.6543
-2.75327
8.7046
-6.41448
3.23571
9.33178
9.95457
-0.170264
-10.7429
-29.8744
-22.2047
-7.58323
-22.0097
2.94754
5.74275
-2.59886
1.15657
0.263906
8.51709
-8.62239
4.56898
7.846
4.17976
-2.23952
-6.67478
6.99136
6.71159
8.70948
-28.1242
3.30378
-20.0019
2.97225
6.79285
1.22588
11.6223
4.6444
-2.58131
-4.81071
1.83362
6.86012
-22.6758
1.14801
10.1363
5.78102
3.17364
0.818358
2.49877
-9.75908
10.4319
-0.951042
3.53086
9.86144
-23.1394
-6.03636
-11.6022
-6.88121
-0.619411
7.76122
8.33909
10.2109
-11.8292
-0.277426
-32.42
4.53591
6.99201
-4.64674
-3.81618
6.61323
-25.7087
-42.8575
-27.4493
-16.9928
0.927817
8.28562
-0.00408501
1.22469
-7.42672
6.59304
-0.000492278
12.7015
9.50519
6.62573
5.05694
-0.00827877
0.00549812
11.9325
-1.9954
-0.202556
-2.52107
6.39853
-22.1057
1.13072
4.98351
-0.16375
-1.9896
8.05301
-7.94445
-22.1978
4.60975
-2.98486
13.3139
4.70163
6.05078
7.34726
-42.6141
0.484144
10.9802
2.79961
8.75034
0.719434
2.22986
-6.99167
-1.29424
0.0817555
-21.6381
7.12163
6.36017
-29.3659
-0.00327226
-1.01021
10.0289
7.7733
-1.93834
6.48788
4.62561
-1.76052
3.26051
6.1369
-19.0649
10.2973
-0.117437
-0.431932
10.6902
4.21278
-0.0223186
4.15835
-8.51457
-23.5121
2.60143
3.79513
7.18897
9.42739
-25.139
2.43899
-25.0284
-0.00408016
9.14504
2.2616
-28.2395
-18.0536
1.29525
-1.16106
5.04774
-15.9573
-3.63972
6.50872
9.33589
-0.777896
7.48475
-16.1703
-33.0971
-4.54926
3.01076
-31.9984
7.25409
0.39211
-41.7869
5.39203
7.65509
-10.8965
-25.4407
6.06816
9.17322
2.73388
9.95157
0.433398
4.80701
1.93525
7.41658
0.0902419
8.91162
-22.8968
2.80413
6.12814
-3.05738
-8.20126
6.68473
-23.1132
1.25724
8.17583
10.207
-8.28071
-0.513121
2.46441
1.21665
5.82144
5.42903
1.62246
-25.5333
0.392813
9.75007
1.43198
1.37058
-29.6108
10.2807
-4.54156
0.0756649
6.52111
4.9166
-1.32546
0.334542
5.38358
0.569314
-0.112614
2.92456
-5.46538
9.95298
6.32734
4.34283
4.52899
0.606334
-6.872
11.2372
2.40747
11.2581
-13.324
6.44376
-0.00147001
-15.1738
3.61594
4.35334
11.7908
-30.4855
3.91837
3.73272
-9.03545
4.20347
0.939813
-1.15895
6.29808
-25.7299
-7.74565
-10.4219
0.477966
-3.48814
7.28257
-0.00147699
10.9039
6.46739
-5.30001
-32.0781
-5.04157
2.5494
-34.3276
-0.0340825
-21.8073
9.0804
0.000169681
-0.0663905
-47.7352
10.4687
0.00135048
1.2568
10.6701
6.07176
-29.7074
-0.798253
4.46818
0.899625
6.10508
0.0979032
-12.3797
2.86588
5.91623
2.34579
5.21112
10.8371
0.0792395
-30.544
6.68162
1.32261
-1.14685
4.16675
5.22402
3.43012
-28.2363
0.400407
-0.854668
0.863493
9.1268
2.42309
0.689549
0.266685
-0.292638
-1.53237
7.10902
-3.8258
5.97474
6.12977
9.41485
1.01774
-2.6284
11.1752
0.0359558
-25.0417
6.90093
-9.38699
7.7153
0.0685041
6.52526
-2.64628
-12.704
-14.9236
-0.000975681
-22.1256
4.04633
11.4998
-3.64341
-17.1642
-2.15469
7.28045
0.556906
3.3451
-46.6517
11.4542
-28.5497
3.38883
-5.00929
4.35324
6.89324
3.55898
-9.95678
-4.82508
10.5507
6.7161
2.26826
5.84806
-0.68111
4.92795
4.95598
4.25528
-11.5426
-1.8235
8.4214
1.06242
-1.09774
5.25086
-23.6494
-3.50078
-0.795179
7.16759
7.36281
-21.4933
0.403333
-28.6978
-5.44838
0.595917
-3.39857
1.47574
6.49773
0.511023
-4.02937
7.54912
-0.825338
-8.01699
-0.328276
-2.84826
-21.0461
-13.3657
-0.834782
-52.3121
6.07515
10.3333
-0.186437
-7.69069
10.6997
10.0079
-7.37698
-11.3776
6.60331
-21.0524
0.0659301
0.486931
0.861426
3.26849
-22.0408
3.29288
4.84887
-2.48809
-2.84128
-12.3995
-0.543119
5.44321
3.91593
4.10757
-25.4525
6.32702
9.80877
-20.9016
-50.0556
7.20792
1.78848
4.11667
-0.922213
-5.43386
-26.7017
-0.350894
6.89694
11.2771
7.24696
0.612369
-0.221465
6.74595
9.55457
0.374673
6.85157
6.64463
10.1626
1.17179
-0.816884
1.3288
-2.61763
10.1082
0.467307
1.3027
4.23392
-1.82869
1.56633
-0.287367
-6.73756
6.57129
5.72105
4.93328
3.66225
-11.9324
-1.5469
-3.13849
3.29979
-5.9546
-1.15791
0.0760646
-56.9155
-43.6088
3.91598
-5.36237
-12.5475
-13.1419
-4.70762
4.58881
-28.3002
-40.6951
7.48515
-9.74951
10.2529
-14.8635
-13.2075
7.65533
9.1924
-0.354899
0.999301
0.888241
7.07835
3.30234
-11.1424
-1.29014
-0.326912
-2.40584
6.54103
-0.0259737
4.27846
-0.857975
6.41724
-22.5137
0.0874068
-0.092753
7.92721
-6.44177
-34.2073
-29.6661
10.1392
0.662241
-31.2163
-30.1564
6.64339
-31.2653
-0.89811
1.50384
2.81384
0.183435
4.17387
-15.2204
6.06695
6.585
7.49262
3.42864
-0.557259
-4.12752
5.38759
-0.912716
7.79114
5.25164
-1.31737
-1.00004
-2.0783
-0.104191
-0.289318
7.66561
2.98925
1.50107
6.7427
0.855563
5.01859
11.6602
-0.298274
-8.10472
4.88288
0.159485
-0.806121
-2.20825
-7.23945
6.64323
0.0828026
0.0430975
0.0898006
1.04443
8.32425
-29.2896
0.00565387
6.77638
0.180731
9.64687
7.79052
8.72614
1.64202
4.89853
2.04898
-0.0727995
4.6008
6.34554
-3.78931
-3.08651
-12.872
-6.27131
-46.0557
6.56706
-15.9725
-13.0731
-53.81
-3.28215
-0.147694
6.8598
-0.045423
1.52503
-11.7515
6.7424
11.4826
0.24347
-35.986
4.22732
-0.609322
6.5017
-5.56678
-0.893523
7.82279
-1.14573
10.8641
4.31415
6.70035
-5.17811
8.57483
0.0551598
7.8435
-0.136325
-10.9349
-0.304834
-32.1431
4.1691
-0.0206439
-2.65822
10.2006
6.72422
7.45656
9.28126
7.56325
7.91925
-3.07202
6.67435
6.75325
6.90733
-2.7201
-1.85233
-5.50616
-3.25362
1.78457
7.20222
-12.6366
10.2988
-4.15676
0.0802888
11.2177
9.45659
-3.03318
-21.0638
6.52977
3.94118
-0.767069
5.96988
-11.9022
-2.12305
6.68903
9.03877
-0.899572
7.08339
8.49093
0.0040595
-3.19406
8.59632
2.82466
-0.290847
-26.5617
0.143411
-6.54909
6.48444
5.55929
-0.666275
-1.53183
-6.94078
1.79117
-0.705985
1.53915
9.78254
-0.938092
12.4645
6.62259
2.1023
7.44016
-30.3129
-14.6416
-29.1661
6.6341
-0.913826
-11.2164
-4.10859
3.63543
4.49388
-0.847528
4.37015
-18.8822
2.98684
0.677568
-0.887379
5.0655
2.08222
8.4648
6.89486
7.25767
6.20592
-3.0755
-8.76635
-6.30504
0.319248
-10.6367
0.919891
4.94727
-7.25475
-0.493712
-0.793925
1.23678
-49.1517
4.40561
3.86684
-1.24006
-7.39207
3.025
-4.79431
-9.88994
1.04867
-0.0428808
7.0733
5.22297
8.33481
-11.7752
6.18331
0.0818918
9.23589
0.780168
3.91988
0.985378
-0.485437
10.692
11.2704
5.3099
3.18906
4.90403
5.81145
10.7995
4.13377
-9.1149
-46.1224
1.34212
-3.25103
-11.775
6.71959
6.42294
0.162907
1.11128
5.25434
5.88456
11.7578
-17.6713
5.59433
-22.7034
0.628953
9.60231
-2.06786
5.23425
-4.74426
3.38417
2.5212
12.2692
-0.449044
-5.60752
3.71154
1.11574
-31.6703
-12.109
1.03234
7.59469
-1.20131
3.18865
10.0043
9.26464
-1.48738
-9.59269
-0.705108
1.83115
7.56728
6.25416
9.06601
3.92493
-30.5594
9.52173
5.72045
-9.99662
4.73134
7.04468
8.15992
-35.2034
-3.8647
0.00136274
5.9169
10.5165
3.38937
1.19044
-6.62288
11.8152
-23.1573
-7.51143
10.9887
6.0483
0.446117
5.02578
-11.2907
3.22682
-5.501
-24.1598
-0.84415
-33.3593
0.578376
-3.98812
-22.0678
-22.0551
-12.986
-0.51759
-21.9604
-28.5155
6.18844
6.43185
3.06486
-19.133
1.80592
1.71444
-3.16783
12.4011
3.94215
-5.61991
6.05513
-4.97715
-35.7619
5.11738
5.09555
6.42136
12.5517
-0.0031625
-2.02169
-16.8486
0.363462
4.11943
6.22239
-2.11993
9.6666
5.29286
7.14217
-7.14613
-1.25764
0.0465983
6.61042
6.76784
6.86164
6.80834
11.5894
11.2791
-5.08622
6.08652
8.50225
-5.45035
9.03483
-0.805359
11.1466
8.95473
0.562276
7.72133
3.77766
4.69069
-0.189686
7.03317
-8.34706
5.57013
1.94726
4.08185
-0.806873
6.55536
-0.66635
1.77811
10.7547
10.7444
4.06244
-11.8083
1.60532
-0.436508
-1.89892
5.87575
9.5866
-11.6835
6.92441
6.06811
3.09357
6.57309
-42.591
-4.7402
-0.735969
11.823
1.67837
-0.735057
7.93338
-0.849791
-0.0561823
3.62273
1.35149
5.41506
2.13581
-5.16759
3.81314
4.96727
3.89487
4.5685
11.3782
9.36237
8.05909
8.34784
10.5194
2.85098
-0.871108
0.646489
-4.69827
10.647
-7.32526
6.44678
5.66079
-31.6239
3.0544
7.30741
-20.4214
3.16004
4.90732
12.7
-23.1108
2.80141
0.370234
7.36421
0.0413626
-12.9935
10.4401
8.83501
6.1386
6.61671
-5.76563
2.63734
-21.685
11.2557
-0.0797823
12.1787
-1.67436
1.1297
-18.841
3.12283
-14.0618
1.43379
-1.10621
2.76599
-0.191542
2.65182
-15.8713
-0.000198672
-4.32128
-11.69
-5.28077
-11.6421
-0.146564
-1.46578
-6.28113
-37.9007
6.50314
6.64055
8.86788
6.62296
2.56518
2.48531
13.341
6.28658
-22.6308
-0.00867528
-0.278853
5.47588
5.63037
9.69346
-6.4875
-6.61666
5.08979
-0.000900632
1.66918
8.55053
-11.972
-32.4773
-22.4235
11.3875
-16.2452
4.32537
8.39783
-2.12768
4.94652
-0.618094
-25.2026
-24.1188
-5.55118
4.84906
7.66732
8.23868
-11.8409
-11.7727
3.95577
-18.8418
-6.1835
-3.15108
1.54389
-5.69719
-0.505892
-18.3324
-23.3953
-14.1441
10.0572
-7.54094
11.0523
-33.3282
-1.96091
2.39034
0.560967
9.2338
6.20993
8.17544
-0.0359998
-5.48939
-26.5866
8.88433
-11.5289
5.16017
-0.829003
8.45675
9.2632
-0.819222
6.63471
10.5854
7.0343
7.11495
-9.26432
-1.64983
2.63843
-8.83744
-1.07124
3.60829
4.36725
0.0652415
-28.498
1.52178
-2.69404
5.45632
4.5343
-5.35358
11.1115
0.26795
0.00109718
1.00106
6.57426
-10.2621
0.0138679
6.99438
-2.67101
-0.0654669
-1.3406
6.7341
6.59884
6.36221
-0.550958
6.50115
7.78462
7.27244
-4.81572
0.0819562
2.13752
5.46544
-6.44204
-20.4151
-28.1661
-7.97913
-11.1942
0.0583446
-1.04559
0.0550517
-12.0311
-5.06189
-52.3138
-3.4623
-6.28941
2.94021
-27.3487
7.16734
13.4466
2.90361
-4.0509
3.51787
1.38727
1.59992
0.0430706
-5.85536
-51.5292
0.544422
8.57849
0.015854
10.38
0.0425815
6.3358
5.08589
2.78626
-20.7754
3.40915
11.6238
-6.46845
6.63825
6.52514
9.64212
0.602689
8.79333
6.86369
-17.7996
7.35152
-23.2208
-22.1363
9.00729
6.05423
-10.7011
1.4005
8.60946
-0.0757995
-23.6346
0.0559994
0.0917014
5.67542
3.8851
6.94078
5.90709
5.45409
-11.6471
-5.54032
-4.61581
6.82336
12.1747
-6.59353
-20.8105
-20.1667
6.36193
0.361668
0.413627
2.33354
0.976005
4.81459
-2.64615
1.63984
10.5316
3.2004
0.826776
-5.09877
-20.6679
-10.3103
-22.9592
-13.532
-34.1093
8.13109
3.88482
-6.48129
10.8169
-0.00568867
-27.6599
-4.42267
-22.4889
6.94735
-11.5195
2.66721
6.34379
-0.47961
-4.87556
-1.23614
-22.7248
-11.6852
7.46971
-49.5111
-0.709086
-22.0314
6.53773
7.10241
-17.1933
8.32766
7.59962
9.96488
10.3098
7.11692
1.16185
11.841
-22.4021
6.16803
0.508328
-48.2797
8.33105
-24.0835
10.2037
3.57708
-7.28632
-20.0252
-16.7287
7.28292
-28.4718
-8.20638
0.112603
-2.77863
0.829312
4.49699
1.61689
4.45023
11.3767
-12.3688
-13.8341
-1.23409
6.62095
5.53953
-10.4173
13.2782
-0.828341
-2.33239
5.00807
-6.03142
6.4614
6.58193
7.43482
7.46742
0.92023
3.16072
6.1637
1.45486
-2.72009
-0.0384121
6.90306
7.40445
8.97035
-4.39924
0.0591847
2.93404
4.38707
1.3865
-35.3315
5.87468
-5.95654
5.99499
6.99406
-22.0355
10.3383
-19.7053
11.4506
7.30414
-54.2921
0.0105593
-0.345655
3.70278
7.19411
-55.4925
8.83295
6.55837
2.92434
0.0873238
1.35197
-0.504716
2.94149
-22.3606
3.70805
-10.1848
6.61001
-21.2214
-1.62515
-4.4638
8.27859
9.3364
4.28567
-21.4742
3.69708
-1.53607
0.14365
4.01799
-2.52584
-3.81302
11.0345
-2.4928
-0.232771
-8.05841
-23.3802
-2.19645
6.74577
-22.2562
-3.44376
7.18297
3.9047
7.15621
-26.5691
2.87695
11.2381
-11.7317
6.74713
2.05244
-2.45479
2.71603
1.50277
-1.93357
11.4432
7.3781
0.144107
11.2204
8.46024
8.28669
-19.3035
-20.8495
3.83701
-7.69815
-1.90594
-15.0189
-6.2467
-14.0504
4.94247
2.44432
3.58213
4.05111
-2.42482
4.63291
6.95825
-25.4719
6.65406
4.53183
6.65735
-1.53618
-0.157809
-17.4487
-23.3584
-24.2263
-3.96449
6.89459
-50.9439
10.012
-30.6461
6.47496
3.63897
-0.858625
0.361876
6.67178
3.67926
1.96422
5.68344
1.82081
0.842781
9.46241
8.28624
-11.2189
-20.7307
-1.22934
6.1665
0.60442
2.41358
-11.5713
0.389768
-1.80605
-0.815751
5.54208
5.25096
1.09165
3.65627
0.40278
-0.642649
-56.2061
8.43901
-19.3701
6.54654
-0.0021621
5.97769
6.92702
4.18753
5.88228
-0.844974
-16.1429
-1.08106
-18.8428
-26.4286
-17.5569
0.522222
-2.79392
5.70157
-0.023255
6.55356
-1.90233
0.841404
-9.99955
-0.793842
6.78934
-23.9276
6.26669
1.64653
-47.8453
-1.54727
-20.9223
4.41276
6.84835
-0.646283
1.28408
-15.0085
7.5452
-0.196323
2.01058
-31.615
8.2548
3.11544
-0.0523856
7.08942
6.62963
7.88968
2.75902
8.51873
-12.2832
-5.02676
-1.73775
6.10753
4.57717
1.74395
-0.226157
-25.6441
-42.0076
3.2426
-0.101298
-50.2429
10.6061
-10.0448
7.69885
4.51891
-8.69486
-0.921053
-2.07907
-1.21227
1.19911
1.07224
6.47167
-1.10042
6.75944
-10.3316
2.16691
-3.77047
1.54535
-28.316
8.05356
11.2468
7.26317
3.30423
0.657598
5.0328
-22.587
-0.389528
-0.627255
-1.82738
-13.6167
-54.9064
-31.7901
-6.22011
5.61682
6.22214
-14.2518
1.68363
7.59607
-5.12891
-9.67904
7.29208
-0.903612
-33.8046
0.0930171
-1.4351
0.0137456
10.7653
-0.66259
6.07267
-5.93468
-4.12518
-5.01438
6.20714
1.63399
5.1626
-3.96023
-6.62085
-1.23337
0.81538
7.82433
5.59972
1.63241
-1.10287
-4.04731
11.6509
-4.31883
7.33218
8.04479
0.890518
-1.09202
2.92062
-20.353
-1.00482
6.07473
4.44264
6.20662
-32.742
7.38087
1.26751
9.53809
0.928417
6.17585
8.37824
5.85313
1.44003
-29.3061
2.57111
-22.021
5.39952
3.53312
7.86313
0.950285
9.93301
1.20596
10.596
0.388745
8.13489
-0.466055
4.70614
-25.0256
6.48242
3.02912
3.42372
10.2234
6.74373
1.73048
-5.26743
3.62646
6.38076
-0.767541
-22.0625
4.54
-1.38772
8.55198
-17.7848
10.1019
2.13196
13.4735
10.3384
4.49181
3.90251
-27.6488
0.737989
10.9016
0.174195
-0.0393323
-1.61835
11.0895
3.93987
5.39982
9.75594
-4.42692
7.15537
-3.32558
7.66702
-0.0877662
7.19436
6.60002
8.99357
-0.894795
-16.7931
1.91296
-22.0392
2.90855
0.377526
-0.682388
8.85377
9.53392
0.0582952
1.63251
-2.96098
8.4574
5.23988
5.81673
4.45872
-1.3314
-19.2264
-8.39282
6.94503
-10.3561
-0.596372
2.11749
4.29428
3.01357
-5.36506
11.5723
-2.58065
10.0093
1.33403
10.5808
-5.86877
1.64586
-0.789279
0.0418579
5.38158
6.63191
0.733934
-0.259493
0.418895
-1.03235
9.43931
-1.35691
0.363572
-2.70631
0.0634081
1.72028
7.87465
2.60422
-5.26514
-0.0992375
6.71597
12.2025
-22.8467
-1.79351
6.14805
-0.0189827
3.67744
-0.847872
4.37882
-0.0391068
-19.3099
0.279977
-6.10357
-1.9214
0.129726
-15.3666
-25.8586
0.73869
5.42643
6.97742
5.98234
11.8414
-38.068
11.0292
-15.5173
10.4289
-57.7056
-5.22819
11.4396
3.25685
-12.7251
6.39199
-0.947192
6.9779
-3.01765
-22.0754
1.18282
-6.25083
-8.06839
-0.00426632
-1.92428
3.09507
8.02761
-58.3308
3.31569
-10.2025
1.75886
-2.66936
-0.742443
1.45356
-3.29162
-8.11528
9.09004
-0.50739
9.82763
2.45121
-23.6205
2.91315
-4.54143
-0.76308
5.90636
8.17889
11.9673
5.3638
6.06635
2.59678
-12.3515
11.5954
12.2661
7.38731
-3.73855
-31.0436
-22.1908
5.87274
3.94922
2.33465
6.19192
-4.83337
-0.607321
-26.2389
10.1637
1.06817
1.16218
-14.6327
6.09157
3.01194
13.1207
12.3331
5.65465
1.89739
1.52532
-14.0021
3.49752
12.6351
-0.253915
-0.651795
4.49896
0.00801251
1.43935
-0.905754
-1.8506
1.42837
1.22318
2.82878
-0.112817
2.61408
9.11164
1.5159
6.9418
-17.1142
-2.34655
11.0589
-19.8963
1.53567
1.04839
3.41302
2.31768
-18.4275
0.666024
-5.71543
1.35967
13.2334
-20.5374
-14.3352
-23.9784
-2.70212
-0.446419
1.03586
-15.1617
-13.8093
-0.0508553
-13.2502
-4.19558
-8.49514
2.27728
-0.749804
0.964806
12.9346
1.25476
1.88164
-1.89038
1.76876
-11.4242
-4.12096
9.26953
6.63306
1.93369
0.0806828
6.1939
7.02106
-0.0784585
-51.4078
-0.691766
9.25119
-5.54799
6.31114
0.562614
10.0437
0.878147
-19.486
1.00261
7.2627
-5.11032
6.16425
-4.44216
12.4674
-14.0769
-1.50712
-29.2788
3.83444
-19.4953
-5.90623
-15.2448
0.761058
2.49612
-37.0377
-3.44408
-1.38115
1.50193
-10.9577
-4.36562
5.0001
-21.8087
5.47175
-17
7.31973
11.5068
5.90866
-11.36
6.40359
0.605656
1.54601
-1.53452
-2.61642
-22.1251
-0.486868
-5.20226
2.42887
0.47051
-2.23255
-2.13091
-25.1037
3.27043
6.70623
-3.82698
-20.0683
-1.80798
-0.155198
-0.0730204
3.63891
-8.31046
-21.6608
7.07887
-2.28345
3.37493
-8.59714
-26.8981
-27.5468
-39.3945
13.0309
2.06202
-6.93547
3.05179
10.9482
11.0831
-22.1788
-3.41003
6.67049
-0.592883
-0.378184
11.2039
3.54624
5.55102
13.1981
-1.0657
1.3354
1.42745
9.95137
6.9538
6.56642
8.6819
5.01394
0.0454719
0.0359771
3.53061
1.63705
-22.7964
11.3365
-0.967377
-2.16696
-0.0995654
-9.86664
3.06302
-15.0052
-3.81911
1.72172
6.67479
7.29013
7.33052
-22.532
9.89271
11.0333
-14.9699
3.9101
-1.22535
-0.444024
1.53334
4.38528
-2.71757
-5.1336
-1.61356
12.212
-23.1477
7.43477
6.67738
8.59707
4.61798
5.00718
-0.117262
0.0434359
3.50162
-1.05192
-21.8383
-9.903
-0.0125341
-12.0533
8.0445
-34.4383
-0.666355
2.02074
-11.4935
-18.0812
-22.7493
5.66404
-3.30759
-0.430472
3.32218
-28.1798
2.3006
-14.2811
-1.22989
7.15042
-25.5056
11.3862
-0.111314
12.0866
-0.00121461
-0.552675
0.955113
6.04466
5.38473
-13.4254
-1.71966
-0.448693
0.788745
4.31649
13.2145
8.63553
1.9373
-5.24365
3.1594
0.718708
7.33743
-0.311844
4.43498
-9.20493
-14.3264
-11.3999
1.94147
0.047407
-11.6302
4.68314
3.94485
10.8782
11.7665
-22.6617
-22.156
0.837849
-5.49081
11.3299
-0.544094
-1.25629
3.29185
5.10476
-8.9611
-0.377698
0.847965
-0.919197
5.76245
-6.00541
1.36097
0.218355
-4.4685
-11.5776
-1.10757
-11.82
-10.6556
7.08815
-25.4722
-17.4808
-3.94018
1.06151
12.3917
4.57996
6.37659
-4.8643
3.1884
-0.0366168
2.45447
2.49338
-15.1838
-20.7039
11.2954
7.0412
0.32907
-16.9504
12.8428
-19.0061
-20.889
-8.20319
2.91693
-20.8935
-8.62606
9.84778
-0.0147072
5.82279
3.10861
-10.3815
1.16569
-0.290555
3.13961
-12.9141
0.505153
2.7034
6.31991
-22.2019
-19.5104
-0.501488
-5.5114
-6.40154
-6.07273
12.12
4.77831
-51.9791
2.69405
2.10688
10.6098
3.41262
-20.7178
3.64061
8.47051
6.97214
-6.51415
6.15718
-0.293425
11.2018
0.0367306
7.013
-28.7274
-5.85913
-0.142659
-11.6366
3.5204
2.77211
-20.9671
-23.5903
7.6274
-0.586293
-0.301141
9.20671
5.50748
8.97705
6.31874
-6.88798
0.0578501
0.652608
6.30169
-0.000862737
8.02409
4.8155
11.1248
-13.0269
8.74506
2.91754
11.3552
-9.76136
-4.11644
11.5139
-14.0791
4.73675
-23.4217
9.84926
11.1504
7.22017
-8.4334
6.6356
8.41278
-10.1161
3.64948
-17.5427
9.01842
-15.4995
-3.71201
-21.8389
-21.5276
8.26621
2.78302
-20.8838
3.24345
11.1194
-1.85227
-0.15428
-21.5786
-5.65186
5.25185
-2.10674
6.44874
5.98866
-19.5584
12.4419
-1.092
9.60811
9.23396
-1.55755
-0.098978
5.57056
-9.58587
-2.9507
5.51719
4.67157
-1.75099
5.99607
-7.8132
10.2171
7.37667
2.48051
-0.7598
7.13301
-3.6694
4.67319
8.59841
1.45118
-0.0688533
8.33472
6.8728
-5.18258
-12.0743
4.71762
7.20034
11.1899
-16.8131
11.8144
11.8712
12.0195
-0.8522
8.12364
-30.9535
6.72695
8.75114
8.7116
7.13943
9.592
13.1032
6.07779
-18.5814
-0.0845389
-21.146
12.9794
3.3866
-0.594392
-19.0291
6.68102
9.96104
6.20199
2.24294
-1.60741
9.78204
-13.712
6.82956
-20.3886
3.4212
-0.657749
1.61699
4.08269
-30.3837
-32.3283
-2.57912
-5.19565
-0.231645
7.96857
-0.598611
0.827386
5.97148
-23.0648
3.74202
-0.15996
-21.576
-26.7171
-19.9238
9.16703
10.0024
-17.3115
4.02328
8.5241
8.26099
0.0609731
-48.8698
7.04734
-22.1555
9.11629
-19.9469
8.89356
4.78125
1.42893
8.37361
4.18663
8.54804
2.36437
3.55075
-5.04919
-11.5744
-25.1607
-0.949871
8.38065
-44.9703
-12.5158
-37.622
9.77206
8.43798
3.09609
4.58483
9.58436
-10.5297
6.0619
-0.246132
-5.43637
6.05523
-19.7343
-22.7099
-5.67762
-23.3782
-3.74842
-56.1886
-0.330915
-22.343
-13.045
5.17721
11.3558
12.3666
10.7631
-51.7511
6.90609
-29.9933
5.93727
9.72685
1.63888
8.24408
-31.333
2.33269
-5.5512
-0.125773
8.99233
-3.22986
7.28761
-22.5546
-1.19254
-23.2948
7.67415
7.24299
6.6674
-24.8005
6.04209
-2.85368
-21.4981
-21.7779
2.18136
11.3649
-12.5471
-4.6316
-22.04
6.39048
6.49205
-1.05216
4.49082
-23.9381
9.73401
9.21765
-10.5175
-0.931661
9.38539
-19.8377
-42.4861
0.454323
8.65842
9.67096
-28.1906
4.36619
0.0631418
11.1744
-20.12
-18.1636
-0.273133
10.4311
0.368191
-4.94327
-1.01832
8.8818
5.52613
8.84229
-0.504015
-11.3289
7.15756
12.841
-11.7297
5.68976
0.154149
-17.7796
0.30939
2.40084
-21.921
4.26578
-8.23919
4.69223
-4.78995
-8.88021
8.10165
9.72102
6.0159
-8.94635
-15.7014
7.45737
-22.9582
2.02583
-5.24348
3.12085
-22.2411
7.51314
7.45718
0.124451
6.98733
10.9752
-3.64097
5.08229
7.55343
-21.9479
4.59933
-2.64432
3.09402
1.88955
5.56306
0.00452351
2.26712
-2.72505
-8.34486
9.1054
2.14673
1.42116
-22.3912
-2.70073
6.93871
-24.5734
11.9679
-23.5164
-23.2052
-2.03293
8.50335
7.24047
8.68972
-19.7751
10.5434
-37.7669
4.93376
0.611084
-18.564
6.37278
2.9219
-3.13175
4.20325
-21.3007
5.6146
-22.3768
-22.4967
0.0243882
-17.9159
-18.8705
5.61915
10.8509
-0.270989
-31.1642
8.34223
-12.7883
9.81194
2.61521
0.615863
4.69658
6.834
3.25765
-2.17212
-0.248937
0.175013
2.32853
3.11784
-20.7474
-22.8763
-0.13399
3.54304
0.712641
13.0523
6.88594
6.68962
9.90783
1.79201
7.51948
-25.635
-16.4772
-31.7108
6.68868
12.7461
5.97185
-4.43461
9.09988
5.96851
6.04087
-0.542724
0.189825
3.39335
12.0248
-0.532759
-8.59526
9.4991
9.32051
6.73833
6.38066
7.93834
4.32815
-3.90581
-47.5675
7.06361
-14.0305
-11.2959
6.59394
-38.6507
-0.813861
1.64339
6.93209
7.23177
7.31744
0.300683
8.65396
8.89031
1.59655
7.72323
6.71336
6.32716
5.73531
4.1495
3.19778
-1.09424
8.43205
7.67328
0.905301
5.73427
0.195841
-0.635435
10.7587
7.98595
0.0120004
-34.9146
1.05823
8.24121
4.3506
2.63793
-0.686055
0.776251
-10.3236
1.28062
-26.4962
-1.07827
4.56214
-2.57235
-23.1697
-24.8087
10.1136
-21.2761
-18.3973
-31.5547
10.9034
-3.70673
1.74412
2.06618
-21.6345
5.89633
6.37806
3.7986
9.52619
5.08972
0.462232
-20.6629
-34.6588
0.0581786
7.94041
1.07926
-28.5908
-19.2155
-6.81865
-20.0359
-28.8739
-13.4879
-2.48435
2.95913
6.62373
8.42963
-4.99914
-0.343741
9.55181
7.30362
-28.0635
0.440471
-20.6988
3.74154
0.667267
3.50146
5.8601
-0.252149
-4.69665
-7.21177
2.44744
-41.8249
-21.0115
0.195341
-44.7131
-23.4863
-21.5256
-35.5546
0.288579
-19.7735
3.18706
-26.6642
6.70623
6.0933
1.68736
8.60884
-54.8485
10.891
-7.59297
0.775748
-5.12707
6.39913
3.8046
-11.8576
-18.0883
6.9243
8.23054
11.2981
-34.5116
-23.0244
-57.1626
-2.21142
0.0164823
-23.4601
1.8781
-22.1921
3.71878
-29.9353
4.75667
-0.140987
-1.33108
9.92898
5.60618
-2.42048
-0.402796
-8.17766
-19.2694
8.91067
12.3927
-17.5657
7.9051
6.08457
0.00416294
-2.70021
8.38429
8.18114
-13.9354
-2.78962
-34.9698
-59.5685
-4.56409
-22.6796
-3.59386
5.035
0.00914519
7.48742
-27.6544
-21.3302
6.42347
-3.95317
-21.7233
0.978653
5.72483
-21.3135
-2.4763
-20.3092
-23.585
-22.0206
11.4765
-17.8065
-0.724517
-32.8204
7.16072
-22.7961
-0.479816
-13.4835
-37.6607
-5.24905
7.28344
-0.0133074
-22.8719
5.53023
0.032525
-12.2693
-19.8142
-25.484
4.33238
5.14719
6.73209
-15.6882
9.77048
-8.79579
0.00812245
-1.61796
-9.40596
-49.822
-24.0311
-23.6814
1.69961
3.13494
-0.450395
-0.699693
-8.47433
5.91354
-47.4955
6.81185
-27.5696
4.5247
-3.74479
-2.3309
0.717052
12.9284
-2.00403
-21.6051
-13.9269
-9.37419
6.67406
-0.767105
0.801837
-0.291546
-17.355
-34.0669
-12.678
-22.3972
7.00798
-23.3785
1.33482
-18.8161
-0.0375027
5.54584
-1.75941
2.46946
-2.87716
8.5055
-23.0003
-18.1694
9.13613
2.53193
-22.8562
-0.875938
-23.24
-8.28584
-1.54106
8.32978
-24.6126
3.51858
-22.383
-21.5804
-28.5692
-24.513
-20.8507
3.509
-3.11519
6.67177
3.25487
-38.5014
-0.464548
-54.3036
8.30474
9.69498
-21.6198
1.47738
7.00642
6.56536
4.86567
-22.4095
-20.9143
-18.2177
6.70961
2.41507
-10.4394
-22.7887
3.37706
8.10438
-0.444464
0.887741
0.897196
9.01839
-6.91948
-7.31598
-0.636039
5.92516
1.75176
0.601569
9.83109
8.27263
-0.579609
-40.8226
8.2171
3.8337
0.148624
5.84155
-6.29608
-22.3577
-19.459
-33.9977
8.21948
6.80549
-1.74089
-5.39561
0.377776
-1.02989
6.99337
-47.9025
4.67723
8.56713
9.2216
-9.03144
6.66322
5.5289
7.11767
7.56496
0.0176163
7.60444
-0.00702559
6.78984
4.49435
7.20185
-30.7493
8.29308
7.80823
6.14046
4.95766
-17.14
4.31181
-4.621
-7.23119
8.79912
9.21781
-48.2272
8.26482
-28.4246
-12.8204
6.95556
7.11438
-13.0903
-0.277624
-23.1715
-46.067
-3.14501
-18.7397
-14.3966
-0.944456
5.79791
12.0138
8.151
-6.11635
-10.1506
6.78357
3.81804
-4.22972
-24.5102
-15.8679
-6.99782
-13.2797
-11.317
6.45756
0.238193
3.47643
0.0383253
0.0383258
0.356634
0.0666083
1.72613
2.95646
5.39934
-7.12728
2.73298
-9.11194
-52.0022
4.35797
4.08433
-1.38967
-0.565007
5.03497
-0.882815
3.28437
-6.16027
6.69825
5.30096
10.4094
6.7122
-24.2753
-1.14846
-5.47644
-13.7443
-0.628762
-0.648258
-2.19342
-45.454
12.2372
0.102627
0.0517213
9.63709
-22.6435
-2.77493
-3.00855
-31.8197
-20.4161
1.3733
-6.18689
6.17046
-3.15712
-22.5287
0.849655
-13.6818
-6.1752
-3.4919
0.189276
5.52363
-15.183
-19.5154
-6.71973
2.52769
-9.13981
7.1236
9.92732
-13.6568
7.26325
3.44645
5.14517
11.0143
-24.6381
4.55644
3.35552
3.36446
9.36065
-0.403922
-2.20461
-2.87442
6.97162
9.92372
-25.4604
-0.348213
-12.5649
-8.97877
3.94481
-18.756
-11.0347
-18.1094
3.32092
-21.4431
1.5128
2.14374
6.08225
1.22268
-17.6349
0.0929082
-0.859527
-1.71447
10.6104
11.9197
8.73385
12.6321
6.34218
3.89735
7.25425
6.20568
6.65955
-14.0495
6.61144
-1.20413
-13.1733
9.72466
-2.83144
-8.1764
11.4613
0.631905
-50.45
3.99405
3.42118
8.14679
-12.1892
6.39064
10.7426
-23.1109
-13.0829
-9.0447
4.44098
-27.6697
8.32721
-0.507694
8.21318
6.69301
-20.3421
7.60031
-4.39152
-20.3634
-19.1574
-41.7886
7.79073
-9.92277
6.74324
-0.997822
-22.9705
0.0819873
-0.025134
-3.71213
-20.9533
-20.4666
7.9475
1.80451
-21.9165
-1.82541
4.923
1.76238
-52.5672
3.88444
-0.77711
3.79207
-21.6512
4.6501
2.28076
3.65057
-1.66615
6.1076
3.86081
2.58878
-23.5663
12.544
-5.88403
-21.0691
6.14251
5.27215
-22.4035
-7.92961
-28.4668
3.79056
3.19774
-8.57431
-0.364729
-1.45302
12.5373
0.304572
-24.114
-0.0318366
-5.24115
4.14558
-3.35857
5.88693
4.91918
-25.9031
4.02741
-22.4774
4.90604
2.58501
6.40616
5.11015
0.0022985
-0.00554001
2.99516
7.19469
1.56517
0.0196039
-21.9507
-1.87251
-3.07178
6.21018
-21.7332
3.131
-16.405
7.78815
-23.3253
-0.934928
8.57694
7.72589
3.98106
-27.245
-20.7592
7.33699
0.264288
8.23958
4.08044
0.945493
6.70547
1.98865
2.48003
1.44915
-5.48215
-11.5311
5.04389
-1.85994
8.80493
2.0888
12.7122
0.1758
2.36053
7.87409
1.31459
1.80512
7.07526
5.27162
3.86882
-11.1425
-0.899289
6.10861
4.06541
2.07996
-52.6819
-2.10891
-35.4546
-22.5426
-6.46951
6.19834
-5.12319
5.6649
0.430268
11.0056
8.61685
3.11653
5.11959
2.95059
-23.2589
6.51854
4.67361
1.04861
2.6976
8.11608
7.10646
-0.999749
-38.4324
-9.72697
5.58928
2.7603
0.970605
7.11744
-58.6792
5.79592
-13.4057
6.3218
3.68033
-0.924165
3.43812
7.475
-1.64157
6.51738
8.4297
1.25901
-4.99737
4.45789
1.04976
10.0557
-21.1561
9.07074
7.45821
-24.5702
-13.8505
-0.108884
-5.53856