/*--------------------------------*- C++ -*----------------------------------*\
| =========                 |                                                 |
| \\      /  F ield         | OpenFOAM: The Open Source CFD Toolbox           |
|  \\    /   O peration     | Version:  2306                                  |
|   \\  /    A nd           | Website:  www.openfoam.com                      |
|    \\/     M anipulation  |                                                 |
\*---------------------------------------------------------------------------*/
FoamFile
{
    version     2.0;
    format      ascii;
    arch        "LSB;label=32;scalar=64";
    class       surfaceScalarField;
    location    "3.6";
    object      phi;
}
// * * * * * * * * * * * * * * * * * * * * * * * * * * * * * * * * * * * * * //

dimensions      [0 3 -1 0 0 0 0];

oriented        oriented;

internalField   nonuniform List<scalar> 
20045
(
0.49483
-0.529947
0.0351163
-1.06268
0.378755
0.683927
0.398019
2.02684
-2.42486
-0.246419
0.382558
-0.136139
-0.84063
0.803632
0.0369974
-0.629623
2.26352
-1.6339
-0.995519
0.408441
0.587077
0.0608348
0.428083
-0.488918
0.47616
0.411226
-0.887386
-0.828371
-0.0876637
0.916034
-0.400961
-0.409996
0.810956
2.23198
-1.05882
-1.17316
0.346748
-0.353818
0.00707044
-1.2557
1.11279
0.142911
-0.302988
1.0336
-0.730617
-1.07389
0.245516
0.0767371
-0.155282
0.0785452
0.551986
-0.531793
-0.0201931
-1.69534
2.48823
-0.792894
-0.741797
0.0530363
0.688761
-0.350996
0.212995
0.138001
0.114288
0.23246
-0.132521
-0.930161
0.941191
1.12761
-2.0688
0.804222
0.228015
-1.03224
-1.19154
2.13273
0.0928639
-0.105846
0.0129825
-1.36537
2.57252
-1.20715
1.68011
0.287233
-1.96734
-2.56417
1.38514
1.17903
-0.507612
0.396069
0.111543
1.39645
-0.993052
-0.403401
-0.73385
1.70675
-0.972897
2.5645
-1.4354
-1.1291
-0.548005
0.60884
2.12201
-1.05195
-1.07006
1.34461
0.0819413
-1.42655
-0.0624079
0.380358
-0.317951
-1.937
0.931022
1.00598
0.594216
0.516131
-1.11035
0.0490377
0.414106
-0.463143
0.15165
-0.210239
0.0585889
2.23589
-2.23727
0.00137319
1.47358
-0.559766
-0.913813
0.699971
0.773608
0.996755
1.23522
-0.398787
0.323186
0.0756011
1.28353
0.50115
-1.78468
1.59815
-0.253537
0.204858
1.94605
-2.15091
1.30229
-2.19747
0.895181
1.76033
-1.24321
-0.517124
-1.18821
-0.822528
2.01073
-0.096188
-0.290772
0.38696
0.708113
-0.333992
-0.374122
-0.681647
-0.158982
-0.335933
1.81784
-1.48191
1.49278
0.197638
-1.69042
1.19877
-1.93263
1.69282
-0.981133
-0.711691
-0.451781
-0.354734
0.806515
0.871626
0.821198
0.519232
-1.88451
1.36528
-0.108807
-0.242189
1.69349
-0.422103
-1.27139
1.53352
0.0407113
-1.57423
0.174529
-0.390534
0.216005
-0.669006
0.160431
0.508575
0.842871
-0.366711
1.69643
-1.72872
0.0322928
0.359397
-0.184867
0.0865104
0.621603
-0.249763
-1.04281
1.29258
0.142096
-0.300589
0.158493
1.70842
-0.492468
-1.21595
1.32887
-1.66481
0.148098
1.56032
0.444427
-0.747415
0.253969
-0.484364
0.230395
0.304112
-1.20778
0.903667
1.02612
1.164
-2.19012
0.89554
-0.694076
-0.201465
1.45682
-0.937588
-2.6322
0.455808
2.17639
0.0262782
0.468552
-0.529309
0.599611
-0.0703017
0.574859
-1.28971
0.714853
-1.60416
0.0692561
1.5349
1.03315
0.153703
-1.18685
-0.820878
0.761872
0.059006
-1.405
-0.21157
1.61657
0.716455
-0.137296
-0.579159
0.400762
-0.569269
0.168507
-0.160697
-0.809785
0.970482
0.570269
-0.611273
0.0410036
1.50993
0.340299
-1.85023
0.0438608
0.0490031
-0.184176
0.501924
-0.317748
1.21648
-0.622264
0.103016
-0.186384
0.0833679
1.44483
0.677179
-0.429739
-0.825961
0.362847
-0.547023
-0.362142
1.85493
0.00967073
-0.53898
0.177477
-0.0744613
0.443533
1.2055
-1.64903
1.01683
-1.78851
0.771684
-0.144818
-0.451565
0.391405
0.0601605
-0.239944
0.303135
-0.0631905
1.20071
-0.895054
-0.305654
-0.485806
0.389618
1.24573
-2.31172
1.06599
-0.166723
0.313142
-0.146419
0.0509507
-0.294069
0.243118
1.15038
-0.34616
1.83031
0.734191
-1.16447
0.914705
1.31761
-1.78105
0.463446
0.471947
0.0800391
-0.815803
0.364022
-0.761715
0.616987
0.144728
-0.920172
0.100635
-0.572421
0.471786
1.20899
0.551339
1.09064
-1.41363
0.32299
1.60051
0.197049
-1.79756
-2.18088
1.62765
0.55323
0.143058
-1.44654
1.30348
1.84377
-0.634781
0.449548
-0.126363
0.105014
-0.020949
-0.0840646
-0.061011
0.0572641
0.00374697
1.1401
0.801884
-1.94199
1.18185
-1.14722
-0.0346314
-0.33228
0.194299
0.137981
-0.320568
-0.130997
2.02251
-0.704896
-0.643585
0.67634
-0.0327555
1.2768
-2.3377
1.0609
0.323446
-1.51165
1.11391
0.443438
-1.55735
1.36334
-1.05923
2.05532
-0.268479
-1.78684
1.09138
-1.9103
0.818914
1.94756
-1.2069
-0.740656
-0.255825
0.450927
-0.195102
-0.0840879
2.21223
-2.12814
2.12375
-0.443638
-1.65499
0.0585991
1.59639
-0.94424
0.808413
0.135827
1.97352
-0.947403
0.33741
0.55813
-1.24482
1.55201
-0.307189
-1.69801
2.09603
0.0238628
-0.360743
0.33688
-0.0557949
0.100151
-0.0443558
-0.0367463
-0.363249
0.399995
1.55127
0.317806
-1.86907
2.82104
-1.38826
-1.43278
-0.435361
0.398614
0.677289
-1.32628
0.648991
0.181972
-0.0303219
-1.60535
-0.905161
1.37382
-0.468662
-1.33318
0.94904
0.38414
-0.0301199
-0.0461919
0.0763118
0.975026
0.97253
-0.0275854
-0.0334257
-0.131939
0.236953
-1.41669
0.171878
-1.46163
1.86014
-0.398507
-1.31176
1.48895
-0.177194
-1.14498
-0.85354
1.99852
-0.605265
0.885793
-0.280528
0.911988
-0.914663
0.00267499
1.99847
0.0707073
-2.06917
0.0184125
-1.49951
1.4811
-0.710345
1.82426
0.380788
-1.07526
0.694473
-1.01523
2.26096
-1.63087
1.07405
0.55682
0.513236
-0.528403
0.0151667
1.02896
-2.51809
1.48912
-2.05259
0.687217
-1.18633
-0.873748
2.35876
-1.40219
-0.956561
-0.538585
0.587623
0.293505
-0.311316
0.0178111
-1.44817
-0.231452
1.67962
-1.85611
2.57575
-0.719638
1.82289
-1.37789
-0.445
0.163543
-0.492303
0.328759
-0.613098
-0.900746
1.51384
0.455532
-0.856493
-1.28625
1.42931
-1.4905
-0.487225
1.97772
0.207571
0.0536496
-0.261221
0.317772
-1.22293
-0.370401
-0.137211
1.73653
-0.136017
-0.305581
0.243173
-0.312342
0.377851
-0.0655091
-0.474642
2.02591
-1.63117
1.01807
0.193702
0.127561
-0.321264
-1.38749
0.265978
1.12151
0.537886
1.285
2.65486
-1.6259
1.55147
-2.67726
1.1258
0.564329
-2.13928
1.57495
0.0579294
-0.799727
-0.974476
1.41801
1.30336
-1.93299
0.868124
-1.65727
0.789143
-2.77748
1.60674
1.17074
-0.0232338
-0.797644
0.350835
0.272557
-0.623392
1.51035
-0.540843
-0.96951
-0.109647
-1.54071
1.45662
-0.493192
-0.150393
1.33054
2.14085
-1.72258
-0.418276
-0.01976
-0.25737
0.27713
1.3322
0.277353
-1.60955
0.499083
-0.80441
0.305327
-0.46298
1.50704
-1.04406
-0.856578
1.43144
1.12163
-0.740845
-0.154805
0.420322
-0.265517
1.97824
-0.701444
0.201682
-0.0187452
-0.182937
-0.0466942
-0.460155
0.506849
-0.240166
0.249867
-0.00970102
2.32499
-1.44236
-0.882629
0.505442
-2.36155
-0.264484
0.0243179
-1.72722
0.559385
1.16783
2.61805
-0.911306
0.500483
-1.96211
2.71646
-1.16424
-1.55221
-0.0301093
0.237681
1.66858
-0.936116
-0.732461
-1.21782
0.279714
0.938102
-1.9208
1.92435
-0.0035519
0.721913
-2.04645
1.32454
0.0524773
-0.114267
0.0617897
-0.91796
1.25337
-0.335414
-0.207577
0.760603
-0.553026
-0.284732
0.118009
-0.284466
0.0445221
-1.07166
-0.716849
0.802585
-1.66134
0.858752
-0.106558
0.65006
-0.543503
0.798631
0.597822
1.5187
-0.650577
0.00774764
-0.0635425
1.43681
1.18124
-0.978167
0.0252133
0.952954
0.754855
0.913722
0.754381
0.279224
-0.580448
0.47389
-0.555986
-0.0474701
0.603456
0.010806
0.50243
-1.59477
1.13179
-0.172483
-0.17459
0.347074
-1.8148
1.75008
0.0647157
-0.654327
0.971004
-0.316678
-0.430909
-0.203455
0.634364
1.5177
-1.65301
0.135308
-1.70424
-1.07325
2.54345
-1.60815
-0.935301
-0.200515
0.180755
2.23451
-1.5126
-0.904613
1.7072
-0.668634
-0.0680045
0.736639
1.71551
-0.449295
-1.26622
2.1332
-0.597342
-1.53586
-0.823635
0.155001
1.64269
-0.970976
-0.67171
-0.323388
1.55981
-1.23642
1.0467
-2.14814
1.10144
0.508076
0.331656
-0.839732
-0.148872
0.0614766
0.0873951
2.58294
-2.15739
-0.425553
-1.18413
-0.996745
1.41854
0.72232
-1.66391
-0.150887
0.315242
-0.361936
0.481286
-1.24235
0.761061
0.00790247
0.285603
-1.07508
2.21519
0.930535
1.39445
2.56732
-1.53406
-1.03327
-1.91667
1.42945
1.4056
-2.37904
0.973442
-1.24479
-0.0824296
1.32722
-0.475128
-0.336844
0.811972
1.1073
-0.430016
-0.147712
0.341414
0.926302
-0.0633164
-0.929736
-1.30289
1.74098
-0.438087
-0.363855
0.051513
-0.172649
0.0178441
0.242427
-2.16323
0.711101
-1.56768
0.149979
-0.374755
0.495534
-0.120779
0.0421518
-0.288571
-0.977523
0.758073
0.21945
0.687312
0.513396
0.991666
-0.0297543
-0.961912
0.982578
0.19927
-0.667865
1.14915
1.14256
-0.109409
-0.405675
-0.981817
2.1308
-1.69858
-0.432216
1.61546
-1.50864
0.666201
0.842436
1.58033
-1.72199
0.141658
-0.86718
0.706482
-0.21525
-0.11703
-0.230253
-1.17475
0.568725
-1.06505
0.496323
0.825143
0.817544
1.3482
-2.2402
0.892009
0.456008
-1.05364
0.597635
-1.9443
0.340145
0.0289121
0.687543
-1.11391
1.70305
-0.589142
-0.502595
0.601298
-0.0987029
-0.813643
-0.181876
-0.243135
-0.44809
0.691225
0.176654
0.00215765
-0.178812
-0.637826
-0.306413
0.755205
0.883892
-1.6391
1.54585
-0.791
0.536025
-0.895702
0.0285227
0.914724
-0.458716
-1.31284
-0.318022
0.66028
-0.777581
0.117301
1.92198
-0.638454
-0.912356
1.48047
-0.56811
-0.225059
0.258113
-0.0330534
1.46994
0.0404114
-0.633287
-0.60906
-1.0016
1.82954
-0.827941
1.22374
-2.23554
1.0118
1.17905
1.3644
-0.0423846
-0.0213449
0.0637295
0.179089
-1.42388
1.29808
-1.94701
0.648934
0.228841
-0.0867454
-0.15867
1.24931
-0.698482
1.40958
-1.46141
2.02574
0.41308
-2.10842
-1.73493
0.943062
0.791867
1.26893
-0.200789
-1.06814
1.8639
-0.346199
-0.957434
-1.046
-0.928585
1.12496
-0.259714
0.494636
-0.234922
0.628747
-0.575711
-1.42036
1.26169
1.76933
0.466563
-1.55744
0.645087
2.10457
-0.686033
-0.485032
0.766301
-0.281268
0.0644113
-1.26494
1.20053
-1.80292
0.337716
1.4652
1.59599
-1.59599
-0.716702
1.45853
-0.74183
1.08151
-0.0898394
1.32982
-0.684635
-0.64518
-1.86916
1.9519
-0.0827395
0.657564
-0.0824098
-0.575154
0.509635
-0.216754
-0.292881
0.211149
-0.642058
0.189834
0.890752
-1.79536
-1.68669
1.97553
-0.288838
-0.559009
1.31421
0.282451
0.00671481
-0.289166
-0.195284
-0.0182199
0.213504
-0.74291
0.80084
2.46486
-2.00817
-0.456687
-0.154874
-1.05548
1.21036
-0.448
0.48963
-0.0416299
0.235438
-0.539072
0.303634
-1.88539
0.686494
1.19889
0.223801
0.158757
-0.737761
0.252728
0.0597252
-0.294361
0.234636
1.2296
1.35334
0.260423
0.0220286
-0.0771612
-0.571481
0.648643
-0.9912
1.58268
-0.591483
-0.0181178
0.203197
-0.185079
0.840645
-0.432203
1.30025
-0.395178
-0.905067
0.0133654
-0.82315
0.304206
1.69426
0.856104
0.586588
-1.44269
0.918547
-0.814381
-0.104167
-2.0302
0.37521
-0.807688
0.319035
0.488653
0.97252
1.26218
-2.2347
-1.25032
1.16789
0.120607
-1.81617
1.69556
-0.243059
0.406602
0.535786
-0.584106
0.0483201
0.0475552
-0.603541
0.244312
-0.042716
-0.201596
-1.33142
-0.395798
1.22391
0.127581
-0.027521
-0.10006
-0.232018
0.00695835
0.343714
-1.41496
1.07125
0.516368
1.06936
-1.58573
0.8247
-1.40034
1.7276
-0.327255
-1.43039
1.107
-0.0357376
-0.0701088
-0.761785
-0.571395
-0.501389
0.132354
0.369035
-1.71927
0.728072
1.33945
-1.49432
0.857633
1.24694
-0.59045
0.592712
-0.00226182
0.812897
-2.1456
1.33271
0.283259
-0.516977
0.233718
0.65762
-1.29091
-1.2578
-0.0539569
-0.613001
-0.0560049
0.202874
-0.07844
-0.124434
0.760626
0.0154001
-0.0522972
0.0368971
2.11272
-1.1402
-1.0425
1.77379
-0.731289
0.517005
0.351207
-0.868212
-0.717971
0.474912
-0.417017
-0.0843719
0.928067
0.401748
-0.373763
-1.40729
0.756192
-0.095912
1.22761
0.809425
0.333134
-1.8703
2.07516
0.270192
-0.93509
0.664899
-0.177922
-1.64932
1.82724
-0.563289
0.589187
-0.0258974
-0.665163
0.0598976
-1.11465
2.16135
2.0156
-0.924215
-0.857725
-0.119798
0.0202338
-0.808887
0.788653
0.80863
-1.95361
-0.272257
-0.918199
1.19046
-0.180021
0.336618
-0.156597
-1.3005
0.107
1.1935
1.87118
-1.37003
-0.0383975
0.161747
-0.12335
-0.417034
-0.0309664
0.350793
0.713506
-1.0643
0.234703
-0.292524
0.057821
1.25293
0.711133
-1.96407
-0.735252
2.24518
0.173958
0.00269611
-0.573198
-1.14609
1.71929
0.633368
1.38914
1.90762
-1.39126
-0.679402
0.436266
-0.110586
-0.0382857
-0.893949
2.29955
0.273452
-1.53065
1.2572
1.74856
-0.287436
-1.46112
-0.994672
1.41385
-0.419175
0.786027
-0.918348
-0.848368
1.76672
0.196085
-0.286974
0.0908889
-0.570481
-0.970588
1.54107
-0.24873
0.0534457
0.0556423
-0.0857622
1.01065
-1.58114
-1.41132
-0.416721
1.82804
-0.125581
-0.949946
1.07553
0.305345
2.56357
-2.62144
0.0578685
0.412101
-0.290468
-0.121633
0.00751585
-0.597966
0.514942
0.45554
-0.622577
0.147449
-1.6161
2.04868
-0.432584
-0.508084
0.335601
0.559614
0.803724
-1.73303
-0.504238
-0.0897084
-0.044083
0.133791
1.06437
-0.254946
-0.395543
0.435663
-0.0401194
0.571441
-0.779018
-2.34074
1.15441
1.86581
0.397713
-0.251181
0.48662
-0.392429
0.909434
1.75764
-0.866884
-0.407878
0.0123342
-0.207227
-1.21313
0.379151
0.444041
-0.420178
-1.83811
0.0351943
0.112373
0.407317
-0.124058
-1.79877
1.27831
0.520457
1.43679
0.259637
0.359131
-0.112766
-0.246364
0.540065
-0.502981
-0.0370836
-1.63316
0.581208
-2.03875
1.03715
0.398536
0.177584
-0.57612
-0.0956835
0.537674
-0.441991
2.08866
0.0045244
-2.09318
0.332123
0.0190676
-0.35119
-0.264708
-0.497007
0.438276
-0.0375138
0.287073
-0.253799
-0.0332745
0.75393
-0.107645
-0.646285
0.0902724
0.196801
1.63913
-1.29883
-0.060313
-0.269154
0.329467
-2.06355
0.447453
0.00738366
-0.323419
0.686266
-0.0657549
0.193336
-0.0415813
0.049329
0.470681
0.314828
-0.785508
1.17707
0.516422
0.881952
-0.61176
0.410786
-0.359836
0.125393
-0.627989
1.19528
0.0426147
-1.2379
1.05633
-0.067619
-0.988713
-1.2153
-0.694996
-0.608795
-0.145072
0.753867
0.804446
-0.837906
0.0334602
2.19707
-0.0576191
-2.13945
-0.77753
0.0679777
0.709552
-0.968341
1.29281
-0.324472
1.15627
1.29404
-2.45031
0.492342
-0.847075
-0.528709
0.844048
-0.315339
0.412524
0.188955
-0.601479
-2.29014
1.28734
1.0028
-0.199831
-0.0539682
-1.68815
0.276837
0.584144
-0.360386
-0.223758
0.975362
-1.21804
0.242683
-0.153983
-0.375963
0.372252
2.19132
1.6388
-0.267667
-1.37113
-1.68981
0.289462
0.669759
-1.07543
1.51518
-2.3446
0.829413
-0.191874
0.542709
0.00147619
-0.751286
0.674125
-0.305384
0.406019
-0.291992
-1.64021
1.9322
0.935856
1.29865
-1.47439
1.55646
-0.0820676
0.0974459
0.105428
-1.19999
-0.506822
-0.220571
0.245149
-0.0245782
1.10375
-0.480851
-0.622902
0.0532763
0.00798508
-0.0612614
-0.118433
1.09379
-1.56297
-0.187722
1.7507
-1.5187
-0.48696
2.00566
0.935761
-0.683234
-0.252527
-0.394578
0.0405975
0.35398
-0.660062
0.158293
0.501769
-1.99523
0.102009
1.89322
0.0535693
0.356976
-0.410545
1.5817
-1.79336
0.211657
-1.03404
1.90958
0.381268
-2.29085
0.017659
-0.23823
-0.205849
-1.23006
1.4359
1.18667
-2.2019
-1.89364
1.64667
0.246974
0.277645
-0.0429424
1.41204
-0.852428
-0.0845364
-0.474717
0.559254
-0.0185853
0.293256
-0.274671
-0.365561
1.78049
-1.41493
1.47216
-0.81611
-0.656055
2.04523
-1.95674
-0.088489
1.541
-0.540306
-1.0007
0.0881865
-0.433048
0.344862
-0.549128
-0.0232934
-1.91526
1.6912
0.224066
0.119655
-2.03492
-0.549192
0.940195
-0.391003
-1.18152
-0.975864
0.356203
-0.314042
-0.0421609
-1.61455
-0.448999
-0.339255
0.223082
0.116173
-0.0248454
0.523928
-1.84184
1.77497
0.0668618
-0.380225
-0.284482
-0.0161069
0.357315
-0.0251925
-1.19471
0.276751
0.242097
-0.299186
0.0570889
-1.69743
0.889934
0.807499
0.697403
-0.0398387
-0.484918
1.40988
0.0600617
0.693608
-0.0602471
0.400172
-0.339925
-0.142373
1.05436
-1.19345
0.770228
0.42322
-0.322883
0.123053
2.18175
-1.24589
1.85311
-1.04021
-0.489242
-0.290296
0.779538
0.923726
-1.8107
0.886978
1.0883
-1.21388
1.91827
-0.854944
-1.06333
-0.00855628
-1.00704
-0.186408
-0.905638
1.3848
-0.479159
0.157505
-0.682659
2.23413
-2.11865
0.504096
0.819186
-0.311109
-0.15659
0.087769
0.257356
-0.00748965
-0.975361
-0.996611
2.59803
-1.26916
-0.714372
0.740146
-0.0257746
0.128165
0.38147
-1.31018
-0.787904
2.09809
0.427321
0.679984
-0.00275438
-0.261424
0.264179
1.64
-0.594307
0.0139135
0.580394
1.25956
-0.06428
-0.701338
-2.00792
0.321235
-0.413644
0.0209365
0.392708
1.14087
1.57558
1.13437
-0.861765
-0.272605
1.95985
0.0853813
1.18379
-1.67798
0.494195
-1.63746
-0.0394914
1.67695
-1.5717
2.03149
-0.459793
0.249539
-0.00579731
-0.243742
-0.973871
2.16054
-0.694548
-0.148365
0.842913
0.0663375
-1.54073
0.329804
-0.121961
-0.207843
-1.92241
2.50492
-0.582505
-0.459816
1.0473
-0.587484
2.32364
-1.02194
-1.3017
-0.0273445
-1.17455
1.2019
-0.503814
-0.0802922
-1.03144
2.18771
0.730738
-1.44744
2.18699
-0.963252
-0.343766
0.283453
-1.72908
0.0916212
2.35696
-1.00876
-0.0297356
-2.60246
0.460345
-0.0462392
0.692965
1.02512
-1.71808
1.0845
-0.239987
-0.844512
1.97123
-2.0614
0.0901647
-0.293945
0.0196301
0.274315
-0.387711
-0.932908
1.32062
0.675612
-0.550218
-0.605964
0.161367
0.444597
0.215964
0.572676
-0.78864
0.150922
0.20528
-1.79031
2.10392
-0.313604
-0.505339
-0.0579504
0.884853
0.396014
-1.28087
1.15779
1.04883
-2.20663
0.301453
0.967476
-0.0369531
2.09227
-0.00512758
1.56797
-1.56284
-0.0116211
-0.00649663
0.183134
-0.0155481
-0.167586
2.15816
-1.9493
-0.208854
0.885014
1.03326
-0.24786
0.100801
0.14706
-0.5746
1.59334
-1.01874
0.0294278
0.283682
-0.31311
1.09483
-1.75749
0.66266
-0.900339
-1.17076
2.0711
1.69241
-0.360215
0.594611
0.489888
-0.821696
-0.120797
0.942492
0.553521
-1.60901
0.179148
-0.812871
0.633723
0.352084
-0.149138
-0.202947
0.0427781
-0.546592
-0.149239
1.43116
-1.28192
-0.32258
2.26863
1.52768
-1.21978
-0.307894
1.23375
-1.08005
-1.01021
0.2922
0.71801
0.300589
-0.985225
0.255525
-0.0472786
-0.208247
0.106105
0.253025
0.290164
1.46105
-1.75122
0.406585
0.347345
0.246421
-1.76513
-0.852313
0.329852
0.522461
-0.627125
-0.456388
1.08351
0.921357
-0.450676
-1.66687
1.10786
0.498425
-0.392951
-0.105474
-0.903322
1.69469
-0.791364
-0.848742
0.862107
-0.848249
1.06523
-0.216984
-1.09523
1.7877
-0.692468
-0.0418844
0.398052
-0.356167
-0.573789
0.478106
-0.562441
-1.10184
1.73133
-0.629484
-1.07414
1.34012
0.996231
-1.00254
0.00631377
0.592115
0.00364382
-0.595759
-2.49483
1.64363
0.851201
0.0159085
0.506163
-0.522072
0.146719
1.37609
-1.74165
1.7047
-0.780975
-0.710219
-1.02471
-1.39933
1.3942
0.987826
-0.0387864
0.777449
0.215446
-0.992896
-0.621178
0.572065
0.0491124
0.00671105
-0.234491
0.22778
-0.450672
-0.762486
1.21316
-0.190133
0.923423
-0.73329
-1.48112
-0.542945
2.02406
-0.103056
0.695171
1.76556
0.392596
-1.63135
1.01888
0.612467
-0.352037
-0.307057
0.659094
0.0091893
0.323582
-0.424003
0.100421
-1.25202
-1.42939
0.978719
0.246785
0.370627
-0.28244
0.586566
0.517187
-0.0466531
-1.39988
0.0522115
0.518058
0.208605
0.222856
-0.431461
-1.2696
-0.958371
2.22797
-0.206556
-0.61514
-0.988965
-0.214991
1.20396
0.239719
0.350534
-0.590254
-0.0517755
2.22868
-1.43359
-0.79509
0.336981
1.30182
0.211295
0.422863
-0.904703
0.48184
-0.992718
2.0154
-1.02268
-1.10425
-0.5238
1.62805
-0.869775
0.341067
-0.809921
-0.200288
1.98058
-0.900947
-1.07963
0.833184
-0.573875
-0.259308
0.761742
0.089094
-0.850836
-0.303587
0.357157
0.480631
-0.775406
0.294775
0.298024
-0.0501788
-0.385182
-0.0167266
1.11578
0.864796
-0.703834
1.63486
-0.838534
2.22368
0.534808
0.298375
-1.69994
0.59569
1.4163
-1.23721
-0.188332
-1.21615
0.24781
0.346131
-0.895323
1.45065
-1.38624
1.62413
-0.0438015
-0.371051
-0.198218
-0.546904
-0.125883
0.672786
-0.547751
-0.0635225
1.46914
0.286662
-1.7558
0.055965
-0.481769
0.425804
-0.00760461
0.765375
-1.63111
0.865739
1.72818
-0.14648
-1.95036
2.08839
-0.138038
0.409504
-0.249073
-2.12087
-0.373957
-0.63144
1.7523
-0.0611071
0.854314
2.21467
-0.797874
-1.4168
-1.27328
-0.064011
1.3373
0.452298
1.00803
-1.46032
-1.3628
0.0623054
-0.313104
-0.285003
0.598108
-0.924363
1.19782
0.245871
1.0282
-1.27407
-0.0542999
0.266208
-0.211908
-1.92642
0.242672
1.68374
0.703567
1.00113
-0.441928
1.12185
0.419153
-0.582155
-0.225532
1.58356
-1.85204
0.110079
-0.859442
0.749363
0.841462
-0.34912
1.32625
0.0988443
-1.42509
1.41041
-2.24894
0.0417051
0.0107722
-0.718136
0.977666
-0.25953
-1.42329
1.21744
-0.0321301
0.516
-0.48387
-0.781364
0.364072
0.417292
-0.0126659
-0.652497
-0.480179
1.14994
0.493436
-0.0949
-0.273582
0.291241
-0.230336
-0.574074
-0.00765442
-0.106613
-0.35708
0.341661
0.0154191
0.364591
-0.417018
0.052427
-1.22134
0.728872
0.281393
-1.27036
-0.0277052
-0.51088
0.0478008
1.06583
-1.11363
0.59722
-0.64469
0.310717
-1.62789
1.31718
-0.534551
1.44046
-0.905908
0.344444
-1.64734
-0.400772
-0.0490816
-1.84456
1.23229
1.36574
-1.47308
-0.19379
-0.875546
-0.633091
-0.772301
0.324211
0.11039
-0.042728
-0.0676619
2.43873
-1.29786
1.6962
-0.398121
-0.443563
-0.28232
0.725884
-2.33362
1.01163
1.32199
-0.915148
0.505153
-0.312842
2.22242
0.287784
-0.173496
-0.775123
-0.628535
-0.0660123
0.74349
-0.753321
0.00983058
-0.23792
1.70706
-0.230846
0.727075
-0.49623
1.32382
-2.54461
1.1365
1.40811
0.428843
0.385864
-0.814707
1.12963
-0.494368
-0.635267
-0.982888
0.523073
-1.70836
0.0318641
0.729878
1.76702
-1.94494
0.751739
-0.339215
-0.788412
1.34193
-1.77073
1.27779
0.492932
1.17978
-1.8422
0.662417
-1.37062
1.44052
-0.0699014
0.845643
-0.988016
0.0232786
0.466065
0.469696
0.263296
-1.47108
0.643847
-1.96477
1.06741
0.897362
0.447593
-1.72088
1.36722
-0.0892439
-1.12857
0.240328
0.302283
2.02169
-0.673459
-1.34823
-0.445282
0.488753
-1.11588
0.271524
-1.89925
1.83524
-1.58526
0.666914
0.935774
-1.32381
0.752749
0.571061
-1.6325
1.02616
0.606344
-0.457733
0.0554377
-0.235459
-1.93564
1.35306
0.582578
1.1847
-2.15858
-1.76677
-0.0235437
2.31046
-0.795272
0.445167
0.172743
-0.617911
-0.0428567
-0.266852
0.309709
-0.578399
0.927529
1.04721
-0.825982
-0.497828
0.328509
0.347102
0.4421
0.660912
-1.10301
0.685316
-0.412759
-0.0602424
-2.12234
2.18258
-0.607822
0.807324
-1.51767
-1.29825
-0.875077
2.17332
0.452146
-0.589442
-1.28445
0.396593
0.887852
-0.100872
-0.0225349
0.123407
1.62517
-1.91716
0.0591844
-0.777321
0.954896
0.946226
-1.90112
-0.836404
0.122032
-1.5623
0.434466
1.12783
-2.0212
1.12086
1.01764
-2.01036
1.14516
-1.03508
-0.0744559
-0.0264161
-0.0586891
1.80725
-1.16843
1.45018
-0.281751
1.78266
0.00336676
-1.78603
-1.32547
-0.0273179
-0.347438
0.102714
1.49328
0.20204
0.056073
0.474263
0.953475
0.12803
0.953075
-0.233944
0.240655
-1.73695
-0.104889
-1.38028
0.532457
-1.46857
0.306784
0.352064
-0.658847
1.58581
0.0853491
-1.67116
-0.186146
0.180349
-0.644165
-1.39459
-1.49723
-0.224761
-0.87924
2.28965
-0.628618
0.849968
-0.22135
-1.83227
0.562671
-0.515097
0.957197
-0.561314
-1.23746
-0.853326
-0.608687
0.611362
-1.24216
-0.45527
2.01036
-0.258054
1.16119
-0.546232
-0.614957
0.187843
0.232478
0.455936
1.95387
-1.83327
0.0180633
-0.406626
0.575133
-0.936587
0.9618
-0.835992
-0.995015
0.395425
0.313337
-0.708763
-1.64326
0.0472656
-0.22252
1.45127
-1.22875
-0.117998
-1.83236
-1.33912
1.61647
2.73812
-1.20827
-1.52985
-0.272838
0.591873
1.53601
-0.823436
-0.712574
0.463897
-0.514076
0.0914059
0.091728
-0.38644
0.0940837
0.292357
-0.200193
0.977643
-1.00069
2.1854
-0.0627079
-0.251334
-0.507744
-0.13928
0.647024
-0.0392108
1.66438
0.331375
0.907147
-1.23852
-0.712955
1.06375
0.817178
0.776166
-0.657365
-0.194947
0.954584
-0.350589
-0.603995
-0.163957
0.122277
0.0416796
0.307411
-1.5597
1.25229
-1.75238
0.255157
0.392271
-0.933576
1.46603
-0.0165106
0.480408
0.209625
-0.838243
-1.88725
0.958667
-2.0285
0.640243
-0.817856
0.0749452
-0.788004
-1.07852
1.86652
-1.63874
0.332549
0.349606
-0.682155
1.96735
-1.51154
1.55867
-1.10637
0.297574
0.987137
-1.28471
0.399367
-0.712471
-1.08282
-0.310906
1.39372
0.329391
0.0164676
-0.345858
-0.944355
2.12266
-1.17831
1.50675
-0.953956
-0.552793
1.40607
0.0491928
-1.45527
-1.06209
-1.48253
-0.598602
-0.0143996
0.704462
1.13931
-0.0296215
0.151649
-0.122028
-1.26291
-0.299388
1.35481
1.13342
-0.995048
1.18854
-0.193495
-0.641489
0.655403
-0.157152
0.545242
-0.38809
0.444575
-0.67542
-0.214791
-1.72084
-1.63741
0.455417
0.0430087
-0.401342
0.0309411
0.12664
1.39469
-1.52133
-0.938118
-0.256594
0.851667
0.694187
0.127028
-0.447596
-0.169385
0.541269
-0.371884
0.165877
-0.662849
0.496972
0.469575
0.501429
0.582986
1.54073
-0.715586
1.66489
-0.857562
-0.189394
-0.451558
0.640953
1.41247
0.147339
0.0618272
-1.24044
0.852734
0.869249
-0.90846
-1.00395
-1.18634
2.19029
-1.2343
-1.09931
-2.15022
2.22735
-0.0771315
0.653518
-0.67957
0.553688
1.03495
0.505775
-0.60813
0.285198
0.322932
-0.570626
-1.15809
-0.15822
-1.0865
1.24472
0.85575
-0.428429
0.799877
-0.620729
1.09156
-1.73572
0.885055
-0.657041
-1.33584
2.42243
-1.08659
1.23739
0.930491
0.550358
-1.48085
2.1577
-1.2353
-0.922396
-0.98781
-1.28164
2.15569
-0.874048
0.592532
0.568657
-0.500385
0.483874
0.801702
1.52194
-0.373775
0.330918
0.0360427
-0.0206425
1.80351
-1.00163
0.859298
1.57943
-0.73108
0.376588
0.354492
0.388116
-0.877358
1.42541
-0.0991616
0.802247
-0.35708
-1.27946
-0.2528
1.53226
0.32692
-0.0647172
-0.262203
0.236986
0.175115
0.251728
-1.82343
-0.496804
0.544359
1.30573
-1.13747
-0.168261
0.289768
0.664816
-0.249061
0.136294
0.446292
0.417907
-0.8642
-0.913318
2.11209
-0.0727252
-1.07783
2.18875
-1.11092
-0.540396
0.75636
-0.173888
0.119589
2.05659
-1.02666
-0.637252
0.567403
0.562231
0.529732
-0.557437
-0.303738
0.261854
-0.535487
-0.23162
-0.000398079
0.844839
-0.267017
1.52403
-1.25701
0.251705
-0.19198
-0.614753
0.140035
-0.574626
-0.0239755
-1.76852
1.19532
0.425714
0.418334
-0.696041
0.0332722
0.662768
0.517831
0.0817794
1.56394
0.82976
-2.3937
-0.152481
-0.0410894
0.19357
0.343236
-1.38574
1.80662
0.931498
1.46019
-1.33355
-2.17559
-0.0213375
-0.0725511
-0.134017
0.855543
0.532172
1.1542
-1.68637
0.658597
-0.0613773
-0.0640128
-0.578448
-0.152632
-0.938205
-0.79225
1.09284
1.03125
0.742539
1.04587
-1.09334
0.0474697
0.329915
0.0117455
-0.119073
0.430754
-0.0661634
1.39347
0.36628
-1.75975
0.805877
-0.0623871
-0.386707
0.230738
0.155968
-0.590717
-0.00450854
0.595226
0.566498
1.15928
-1.72578
0.400368
0.520989
1.28155
-0.0366879
-0.449118
1.22796
-0.274486
0.0849689
-0.128948
0.0439792
-1.87451
1.00077
1.55622
-1.24256
-0.313667
0.0275608
-0.238731
0.21117
1.56256
-1.7118
1.00886
-0.153105
0.722125
0.836548
-0.203206
-0.0284138
-0.83745
0.353257
0.484193
-1.1081
-0.204891
1.99652
-1.02101
-0.975514
0.969423
-0.141255
-0.828168
0.735793
-1.25934
0.52355
-0.166733
0.918747
-0.00402292
-0.70646
1.55049
-0.844026
-0.490405
-0.347045
-0.779682
0.395048
0.332027
1.64162
-0.00140972
-1.64021
-0.577708
-0.210895
0.4195
0.151309
-0.0505089
0.679583
0.298083
-0.390257
0.443534
-0.0339381
0.0228422
-0.247462
0.257133
-0.705252
1.00283
0.0249264
0.419114
0.325251
-0.556656
1.35529
-0.111233
1.1571
-0.289512
-0.182102
-0.410069
0.856361
-0.340143
1.70741
-1.36727
-1.48519
-0.20297
-1.20899
1.86197
-0.652975
-0.400653
0.795702
0.535669
-0.107586
-0.0359456
-0.409473
0.445419
-1.51633
0.489665
0.168712
-0.207109
0.945793
-2.25598
0.708572
-1.85466
-0.863219
1.99083
-0.87446
0.885229
-0.467322
0.0220184
-1.15019
1.4576
-0.00234808
-0.255022
0.281563
-0.964797
-0.168352
-1.09212
1.26048
-0.3305
0.87749
2.51791
-1.66918
-0.84873
-0.376876
0.124615
0.382721
0.037896
-0.420617
-1.43596
0.267531
0.300065
0.052019
-0.0149683
-0.200838
0.215806
0.775202
-1.98419
0.154818
0.787917
0.0487434
-0.83666
-1.88965
1.5495
0.248228
0.0617695
-0.309998
0.620056
-1.7219
-0.222168
-0.00923393
0.231402
0.320167
-0.0719392
-0.0197007
1.27854
-0.977091
1.06305
0.861494
-0.461126
-1.81908
0.520833
-1.20999
0.960118
0.249869
1.12521
-2.12917
-0.871563
-0.530463
1.40203
0.132094
0.676318
-0.510095
0.427685
2.07831
-0.310766
-1.76754
-0.0208123
-1.71613
1.28857
0.117503
0.729493
0.806516
-0.249835
-0.0115891
0.238938
-0.483985
-0.581063
0.111453
-0.0774333
-0.0340195
0.0251483
-1.62171
1.59656
-0.0884673
0.498107
-0.40964
0.738394
-1.7858
1.04741
-0.201931
-0.945286
-0.0600579
0.0591556
1.19378
-0.586517
-0.331427
0.917944
-0.616522
-0.714899
0.758299
-0.444962
0.759672
-0.0573548
-0.702317
-0.93759
0.241549
-1.24104
-0.233692
-0.0393335
0.273025
0.217986
0.515808
-0.733794
0.621265
-1.53916
0.917891
0.0281563
-0.958317
0.319211
-2.24162
-0.699976
-1.49254
2.19251
-1.69646
0.0813989
1.61506
-2.27783
-1.39994
0.0293203
-0.471697
0.485003
-0.0133059
-2.28143
-0.621677
2.01515
0.640891
-0.326064
0.146613
-0.556682
-0.278592
0.79958
0.241521
0.143214
-0.650958
0.028598
-0.234902
0.206304
-0.392257
0.136431
-0.153811
0.181372
-0.457675
0.886518
-1.72714
1.05484
0.672306
-0.518986
0.371274
1.01989
0.3241
0.00282019
-0.445967
-0.162163
-0.839864
-0.444581
-0.927895
0.327844
0.600052
0.0500174
0.670372
-0.72039
-0.685034
0.850912
-0.127721
1.24923
2.05395
-1.72257
0.965361
-1.58188
0.739589
-1.02342
0.283828
0.157315
0.00443267
-0.0186355
-0.00270941
-1.85256
1.06456
0.197003
0.77242
0.0242282
-0.332633
0.308405
-2.86174
1.16374
0.0713429
-0.531498
-0.317898
-0.0375472
-0.354386
0.391933
-0.952788
0.366271
-1.86543
1.65064
2.04472
-1.08982
-0.351273
0.315916
0.0353569
-0.160144
0.116061
-0.237136
-1.77912
0.517448
1.26167
-0.221812
0.180722
-0.140915
0.533068
-0.392153
0.63723
0.371625
0.359074
-0.317321
-0.0417533
-0.442634
0.46756
0.202905
0.0259366
0.992828
-1.54453
1.83976
0.120092
-1.04062
-0.249087
1.68083
-0.0475526
-1.63327
-0.444211
-0.159296
0.603507
0.960002
-1.93536
-0.183149
1.03584
-0.852695
-0.047544
0.0018143
0.0457297
-1.39418
1.35229
0.0418932
-0.837407
1.14812
0.999592
0.472573
1.70938
-0.601766
-1.10762
0.0532992
0.160627
-0.213926
-0.484147
-0.519833
-0.0292944
-0.501786
-0.0180471
0.0245982
-0.544948
0.52035
-0.149221
1.6657
-1.51648
-1.53125
0.582229
0.949019
0.464692
1.62397
0.0753489
0.031128
-0.106477
0.971846
0.425154
-1.397
0.112974
-0.00258365
-0.720457
1.75183
-1.03137
-1.53209
0.252638
1.1735
0.480249
-1.35181
-0.00236713
-0.176374
0.178741
1.94181
-0.541013
-1.40079
0.760285
0.362106
-2.04901
1.0524
1.93836
-1.9986
-0.892279
0.216748
0.675531
-0.149984
0.125415
0.59831
-0.723725
0.0107267
0.153994
-0.164721
-0.0150979
0.184749
-0.169651
0.418405
-0.488837
0.0704321
-0.973567
2.06513
-0.491414
0.511648
0.20301
-0.343925
0.612019
-0.92594
0.313921
-1.00803
-0.762692
-0.624483
-0.0355788
0.155432
-0.0219365
-0.133496
1.76396
-0.357587
-1.40637
0.201882
1.10385
-0.394352
-0.226825
-0.952745
0.143858
0.947425
0.772797
-1.72022
-0.0286696
-0.00730766
0.0359772
-0.0367801
0.576845
0.299083
0.231918
-0.531001
2.11208
-0.900401
-1.21168
-1.98618