/*--------------------------------*- C++ -*----------------------------------*\
| =========                 |                                                 |
| \\      /  F ield         | OpenFOAM: The Open Source CFD Toolbox           |
|  \\    /   O peration     | Version:  2306                                  |
|   \\  /    A nd           | Website:  www.openfoam.com                      |
|    \\/     M anipulation  |                                                 |
\*---------------------------------------------------------------------------*/
FoamFile
{
    version     2.0;
    format      ascii;
    arch        "LSB;label=32;scalar=64";
    class       surfaceScalarField;
    location    "1";
    object      phi;
}
// * * * * * * * * * * * * * * * * * * * * * * * * * * * * * * * * * * * * * //

dimensions      [0 3 -1 0 0 0 0];

oriented        oriented;

internalField   nonuniform List<scalar> 
7520
(
-0.979221
0.640191
0.339031
-1.26072
-0.250929
1.51165
0.0178983
-1.6694
1.6515
0.268486
-0.0379263
-0.23056
-0.30182
1.44857
-1.14675
-0.11861
0.127821
-0.0092105
-0.262908
2.09789
-1.83498
-0.138566
-1.36944
1.508
-1.08424
1.10214
0.58884
0.377344
-0.966184
-0.213834
-0.0983914
0.312225
-0.246416
-1.80196
2.04838
0.701843
0.0245022
-0.726345
-0.126886
0.17452
-0.0476337
-1.82669
1.01772
0.808974
0.135698
1.60914
-1.74484
-0.177382
-0.0459577
0.223339
-0.020214
0.28196
-0.261746
-0.0974491
0.144573
-0.0471241
0.0834981
-0.26088
-0.518722
-0.179185
0.697906
-1.07807
1.21377
-0.0442713
-0.351819
0.39609
0.201099
-0.174727
-0.026372
-0.0346593
0.121953
-0.0872932
0.287974
-0.281622
-0.0063523
0.887547
1.16667
-2.05422
-0.0445879
0.359125
-0.314537
-0.0526624
-0.0447867
0.270247
-0.0438002
-0.226447
-0.988712
1.68058
-0.691871
-0.0626501
-0.0240968
0.086747
-1.761
1.94208
-0.181082
-0.279113
0.299087
-0.019974
-0.121607
-1.22805
1.34965
-0.587406
0.76677
-0.179364
0.293628
-0.5998
0.306172
0.917714
-1.6293
0.711587
0.097744
-0.365753
0.268009
-0.0604299
-0.13921
0.19964
-0.0314084
0.299894
0.569624
-0.0956628
-0.473961
0.327939
-0.0399651
1.71892
-1.11756
-0.601359
-0.362726
-0.75193
1.11466
-1.43951
1.572
-0.132483
0.0308825
0.136186
-0.167069
0.324379
-0.100592
-0.223787
-1.33154
0.342827
0.310292
-0.0852253
-0.225067
1.74212
0.0612518
-1.80337
-0.717771
0.180478
0.537293
-0.0920606
0.0963775
-0.0043168
1.04025
0.523634
-1.56388
0.0172227
-0.135833
-0.805739
0.0808859
0.724853
0.314193
-1.2712
0.957009
-0.0485359
-0.137729
0.186265
-0.15098
0.0883298
-2.44186
1.17646
1.2654
1.82185
-1.14146
-0.680393
-0.0241117
-0.0678902
0.0920019
-1.09494
0.973334
0.975657
-0.273813
0.0258915
-0.117952
0.00544979
-0.132336
1.12495
-2.25178
1.12683
0.156035
1.58608
-1.33093
1.02214
0.308784
0.354748
-0.265563
-0.0891844
-0.569839
0.884032
0.77084
-1.20644
0.435596
0.38209
-0.104004
-0.278086
0.375112
-0.0239359
-0.351176
0.76334
-1.66673
0.903387
0.166944
-0.146044
-0.0209004
2.31191
-0.937683
-1.37422
0.495146
-0.810135
0.31499
1.39015
-1.21692
-0.173233
-0.902513
0.0967747
-1.61238
-0.829481
0.680706
-0.0211212
-0.659585
0.27649
-0.692857
0.416367
-0.0203849
-0.258728
0.305869
-0.326083
0.293896
-0.0236494
0.046355
-0.0466818
0.000326802
1.30523
1.00668
-1.42459
1.67878
-0.25419
1.20426
0.617588
-1.06226
1.15791
-0.0956449
-0.0324398
-0.0712492
0.103689
1.28406
-1.53047
0.272366
0.225263
-0.127519
1.01021
-0.125298
-0.884917
0.00849993
0.114228
-0.122728
-0.603915
0.371092
0.232823
1.50524
-0.741905
-0.799211
0.679769
0.119442
0.838073
-0.736922
-0.101151
-0.115747
0.145536
-0.0297886
0.206639
-0.278641
0.0720014
2.13605
-1.35873
-0.77732
0.576032
-0.535509
-0.443712
-1.33499
0.765152
-1.74222
1.47931
0.207182
-0.0943648
-0.112817
-0.292332
0.0784988
-0.207816
0.206728
0.00108763
-0.506906
0.60079
-0.0938841
1.99713
-1.07942
-0.271028
0.0759674
0.19506
-0.802159
0.283438
0.192017
-0.0314185
-0.160598
0.0661054
0.614601
-0.722941
0.318707
0.404234
1.17719
-2.07447
0.897285
0.0778311
0.123268
-0.109641
-0.60813
-0.288207
-0.0100466
0.298253
1.16056
-0.57172
-0.0542603
0.392044
-0.337783
0.0192165
-0.228836
0.209619
0.144431
-0.138491
-0.00594
0.751849
-1.84695
1.0951
0.428691
-0.472963
-0.348918
-0.0964541
0.445372
-0.136529
-0.134499
0.101356
0.293622
-0.394979
0.175965
0.0387193
-0.214684
-0.0746374
0.250602
-0.644594
-0.0783478
0.370643
-0.678382
0.307739
-0.716339
1.34605
-0.629715
0.315786
-0.369016
0.0532297
-1.08202
-0.252967
-0.0434615
-0.0651201
0.108582
1.40715
-0.366903
-0.642569
0.493769
0.1488
-0.0307425
0.240254
-0.209511
0.341423
-0.0898895
-0.251534
0.19744
-1.86684
0.354741
-1.79426
-2.03732
0.891744
1.14558
-0.901886
-0.42904
-1.22586
0.753496
0.472365
1.63565
0.167002
-1.80265
0.224806
-0.285236
0.256516
0.432462
-0.688978
-0.146963
-0.826072
0.973035
-0.223282
-1.00258
-1.80732
0.0463223
0.0411942
0.00516079
0.0813362
-0.163553
0.0822167
0.319789
-0.368325
0.581123
0.25695
-0.185151
0.153742
-0.0879668
0.0433263
0.0446405
0.82701
-0.455643
-0.371368
-0.611018
-1.21567
0.532709
-0.679672
0.0925737
-0.636209
0.543635
-0.175503
-0.0869901
0.262493
-1.47579
0.701531
0.774257
0.327274
-0.629094
-0.108279
0.534581
-0.426302
0.161455
-0.196114
0.57169
-0.262069
-0.309621
1.26766
-0.257442
0.269149
-0.354374
0.955185
0.187574
-1.14276
0.331912
-0.3765
-0.387724
-1.12383
1.51155
1.22244
0.722008
0.759064
-0.482574
-0.985936
0.39853
-0.681599
0.953363
-0.271764
-0.0312403
-0.0214294
0.0526697
0.274309
-0.339945
0.0656358
-0.72792
0.794025
-0.303791
-0.167867
0.471658
-0.242321
0.0668187
-0.885445
0.978019
0.271899
-0.873014
0.601115
-0.510894
-0.0930206
0.735262
-0.441634
0.181557
-0.0146126
0.228944
0.0383246
-0.267268
-0.0681238
-0.438782
-1.03231
-0.0765212
1.10883
0.144654
0.237436
-0.790059
-0.876668
-0.869569
-0.60622
-0.016766
0.11726
-0.100494
0.874423
-0.401476
-0.472947
-0.883162
0.166823
-1.13424
2.11768
-0.983434
0.400069
0.171621
0.310452
-0.265306
-0.0451458
-0.725598
0.615957
0.674454
-1.03718
1.79689
-0.0410827
-1.75581
-1.76303
2.1875
-0.424471
-0.0349075
0.116244
0.482387
1.08923
-1.57162
0.0419309
-0.202336
0.160405
-0.175295
1.72984
-1.55455
0.000412471
0.15122
-0.151632
-0.903703
1.28128
-0.377577
-0.0324455
-0.693152
-0.172157
-0.860154
0.311277
-0.22399
-1.69273
1.91672
-0.284247
0.42882
-1.77753
0.987468
0.306158
-0.0140251
-0.292133
0.154927
-0.135711
0.0717099
1.65598
-1.72769
-0.494329
-0.654106
1.14843
-0.563182
0.459306
0.103876
2.30839
-1.48332
-0.825075
0.549876
-1.0442
0.150054
-0.158861
0.00880716
0.130574
0.770272
-0.900845
0.0852422
-0.0862956
0.00105341
0.865896
0.790678
-1.65657
-0.263103
-0.536107
-0.0870075
0.239651
-0.152643
-1.00496
0.663426
0.341532
-0.109858
0.0552612
0.0545965
0.789135
0.0852884
1.10905
-2.12964
1.02059
-2.47991
1.08444
1.39547
-1.06175
-1.41816
-0.389596
0.41056
-0.0209645
-0.332843
0.397113
-0.0642699
0.486478
-1.10522
0.618739
-0.0154012
1.13884
-1.12344
-0.513294
0.492173
1.06798
-0.112796
1.0061
0.961007
-1.9671
-0.234219
0.125092
0.109127
-0.0836863
-0.921272
1.79302
-0.376749
-1.41627
0.169671
-0.12774
0.0138253
-0.256653
0.210695
0.963997
0.829025
0.305274
0.536811
-0.842085
0.404409
-0.0452836
-0.130203
0.0473511
0.0828518
-0.290537
0.358772
-0.068235
-1.79056
0.876731
0.913831
-0.0529122
-0.279931
0.895253
-0.52461
1.00189
-0.666745
-0.335149
0.160523
0.163856
-1.91615
1.88136
0.0347947
1.00886
-0.73696
0.000686179
-0.114475
0.113789
0.00818643
0.0923842
-0.100571
0.139618
-0.243622
1.6082
-0.483255
0.0631588
-0.205877
0.142718
-0.00659328
-0.0813735
-0.383267
0.284875
0.880813
-1.00611
-0.688859
0.673458
0.323081
-0.0941371
2.09789
0.0160466
-0.0196985
0.00365182
-0.37834
1.25915
-0.246199
0.161371
0.0848275
0.400723
-0.194083
0.0854699
0.484154
0.835081
-0.578565
0.485801
-0.411141
-0.0746596
0.324029
-1.22773
-0.128129
0.229485
-1.52752
1.30353
0.139325
0.0107292
-1.66608
0.300192
-0.330934
-0.177513
-0.0552091
0.232722
-0.609357
-1.18121
1.14175
0.994299
1.56428
-0.86275
-1.80196
0.396038
-0.450298
-0.266445
-0.185725
0.45217
0.185423
-0.294953
0.109529
-1.23068
0.478753
-0.221177
-0.28659
0.507767
0.876444
-0.4991
-0.149796
-1.7087
1.85849
0.811014
0.168862
-1.46208
1.29322
0.839993
1.10209
-0.895568
1.39091
-0.908523
-0.0506178
0.428772
-0.378155
-0.861317
0.830411
0.0309063
0.120154
-0.0569951
-0.0956786
0.365162
-0.269483
-0.341265
-0.166624
0.507889
-0.497854
1.72029
-0.297369
-0.405798
0.703167
0.229961
-0.199079
0.203511
-1.26577
0.0547843
-0.184987
0.0120735
-2.01732
1.11572
0.901601
0.509428
-0.484926
0.00995389
-0.0842654
0.400051
1.04109
1.26731
1.58226
-0.469997
-1.11227
0.154189
-0.0519921
-0.102197
0.832271
0.557882
-0.452293
0.185848
0.491404
-1.52852
1.03712
-0.141255
0.103761
0.037494
0.572541
0.932704
-0.259437
-0.106316
0.76942
-0.464147
-0.55151
1.43906
0.194596
0.0125862
1.91045
-0.733268
0.181427
-0.172927
1.74903
-0.166772
0.126209
0.454548
0.0312523
0.0213631
0.333385
-1.68097
-0.96266
1.00714
-0.0444838
0.0078885
-0.153932
1.82665
0.0841358
-1.91078
-0.779026
0.481657
0.265807
0.0756161
-0.344635
0.0790715
-0.211053
-1.00587
1.59028
-1.62055
0.0302763
0.12295
-0.453044
0.330094
-0.809026
1.38157
-0.865633
1.61748
0.206635
-0.083685
0.752371
-0.433664
1.77382
-0.48976
0.00371555
0.172926
-0.176642
-0.139042
-0.0457527
0.184795
0.152034
0.00215505
0.182323
-0.840863
0.14628
0.121811
-0.26809
0.559314
0.786739
-1.77954
1.39181
0.169847
-0.518765
-0.476431
1.24727
-1.14155
1.33326
-0.191713
0.563907
-2.03259
1.8573
2.17279
-0.867558
0.82497
0.893952
-0.0856754
0.276293
1.31398
-1.41267
0.349121
1.06355
0.304888
-0.348688
-0.38849
0.335577
-0.255729
0.181092
0.162243
-1.27981
0.708231
-0.985981
0.27775
-1.81392
0.865706
0.948211
-0.596261
-0.610175
0.115987
-0.140099
0.0962783
-0.753044
0.928821
-0.175777
-0.619233
0.510954
1.25327
0.919515
-1.76303
0.0598376
0.0845933
1.62082
-1.40478
-0.216033
-0.215457
1.30469
-1.22209
2.05218
-0.830084
-0.818421
0.914635
-0.0962143
0.262413
-1.35735
0.158927
0.238187
-0.294311
0.470304
-0.175993
-0.193361
-0.0852799
1.33553
0.441765
-1.1117
0.669939
-0.00141432
-1.62501
1.62643
-0.0667504
-0.141066
0.0893843
-0.491488
0.402104
-0.654958
0.95466
-0.299702
0.24059
-0.1683
-0.07229
-0.151797
0.65228
-0.500483
-1.95502
1.70409
1.83914
-0.490157
-1.34898
0.617069
-0.888262
0.271193
-0.0236467
0.20907
0.176616
-0.68751
-0.825489
1.69138
0.227995
-0.0359779
1.79689
-0.97029
1.10086
-0.0425715
0.0425715
-0.829566
0.233529
-1.65812
2.21568
-0.884977
-1.3307
-0.454966
0.972468
-0.517502
-0.0202323
0.230179
-0.209947
1.07365
-1.12191
0.0482562
-0.418938
-0.380867
0.799805
0.951558
-1.98639
1.03483
-0.00703796
-0.854279
-0.256003
0.116962
-0.333434
-0.45336
0.786794
0.636282
0.549546
-1.18583
-1.32332
-0.436029
0.736512
-0.300483
-0.59241
1.34399
-0.751582
1.39959
-1.32788
-0.0952856
0.241565
0.122488
0.454025
-0.0789133
-1.19445
0.723695
0.470751
-1.34561
1.6312
-0.285582
-0.0223008
0.174962
-0.152662
-1.43775
-0.814027
-0.0611014
0.00843906
-1.61613
0.481888
-0.412197
0.316518
-0.41659
-0.40183
-0.0799994
-0.0612558
-0.560639
1.56673
0.0550246
-0.406843
-1.55054
0.107254
1.44329
0.440799
-0.685542
0.244743
-0.905684
0.224085
0.231382
-0.615378
0.383996
1.69171
-0.109735
-1.58198
-0.0221673
-0.132266
0.154433
-0.300211
0.456818
0.429062
-0.88588
-0.331008
1.34873
0.316543
0.695752
0.711401
-0.0266913
1.54851
0.200529
-1.39019
1.38878
-0.201172
-0.0452935
0.246465
-0.235095
-0.0473503
0.282445
-1.65704
0.434947
-0.354429
0.258766
-0.608355
-0.354305
0.279619
0.901813
-0.498767
-0.403046
0.217847
0.110093
-1.03865
1.88307
-0.844415
0.207258
-0.253011
-0.102597
0.376906
0.284278
-0.578589
-0.0612722
-0.232261
0.293533
-0.208088
-0.0328283
0.240916
0.625127
-0.650167
0.0250402
0.010315
0.0712724
-0.0815874
-0.324455
0.359721
-0.0352661
0.513126
-0.84097
0.327844
0.375239
-0.0703518
-0.0863733
0.342043
-0.25567
0.977882
-1.08625
-0.967973
-0.431331
-0.0775467
0.508877
0.238174
0.190646
-0.326317
-0.236865
0.940902
-0.0390889
-0.111928
-1.1892
1.30113
-0.312431
0.0242243
-0.158195
-0.486399
-0.335366
0.18357
0.212653
-0.212241
-1.18337
-0.046751
-0.107076
0.153827
1.20818
-1.0206
1.05076
0.788379
0.265389
0.736506
-0.149026
-1.59876
1.74779
0.308717
0.697881
-1.0066
-0.44095
-0.961123
0.44788
0.513243
0.727257
-0.286458
-0.0179842
0.0817968
-0.0638126
2.23181
-1.19361
-1.0382
0.152459
-0.347253
0.194795
0.265272
0.686682
-0.951954
0.0806341
0.115682
-0.196316
1.64786
0.0402304
-1.68809
0.268438
0.0135216
-0.290153
0.345177
-0.1026
0.190216
-0.0876154
0.3568
-0.0509307
0.0177751
0.149724
-0.167499
-0.733827
-0.264393
0.99822
1.15059
0.541123
0.992863
-1.10479
0.22089
-0.875848
-1.833
1.68321
-0.0654824
-0.163353
0.339254
-0.614117
0.274863
0.79889
0.765391
1.14072
-1.2827
0.14198
1.2486
-0.552852
-0.172248
0.120256
-0.0603348
0.215494
-0.155159
-1.40292
-0.293261
1.69618
-0.382796
0.499369
-0.116572
-0.00252312
-0.0400483
0.573013
0.875554
-0.163595
-0.0706233
1.17918
-2.13712
0.957938
-0.872714
0.11539
0.757325
1.62446
-0.515413
0.0612151
0.234885
-1.06096
-0.304138
0.00732097
0.296817
0.0280724
-0.254519
-0.653516
1.09528
0.0289509
0.0562913
0.244757
0.0811347
-0.325891
0.150648
0.923002
-0.193127
-0.485254
-0.286669
-0.431837
0.42179
0.498381
-0.914972
0.172599
-0.0966312
-0.0504786
0.261174
-1.97916
0.892918
-0.159724
0.34913
-0.189406
0.156399
-0.116667
-0.0397319
0.277955
0.860885
-0.0806522
0.012762
-0.0657867
-1.48312
1.5489
-0.231145
-0.363774
0.594918
-0.0779463
0.089136
-0.0111896
-0.229326
0.937557
-0.262776
-0.276938
0.539714
-0.309557
0.540939
-0.819597
1.705
-0.885404
-0.926884
0.378087
0.548797
1.68805
-0.0524016
-0.264875
-0.04744
0.312315
0.355373
-0.0617504
-0.200988
-0.261786
0.962502
0.716283
0.52619
-1.34792
0.821729
-0.811428
-0.214225
1.02565
-0.0571344
-0.463265
0.520399
0.239772
0.0989167
-0.338688
0.661384
-0.0543191
-0.607065
-0.157823
0.212607
-0.89529
0.123965
-0.00201278
-0.177164
-0.00782371
-0.152228
0.446284
-0.294056
-0.274155
0.323913
-0.0497578
0.370807
-0.218822
-0.151985
0.746724
-0.46209
-0.0177099
-0.0289719
-0.538322
-0.332672
0.870993
1.23667
-0.958719
-0.0541154
-0.338606
0.392721
-0.251381
-0.485541
-1.306
1.46203
0.639851
-0.207388
-1.2715
0.878966
0.392537
0.359205
-0.130925
-0.228281
1.77357
-1.77357
-1.68044
0.0680615
-0.883845
-0.130077
-0.697259
0.827337
0.525653
-0.579781
0.0541282
0.0960647
0.31379
-0.0897034
-0.224086
-0.0501719
0.249563
-0.199391
-0.581533
1.13449
-0.552953
-0.258732
-0.0501075
0.30884
0.782177
-0.519764
-1.07449
0.263064
-0.0504417
-0.262495
0.312937
-0.146125
-1.26655
-0.677264
-1.03162
0.354354
0.871804
-0.0837143
0.25191
-0.168196
-0.30948
0.385418
-0.0759379
-0.30037
0.213363
-0.0943582
-0.234147
0.0566343
0.0467799
-0.0446952
-0.144568
0.189263
0.177221
0.0382726
-0.222664
0.136291
0.145877
-0.2161
0.0702232
0.050719
0.0479033
-0.0986223
0.261287
-0.151442
-0.109845
-0.0777051
0.206618
-0.128913
-0.750292
1.02804
0.735732
-0.973191
0.237459
-0.185626
-0.0867431
0.272369
-0.0175088
-1.92158
1.93909
0.826894
-0.631759
-0.195135
0.291384
-0.0953966
-0.199556
0.10199
-0.133408
-0.0641774
0.216636
0.368165
-0.892952
0.524788
-0.427787
-1.48837
-0.425928
0.958412
-0.532484
-0.199728
0.063199
0.453233
-0.309267
-0.143967
0.0230318
-0.561354
-0.609652
-0.314301
0.370094
-0.0557925
-0.584862
0.363685
-0.070787
0.564556
0.161701
-0.153514
-1.35956
0.000824885
-0.310514
0.594791
-0.028628
-0.227375
-0.244838
0.0896794
0.250136
-0.33385
-0.0956562
-1.0523
0.302007
1.86208
-0.132233
-1.69273
2.15229
-1.06174
-1.09055
-0.164855
0.535947
-0.170385
-0.732128
0.510839
-0.578963
-0.281192
-0.022946
-0.478936
-0.555446
1.03438
-0.0613398
-0.127691
0.18903
0.0349565
-0.936842
-1.77448
-0.3486
-0.346974
0.695574
0.186442
-0.417587
-0.281552
-0.0448496
0.326402
0.530253
-0.101562
0.222056
0.137149
1.95423
-1.00267
-0.971619
0.492683
-0.278992
-0.058491
0.337483
-0.0520888
-0.0265575
-1.09535
-0.295527
-0.0528553
0.348383
-0.107633
-0.0433468
0.905823
-1.21759
0.311765
-0.63352
-0.0614105
1.83498
0.467262
-0.799933
1.137
-2.02858
0.891578
-1.9727
1.19715
0.77555
0.190602
0.116129
-0.306731
0.157086
0.963153
0.108744
0.811778
-0.920522
-0.0333672
-0.17251
-0.115627
0.732696
-0.0206458
-0.44891
0.469556
1.18772
-1.33674
0.7513
-0.188538
0.227992
-0.0394537
-1.47995
-0.200492
-0.695257
-0.706837
0.275506
0.145688
0.00377899
-0.149467
-0.673556
0.34979
0.323766
-0.429296
0.378678
-1.06119
-0.621138
1.68233
-0.159459
-0.177851
0.157619
0.458473
-0.487041
0.0285684
-0.797076
1.66278
-0.194957
-0.960396
0.505429
0.526086
0.369167
0.610666
-1.1922
0.014025
-0.199342
0.185317
1.32186
-0.132108
-1.01464
-0.378024
-0.10098
0.479004
-0.0597437
0.240836
-0.0470938
0.262634
-0.21554
-0.274693
-0.0513897
0.213444
0.621636
-0.524427
0.342847
-0.0736979
-0.414173
0.329907
-0.175768
0.0171181
0.15865
0.292426
-0.106743
-0.185683
-0.172897
-0.0466862
0.219583
-0.209755
-0.0298917
0.239647
0.228505
-0.018886
-0.292514
-0.160529
0.380862
1.18162
0.394305
-0.309519
-0.0847856
0.355553
0.348915
-0.704467
-0.312716
0.421005
-0.108289
-0.345722
0.295752
-0.731781
-0.151265
0.40245
-0.0826603
0.219831
-0.0583755
-0.158984
-0.0433518
1.72523
-0.934547
0.656442
-0.720707
0.0642649
-1.57687
0.270876
0.0125734
0.0316502
-0.0442236
-0.0552127
-0.0546451
-0.825457
-1.14724
0.401967
-0.0700554
-0.764634
-0.763888
0.324801
-0.0800442
0.0763708
0.382102
0.921567
-0.803905
-0.798452
1.32464
-1.62209
0.219171
0.489619
0.161193
-0.650811
-0.0130274
-0.230928
-0.409112
0.64004
0.173102
-0.0303841
-0.733001
-0.641736
1.37474
-0.92957
-0.969854
1.89942
0.458652
0.58376
-1.04241
0.0233214
-0.288785
-0.0255162
-0.284246
-0.294343
-0.210225
-0.107732
0.317957
0.836335
0.1367
0.301432
0.151802
-0.254451
-0.659113
0.138671
-0.122624
-0.578933
1.21134
-0.632405
-0.171531
-0.249878
-1.61667
0.12673
-0.0094706
-0.493134
-0.111852
-0.283126
-0.827988
0.303377
-0.168669
-0.964656
-0.318321
1.28298
-0.355595
0.866435
0.610123
0.362345
-0.340594
-1.03563
-0.943535
-1.25457
1.30283
0.101084
0.0665877
0.0465075
-0.11365
0.0671425
-0.701217
0.622867
0.0783504
0.747626
-0.780072
0.152186
-0.31191
-1.19
-0.0815016
0.179585
-0.230336
0.0507517
0.566664
0.058463
-1.3586
-0.0401529
1.39876
0.0475649
0.129656
0.0421164
0.281416
-0.323533
-0.279985
0.492661
0.0833703
0.105922
0.0418295
-0.147751
-1.23459
0.857845
0.163472
0.00962985
-0.20264
-0.144613
-0.379832
0.107741
0.0648576
-0.177165
-0.274392
-0.147446
0.0598309
0.352159
1.5292
-0.677504
1.50247
1.01146
0.447324
-0.828191
-0.066217
-1.29239
0.60425
-0.360285
0.428766
-0.0684816
-0.109917
-0.0285742
0.248307
0.03001
-0.0686432
0.156973
-0.025285
1.44332
-1.41804
0.0926738
-0.785826
-0.136528
-0.290758
-0.077567
-0.273847
-0.313265
0.398989
-0.0857236
0.0404182
-1.49877
1.45835
0.549728
0.178302
0.347351
-0.957273
-0.559708
0.999895
-0.440187
0.0979336
0.0652536
-0.181921
-0.590067
0.450716
0.139351
0.401781
-0.501957
0.100176
-0.230279
-0.558226
0.788505
-0.306671
-0.0698293
-1.9961
0.028777
0.236012
-0.232297
0.0677066
0.191692
-0.0282196
0.372055
-0.719029
2.16642
-0.968396
-1.19802
0.212984
0.484241
0.293413
-0.251297
0.246124
0.12397
-0.215726
-0.00806096
-0.313449
0.293064
-0.59904
0.809287
-1.03957
0.174432
-0.11387
-0.0605625
-0.406971
-1.70224
0.823403
0.878833
-1.70471
1.6872
-1.06118
0.557323
0.503856
-0.627738
0.0293287
0.598409
0.270865
0.670037
0.304601
0.221992
0.602123
0.574733
0.0749126
-0.28818
-0.0210864
1.02319
1.14323
-0.0223135
0.0696647
1.24122
-1.07422
-0.0478862
-1.37468
1.42257
1.08003
0.101583
-0.323364
-0.0888331
-0.246865
-0.395985
-0.296968
-0.269576
-0.118914
0.230834
-0.985829
0.754995
-0.61525
2.22622
-1.37457
-0.85165
0.030099
0.178028
0.0521509
0.61518
0.178845
1.61724
-1.54918
0.995703
-1.92527
-1.2117
-0.0039102
1.21561
-0.832743
0.326681
0.506061
-0.140624
0.1328
1.9666
0.0133713
-1.97997
-1.0227
1.61654
-0.593845
0.0643579
0.259555
-1.26043
0.668022
-0.0117372
0.151062
-1.31084
0.169288
0.00314175
-0.0324385
0.0292967
-0.158686
0.216936
-0.0582504
0.0582971
-0.424082
0.365785
0.655277
0.351868
-0.525674
-0.147882
-0.0212768
0.909037
-0.916075
-0.0820219
-0.081531
-0.285763
0.0606964
0.150456
0.630515
-0.780971
0.105857
0.458945
-0.564803
0.138135
-0.552086
0.413951
-0.48421
-1.39236
0.54709
0.845275
-0.0344139
0.800792
0.30746
-1.10825
-0.68287
0.255618
-0.282454
0.0268361
0.201883
-0.0414781
-0.287847
0.00629481
-0.323842
-0.765636
0.187071
-0.467473
0.844233
-0.37676
-0.772489
-0.213448
1.92371
-0.807995
-0.106366
0.208235
-1.2682
-0.0819313
-1.2408
1.32273
0.150745
0.0752288
-0.225974
0.770895
-0.458214
-0.312681
0.273041
-0.0327867
-0.12805
-1.09656
0.324074
-0.713874
1.16175
-0.0489091
-0.334358
0.335661
0.268631
0.023795
0.889054
-0.407397
0.0665835
0.681043
-0.925329
0.317199
-1.89463
0.924779
1.56759
-1.52717
-1.62346
1.59817
-0.125631
-1.50726
0.255059
1.2522
0.444166
0.514246
0.0416829
-0.889756
0.759679
-0.161886
-0.130246
0.292132
-1.12489
0.432411
0.692479
0.132236
0.643009
-0.775246
-0.0751018
-1.17947
0.832655
0.012235
-0.84489
0.231966
0.686152
-1.16258
-0.231441
-0.0188093
0.0740706
1.61246
-1.57223
-0.333931
-0.977184
-0.415181
0.652134
0.0350039
-1.2467
1.11178
-0.310987
-1.8573
0.0553344
-0.175685
-0.967074
0.370346
0.21588
1.833
0.264883
-0.0191228
-1.07623
0.169138
-0.130419
0.104548
-0.445813
0.324668
-0.602423
0.277755
-0.16326
0.00553099
0.157729
0.278916
-0.326356
-0.00260202
-0.287935
-1.10401
1.19795
-0.0939433
-0.737321
0.80505
-1.36901
0.563959
-0.849392
-0.073961
0.128557
-1.36917
0.0479682
1.3212
-0.413951
0.977859
-0.686766
0.721722
0.154166
0.904975
0.64372
-0.930389
-0.829799
-0.214457
1.04426
-0.831429
-1.29338
0.560379
-0.152323
0.156027
-0.00370379
0.097826
-0.109016
0.699858
-1.35337
0.106185
-0.535316
0.429131
-0.486497
0.312439
0.174059
-1.03722
0.478995
0.045209
0.0304929
-0.261053
0.44742
1.77379
0.192803
-0.77013
0.878875
-0.304554
0.101914
-0.745433
1.35311
-0.607679
-0.0900316
0.0804793
0.101078
0.415383
-0.0192928
0.941035
1.17664
0.487354
-0.921017
0.252548
-1.73587
-0.208116
0.161365
0.00111423
-1.02172
-0.243858
-0.97373
-0.250182
0.0650315
0.849494
-0.402074
-0.619298
-0.122764
0.7444
0.219689
-1.67516
0.311693
1.36346
-0.0248922
0.517554
0.353491
-1.36465
-0.398374
0.824534
-0.373931
-0.450604
0.953223
-0.333746
-0.619478
-0.216896
0.0485962
0.709733
-0.667714
-0.0420188
-1.72775
0.784037
0.943708
0.917831
0.78717
0.00116222
0.144525
0.816197
-0.520445
-1.40585
0.602891
0.802956
-1.91672
1.62346
0.606916
0.726642
-1.33356
0.837242
-0.740468
1.61344
-0.72921
-0.884228
-1.07366
0.21605
-0.0957942
0.0752623
-0.106449
0.231541
-0.0614824
0.157251
-0.0957682
0.0590474
-0.0829834
-1.22998
-0.139461
0.169346
-0.189992
-0.0416287
-0.0446669
0.964788
-0.255481
-0.709307
0.863509
-0.513719
-0.169643
0.145996
-0.111128
1.25185
0.20536
-0.0546148
-0.209997
-0.827224
-1.50472
0.540061
-0.0517274
-0.123
0.140586
0.151489
0.148894
-0.102387
-0.547651
-0.999085
0.135443
-0.0997118
-0.0357316
0.212626
-0.659391
-0.856063
1.51545
0.172654
0.0190382
-0.0256147
1.01223
0.978386
-1.99061
-0.574189
1.03284
0.258437
-0.104694
0.281917
-1.03206
-0.646357
1.67842
-0.907257
-1.03161
0.476162
0.290856
-0.110712
-0.180144
0.30015
-0.701626
-0.204396
1.1746
-0.369552
-0.219827
0.129938
-0.216067
-0.757125
-0.00646679
1.84033
-1.68321
-0.157121
-0.921434
-0.583283
0.194625
0.194149
0.0756252
-0.992961
-0.241564
1.23452
0.262944
0.432872
-0.031091
-1.54933
-2.07465
0.816296
1.25835
-0.214249
-0.00648905
0.220738
0.995976
-0.623751
-0.372225
0.129856
-0.1985
0.0976833
0.109045
0.946443
-2.00763
0.820763
0.132461
-0.444615
-0.527005
-0.163949
0.0362584
0.176231
0.730633
-1.39002
0.026486
0.402286
-0.1124
0.566425
-0.328598
-0.027051
0.355649
0.670198
0.94324
0.503801
0.0471839
0.442503
-0.711853
0.269349
2.03259
-1.7209
0.223181
-0.556901
0.170529
0.0313541
0.13217
0.0262177
0.163046
0.00353261
-0.155855
0.633602
0.0469525
-1.74238
-0.0271196
-0.187129
-0.0875722
-0.0260779
1.15739
-0.547266
0.879733
-0.625895
-0.253838
0.00546875
0.140067
-0.00209472
0.00523647
0.397551
0.0256717
0.215245
-0.316383
-0.333784
-1.96227
0.893014
1.06925
-0.0863024
0.0150532
-0.0523082
0.131213
0.162684
-0.289776
-0.325603
0.492134
-1.52419
-0.131202
-0.958534
1.97076
0.632025
-0.180627
-0.451398
-0.79416
-0.411555
-0.168226
0.10892
-1.10792
0.387162
-0.704244
0.317081
-0.292984
0.237019
0.0559654
-0.0610181
1.04346
1.00871
-1.63677
1.7209
-1.47077
0.836939
0.633836
1.01444
-1.97297
2.11349
-1.0724
-1.00251
-0.963798
0.791125
0.137696
-0.151077
-0.340412
-1.49738
-0.00987954
0.00882628
-1.29153
1.17781
-1.93612
0.758317
-0.0648086
0.289615
-0.562798
0.809523
-0.260726
0.881237
1.34499
-1.4863
0.740866
-0.0639172
-0.84334
-1.3554
0.271703
-0.0346845
1.70471
-1.75711
-0.0707624
-1.28539
0.0361774
0.755823
-0.299005
-1.48245
1.71615
-0.233694
0.267474
1.67161
0.465497
-0.0319286
-0.433568
1.89788
-0.902179
0.264628
0.18351
0.581987
-0.740182
0.119199
0.149432
0.0980198
0.764939
-0.862959
-0.697945
-0.376331
1.04679
-1.04009
-0.00670378
-0.34873
0.295874
-1.5438
0.807602
0.736194
0.578269
0.192626
-0.809914
0.143336
0.907363
-0.538196
0.319053
-0.603299
0.186087
-0.244462
-0.6962
0.465271
-0.98904
-0.919035
1.90808
0.264588
-0.294479
0.290668
-0.341599
1.10542
-0.599993
0.133587
0.979789
-1.65729
0.130469
0.151429
0.258471
-1.21719
-0.0485626
0.688753
0.0648433
0.157141
-0.610501
-1.40995
0.611499
0.252106
-0.416416
0.16431
0.0783411
-0.347824
1.09549
1.0568
1.2691
-0.957331
-0.0545275
0.182817
0.175955
0.494516
0.2943
-0.34569
-0.714834
-0.95761
1.97205
0.172437
-0.206851
-0.825475
-1.04544
1.87091
-1.55402
0.53132
-0.0792911
-0.399443
0.291155
-1.4869
-0.0636478
-0.258839
0.646001
-1.03408
-0.928189
1.84033
0.663343
-1.26956
1.04451
-0.692647
-0.310775
-0.381727
0.356211
-0.296629
0.242514
-1.69921
0.293536
-0.853244
1.01732
-1.97493
-0.85885
0.313089
-0.374839
-0.0801504
-1.4023
0.883227
-0.57985
1.28506
0.891098
-1.76232
0.87122
1.72589
-0.941854
2.04838
-0.951422
-0.979263
1.93069
0.400782
1.28833
-1.02539
-0.791074
-1.28357
-0.94415
-0.526625
0.478126
-0.873005
1.72926
-0.856254
-0.159823
1.38083
-1.22101
-1.01836
-0.974832
1.99319
0.899187
0.147603
0.290523
0.417563
-0.778888
0.0869783
0.69191
0.0606835
-0.313694
0.501566
-1.423
-0.794555
-0.417381
-0.283836
0.291072
-0.402925
-0.786869
1.22247
-1.95264
0.957768
0.994871
0.0297853
-1.7242
1.69442
0.145626
-0.296432
0.0970414
0.460192
-1.74785
1.74785
-0.142116
-0.0172532
0.159369
-0.524427
1.07397
0.248473
0.02323
-0.820946
-0.657174
0.793874
-1.63677
-0.0882703
-1.275
0.304713
1.18037
-1.3265
-1.24224
0.249281
0.314173
-0.378544
0.0643711
0.176206
0.533527
-0.181044
0.0177839
-0.950973
-1.21273
0.127336
1.08539
-1.37905
-0.0320328
-0.447092
-0.921917
-0.0473457
0.153267
0.191686
-0.129182
0.375306
-0.19818
0.0507337
0.385133
-0.333235
-0.362965
-0.800374
1.63061
-0.830231
0.380936
0.229171
-0.224837
0.446064
-0.221227
-0.385745
0.219121
0.435876
-0.61528
0.179404
-0.841888
1.48055
-0.873633
-1.54228
-1.707
0.208236
-1.07626
0.061615
1.02121
1.2106
0.0046298
-0.971704
1.18163
-0.457935
-0.351861
0.302952
0.658731
0.589909
0.247333
1.9631
-0.945783
-0.981609
-0.9254
1.90701
1.17379
-0.0429056
-1.13089
-0.16726
0.516174
-0.236848
0.214547
0.157227
1.32506
-1.48229
-1.51802
1.52717
-0.00914471
1.51802
-1.59817
0.242783
-0.307591
-0.534928
1.22108
0.102181
-0.286475
0.267589
-1.65124
0.189154
1.73972
-0.848626
-0.467648
-0.121467
0.138585
-0.477424
1.02793
0.286467
-0.0916724
0.732119
-0.592768
0.200356
-0.272646
-0.618155
-0.0747026
0.480787
-2.14634
0.521323
-0.084386
0.478682
-0.394296
-1.02731
-0.908816
0.133706
0.386469
0.62239
-0.935808
0.165678
-0.176694
-0.375392
0.121327
-1.99516
0.992642
0.13364
-0.115092
-0.218758
0.00764085
-0.184806
-0.153695
-1.37432
0.94724
-1.62112
0.673878
0.0725828
0.281735
-0.354318
-0.633579
0.447853
-1.02699
1.33171
0.42178
0.611061
1.23976
-1.36465
0.2147
0.0511068
1.67059
-1.9427
0.272103
-0.312666
-0.174375
-0.846901
0.00201108
0.403383
-0.504363
-0.209218
0.298897
-0.883408
-0.182856
-0.0340281
0.216884
-1.48249
0.202359
1.28013
-0.235929
0.283494
-0.0418146
-0.18684
0.228655
1.18722
-1.15222
0.233003
-0.227472
0.655503
0.171834
0.269566
-0.218814
-0.262717
0.325916
0.212771
0.626174
-0.838946
-0.436681
0.012599
-0.90161
-1.00091
1.90252
0.142651
-0.629598
0.693863
-0.744905
1.6872
-0.288823
0.275796
0.0752287
0.0678633
0.0681065
1.99036
-0.967169
-1.27791
0.864987
-0.571451
-0.544887
1.34784
-0.240311
0.265982
0.113723
-0.116246
-0.481248
0.396463
-0.330937
0.223205
-0.153332
-0.43967
0.310488
1.00692
0.256704
-0.249063
0.252523
-0.000612415
0.0470265
-0.432661
0.313747
0.497145
-0.83038
0.238704
-0.276248
0.0375438
0.2967
-0.221471
0.384666
0.690031
-1.0747
-0.289615
0.159369
0.307399
-0.662994
1.29948
-0.740164
1.04283
0.917137
-0.00553225
0.532422
-1.01677
0.379976
-0.481537
-0.199801
1.01127
0.942957
-1.65879
1.65879
1.4778
-0.913902
1.11741
-0.000757677
1.54527
-1.54451
0.927923
1.01652
0.929666
-1.91871
0.0272982
-1.06686
-1.32527
-0.211335
-1.37485
1.58618
-0.439991
-0.144872
0.0914717
0.715914
0.20704
-0.313783
-0.951887
1.79311
-0.841219
-0.190865
0.310064
0.0102538
0.230221
0.497037
2.04207
-0.790837
-1.25123
1.52435
-1.47638
1.13467
0.198592
0.210741
-0.00410623
0.0598542
1.59612
0.55579
1.01538
0.86769
0.0266889
0.226195
-0.252884
-0.390832
0.246219
0.209836
-0.225616
0.0157804
0.187988
-0.256184
0.068196
0.434956
-0.456232
0.363118
-0.534649
-0.0787506
0.474788
0.0491826
0.109754
-0.0136893
-0.717419
0.163858
0.553561
0.13921
-0.130243
-0.00896646
1.75711
-1.62487
-0.454955
0.157006
0.297948
-1.61246
-0.376002
0.293342
-0.969613
1.89754
0.286982
-0.364549
1.92741
-0.997745
0.274046
-0.347744
-0.191639
-0.800238
-1.3159
-0.137367
1.47411
1.35043
-1.09196
-0.106521
0.184352
-0.118884
-1.50167
-0.326332
0.319979
0.272172
-0.4087
-0.401002
0.315278
-0.116412
-1.3284
1.28052
-1.42786
1.45813
-1.19859
-0.537254
0.462594
0.703821
0.418508
-0.439595
-0.0909443
0.0906741
0.380874
-0.471549
-0.386938
1.35093
-0.98999
-0.968876
-1.92171
-0.108117
0.103991
0.00412676
-0.0506503
1.48277
-1.43212
0.836308
-0.649237
0.350775
-0.419257
1.50966
-0.793745
0.858931
0.897562
-1.75649
0.255096
0.0313707
0.680882
-0.196641
0.221868