/*--------------------------------*- C++ -*----------------------------------*\
| =========                 |                                                 |
| \\      /  F ield         | OpenFOAM: The Open Source CFD Toolbox           |
|  \\    /   O peration     | Version:  2306                                  |
|   \\  /    A nd           | Website:  www.openfoam.com                      |
|    \\/     M anipulation  |                                                 |
\*---------------------------------------------------------------------------*/
FoamFile
{
    version     2.0;
    format      ascii;
    arch        "LSB;label=32;scalar=64";
    class       volVectorField;
    location    "1";
    object      U;
}
// * * * * * * * * * * * * * * * * * * * * * * * * * * * * * * * * * * * * * //

dimensions      [0 1 -1 0 0 0 0];

internalField   nonuniform List<vector> 
5098
(
(2.55909 0.438533 0)
(2.13256 0.0208966 -2.02499e-20)
(2.1753 0.0341916 -2.25348e-21)
(1.74214 -0.767764 6.32623e-19)
(1.90087 -0.0989858 0)
(1.17631 -0.567526 0)
(2.23931 -0.0531008 7.95273e-21)
(2.02065 -0.110695 4.64729e-22)
(1.99737 0.0754549 -6.18218e-20)
(2.35428 0.588262 3.0232e-20)
(1.39236 -0.662041 0)
(2.23326 0.000276565 1.36596e-19)
(2.88492 -0.047153 1.30838e-21)
(1.17575 -0.571747 0)
(2.00592 -0.0561983 1.93417e-20)
(1.94443 0.0107635 2.95909e-21)
(1.34813 -0.776248 -1.3348e-19)
(1.52516 -0.704301 0)
(0.369313 0.356594 6.93744e-19)
(1.37945 -0.763822 1.50696e-19)
(1.83448 0.278545 -6.36177e-20)
(1.89106 0.0146853 1.10456e-20)
(2.389 -0.865496 0)
(1.01746 -0.142213 2.58512e-20)
(1.09891 -0.547335 0)
(1.67454 -0.677658 0)
(2.06294 -0.107069 1.02177e-19)
(2.07919 -0.854907 1.53257e-19)
(0.600405 0.351047 -2.07832e-18)
(2.30635 -0.989536 0)
(2.35825 0.0835707 -8.82898e-20)
(0.938287 -0.460295 0)
(1.89902 0.0635452 -1.11853e-19)
(1.08391 -0.694853 0)
(2.34432 0.0545803 -2.4146e-20)
(2.40741 -0.46559 5.89493e-19)
(2.07529 -0.489843 1.19197e-19)
(2.18413 -0.0803592 -8.39913e-21)
(1.53766 -0.544007 4.71218e-19)
(1.8653 -0.84878 0)
(1.77236 -0.793523 -2.95755e-19)
(1.78397 -0.61169 -1.43757e-19)
(1.69134 -0.688479 0)
(2.06299 0.208005 8.87028e-20)
(2.40506 0.276437 3.06341e-20)
(1.97241 0.128733 6.13577e-21)
(1.41565 -0.776678 4.31336e-20)
(1.30837 -0.477374 0)
(2.37295 0.0205755 0)
(1.73106 -0.733292 6.74312e-20)
(2.15719 0.114392 5.87176e-20)
(1.75203 0.259487 -3.95074e-19)
(1.03342 -0.495809 -6.72789e-22)
(2.14161 -0.0235111 1.45044e-19)
(1.23972 -0.611148 -2.86336e-19)
(1.68286 0.0272102 0)
(1.95901 0.189402 -2.11319e-19)
(1.83624 -0.743222 0)
(1.09941 -0.538207 0)
(2.07798 -0.0841974 -6.67209e-22)
(1.9652 0.0463687 -2.70773e-20)
(1.02088 -0.523067 -1.34145e-19)
(2.34308 0.121338 0)
(2.81578 0.0430381 0)
(1.09707 -0.519429 3.69587e-19)
(1.05036 -0.525434 3.62226e-19)
(2.12314 0.0700129 8.66721e-22)
(2.27309 0.237119 9.69145e-21)
(2.20284 -0.206802 1.41035e-19)
(1.87938 -0.77532 1.93084e-19)
(1.94822 0.0830375 1.37657e-20)
(1.81159 0.223346 1.04328e-20)
(2.1748 -0.876742 0)
(0.676649 0.779393 0)
(1.92951 -0.029051 -1.01377e-21)
(1.45985 -0.708862 -3.24635e-19)
(1.99876 0.117139 0)
(1.58196 0.0516282 3.72562e-19)
(2.20179 0.271943 6.4708e-20)
(1.75635 0.157132 0)
(1.95857 0.0301559 0)
(1.92876 -0.567801 1.06341e-19)
(1.85982 -0.340174 4.33516e-19)
(1.03848 -0.674789 -2.17281e-20)
(1.52756 -0.673265 5.83231e-20)
(2.07267 -0.8934 -1.46076e-20)
(0.35171 0.0659334 -2.52009e-19)
(1.98165 0.0951986 -1.30955e-20)
(2.0749 -0.00669991 1.55766e-20)
(1.96772 0.0869081 -2.75733e-20)
(2.25389 -0.022449 -5.84047e-21)
(1.04389 -0.621015 1.8093e-19)
(2.33651 -0.070874 -1.89715e-19)
(1.75164 -0.747581 -3.37123e-19)
(1.52354 -0.567452 8.34014e-20)
(1.78254 0.414872 -4.1529e-20)
(1.40216 -0.69286 -2.63419e-19)
(1.62547 0.123582 2.71428e-19)
(1.85813 0.173357 -1.89144e-20)
(2.24346 -0.4997 -8.91099e-20)
(1.66072 -0.316928 -2.63523e-20)
(1.3095 -0.637848 -3.39673e-19)
(1.31397 -1.091 -1.74314e-19)
(2.0471 0.0746529 -1.655e-20)
(1.66394 0.0486904 -4.2354e-19)
(2.5077 0.75559 0)
(1.82136 0.0746245 2.23378e-19)
(2.34381 0.0787446 4.29069e-20)
(1.2618 -0.525224 6.55019e-20)
(1.40789 -0.697875 0)
(1.36914 -0.659042 -7.15587e-19)
(3.07387 0.651648 1.00877e-18)
(2.01505 0.00438038 -2.1825e-19)
(1.5285 -0.834545 3.69665e-20)
(1.86324 0.414563 9.15347e-20)
(-1.78178 0.59795 0)
(1.98593 -0.572327 1.92221e-19)
(2.85563 0.833695 0)
(2.04853 0.0569891 2.08421e-20)
(1.04864 -0.175323 -3.95536e-19)
(1.77724 0.25604 3.24518e-19)
(1.73247 1.51402 -1.72491e-19)
(2.30826 0.509387 -2.27683e-20)
(1.79901 -0.725372 -1.21537e-19)
(1.33192 -1.08012 -2.86228e-19)
(1.01279 -0.545977 1.92948e-20)
(2.16885 -0.103317 1.20659e-19)
(2.36852 -0.827357 -1.3676e-19)
(1.49007 -0.262016 -9.93462e-20)
(1.50774 -0.832791 -7.26429e-20)
(1.69336 -0.737967 -1.18924e-19)
(1.35488 -0.607921 -4.79643e-19)
(1.37596 -0.603518 4.01009e-19)
(2.73583 0.917233 -1.29786e-19)
(1.58489 -0.17948 -5.74223e-20)
(1.96388 -0.268686 8.53957e-20)
(2.17991 2.03909 3.86222e-19)
(1.98469 0.104946 1.50241e-19)
(1.11995 -0.548086 0)
(1.94804 -0.0794077 -4.67729e-19)
(1.69437 0.364596 -2.61999e-19)
(2.42114 -0.40584 2.18848e-19)
(2.08379 -0.928992 2.80047e-19)
(2.25019 -0.0397088 -1.72784e-20)
(2.25255 0.133202 -3.97227e-20)
(1.9685 0.0104081 0)
(2.26217 -0.201527 1.4144e-19)
(1.77868 -0.0593434 0)
(2.21424 -0.0256141 1.49568e-19)
(2.095 -0.944453 9.24052e-20)
(1.83993 -0.505972 -7.28854e-20)
(3.49247 -1.20654 0)
(1.72772 -0.13041 1.93363e-20)
(2.12911 -0.0782158 0)
(0.348643 -0.00696273 -3.07329e-19)
(1.06564 -0.452232 -1.62547e-19)
(1.83551 -0.735437 -3.48275e-19)
(1.5941 -0.233819 -2.2615e-20)
(1.7762 -0.817636 -2.43207e-19)
(-0.490601 0.597928 2.35592e-18)
(2.11179 -0.480973 -3.20813e-19)
(1.93232 0.0321945 -1.96168e-20)
(3.97182 -1.33332 -6.63194e-19)
(1.85873 -0.287797 -2.63923e-19)
(1.5581 -0.740496 -6.01925e-20)
(2.28366 0.122388 -9.47591e-20)
(1.67707 -0.0597758 -6.39415e-20)
(2.68836 -0.452376 0)
(1.36197 -0.674345 8.29256e-20)
(1.87174 -0.639838 -3.82953e-19)
(1.82965 0.300877 2.95496e-20)
(1.73865 -0.714453 -2.29591e-19)
(2.20727 0.30337 8.19173e-20)
(2.07311 -0.821865 2.70923e-19)
(1.95014 0.0740449 0)
(2.00913 -0.059015 0)
(1.8557 -0.377422 -1.67826e-19)
(2.46725 -0.373679 -2.14224e-20)
(1.87729 -0.229973 3.63249e-19)
(0.532737 -0.100474 0)
(2.18416 2.44855 0)
(1.93608 -0.531332 -1.60992e-19)
(1.96555 -0.601423 4.63111e-19)
(1.55642 -0.754142 0)
(1.91535 -0.211055 0)
(2.55293 0.207466 4.31131e-19)
(1.68165 0.209169 0)
(2.03557 -0.453553 4.10319e-19)
(1.28372 -0.624877 6.28771e-19)
(1.76651 -0.867852 -8.06393e-20)
(3.89672 0.672247 0)
(3.1647 0.978202 -4.75539e-19)
(2.19421 -0.894624 0)
(1.96988 0.0971386 -2.02005e-20)
(2.36944 0.0465271 1.03777e-20)
(1.14976 -0.601563 -1.79397e-19)
(2.08253 -0.540851 1.18775e-19)
(2.05564 -0.306004 0)
(1.99304 -0.0497512 -2.03712e-20)
(1.90302 -0.619301 -6.94722e-20)
(1.69609 -0.762841 -2.27116e-19)
(1.68118 0.204144 4.90082e-21)
(2.34984 0.326321 -1.85349e-22)
(2.12384 -0.0275691 3.53468e-21)
(1.83208 -0.103697 1.54343e-19)
(1.03466 -0.456834 -1.16096e-19)
(2.57533 -0.187985 -8.82718e-21)
(1.43829 -0.661298 0)
(2.16415 0.0220461 0)
(1.72221 -0.822464 -2.70122e-19)
(2.16179 -0.2433 -1.35541e-19)
(1.80935 0.130073 2.57291e-19)
(3.38705 0.47175 4.01317e-19)
(2.08284 -0.0984084 -1.32159e-19)
(2.05958 -0.0888398 -8.88234e-20)
(2.38569 0.546516 -6.1759e-19)
(1.96065 -0.000222663 0)
(1.42586 -0.686864 -1.19958e-19)
(1.17603 -0.877564 3.8188e-20)
(2.01135 0.00525387 9.50107e-20)
(2.39599 -0.0656939 -2.19891e-20)
(1.74832 -0.414482 0)
(1.8663 -0.0643242 1.48164e-20)
(2.38477 -0.151893 1.07064e-19)
(1.12448 -0.53727 4.4503e-20)
(2.11003 -0.178479 0)
(0.646631 -0.234556 0)
(2.18435 0.0138996 0)
(2.18341 -0.498802 0)
(2.36508 -0.876906 -1.1954e-20)
(1.86672 0.16014 0)
(0.847281 -0.388353 -4.29333e-19)
(2.03281 -0.531122 -1.23102e-19)
(2.16882 -0.0861941 2.35437e-20)
(2.32434 0.0214497 -5.72963e-20)
(2.10793 0.0859847 0)
(1.64854 1.11307 -1.60394e-19)
(1.7927 -0.796044 -3.20509e-19)
(2.19494 -0.294093 0)
(1.95796 -0.0679793 2.67754e-19)
(1.92593 -0.612472 -3.5317e-19)
(2.19784 0.332898 0)
(2.08853 0.0205704 0)
(1.24774 -0.376579 7.09417e-19)
(2.02766 0.28933 -3.28888e-19)
(2.22527 -0.0685197 -1.57074e-19)
(1.30942 -0.623654 7.69571e-20)
(1.43928 -0.685745 -9.86753e-20)
(1.37653 -0.780615 0)
(2.31081 -0.00803933 4.05067e-20)
(2.23012 0.500626 -5.46282e-20)
(2.10464 -0.857131 2.73521e-19)
(-0.3127 -0.831236 6.85578e-19)
(1.7426 -0.782292 1.43437e-19)
(1.87165 0.0130407 -2.03738e-19)
(1.80362 -0.803843 2.97802e-19)
(1.62852 -0.162054 4.89804e-20)
(2.05217 1.21494 7.66664e-20)
(1.33221 -0.492494 -2.95349e-19)
(1.97961 0.00852919 -2.66523e-22)
(2.47604 0.091282 6.28299e-20)
(1.1829 -0.569177 1.75238e-19)
(1.02978 -0.498863 1.32337e-19)
(2.15005 -0.907937 0)
(2.10152 -0.0305887 -5.70689e-21)
(1.37795 -0.689826 4.49926e-20)
(-0.446862 0.600767 -2.8298e-18)
(1.38064 -0.636589 0)
(1.93685 0.401257 0)
(1.82782 -0.0727443 -2.48668e-20)
(1.79332 -0.836442 1.00315e-19)
(2.02734 0.143835 -7.70605e-21)
(0.0460283 0.0739802 -1.20736e-18)
(1.952 0.394099 0)
(1.34735 -0.555162 2.54795e-21)
(1.42535 -1.24186 -2.44369e-19)
(1.76532 -0.606206 -1.35556e-19)
(1.77915 -0.408389 0)
(2.59149 -0.718169 0)
(1.9652 -0.123893 0)
(1.68494 -0.748712 -7.51388e-20)
(2.11222 -0.012174 4.93077e-20)
(1.2976 -0.612768 -1.89991e-19)
(1.97362 -0.211288 -5.48005e-20)
(3.09467 -0.609213 -2.06005e-19)
(1.0812 -1.17786 0)
(1.91039 -0.0548245 0)
(2.06289 0.00282006 -4.71707e-20)
(2.27745 0.154968 7.63896e-20)
(2.0805 0.0964122 -2.11893e-19)
(1.81714 -0.699396 0)
(1.71905 -1.90647 3.29651e-19)
(1.23694 -0.163962 -2.08745e-19)
(2.39032 0.212145 1.69243e-20)
(2.18153 -0.669351 2.90434e-19)
(2.20962 0.650227 2.44362e-21)
(2.28552 0.0112568 0)
(2.33154 0.0725354 -8.40637e-20)
(1.9943 0.121833 0)
(2.07596 0.158353 -1.27649e-19)
(2.07109 0.0461696 3.89911e-20)
(2.37967 -0.0345623 3.68586e-20)
(1.75332 -0.463079 4.50827e-19)
(1.94543 0.215522 1.80981e-19)
(1.25334 -0.6365 -7.14871e-20)
(1.99338 -0.794367 -1.78462e-19)
(2.77068 1.51341 -1.58573e-19)
(1.87455 0.0475224 0)
(1.95189 -0.469475 0)
(1.41176 -0.754907 0)
(2.3803 -0.136921 2.89911e-20)
(0.0968834 -1.18122 6.8615e-20)
(1.09713 -0.538555 3.75469e-19)
(2.05621 -0.0434936 2.18357e-20)
(2.8944 -0.0314402 1.72425e-20)
(0.412066 -0.0937969 6.06741e-19)
(1.98312 2.07866 -3.46774e-20)
(2.18516 0.163524 -1.01235e-20)
(2.22953 0.0241115 4.26967e-19)
(1.11083 -0.498695 0)
(2.20054 0.185329 -8.67614e-20)
(1.7992 -2.01484 -8.85379e-19)
(2.22534 -0.09036 -1.67479e-19)
(0.547271 -0.781537 2.15883e-20)
(1.89994 -0.00814179 -1.71266e-21)
(1.52064 -0.51311 3.19354e-19)
(2.1691 0.464618 0)
(1.92424 0.0828499 -7.6275e-20)
(1.27516 -0.528431 -6.91879e-19)
(2.00229 0.0179297 -1.97996e-20)
(1.6321 -0.780084 0)
(2.24023 -0.049534 -1.19937e-19)
(1.28659 -0.619059 2.14216e-19)
(2.64433 -0.719447 -1.35098e-20)
(1.90893 -0.78419 -2.59513e-19)
(2.04326 -0.149701 -4.36089e-20)
(2.57232 -0.0721005 7.54846e-21)
(1.2419 -0.611026 4.10437e-19)
(2.28944 -0.155191 1.82334e-19)
(1.98579 -0.415483 0)
(2.09616 -0.933268 -2.64864e-19)
(1.85888 -0.778359 -7.89501e-19)
(2.24943 0.233573 1.97887e-20)
(1.98289 0.0035315 3.18493e-20)
(3.74545 1.5716 0)
(1.92401 0.173714 0)
(2.20145 -0.0956356 -1.50861e-19)
(2.11119 0.736183 5.63006e-19)
(2.83019 0.707885 0)
(2.19099 -0.0738651 1.40013e-19)
(2.14875 -0.936879 -4.35636e-21)
(1.10553 0.189749 -5.24971e-19)
(1.09749 -0.49481 -3.73153e-19)
(1.68701 -0.761044 8.23838e-20)
(1.92092 0.0109913 1.14963e-21)
(1.65938 -0.77046 2.81588e-19)
(1.99946 -0.290663 -8.44333e-20)
(2.30637 0.0566846 0)
(1.56681 -0.251608 -8.55123e-20)
(1.88301 0.154064 0)
(1.9431 0.143661 -3.6387e-19)
(2.19492 -0.434629 0)
(2.35889 -0.0637751 -1.17833e-19)
(1.98766 0.0404212 -1.87666e-20)
(2.09746 0.197623 -8.18353e-20)
(1.32911 -0.532211 3.89639e-19)
(2.06347 0.0101085 -3.0266e-19)
(2.04125 0.0818514 -2.86269e-19)
(2.46674 -1.0271 0)
(1.80847 -0.799378 0)
(1.39526 -0.566861 -3.82794e-19)
(2.18874 0.225104 0)
(2.76721 -0.400947 -5.33816e-19)
(1.96934 -0.0140279 0)
(1.72632 0.251886 -1.39667e-20)
(1.1912 -0.60742 1.18588e-19)
(1.91889 -0.626615 5.52933e-19)
(2.97009 1.32572 2.34863e-19)
(2.64292 -0.445097 0)
(2.01743 0.0508554 2.273e-20)
(2.18464 0.0814022 -1.74645e-19)
(1.0962 -0.596983 -2.00264e-20)
(1.92896 -0.0479676 -1.67657e-19)
(1.90496 0.0426306 -2.77392e-20)
(2.14353 0.116427 -4.54826e-20)
(3.06661 0.113294 3.25952e-19)
(2.26852 0.0174592 -4.1492e-20)
(1.77711 -0.794578 -6.41961e-20)
(1.86053 -0.588937 0)
(0.967875 -1.07584 1.84798e-19)
(2.07667 0.150622 -1.24115e-19)
(2.28774 0.217129 0)
(2.10445 -0.000262857 1.10153e-19)
(1.46266 -0.704447 -2.69309e-19)
(1.80905 0.940161 1.29779e-19)
(2.22956 -0.663077 0)
(1.63821 -0.768928 1.00376e-19)
(2.15502 -1.04523 0)
(2.23351 0.0553224 2.38965e-20)
(1.90841 -0.0338131 -3.15091e-20)
(3.66695 -1.66407 1.26339e-18)
(1.21895 -0.20037 0)
(1.68911 0.13263 1.84954e-19)
(1.93489 0.0692565 1.18706e-19)
(-1.76883 0.725494 0)
(1.96771 0.0316974 0)
(2.07782 -0.22961 0)
(0.2941 -0.141284 1.4502e-19)
(3.3873 0.770842 2.15279e-19)
(2.24227 -0.0200333 0)
(1.89985 -0.082121 0)
(1.72413 0.0857013 5.49853e-22)
(1.70634 -0.808183 0)
(2.30653 0.317215 1.41613e-20)
(2.94277 0.543821 1.80469e-19)
(2.02693 0.000485261 1.22493e-20)
(1.92011 0.321964 -8.98494e-21)
(1.1008 0.266348 6.03417e-19)
(3.1086 0.710155 -2.0937e-19)
(2.38392 -0.00041565 5.38937e-21)
(2.03156 -0.157723 1.24313e-19)
(1.72612 -0.199194 -2.03187e-19)
(1.99421 0.163064 2.43921e-21)
(2.02999 0.154427 0)
(1.65874 -0.76292 -2.74437e-19)
(1.17086 -0.765243 0)
(0.896807 0.926779 -1.43712e-19)
(1.80663 -0.0358667 0)
(2.12577 0.120981 0)
(1.67483 -0.796418 -2.06074e-19)
(2.05465 -0.0676476 -3.82208e-21)
(-0.201616 0.331951 -2.39007e-18)
(1.96505 -0.00331715 2.61192e-20)
(2.00209 -0.768063 2.88769e-19)
(3.01721 0.419564 2.03385e-19)
(0.484769 -0.875123 5.21815e-19)
(2.06647 0.00359205 3.2175e-20)
(2.34502 -0.892016 7.51149e-20)
(1.95513 0.0506316 -1.90021e-19)
(2.15645 -0.731744 0)
(1.85166 -0.189316 -3.78269e-19)
(1.94627 -0.52864 3.07757e-19)
(2.10157 0.262689 -4.23359e-19)
(1.28945 -0.779943 -1.27603e-19)
(1.68783 0.905221 -1.24447e-19)
(2.91727 0.677819 2.89925e-19)
(1.97255 -0.273012 0)
(1.97039 -0.0404481 0)
(3.52015 0.420701 -9.02401e-19)
(2.18891 -0.150455 7.72074e-20)
(1.39834 -0.752729 0)
(2.15789 -0.0740306 -1.13504e-19)
(1.98505 0.0785344 -2.55993e-19)
(1.32057 -0.816791 -7.46945e-20)
(1.3543 -0.70713 2.36476e-19)
(2.18021 0.115198 -1.98434e-21)
(1.76687 -0.629151 2.30175e-21)
(2.57857 -0.115046 -1.76137e-19)
(2.09085 -0.460328 2.09153e-19)
(3.25512 0.133368 6.78129e-19)
(1.7023 -0.706172 2.92076e-19)
(2.00027 0.0328283 -2.00835e-21)
(1.16758 0.131089 4.34801e-19)
(2.15763 2.15173 0)
(1.87858 -0.534034 1.79999e-19)
(1.47208 -0.681221 0)
(1.59053 -0.793586 -4.93493e-19)
(1.86105 -0.606843 0)
(0.99208 -0.488095 -2.86038e-19)
(1.80164 -0.759505 -4.03876e-19)
(4.32547 0.0844183 -5.77149e-19)
(2.47874 -0.98764 0)
(0.941425 -0.134696 0)
(2.22804 -0.169431 0)
(1.95064 0.0321463 9.71553e-20)
(2.14083 -0.878005 -4.76476e-19)
(2.72284 0.214978 1.96766e-18)
(1.72756 -0.417764 -7.70435e-21)
(3.22818 -0.0832836 -7.43189e-19)
(2.07922 0.33267 0)
(1.36895 1.51946 2.9015e-19)
(2.57053 0.817438 1.16938e-19)
(2.07379 -1.12558 -1.18077e-19)
(1.98277 -0.909817 2.05718e-19)
(2.10083 0.257111 7.11695e-21)
(1.51284 -0.724967 4.41692e-19)
(2.26901 0.37109 0)
(2.0158 -0.0132687 2.59517e-20)
(1.95876 1.02091 -3.91854e-20)
(2.04906 -0.0634655 2.10995e-20)
(3.05135 -0.266102 -3.23709e-19)
(1.79717 -0.0488903 0)
(2.40137 0.275327 0)
(2.09394 -0.702152 0)
(0.779489 -0.584621 0)
(1.99076 0.0454709 0)
(1.59705 -0.611228 1.27355e-19)
(3.23688 -0.423346 4.98622e-19)
(1.63684 -0.678552 3.50283e-19)
(2.00478 -0.00615231 2.0575e-19)
(1.52258 -0.695831 0)
(2.35122 -0.946227 2.81101e-21)
(0.494238 0.738853 0)
(1.5149 -0.651156 -1.10825e-19)
(-0.421564 1.07238 1.08129e-18)
(2.97673 -0.788597 -2.32987e-19)
(2.05456 0.0592526 2.14372e-19)
(2.02872 0.430376 -6.00859e-20)
(2.31963 -0.603427 -1.44931e-19)
(2.22065 -0.0356229 0)
(1.29737 -1.20148 2.71231e-19)
(2.04142 -0.00614989 0)
(1.67808 0.609392 2.21019e-20)
(2.23797 0.0637721 0)
(2.17099 0.129661 -8.30524e-20)
(2.14675 -0.0592777 0)
(1.13782 -0.470638 -2.63106e-19)
(1.45505 -0.705328 2.76691e-19)
(1.95496 -0.091199 -3.65324e-20)
(1.51242 0.206661 3.80345e-19)
(0.499183 -0.249031 -2.96983e-19)
(1.87451 -0.119 0)
(1.2219 -0.349108 -1.00392e-18)
(2.03338 0.0607723 8.35594e-21)
(2.64104 -0.607039 -5.96996e-19)
(2.08325 0.00839274 -2.91116e-20)
(2.03394 -0.529032 2.83627e-19)
(3.63829 -0.602726 0)
(2.04292 -0.901668 -5.98241e-20)
(1.96303 -0.88468 0)
(2.3552 0.127998 1.17184e-20)
(0.708677 -0.272129 6.66584e-20)
(1.58989 -0.710321 0)
(2.26205 0.0105878 0)
(1.54873 -0.220753 -4.21048e-20)
(2.4546 0.345563 0)
(1.88832 1.38349 1.42426e-19)
(2.86854 0.236859 -3.22029e-19)
(1.22619 -0.612751 -1.60357e-19)
(1.34868 -0.800323 -1.07098e-19)
(2.22137 0.0654439 -1.04248e-22)
(0.790035 -1.34451 -1.00443e-19)
(1.10709 -0.535715 -1.81633e-19)
(1.95802 -0.0899481 4.12607e-19)
(1.36664 -0.813435 8.48287e-20)
(0.802428 -0.406325 0)
(2.42605 0.117897 -2.30926e-20)
(1.49598 -0.232241 6.38091e-20)
(0.646982 0.0312507 7.31179e-20)
(2.75437 -0.571214 5.61634e-19)
(3.02773 1.13983 0)
(1.96209 -0.548375 -3.09362e-19)
(1.97616 0.0648451 2.48223e-21)
(4.15045 -0.429171 -1.13507e-19)
(2.12665 0.00197091 -1.43914e-19)
(1.31983 -0.650981 5.5204e-20)
(1.68058 -0.71792 1.59244e-19)
(1.64912 -0.663395 -8.45488e-20)
(1.37905 -0.729972 2.62402e-22)
(2.0868 -0.128823 -9.96852e-20)
(1.33627 -0.698696 -6.18617e-20)
(1.83581 -0.0770528 0)
(1.96001 -0.22007 -3.69475e-19)
(2.05729 -2.1947 0)
(0.658733 -0.965021 -2.06638e-19)
(2.72587 -1.92529 2.09459e-19)
(0.447636 -1.51823 8.97541e-19)
(2.0128 0.0293505 -4.65049e-21)
(0.946974 -0.466996 1.62088e-20)
(0.521974 -1.56979 0)
(2.47872 -0.846258 1.63258e-19)
(2.58381 -0.966603 2.86525e-21)
(1.18644 -1.93477 -8.38432e-19)
(1.88282 0.332107 0)
(1.78295 0.307274 0)
(0.439856 0.154933 0)
(1.56091 0.0392425 1.94725e-21)
(1.91265 -0.085285 -3.6719e-19)
(1.42064 0.0384774 0)
(1.71193 -0.279901 0)
(2.15919 0.0922144 -1.12648e-20)
(1.78362 -0.560297 -1.52305e-21)
(2.18479 0.0947367 -2.50684e-19)
(2.55805 -0.185407 -2.81274e-19)
(1.9687 0.0454973 5.03206e-20)
(1.95618 -0.044685 9.11383e-21)
(2.01647 0.0218847 -2.85189e-20)
(2.03437 0.299539 -2.16195e-20)
(2.02733 0.899515 0)
(1.10818 -0.532685 3.64616e-21)
(1.35986 -1.50761 0)
(1.19499 0.0172569 0)
(2.49969 -0.0840103 -2.66444e-19)
(1.55602 -0.711337 0)
(2.29339 0.127193 0)
(1.9975 -0.115123 5.65821e-19)
(2.25131 -0.966682 0)
(2.03768 -0.072476 3.05225e-19)
(2.74738 -0.378604 3.18863e-19)
(2.78689 -0.139665 9.76455e-20)
(1.99208 0.0399347 2.33271e-21)
(1.39967 0.879367 2.22834e-19)
(2.53873 -0.916767 7.39505e-22)
(2.61065 -0.97399 6.66062e-21)
(1.37005 -0.549044 3.74569e-19)
(1.2531 -1.06941 0)
(1.19032 -0.585553 0)
(1.4893 -0.73421 -2.03222e-19)
(1.44565 -0.707262 -3.64133e-19)
(0.821358 -0.223608 0)
(1.26634 -0.974435 2.1606e-19)
(1.00251 -0.485746 0)
(1.00301 -1.30182 4.10853e-19)
(1.34886 -0.628068 -4.83795e-19)
(2.63801 -0.433975 -1.16024e-20)
(2.99507 -0.0295684 3.04052e-19)
(1.41719 -0.510041 7.5559e-20)
(2.00648 -0.0412657 6.05447e-20)
(2.31164 0.653423 0)
(2.42061 0.46738 0)
(1.24522 -0.112765 0)
(-1.33341 0.110174 -1.05232e-18)
(1.59603 -0.621072 0)
(2.22713 0.377526 0)
(2.0328 -0.0611942 0)
(2.89079 0.222347 5.36714e-21)
(1.62928 -0.960917 7.62129e-20)
(2.26861 -0.821994 -1.30003e-19)
(1.5292 0.102437 -1.55115e-21)
(1.99708 0.148166 0)
(1.63076 -0.699854 0)
(2.20148 -0.646253 -2.64826e-19)
(1.6767 0.300234 5.59518e-19)
(1.31271 -0.646257 -1.1589e-19)
(2.02457 0.0913134 -1.05865e-20)
(1.87708 -0.528057 3.30319e-19)
(1.17119 0.303092 -9.45406e-19)
(1.62667 -0.795486 0)
(1.40382 1.04542 -5.5479e-19)
(0.615212 0.133592 -6.09108e-19)
(2.66069 -0.30458 0)
(2.14118 0.0833384 0)
(1.91323 0.0596702 0)
(1.85661 0.0365481 -3.62718e-19)
(1.52692 0.134578 -3.89587e-19)
(1.76093 0.0089186 0)
(4.32868 0.816534 2.01224e-18)
(2.03281 -0.892937 2.81747e-19)
(2.59108 0.0935682 4.12237e-20)
(1.37452 -0.6827 8.76546e-20)
(2.23316 -0.260101 0)
(2.26859 -0.0710877 5.78972e-21)
(1.88905 -0.458998 0)
(1.45888 -0.249921 -6.14256e-20)
(1.98027 -0.883973 0)
(2.40134 -0.797468 2.53137e-19)
(2.61688 -0.205164 2.391e-20)
(2.01015 0.0232394 -1.40959e-20)
(2.63974 0.045776 0)
(2.01693 -0.847325 0)
(1.77204 -0.74438 -4.25285e-19)
(2.1947 0.368084 -1.56354e-20)
(1.4775 -0.625684 5.15221e-20)
(1.08239 -0.518947 3.82348e-19)
(2.0427 -0.172795 0)
(1.66396 0.0881879 -5.74425e-19)
(2.13949 -0.0231104 -5.08752e-20)
(1.63548 -0.00848876 -5.76888e-22)
(2.02136 0.00421553 -1.82263e-20)
(2.02143 0.0106998 0)
(1.38615 -0.455112 5.31404e-19)
(1.16383 0.0465045 -5.99569e-19)
(3.00821 -0.551649 7.05765e-21)
(1.88844 0.0735218 -6.48164e-19)
(1.38159 -0.689428 7.98458e-20)
(3.16093 -1.76493 -1.8043e-18)
(2.81833 -0.307512 1.69591e-19)
(1.93373 -0.00647996 -3.11085e-20)
(3.9091 -0.402943 1.94231e-18)
(-0.137514 0.744173 -3.45877e-20)
(1.49664 -0.728843 1.44379e-19)
(1.48158 -0.648269 1.12757e-19)
(1.91784 0.0218463 -1.09977e-20)
(2.32892 0.0491477 0)
(2.18594 -0.860752 5.04417e-19)
(1.51995 -0.734898 1.9859e-19)
(1.83562 -0.301268 1.98746e-19)
(0.53223 1.13644 0)
(1.76538 -0.456589 -5.43238e-20)
(2.09294 -0.0282975 1.55649e-21)
(1.93495 0.0956936 0)
(1.60648 -0.779132 1.36862e-19)
(1.5079 -0.478696 2.63563e-20)
(1.93451 0.15269 0)
(1.26189 -0.496184 0)
(1.67302 -0.0136209 -5.31829e-22)
(1.61723 -0.123731 -4.19262e-21)
(2.34585 -0.155851 9.52148e-20)
(-1.94299 1.27276 0)
(2.11733 0.040268 -3.00457e-19)
(1.88369 -0.128202 -2.18908e-20)
(2.49774 -0.750466 1.0767e-20)
(1.42036 -0.564989 4.69542e-19)
(1.53799 -0.727899 -1.10409e-19)
(1.55501 -0.673155 6.50459e-20)
(3.0394 -0.494253 -6.1076e-21)
(1.7593 -0.463915 0)
(3.85616 0.149599 -1.59975e-18)
(1.77213 -0.701493 2.13584e-19)
(2.20079 1.58324 1.59445e-19)
(0.995712 0.41071 0)
(1.35359 -0.348266 -4.73831e-19)
(1.43279 -0.615867 -5.69658e-19)
(1.5759 -0.762573 1.35714e-19)
(1.49679 -1.05261 -2.56654e-19)
(3.0611 1.68686 0)
(2.07797 0.588154 -1.25088e-18)
(2.26358 0.232011 0)
(1.65419 -1.63877 -3.07418e-19)
(3.889 -1.33457 2.33756e-18)
(1.79141 -0.855246 0)
(1.57627 -0.725256 4.7328e-20)
(1.72424 -0.188172 -8.45056e-20)
(1.34209 -0.765784 8.83469e-20)
(1.86702 -0.725002 3.81083e-19)
(1.42663 -0.705997 -3.39743e-19)
(1.41787 -0.649044 0)
(1.91057 -0.00899855 1.19927e-19)
(2.9289 -1.43067 0)
(2.22433 0.199649 -2.31946e-21)
(-0.261901 -0.281916 -2.83349e-18)
(0.792819 -0.345346 2.56535e-19)
(2.03683 0.0365429 0)
(2.11048 -0.813518 -2.65755e-19)
(2.23035 -0.422311 5.25003e-20)
(1.58252 -0.694826 1.71536e-19)
(1.47412 -0.43073 0)
(1.56446 -0.689105 -1.52691e-19)
(3.20935 -0.803061 -7.66799e-19)
(1.72994 0.062743 7.28491e-19)
(1.85087 -0.0856674 0)
(2.06932 -0.126366 6.63696e-20)
(2.81902 -1.99495 1.51532e-18)
(1.68469 -0.872589 -3.85004e-20)
(2.42227 -0.495944 8.58042e-20)
(1.42467 -0.71496 0)
(1.86437 0.00196603 1.46126e-21)
(2.00127 0.0164001 9.04266e-22)
(2.73799 0.174693 3.32637e-20)
(2.12986 0.0191519 0)
(1.64049 -0.708281 7.51963e-20)
(1.81611 -0.51056 3.64228e-22)
(1.46855 -0.482794 5.81211e-20)
(3.32923 -1.25003 0)
(2.29714 -0.840562 -9.34761e-20)
(1.57406 -0.7635 2.35548e-19)
(1.91061 -0.478198 -4.14119e-19)
(1.18142 0.119157 0)
(2.03099 0.372645 -4.39698e-20)
(2.3337 -0.808297 8.07399e-20)
(1.4901 -0.7318 -1.45737e-19)
(1.92784 0.0553671 0)
(1.02418 -0.538527 3.21665e-19)
(1.68511 0.019023 0)
(1.7089 -0.738636 1.56348e-19)
(1.64028 -0.171932 0)
(1.86783 -0.124925 -2.0817e-19)
(2.26051 -0.2163 -2.08809e-19)
(3.84752 0.553779 -1.02808e-18)
(1.72403 0.100719 0)
(2.32361 -0.958244 -1.36188e-19)
(1.88807 0.0243434 0)
(2.35374 0.149551 0)
(2.57612 -1.01074 -3.84429e-21)
(1.66181 -0.720117 8.42465e-20)
(0.820043 -0.207689 1.62571e-19)
(2.35527 -0.546698 -5.47417e-20)
(1.71592 0.207874 2.45457e-19)
(0.742524 -1.34888 -2.38454e-19)
(2.09143 0.133923 1.17234e-19)
(1.72067 -0.830159 -3.01934e-20)
(1.83664 -0.573828 0)
(2.22611 0.0863614 0)
(1.52773 -0.740759 0)
(1.21234 -0.599113 2.30684e-19)
(1.38434 -0.50905 -3.30677e-19)
(1.67123 -0.0452321 0)
(1.24194 -0.655373 2.8453e-19)
(2.11554 0.0206235 -1.4118e-19)
(1.38897 -0.707071 -9.48336e-20)
(1.58123 -0.581627 -1.05877e-19)
(2.52437 -0.947757 0)
(1.29032 -0.650528 2.77125e-19)
(1.46977 -0.706024 -3.1908e-19)
(1.77829 -0.873623 0)
(0.147645 1.18725 -1.92959e-18)
(2.04313 0.132162 2.91506e-22)
(2.04567 0.18134 1.50518e-19)
(1.91883 0.0503858 2.1475e-19)
(2.78266 0.418877 -3.61535e-19)
(2.21796 0.0917429 1.09963e-21)
(2.54427 -1.93311 0)
(2.17482 -0.821006 0)
(1.11904 -0.608439 3.02974e-19)
(1.40278 -1.37965 0)
(1.76059 -0.421981 -5.43805e-20)
(2.45282 -0.810116 -1.07895e-19)
(1.22674 -0.576191 4.0028e-19)
(1.95048 0.00868865 -6.86055e-21)
(1.70301 0.227776 -2.36149e-19)
(1.7299 -0.697292 -2.11037e-19)
(1.81875 -0.717066 -3.87284e-19)
(1.64178 -0.0316914 0)
(1.92262 -0.72793 3.59526e-19)
(1.9116 0.0016472 0)
(2.85475 0.0596661 -1.41402e-20)
(2.15922 0.940958 1.08614e-20)
(1.97332 0.387505 5.24773e-20)
(2.34604 -0.3085 -1.57275e-19)
(1.04724 -1.18124 -2.69876e-19)
(1.37161 -0.678728 0)
(1.60593 -0.299913 -2.02968e-20)
(1.70861 -0.635368 -1.19382e-19)
(2.01543 0.346163 -1.3981e-19)
(2.04768 -0.800081 3.1768e-19)
(2.06333 0.0436868 -3.2776e-21)
(1.495 -0.981799 9.87885e-20)
(2.42637 -0.975615 4.04279e-20)
(0.604524 -0.0430324 0)
(1.41152 -0.723251 2.8215e-19)
(1.87958 -0.404131 2.19484e-19)
(2.03255 -0.0317299 1.96329e-23)
(1.41055 -0.621104 8.3654e-19)
(1.19568 -1.82745 7.02931e-20)
(1.79633 0.456182 0)
(1.21538 -0.651351 -1.0092e-19)
(1.60742 -0.69692 -1.14826e-20)
(1.3066 -0.446454 -6.34648e-19)
(1.0492 -0.551815 1.14679e-19)
(4.0132 -0.165017 -4.66856e-19)
(2.13317 0.2554 5.91773e-21)
(1.18885 -0.509067 2.89413e-19)
(1.96591 -0.39128 0)
(2.41795 0.0911222 -5.27035e-20)
(2.09075 -0.0380614 -1.81068e-21)
(2.87103 0.10919 -3.09519e-19)
(2.33852 -1.42426 0)
(3.2155 -0.0636063 6.09837e-20)
(1.62631 -1.48297 2.91384e-19)
(1.81311 -0.773199 8.18408e-19)
(2.73157 -1.5204 8.47592e-21)
(2.07039 -1.02008 -1.95372e-19)
(1.43365 -0.699391 5.31411e-19)
(2.24216 -0.801538 2.82065e-19)
(2.03326 0.117014 -3.75731e-21)
(-0.575989 -0.382922 -4.32693e-20)
(2.26431 0.0164654 1.60292e-20)
(3.57613 -1.46708 0)
(1.97774 -0.0324375 0)
(2.19139 0.142524 0)
(1.97902 -0.743979 -3.07172e-19)
(1.64748 -0.215553 4.25627e-20)
(1.44876 -1.74759 0)
(1.43675 -0.476625 -1.36502e-19)
(1.81815 -0.809874 0)
(2.23679 -0.526486 0)
(2.35074 -2.14809 0)
(1.91375 0.00111961 0)
(1.03675 -0.519517 -9.82731e-20)
(1.77133 -0.839978 0)
(1.97976 -0.485875 1.34916e-19)
(2.02155 -0.0816454 0)
(1.99602 0.0261472 0)
(1.82638 0.201193 1.34913e-21)
(1.55974 -0.760509 0)
(1.75901 -0.338921 0)
(-0.10902 -0.877362 0)
(2.02018 -0.0390813 1.63729e-20)
(2.05198 0.0786224 0)
(2.67912 -0.965015 2.06438e-21)
(1.95678 0.191241 2.89338e-21)
(1.11833 -0.527335 -9.32184e-20)
(1.91662 0.153677 5.18259e-19)
(-0.396934 0.0164614 -2.15996e-19)
(1.15026 0.592438 -5.06869e-19)
(1.55152 0.462818 0)
(2.58878 -0.0922462 1.13046e-20)
(1.75175 -0.288953 -1.94042e-19)
(1.77378 1.26262 1.29089e-19)
(1.96662 0.213195 3.21653e-19)
(1.02412 -0.410873 -6.16976e-19)
(1.71172 -0.745882 -3.25611e-19)
(1.87386 -0.57162 1.83652e-20)
(1.56587 -0.38571 0)
(3.16098 -0.345188 -6.97917e-20)
(1.57526 -0.374663 2.39495e-20)
(2.42772 -0.01141 -4.52804e-20)
(1.39228 -0.686663 0)
(1.98815 -0.0465174 -2.40057e-19)
(3.58423 -0.716889 -1.03966e-18)
(1.56207 -0.632352 4.28254e-19)
(1.46977 -0.666405 -5.19752e-19)
(1.95123 -0.885533 0)
(1.9893 -0.859949 0)
(1.91391 -0.510056 1.27502e-19)
(2.43321 -0.255741 -8.8326e-20)
(2.55341 -0.388786 -2.90411e-19)
(1.93973 0.0682454 -8.72294e-21)
(1.42294 -0.450598 -1.27201e-19)
(1.88854 -0.598898 3.50011e-19)
(2.29783 0.148992 0)
(2.22632 0.123999 -7.9006e-22)
(1.68397 -0.801584 -4.13369e-19)
(1.74304 -0.302935 1.18398e-19)
(2.00828 -0.310059 -2.35545e-19)
(0.635157 -1.287 1.5366e-18)
(2.50273 -0.339484 2.42417e-19)
(2.50685 0.321709 6.51195e-20)
(2.25794 0.269716 0)
(1.43098 -0.614438 0)
(2.60569 -0.91038 5.8201e-21)
(1.36871 -0.371516 0)
(2.0348 -0.434626 1.42052e-19)
(1.78441 0.149182 4.10745e-19)
(1.73586 0.247375 -1.26441e-19)
(1.78507 -0.716422 8.40496e-19)
(1.99627 0.0255688 -4.78895e-22)
(1.93573 0.0435982 0)
(1.94126 0.00478522 -5.77075e-22)
(2.34113 -2.10065 -8.55553e-19)
(2.19568 0.225152 0)
(2.8553 0.248578 0)
(2.14073 -0.837184 1.08347e-19)
(1.96656 0.412727 1.80163e-19)
(1.28872 -0.302949 0)
(2.01733 -0.325099 -1.04264e-20)
(2.0585 -0.17788 8.2812e-20)
(2.10928 0.139957 2.19061e-20)
(1.91929 0.316678 3.47522e-19)
(1.32824 -0.75249 -1.28379e-19)
(1.77228 0.164988 0)
(0.794882 -1.26295 -9.80388e-19)
(0.739242 -0.345216 9.2921e-19)
(2.03296 0.0385982 1.38576e-20)
(1.28715 -1.56091 -3.47831e-19)
(2.01455 -0.817092 2.2812e-20)
(2.35539 0.0513105 1.15295e-19)
(1.78685 -0.574018 0)
(2.09612 0.0835267 2.38695e-21)
(1.80626 -0.0673666 7.74307e-20)
(2.20216 -0.0314455 -1.22601e-19)
(2.11995 0.343596 -9.07982e-20)
(2.53435 -0.842365 0)
(1.3287 -0.814055 0)
(2.32931 0.00587475 0)
(2.33637 0.0765028 -5.45357e-20)
(1.30653 -0.613882 6.26064e-19)
(2.63721 1.34511 -1.1019e-19)
(1.63396 -0.227725 0)
(1.45783 -0.703544 -5.98678e-20)
(1.30982 -0.618628 9.27047e-20)
(1.75349 -0.782537 0)
(1.95242 0.156976 -1.06239e-19)
(1.71865 0.116247 -1.35302e-19)
(2.1549 -0.307959 -2.68252e-20)
(2.02383 0.0160745 -1.33987e-20)
(0.926827 -0.373467 0)
(2.05153 0.0476893 -1.5362e-19)
(2.18703 -0.389382 0)
(2.10789 -0.267807 2.76232e-21)
(1.16647 -0.056671 0)
(2.17224 0.509293 6.09798e-20)
(1.88782 -0.744833 -3.67905e-19)
(2.37927 0.406421 0)
(1.88585 -0.100489 -3.66683e-19)
(2.03288 0.0323534 1.84628e-20)
(1.87824 0.0193803 0)
(1.40616 -0.660239 0)
(0.765431 0.00508892 -8.1157e-20)
(2.32674 0.14887 -1.12832e-20)
(1.48875 -0.356665 -2.90795e-20)
(1.86687 -1.67993 4.92928e-19)
(2.24257 -0.136488 4.30172e-21)
(3.12831 -1.4369 6.37204e-19)
(1.75582 0.141098 -1.5825e-21)
(2.05018 0.421017 0)
(3.00089 -0.263362 3.98859e-19)
(1.9986 -0.899314 0)
(1.7272 -0.778794 -3.55449e-19)