/*--------------------------------*- C++ -*----------------------------------*\
| =========                 |                                                 |
| \\      /  F ield         | OpenFOAM: The Open Source CFD Toolbox           |
|  \\    /   O peration     | Version:  2306                                  |
|   \\  /    A nd           | Website:  www.openfoam.com                      |
|    \\/     M anipulation  |                                                 |
\*---------------------------------------------------------------------------*/
FoamFile
{
    version     2.0;
    format      ascii;
    arch        "LSB;label=32;scalar=64";
    class       volVectorField;
    location    "3.5";
    object      U;
}
// * * * * * * * * * * * * * * * * * * * * * * * * * * * * * * * * * * * * * //

dimensions      [0 1 -1 0 0 0 0];

internalField   nonuniform List<vector> 
13486
(
(4.92763 -1.02443 6.81101e-21)
(5.20503 0.307431 4.35446e-21)
(7.76866 -0.0469684 0)
(4.78191 -2.48813 -6.86807e-20)
(8.21501 -0.328332 -7.01021e-21)
(7.05505 0.571886 -9.15853e-22)
(7.96076 2.13168 -3.30284e-22)
(7.14784 -2.19444 2.64617e-21)
(6.49716 -1.07758 0)
(5.50643 1.53218 0)
(-4.06872 3.18299 -9.8925e-21)
(6.77238 -0.240489 0)
(4.56582 -1.58766 -6.54017e-21)
(6.4342 2.09073 -2.32226e-21)
(7.38764 0.932682 -3.06326e-21)
(5.43786 1.56238 -4.83741e-21)
(3.17825 -1.72793 1.05393e-20)
(-1.68807 1.59971 -8.76279e-22)
(6.20012 -0.0501406 1.87036e-23)
(5.30646 -0.528574 -7.12217e-21)
(1.82381 1.28538 -4.12252e-20)
(4.61514 -1.6259 8.42561e-21)
(5.25785 0.275478 -3.48825e-21)
(10.285 0.776273 0)
(5.76666 1.2766 1.70456e-21)
(10.6346 0.624309 -4.32042e-21)
(1.56895 0.183992 1.22804e-20)
(9.12021 -0.12696 9.84804e-21)
(5.63192 0.932236 0)
(9.51732 -0.600145 -1.00376e-20)
(-5.98867 9.73994 -2.79866e-20)
(6.11078 0.711038 4.6112e-22)
(9.80154 0.636798 5.84616e-21)
(8.14638 -0.635408 0)
(7.18299 -2.06604 0)
(4.93561 0.0776058 1.22983e-22)
(4.99185 -0.539906 -1.11563e-21)
(5.4852 -2.52429 1.51375e-21)
(5.91451 -0.964525 -2.91388e-22)
(6.40795 -0.645788 1.60311e-21)
(10.361 -1.70099 0)
(4.0352 -1.93828 -8.12127e-21)
(6.84673 0.0356823 0)
(5.856 1.09442 -7.77965e-21)
(5.84598 1.11068 3.17313e-21)
(6.74162 -0.238009 1.03208e-21)
(-7.44399 0.874249 2.0694e-20)
(5.43913 0.848249 5.37888e-23)
(4.90083 -0.518766 8.4817e-22)
(8.41353 0.341705 1.92939e-21)
(5.98335 -0.00503073 5.39092e-21)
(6.10394 -0.322978 0)
(6.22412 -0.542015 -2.78135e-21)
(5.64011 -2.0193 -2.6022e-21)
(-3.45135 0.433736 0)
(8.01778 -0.582572 3.68152e-21)
(6.46906 -0.186963 6.78363e-22)
(6.16348 -0.563154 -1.53293e-21)
(9.6692 0.684265 7.21249e-21)
(5.10396 -0.757407 0)
(-3.5713 2.97419 -1.08351e-20)
(5.16768 -0.821509 0)
(10.8342 2.66367 -1.05618e-20)
(1.85095 1.9266 -4.7656e-22)
(2.50735 5.29713 0)
(4.97114 -0.628106 -5.38162e-22)
(3.08661 -2.73383 -5.47792e-20)
(4.77703 -0.35975 2.68061e-21)
(6.51687 -1.14484 -4.18366e-22)
(4.92452 0.0499521 3.90738e-22)
(3.65406 -2.46089 6.32543e-20)
(-2.98937 0.466714 -3.76609e-22)
(6.26184 -0.385726 1.7226e-21)
(-1.33764 2.50147 -4.91161e-22)
(4.85724 -0.756675 -9.93404e-23)
(6.82499 -0.463991 -1.26768e-22)
(4.84148 -0.766102 4.49513e-22)
(7.50514 0.924036 1.34578e-21)
(-7.04499 1.0744 -1.13859e-20)
(7.02273 -3.88532 0)
(5.31419 0.145315 -2.78145e-23)
(5.05045 0.484486 -2.91307e-22)
(8.46412 2.20119 -2.2423e-22)
(7.83816 -0.164872 -1.38485e-22)
(4.92861 -1.04038 -1.32065e-20)
(4.00565 3.01782 0)
(4.16429 -1.88019 8.53545e-22)
(5.9705 0.0243491 -8.67951e-21)
(5.69323 0.206219 -3.64271e-21)
(4.93332 2.03284 -6.61572e-21)
(5.54415 0.169099 -1.06523e-21)
(7.60924 -1.54766 2.24438e-21)
(5.14398 -1.28422 1.55274e-21)
(5.28841 -0.180647 2.05799e-22)
(6.39626 -1.77783 1.15684e-22)
(5.39148 0.651568 -1.83929e-23)
(1.52379 0.0860557 0)
(-0.704888 -2.36243 2.28521e-20)
(6.39172 -0.614843 -3.12366e-21)
(1.8687 -1.06721 -7.96842e-23)
(5.36708 0.0552774 0)
(6.43478 2.04966 -9.06794e-22)
(-0.44578 -2.52479 -5.48623e-22)
(6.0993 -0.469227 1.78976e-21)
(3.67313 2.75638 0)
(1.13128 -0.993356 -5.12442e-23)
(6.00784 -0.0339305 -1.85426e-23)
(5.96113 -1.12231 -6.28668e-22)
(-6.34732 0.850838 1.41655e-20)
(7.44382 -3.22035 0)
(5.853 -2.68915 0)
(6.16296 1.68729 2.83925e-21)
(5.68758 -1.97889 1.05726e-22)
(7.9505 0.0450591 -8.10005e-23)
(3.90631 -0.762418 0)
(5.74307 -2.68721 5.58722e-22)
(5.70388 1.36082 0)
(8.61695 -0.670569 0)
(6.25473 -0.360343 0)
(4.86138 -0.373599 -6.01315e-22)
(-1.60874 0.0274814 5.4057e-22)
(-3.72455 2.9333 0)
(6.24588 -1.64165 0)
(5.94804 -0.965957 9.74359e-22)
(6.66096 -2.11308 0)
(6.10841 -0.313462 0)
(6.95537 -0.262358 -1.10962e-23)
(6.32154 0.232873 3.74709e-21)
(7.79621 -0.590832 -1.2635e-21)
(6.75885 3.73866 -1.98122e-20)
(5.97687 -0.240576 -1.88768e-22)
(-6.46552 0.734644 -5.3979e-21)
(-0.486935 3.49228 1.37352e-21)
(0.954431 -0.759756 1.15618e-22)
(5.9883 -0.0104393 -8.47845e-22)
(5.57643 0.784343 -5.15947e-21)
(2.81516 0.781825 -2.96362e-21)
(7.44746 -3.08284 0)
(4.83519 -0.302415 1.85449e-22)
(7.06136 -1.56104 5.11967e-22)
(9.16278 0.759379 -5.68675e-21)
(6.2277 -0.575652 2.39076e-21)
(6.22016 0.111184 0)
(6.85448 -3.50353 0)
(7.5329 0.104461 -1.15074e-22)
(9.45611 0.119709 -1.38766e-20)
(5.3927 -0.768413 -3.65384e-22)
(0.785106 2.02794 0)
(8.46456 0.475887 0)
(5.7005 0.908953 0)
(6.00962 0.000327815 1.14242e-22)
(8.09388 0.78139 0)
(5.37755 0.122447 2.91098e-23)
(4.94645 0.473063 -2.51713e-21)
(6.25004 0.809397 0)
(8.2188 -0.0750492 0)
(7.79516 -3.18665 0)
(8.36544 8.17506 2.4485e-20)
(6.07056 -2.28169 1.43916e-21)
(5.23687 -0.661145 -1.37135e-22)
(7.86351 0.186969 3.27922e-22)
(6.09626 -2.23173 -1.97741e-21)
(4.16627 0.579266 1.61708e-21)
(3.67496 -1.83035 3.4767e-21)
(6.21433 -0.400771 0)
(6.73061 2.23047 2.12478e-21)
(6.35191 1.84289 5.79315e-21)
(2.49105 -1.05058 -1.12557e-20)
(5.32465 -0.769132 9.6822e-22)
(1.28021 -0.588811 1.01181e-22)
(-1.60053 3.91273 1.17207e-21)
(6.226 0.722498 3.02187e-21)
(5.97996 0.0732184 -8.15481e-21)
(6.86724 0.149024 -4.26966e-23)
(5.33337 0.313392 -3.94546e-23)
(-5.52612 2.2919 0)
(6.08759 2.73723 -5.01027e-21)
(9.39138 1.09331 7.29144e-21)
(6.03975 -0.0384676 -7.29711e-21)
(6.26307 0.0286087 0)
(6.6137 -0.689055 1.77002e-21)
(8.16541 0.144379 -1.96142e-22)
(6.66901 0.209534 6.06837e-23)
(1.45874 -0.585777 0)
(7.4371 -0.382751 4.46975e-22)
(8.5267 -0.069209 -4.462e-21)
(6.31766 0.971972 2.13067e-23)
(8.98712 -0.648222 -2.586e-21)
(10.9734 -1.75626 0)
(5.25711 -2.49675 -1.76838e-22)
(4.83383 -0.479024 0)
(7.96346 0.0851697 0)
(6.36712 -0.889569 0)
(4.40535 1.41712 -6.04717e-21)
(6.57384 -1.06995 0)
(-3.95725 2.77476 -2.92887e-21)
(4.24009 4.49861 4.30251e-20)
(8.08133 0.103846 3.32222e-22)
(4.84823 -2.37457 -1.03435e-21)
(6.72186 2.10755 1.73877e-21)
(-7.46806 9.75661 2.55368e-20)
(6.34569 0.285112 -1.18429e-22)
(5.4315 -2.57125 -1.75412e-21)
(8.47767 -3.17348 -5.12659e-21)
(5.07247 -0.760079 2.22451e-22)
(6.66725 -1.04955 -1.59039e-21)
(-2.40781 3.48568 -3.268e-21)
(6.00261 -0.282373 4.61841e-21)
(6.33398 -0.874597 0)
(7.54522 -0.340143 0)
(9.10986 -0.292519 7.74406e-21)
(11.862 0.723977 1.21249e-20)
(5.35661 -0.454651 6.53746e-21)
(5.94544 -0.0190227 -2.0657e-23)
(7.07534 0.675416 1.05618e-21)
(9.69076 -3.61738 2.95512e-21)
(9.3931 -0.44224 0)
(4.96202 1.91981 1.49839e-20)
(5.39956 -1.29628 0)
(8.3561 3.54165 0)
(2.18743 -1.4749 -1.96006e-20)
(8.43069 0.573029 0)
(6.99192 -1.58795 -1.38575e-21)
(8.19637 0.269439 0)
(6.16693 -0.975761 -5.85959e-22)
(4.72856 -2.2064 2.05328e-21)
(7.29703 1.27902 8.94056e-23)
(-9.57796 5.76117 9.96215e-21)
(8.29453 -2.59271 6.1993e-22)
(4.76659 -1.93129 -1.01014e-22)
(6.59869 -0.658545 -6.07229e-22)
(13.3169 4.75364 4.41416e-20)
(9.29193 0.780104 7.09655e-21)
(3.98182 -1.90429 2.85985e-21)
(-3.70506 -1.71481 0)
(4.50683 -2.19169 2.14996e-22)
(8.68707 -0.73497 4.74788e-21)
(7.97224 0.0453031 -1.09626e-23)
(4.4861 -2.14464 6.13767e-21)
(6.70846 0.0547943 0)
(9.73964 0.608795 0)
(5.99788 0.0621341 1.25912e-20)
(8.27318 0.287988 0)
(4.32768 -2.12783 1.72635e-21)
(5.64922 -1.1458 -4.11903e-22)
(5.67646 -0.117269 0)
(6.92434 0.0278885 -1.37065e-22)
(10.0569 0.0586516 1.62578e-20)
(0.540944 -0.0613554 1.91395e-21)
(5.79285 1.00215 0)
(-2.29443 0.645248 -6.07899e-21)
(3.83877 -0.69823 1.22159e-21)
(5.39805 -2.61361 -1.21646e-21)
(6.00374 -1.1468 0)
(7.39145 -2.80189 1.8895e-21)
(-5.04797 2.67747 2.62397e-21)
(6.06582 0.672126 5.76807e-23)
(9.97347 -4.02963 -3.73424e-21)
(8.33048 8.3122 -2.56323e-20)
(9.86059 0.595216 5.11005e-21)
(5.47027 0.213464 0)
(5.60724 -1.12151 -4.25354e-23)
(7.38163 0.87696 6.85699e-21)
(-4.95706 2.44078 -3.27614e-21)
(8.44869 -1.89069 7.76712e-21)
(1.56438 -0.670829 0)
(8.22016 -2.3985 -4.43744e-21)
(-6.37038 8.09299 -4.47449e-20)
(6.51791 -0.0178768 -2.31434e-21)
(0.572776 -2.29559 0)
(4.49474 1.59058 5.03815e-21)
(5.98524 -0.0260215 -2.11171e-21)
(9.41735 -0.479235 0)
(6.64244 -0.480028 1.19242e-21)
(4.83216 -2.28124 2.69195e-21)
(10.2088 -0.11917 -9.03227e-21)
(7.33331 -2.53164 0)
(-4.74104 0.0243311 0)
(6.05357 -1.32347 -7.51619e-22)
(5.61583 -0.893418 7.43131e-22)
(-4.39755 -1.23368 4.31758e-20)
(6.70233 -0.318293 -5.76233e-22)
(5.9509 -0.0231493 4.49058e-21)
(8.53875 0.167299 -3.7836e-21)
(-3.87742 2.92351 1.45337e-20)
(2.10945 -0.414253 2.26968e-20)
(9.13383 1.00093 5.53587e-21)
(7.40996 -0.668743 1.66146e-21)
(6.86037 -0.949707 1.04041e-21)
(6.35673 -0.0299277 0)
(-2.51673 -1.87117 0)
(5.30152 -0.867652 2.26121e-22)
(5.65625 -2.62785 1.55757e-22)
(6.0082 -0.00464908 -8.21349e-22)
(8.64619 -0.721864 4.37901e-21)
(8.87119 -0.710397 0)
(7.82538 0.0124033 -6.67421e-22)
(6.76747 -0.432481 -1.00657e-21)
(5.95959 -0.0524335 -4.00822e-21)
(9.58945 1.20678 -1.23272e-20)
(4.28503 0.472604 -1.86606e-21)
(-2.70197 3.87711 5.32095e-22)
(5.85138 -0.869673 -6.33272e-22)
(6.21723 0.71624 -2.43251e-22)
(4.9885 -0.360221 1.96834e-22)
(7.95616 -3.6648 0)
(13.7033 4.87374 0)
(6.24989 0.00419786 2.27625e-22)
(4.68249 -2.16078 -6.12399e-22)
(4.92593 -0.517674 0)
(4.28449 3.52344 2.25361e-21)
(4.3867 -3.56221 0)
(5.89488 2.57455 2.98849e-21)
(6.178 1.64135 1.88555e-21)
(-1.93294 1.40892 0)
(5.56249 0.688638 -3.28406e-21)
(5.15929 -0.814746 -3.29735e-22)
(5.64478 0.20146 -3.10813e-22)
(5.97665 -0.281314 -5.29979e-21)
(8.46093 -2.33002 0)
(4.89663 -0.615164 1.0032e-21)
(5.35581 -0.87165 2.76494e-23)
(6.03901 -0.0169243 9.28803e-22)
(5.28469 -0.0779093 -4.00359e-21)
(2.89906 0.714924 5.33877e-21)
(5.65245 0.362367 2.39045e-21)
(7.35898 -0.27962 6.65604e-21)
(6.73611 -0.300034 0)
(7.10052 -0.52103 -6.19405e-24)
(7.45028 -0.139768 2.03373e-21)
(5.99437 -0.0160343 1.25326e-20)
(7.69151 -1.49441 0)
(5.13444 0.162446 -7.8456e-22)
(4.62338 0.406429 0)
(8.16239 2.25035 1.96989e-20)
(6.59278 -1.57257 1.10208e-22)
(3.20546 -1.52903 3.86851e-21)
(8.05331 0.574032 7.06416e-21)
(5.98959 0.308352 0)
(5.56666 -1.0684 -5.34663e-22)
(8.4151 -2.24857 4.85361e-21)
(5.27087 -0.0720633 3.78595e-21)
(7.55826 -0.131095 -6.50305e-21)
(6.6931 0.254948 -4.80116e-22)
(-0.853583 1.28927 -1.32164e-20)
(5.47833 0.78911 3.29776e-24)
(6.87729 -0.0833728 0)
(3.87555 -1.4543 8.76886e-21)
(8.36018 3.61979 0)
(5.25093 -0.842949 -1.71055e-23)
(6.74697 -0.0131007 6.43671e-22)
(6.8962 -0.536959 -1.14891e-21)
(6.64763 -0.462546 1.03469e-21)
(0.624543 -0.0155812 -1.4247e-20)
(5.96619 -0.0385969 4.9701e-21)
(5.12496 0.040296 0)
(-1.99986 2.63271 1.37779e-22)
(6.93185 -0.229637 2.22276e-22)
(5.03304 -2.02282 2.03766e-22)
(11.3 0.832551 1.02314e-20)
(7.26736 -0.0541292 0)
(5.63489 -0.137266 2.33458e-21)
(5.58526 0.0482137 8.44892e-21)
(5.97678 -0.0201465 6.43948e-21)
(9.54339 -0.632635 0)
(5.43665 0.0934688 4.16278e-25)
(8.85894 -0.66303 -4.45917e-21)
(-6.34545 1.2387 2.06201e-21)
(5.25181 -0.509688 9.1364e-22)
(6.93138 -0.204268 -2.12011e-22)
(7.12972 0.0391947 8.48309e-23)
(6.85065 -0.12113 0)
(6.18033 -1.05965 -2.43737e-21)
(-2.86526 1.53464 5.04767e-21)
(6.77647 1.24439 -2.66681e-21)
(6.01192 -0.010322 4.46068e-21)
(4.80172 0.00940216 0)
(5.38947 -0.94018 -4.92793e-22)
(-1.41713 0.757801 0)
(7.03472 4.50089 6.49597e-22)
(6.55799 -0.050229 0)
(7.91087 -1.8991 -2.56405e-22)
(4.64201 -0.801588 -2.06027e-21)
(4.45478 1.32688 1.13483e-20)
(-7.21386 0.905184 -1.25212e-20)
(7.52503 -2.4445 0)
(6.62365 0.190966 -3.62357e-21)
(5.95714 0.330933 -3.67028e-21)
(1.21317 -1.07354 -3.15878e-21)
(0.271936 8.83431 5.12488e-21)
(5.42053 -0.498027 -9.64735e-21)
(9.3463 -0.337989 3.87417e-21)
(6.0488 0.409262 3.00105e-21)
(5.10726 -1.65265 0)
(4.484 0.176885 4.91294e-21)
(4.72613 -0.290737 -6.05731e-22)
(4.49123 -3.52464 3.92626e-20)
(-2.23535 1.21953 -1.8229e-20)
(1.34421 -1.46019 -8.57404e-21)
(9.17237 0.965964 0)
(0.734693 -1.17796 0)
(5.30585 2.53169 0)
(6.5637 -0.155041 0)
(14.6206 1.90835 -3.08872e-20)
(7.77127 2.04652 0)
(3.82606 -1.67907 0)
(5.33505 -0.119654 1.51083e-21)
(9.41694 1.06879 -7.49184e-21)
(6.79912 -0.147253 -1.60826e-22)
(5.23713 0.389576 1.5517e-20)
(6.00291 0.0493306 -1.80953e-21)
(5.24766 3.68953 0)
(9.26299 -0.0929553 0)
(5.93817 -0.0360769 4.29957e-21)
(5.97114 0.0343277 7.50197e-22)
(3.83866 1.41708 0)
(1.2348 -0.537161 1.46113e-20)
(8.42036 -1.91056 -8.71261e-21)
(-3.05635 3.24269 0)
(6.72217 0.0848998 2.07195e-22)
(6.0377 -0.0234993 -4.93098e-21)
(3.14589 3.83613 1.40886e-21)
(3.86256 -1.4381 0)
(5.94013 0.339819 6.54207e-21)
(7.57343 0.863629 0)
(9.00625 -0.605161 0)
(6.38741 0.52235 -5.66069e-22)
(5.93513 -0.0177068 2.41143e-21)
(2.04927 0.15442 -1.60856e-20)
(6.30886 1.76333 1.85866e-21)
(4.71903 -1.3625 -3.18394e-21)
(6.54784 -0.152926 2.45849e-22)
(6.12223 0.445386 2.41649e-21)
(6.93966 -1.06602 6.25964e-21)
(8.74584 -1.41236 0)
(10.0757 0.0789872 7.44623e-21)
(4.62236 -0.645392 0)
(5.34801 -0.910865 2.24028e-22)
(6.87658 0.0953019 0)
(4.82561 -0.345627 5.75437e-21)
(-4.68272 0.334885 -1.39505e-20)
(9.34209 -0.300472 0)
(-0.674855 -1.37901 -4.28195e-24)
(9.33005 -0.106123 -7.52839e-21)
(4.87251 -1.29407 6.30431e-22)
(5.94041 -0.910893 6.11269e-21)
(4.20701 1.26457 -7.11001e-21)
(4.69574 -1.34194 -9.47179e-21)
(7.04457 4.48467 0)
(4.8854 -0.384622 5.47909e-22)
(-1.4315 1.87249 -3.07096e-20)
(5.94006 0.343835 0)
(5.63373 0.240763 3.40529e-22)
(8.0369 0.192951 -4.42619e-22)
(6.5483 3.21125 0)
(5.9977 -0.00766775 0)
(1.05241 -0.620837 0)
(-6.07837 3.05711 1.25982e-20)
(7.51015 0.609467 4.48103e-21)
(8.97821 0.46133 3.82702e-22)
(5.88439 2.45144 0)
(5.65424 -0.73497 5.28255e-21)
(5.28458 0.294006 8.31238e-23)
(6.32551 1.63343 -4.36713e-21)
(3.30974 -1.38002 7.48912e-20)
(5.80787 0.149234 0)
(5.52249 0.87543 0)
(3.12134 -0.97455 -6.59493e-21)
(5.02188 -1.64425 -2.02552e-21)
(6.35618 -0.500764 0)
(6.5732 -3.00095 3.35608e-21)
(5.49841 0.0436515 -5.88056e-23)
(5.45645 0.592124 3.20373e-23)
(3.43642 -1.60748 0)
(6.94654 -0.585088 2.26377e-21)
(4.82681 -0.279882 5.33009e-22)
(7.62737 0.844373 -7.06075e-22)
(6.56038 -1.65898 0)
(1.87674 -0.432642 -3.44173e-20)
(6.8262 -0.511162 1.09929e-21)
(5.96666 0.095482 1.2522e-21)
(4.96684 0.0388841 2.45314e-22)
(6.93199 2.29145 0)
(5.23931 0.3961 -4.12005e-21)
(8.85195 2.6494 -1.54187e-21)
(2.03203 -1.62824 2.09597e-21)
(5.98662 0.042022 0)
(0.374335 7.49077 -5.2597e-21)
(2.55465 -0.894155 0)
(6.01478 0.0385651 -5.05487e-21)
(5.96914 -0.00634706 1.81163e-21)
(5.88852 -0.103751 -8.3282e-22)
(-5.30885 2.26667 0)
(7.53928 -0.104003 -3.19039e-22)
(3.83695 0.412219 1.38339e-20)
(8.67262 -1.69458 0)
(5.29584 -0.153661 4.58802e-21)
(9.62377 0.762983 1.41966e-20)
(6.55653 0.0510392 0)
(-6.55681 6.9042 1.95995e-20)
(6.657 -3.3772 -3.37532e-21)
(7.19485 0.0489298 0)
(0.247246 -0.540248 2.13173e-20)
(5.60648 0.202722 0)
(6.30752 -2.77996 -5.56534e-22)
(-2.80006 0.680306 1.04878e-20)
(6.26514 1.07602 -2.24999e-23)
(7.14136 0.555224 1.56816e-21)
(4.49552 0.131984 2.53461e-21)
(5.91311 -0.976576 -2.17737e-21)
(7.4364 -2.27024 -1.7529e-21)
(6.31475 -2.68497 1.0048e-22)
(6.91427 -0.243039 -4.44095e-23)
(6.87759 2.28509 -3.88795e-21)
(8.00834 -3.28239 0)
(5.99981 -0.0273107 -3.95679e-21)
(-2.09763 3.43331 -1.36602e-21)
(4.70468 -0.664007 0)
(4.49145 -0.493666 -2.91069e-22)
(4.90052 0.0279409 0)
(4.40312 -1.41112 8.50846e-21)
(7.75876 -2.30898 0)
(5.23929 0.0305159 -2.33111e-22)
(6.87488 -0.0303445 -3.89386e-22)
(-8.88565 7.48127 3.0479e-20)
(0.724198 -0.410882 2.24964e-20)
(7.16005 0.000894713 -6.33549e-24)
(7.02542 -3.21624 -7.10696e-21)
(6.19687 -1.65573 1.09908e-21)
(5.12921 -1.27433 0)
(0.764367 -1.06035 -8.48776e-21)
(8.89727 -1.3041 1.68345e-21)
(0.717228 -1.12539 -1.00046e-20)
(5.41237 0.691429 -1.12411e-23)
(5.09391 -1.98496 0)
(6.57099 0.0124469 -4.03156e-23)
(1.47899 -0.68127 0)
(-1.93245 -2.29362 -5.57356e-22)
(3.64582 4.11386 -2.22342e-21)
(8.60228 7.5542 0)
(7.24126 -1.27236 -5.68952e-22)
(2.59982 5.39175 0)
(6.56778 3.1637 0)
(6.02159 -2.77656 6.96255e-22)
(4.69163 0.287906 4.03345e-21)
(6.09646 -5.1745 0)
(5.57537 0.10855 -2.41119e-21)
(8.63495 0.426888 1.68963e-20)
(-2.97632 2.05391 2.09483e-20)
(6.20702 3.67591 0)
(6.31757 -0.030525 0)
(-1.404 1.75947 -1.31787e-20)
(6.05092 -0.431975 0)
(7.56165 -0.159789 0)
(-3.95394 2.79196 2.67148e-22)
(6.93134 -0.825006 7.02293e-22)
(5.98469 -1.37564 1.37964e-21)
(9.84719 0.519817 7.45424e-22)
(1.0053 -0.894999 1.8373e-20)
(5.98663 -0.0144228 2.04128e-21)
(5.24923 -1.32306 0)
(6.10154 1.17224 -1.52234e-21)
(4.89432 -0.965844 0)
(7.05205 -0.0462287 0)
(5.97625 0.140708 0)
(6.37352 0.48834 -4.58769e-22)
(5.96985 -0.294445 2.4491e-21)
(8.08569 0.352492 2.85113e-22)
(5.3733 -1.33395 0)
(0.764741 -0.0574897 -1.16412e-20)
(5.30189 2.38206 3.94933e-21)
(6.66068 -2.12634 -8.42174e-23)
(7.64378 -0.857804 -2.96103e-21)
(10.2146 -0.199408 1.69729e-20)
(6.2604 0.0561248 -2.76302e-21)
(-4.55639 0.28303 0)
(6.7652 -0.451838 0)
(4.21074 1.43713 0)
(4.51011 -2.01799 -5.64176e-21)
(-8.55963 7.84393 -2.79951e-20)
(8.18537 6.22606 0)
(6.15813 1.17584 0)
(6.25106 -0.830358 2.50986e-21)
(6.13838 -0.0171685 -4.1215e-22)
(5.44431 1.28112 6.36298e-21)
(8.98083 -3.21952 0)
(0.927249 -0.386452 -4.28319e-21)
(6.73901 0.215224 2.00387e-21)
(4.90956 -1.54797 -5.0041e-21)
(6.4178 0.235579 -2.93811e-21)
(6.31319 1.65932 5.5407e-21)
(6.34278 2.87018 5.65993e-21)
(4.46024 -2.00173 9.82536e-21)
(12.1932 -4.43849 2.60804e-20)
(8.29166 0.168996 -1.60395e-22)
(6.0037 -0.00830656 -9.18805e-22)
(6.10421 -2.86321 1.45488e-21)
(6.70819 -3.02599 1.4834e-21)
(3.87235 3.85759 -4.35794e-21)
(6.35821 -2.91537 -1.318e-21)
(7.1402 -0.48803 0)
(4.3153 -1.712 -2.46181e-22)
(6.37688 -0.0238842 -6.03576e-21)
(7.53829 2.94562 -3.05368e-22)
(4.81102 -1.44424 -4.79145e-21)
(6.57685 -2.04697 2.46893e-22)
(6.22608 0.0128664 1.78227e-21)
(8.10899 -0.115342 -1.02426e-21)
(3.45278 -1.3677 -2.50019e-21)
(9.0528 1.11182 -2.97261e-21)
(4.15259 -0.958769 -1.27494e-20)
(6.5319 -0.0193526 -5.29803e-21)
(4.14269 -1.13287 0)
(-10.043 6.2222 -4.46366e-20)
(6.59457 0.0463536 5.67188e-21)
(4.62257 0.0494792 3.50412e-23)
(-1.8028 2.01802 0)
(7.42394 -3.14685 0)
(5.8089 0.939799 5.68602e-21)
(3.83181 -0.983431 8.17865e-21)
(0.0182973 4.91695 -1.52197e-20)
(7.91847 -1.9196 3.18062e-21)
(7.43128 -0.234724 -3.77441e-21)
(8.60325 3.43101 0)
(5.78499 1.02427 3.31848e-21)
(-1.88257 2.64058 -9.29438e-22)
(6.20693 2.73679 -4.38702e-21)
(6.52018 -0.661103 -1.51297e-21)
(1.28336 -1.05109 -2.96681e-20)
(10.1785 -0.407501 -1.59229e-20)
(9.95519 0.115827 3.08065e-21)
(5.62102 2.76297 0)
(8.80653 -1.71144 -2.99321e-21)
(5.91452 -0.117718 7.20879e-22)
(5.32758 0.198581 -4.6033e-23)
(3.69324 -1.80736 9.93414e-21)
(6.45887 -0.723785 2.32842e-21)
(5.20964 -0.734171 1.23564e-22)
(-2.44331 1.56606 -1.29158e-20)
(8.42599 -0.24203 -3.85455e-21)
(6.41513 0.0796391 4.75591e-21)
(-3.74552 3.23214 -1.89938e-21)
(6.04564 2.56847 8.69606e-21)
(0.836288 -0.644021 -2.31624e-20)
(4.58972 -2.21014 -2.31064e-21)
(5.42341 0.199035 0)
(6.71815 -0.264162 6.0489e-22)
(-3.87766 2.96432 -5.63017e-21)
(4.60699 -0.860409 1.09011e-20)
(6.85046 0.793119 0)
(4.007 -0.00390699 2.14563e-21)
(4.30944 -1.78353 2.39113e-21)
(5.98366 -0.000595401 -8.79375e-21)
(1.21108 -0.766877 -1.43113e-20)
(5.80836 -4.72766 -1.15409e-21)
(6.83235 -0.130737 7.88343e-23)
(6.58952 0.234392 5.45576e-21)
(6.41727 -2.82288 1.50712e-21)
(8.24361 0.289891 -4.66209e-22)
(-8.07056 7.63861 -5.2236e-20)
(6.3938 -0.0171657 5.663e-21)
(6.51491 -0.140551 -1.1167e-21)
(6.2497 0.282287 -4.65657e-23)
(7.32122 0.0651576 -1.75655e-21)
(4.20769 -1.84778 -4.62551e-21)
(8.31603 0.30213 0)
(-7.10172 1.65987 1.49749e-20)
(6.39912 0.0579497 5.35374e-22)
(3.47652 3.86116 2.23369e-21)
(7.31711 0.196253 1.48544e-21)
(7.34448 -0.482462 1.77037e-21)
(5.9983 0.0232384 -7.87524e-21)
(6.05155 0.731101 1.86502e-21)
(1.31808 -0.542943 -1.50183e-20)
(7.67729 -0.143092 0)
(5.44532 -0.955339 2.69555e-22)
(6.97288 -0.608649 1.17757e-21)
(5.11586 -1.93808 0)
(6.22824 0.21449 3.90892e-21)
(7.12245 -0.549767 1.34138e-21)
(7.63214 -0.152919 6.89822e-26)
(11.1263 -2.41767 1.27977e-20)
(6.85353 -1.02449 0)
(5.34952 0.568786 8.10606e-21)
(5.37415 -0.650045 -2.82995e-22)
(6.1091 -2.79127 -1.2946e-21)
(6.48748 -0.430702 0)
(4.68969 0.25038 -1.15582e-20)
(-0.994207 -0.677419 -1.06864e-21)
(5.71944 3.52718 4.83818e-21)
(4.18844 -1.00507 1.24112e-20)
(7.3058 0.0908725 -2.43105e-22)
(0.967029 -0.29181 1.65286e-20)
(6.2247 -0.35948 -3.12041e-21)
(9.90396 0.161198 -9.38575e-21)
(5.5728 0.0659426 -4.90948e-21)
(7.10183 0.147529 0)
(6.00967 -0.0182501 -3.42925e-21)
(8.32226 0.550571 1.41366e-19)
(-0.371684 1.53522 0)
(10.7514 1.15186 0)
(5.33346 0.214703 0)
(2.66705 -1.86094 0)
(5.96365 0.65561 0)
(4.01442 -0.956867 0)
(9.9906 -2.95656 -7.94671e-23)
(9.4605 0.313176 -6.51248e-21)
(7.36309 1.39571 0)
(5.31701 0.486462 1.20686e-20)
(0.258971 -3.48486 1.52525e-21)
(6.07053 0.434157 6.54697e-23)
(-3.74948 3.06662 -2.77117e-21)
(3.9506 -0.422622 5.43272e-23)
(1.153 -0.768868 1.28552e-20)
(5.7304 0.0305417 -4.13457e-22)
(8.34764 0.322964 3.22759e-22)
(5.92301 0.604408 -3.73803e-21)
(5.72411 0.169052 -7.08118e-21)
(5.2415 2.1433 -6.80711e-21)
(6.93422 4.25088 0)
(2.19488 3.21239 1.60564e-20)
(4.46506 -1.46485 -9.302e-21)
(6.01257 0.0139631 -1.0161e-20)
(8.91714 -1.12673 1.55348e-20)
(7.08099 -0.0130126 3.99539e-22)
(11.4365 1.35368 -1.85143e-20)
(6.95596 -0.467008 1.02737e-22)
(7.23513 -1.25466 2.05342e-21)
(5.96322 0.293584 3.80422e-21)
(4.12029 3.25685 0)
(7.24304 -2.03728 -1.48046e-21)
(5.42463 -0.184222 -1.45126e-21)
(7.27625 2.22011 0)
(6.14609 -1.18241 0)
(6.88836 -2.97287 -1.07212e-22)
(-0.162957 -0.20507 1.81552e-20)
(10.1042 -3.56084 -1.44736e-20)
(5.70623 -0.290638 0)
(6.06995 -0.289702 -4.73998e-21)
(5.5395 0.21375 -1.3634e-21)
(-8.69994 1.95017 1.10007e-20)
(7.35827 -0.373967 5.05147e-22)
(1.2096 -0.929711 0)
(2.48292 2.23479 1.83754e-20)
(7.39208 -0.481936 0)
(8.81601 -1.88517 3.39487e-21)
(5.45954 -0.0519317 -1.42104e-21)
(6.03661 -0.0242049 2.48704e-24)
(6.35201 1.86449 -1.02843e-20)
(6.32497 3.41757 -1.85601e-22)
(6.01125 -1.64175 2.83321e-21)
(-2.05348 9.33044 0)
(2.13722 3.80769 -5.71659e-20)
(0.695831 -6.34148 0)
(7.5479 1.44295 2.97013e-22)
(-7.35092 0.556315 2.96416e-20)
(11.8157 0.655621 1.08284e-20)
(5.51145 -0.967711 -3.14488e-22)
(-4.56415 2.86894 -1.44755e-20)
(5.59207 -2.58599 1.49522e-21)
(4.57698 -1.46353 -5.19433e-21)
(4.7255 -0.314052 2.1057e-22)
(5.43464 2.7282 4.63343e-20)
(4.25276 -1.87181 3.81211e-21)
(4.73493 -1.52433 5.37485e-21)
(-8.99157 6.86639 3.01095e-20)
(7.81524 2.97289 -1.97894e-20)
(6.44746 -1.77228 1.85177e-22)
(-6.67033 1.14724 1.03109e-20)
(8.0953 0.199794 -1.58196e-22)
(0.22972 -3.46851 -1.07642e-21)
(6.54731 1.25718 -2.29971e-21)
(8.11224 -0.626026 0)
(2.35975 -1.76268 -1.98385e-20)
(6.24567 -0.0303048 -6.56664e-21)
(5.96048 0.146719 0)
(7.47316 1.32258 0)
(-3.14639 -0.312645 -5.47878e-20)
(10.1095 0.49769 -7.33626e-21)
(6.99707 0.782167 -4.42527e-21)
(6.90812 -0.790729 -9.65759e-22)
(5.27545 2.09133 5.81924e-21)
(4.87814 -0.0858719 1.00064e-21)
(-6.98972 0.422774 1.6057e-21)
(5.1883 1.18756 0)
(4.85708 -1.61437 4.88847e-21)
(-5.13146 1.93701 3.06993e-21)
(-4.49967 2.64023 1.12045e-20)
(6.03801 -2.16874 2.43416e-22)
(8.43313 -3.65366 6.03926e-21)
(5.79802 -0.0333106 5.27392e-22)
(5.81694 -0.95716 2.81768e-22)
(9.37692 -0.777091 1.02999e-20)
(-6.61789 0.419513 -1.4532e-20)
(6.95645 0.745722 3.33928e-21)
(5.98574 -0.0487507 2.43923e-21)
(4.10607 -1.11125 -5.08404e-21)
(6.07031 -0.37039 2.77739e-21)
(2.46218 -1.3526 0)
(6.81175 1.23012 4.52393e-21)
(6.04187 -0.0377092 5.47948e-22)
(5.0895 -1.19354 -1.63654e-21)
(4.53529 3.50817 -3.89028e-21)
(6.34337 -1.76678 5.12158e-22)
(6.31909 0.0122364 9.20472e-22)
(4.55458 -0.178869 -8.11871e-21)
(7.449 1.84449 0)
(5.47801 -0.87502 -6.31727e-22)
(6.46096 0.264221 3.97134e-21)
(7.995 -0.961524 0)
(4.69277 -0.403717 4.43659e-21)
(7.44088 -0.38832 0)
(4.06412 3.32595 1.44467e-20)
(7.69733 -0.0421376 0)
(7.31166 -2.23983 0)
(6.92566 -0.164606 4.61354e-22)
(6.94963 0.580732 2.64256e-21)
(8.74855 1.57174 -3.21311e-21)
(5.81379 0.108044 -3.2618e-21)
(4.30927 1.99925 -3.79913e-21)
(5.96604 0.0708481 -1.57642e-21)
(6.01119 0.691919 0)
(-5.62166 0.397891 -3.84143e-21)
(7.28304 0.586482 -1.6351e-21)
(8.65149 -1.96467 -6.91424e-21)
(8.12861 -0.664456 0)
(7.65675 2.89219 -2.16548e-22)
(5.08661 3.60272 -7.38222e-22)
(8.14288 0.175096 -7.97954e-22)
(-1.64 4.1695 0)
(-3.69912 3.24846 8.62798e-21)
(6.02868 0.323181 0)
(9.26783 -0.571998 -4.96861e-21)
(0.658465 -0.403735 0)
(5.04706 1.12404 0)
(12.3131 -3.51548 0)
(7.52231 -2.32564 0)
(-3.27306 2.36097 -1.85782e-21)
(-6.55124 3.14506 -2.97889e-21)
(5.96478 -0.278663 -3.68074e-21)
(-10.7799 7.42485 -3.70462e-20)
(4.49884 -1.93495 0)
(-9.65569 6.48453 -1.66815e-20)
(-0.582689 0.580647 -1.89834e-21)
(5.59284 -2.57973 0)
(5.11095 -1.82451 -4.56224e-21)
(4.99355 -0.816258 -1.5132e-22)
(6.52532 1.18784 6.08534e-21)
(10.5885 -1.94681 -1.16158e-20)
(5.68974 0.123772 0)
(8.25754 -1.58282 0)
(10.3052 2.59126 2.99543e-21)
(6.58025 -2.63855 2.96644e-22)
(5.01883 -0.405202 -4.03242e-22)
(-4.08181 0.911107 -1.97366e-21)
(5.99774 -0.0092165 2.55168e-22)
(7.22428 -0.224987 5.25001e-23)
(5.96276 0.280618 5.39961e-21)
(5.38943 -0.847251 2.85448e-22)
(6.57674 -1.52354 0)
(2.4588 0.613788 0)
(8.18105 0.31983 0)
(4.83773 0.0777479 0)
(5.83953 -1.09317 1.66369e-21)
(8.88275 0.526541 0)
(-3.87579 2.68616 1.94836e-20)
(4.63767 3.48281 6.02528e-22)
(4.67087 -1.57476 -8.21344e-21)
(0.405009 -2.72744 -1.00975e-21)
(-7.92012 2.88506 -7.95412e-21)
(-4.30031 2.61964 -9.35738e-21)
(6.5246 0.081797 7.26579e-22)
(-5.2798 0.679707 -9.83528e-21)
(5.35394 -0.819077 4.14858e-22)
(7.04215 -0.154306 0)
(7.52575 0.390974 0)
(2.9072 -3.04793 0)
(7.39665 -0.564465 -1.0829e-21)
(5.25909 4.24872 0)
(5.20879 1.17897 0)
(5.99812 -0.00580343 0)
(6.02605 -1.36096 1.3224e-21)
(6.1193 0.409324 -6.00292e-21)
(4.92778 0.078457 0)
(10.2168 -2.3316 -1.09762e-20)
(5.8958 0.263286 -4.53586e-21)
(6.26533 2.65445 9.06818e-21)
(5.63479 -2.54006 1.39126e-21)
(5.37431 1.39324 8.43756e-23)
(6.99892 -4.03015 -3.47013e-22)
(6.00889 -1.30655 7.38691e-22)
(7.81282 -2.67643 -3.97683e-21)
(6.87172 0.617913 -3.54372e-21)
(4.97092 -0.344676 -9.19509e-22)
(5.70701 -0.0587118 -4.36721e-21)
(6.32737 -0.0149796 0)
(4.27654 4.11309 -1.66947e-21)
(5.97008 -0.0226097 4.68059e-21)
(-2.16851 0.399554 8.25799e-22)
(6.91415 -0.478154 1.67941e-22)
(3.89864 -1.02756 -8.89717e-21)
(6.92619 0.519115 5.9041e-22)
(8.84102 2.7261 2.23052e-21)
(5.98603 0.0768838 0)
(3.71178 -1.5407 -7.75769e-22)
(5.72161 -0.447956 -3.09672e-22)
(7.89434 -2.65704 8.0299e-21)
(3.28199 -0.859122 -8.54537e-20)
(6.2383 -0.0026122 1.92831e-21)
(8.46401 0.246641 1.51537e-22)
(7.25944 0.105729 1.66433e-22)
(8.06475 0.414068 0)
(0.972248 -1.29551 0)
(5.2647 -2.47837 2.49489e-21)
(1.14507 -0.769814 1.54578e-20)
(5.4011 0.131072 -6.04754e-24)
(6.00472 -0.0176327 9.18991e-21)
(3.95434 -1.65609 2.38017e-21)
(4.67282 0.16664 0)
(5.65283 -0.0587327 0)
(5.4641 -1.26216 -1.49506e-22)
(6.80442 -0.101428 6.81318e-22)
(5.4558 1.35105 9.21669e-21)
(6.3174 0.0627448 0)
(7.26537 -0.0446153 0)
(7.46732 -1.3925 -5.47073e-21)
(6.41527 -0.413633 1.76091e-21)
(1.22235 -1.4245 -1.52377e-20)
(7.17961 -0.607561 0)
(2.13284 1.40963 5.70288e-21)
(10.851 -1.26575 -3.6574e-21)
(-3.65339 2.94467 -7.92654e-21)
(6.29115 -0.114759 -3.63981e-21)
(10.6415 0.333017 0)
(10.0059 0.459964 5.93655e-21)
(-0.622543 3.92305 -7.70662e-21)
(-0.771437 -0.206356 0)
(4.87194 0.0472003 -7.70382e-22)
(5.8636 0.0305352 -3.19112e-21)
(5.34271 0.0585038 -4.96282e-25)
(5.45412 0.265926 7.34436e-22)
(3.31958 3.45754 -6.55328e-22)
(6.42526 0.0520098 0)
(3.92296 -1.5166 -1.19432e-22)
(3.44909 -1.5916 -2.1894e-21)
(-1.15605 1.45127 -7.59252e-21)
(5.94484 0.626984 4.42642e-21)
(-2.31332 7.40007 1.43101e-20)
(6.24187 0.0238202 -8.73045e-21)
(5.15702 -0.742564 -1.00502e-22)
(5.69787 -1.17151 4.53395e-22)
(5.91072 -1.28026 0)
(5.71192 0.0017095 -1.95816e-21)
(4.18015 -1.9153 3.06789e-21)
(6.78987 -0.0148369 -9.77968e-22)
(6.03873 -0.0309163 -4.11353e-21)
(9.16158 -0.698376 4.44705e-21)
(5.5066 -0.70488 8.19468e-21)
(7.86896 0.171192 1.68248e-22)
(5.58755 -0.0197042 2.65589e-21)
(4.48675 -0.538589 -8.89524e-22)
(9.80926 0.539249 -8.36577e-21)
(6.0528 2.80633 7.34518e-21)
(-0.409899 5.59329 1.19794e-20)
(6.00958 -0.0252578 0)
(3.85527 -2.7127 0)
(11.8128 4.4118 0)
(4.63375 -1.47181 6.48943e-21)
(6.2022 0.0337567 -6.5302e-21)
(5.50461 0.226999 0)
(5.2046 -1.21794 -4.53436e-21)
(5.51772 0.169126 0)
(5.85061 -0.980031 -2.72908e-21)
(8.74051 -2.05507 -8.14468e-21)
(6.46295 -1.42334 -4.08446e-22)
(6.51637 0.0476537 0)
(5.98712 -0.0709646 0)
(7.88243 -0.976254 2.84057e-21)
(7.34518 1.2028 -8.8946e-23)
(8.51723 0.168785 3.17517e-21)
(5.2115 3.83843 -2.39333e-22)
(5.95266 0.320987 0)
(6.07765 -2.11219 -3.27723e-22)
(-0.838121 1.12882 0)
(3.08843 1.26642 -5.91302e-21)
(6.37033 3.40202 0)
(8.36706 0.339149 -2.65033e-22)
(4.15418 -0.908648 3.33071e-21)
(5.10629 -0.733842 2.94045e-21)
(6.63035 -0.690687 -2.58574e-21)
(6.18282 3.66609 -3.37865e-20)
(6.36738 -0.517318 4.40406e-21)
(5.96349 0.671662 -7.31168e-23)
(10.6154 1.18231 2.28175e-20)
(6.74025 -1.06482 6.0618e-23)
(-1.11733 -0.0927259 1.32955e-23)
(7.26016 1.76135 0)
(6.04528 -0.0151059 -1.11942e-23)
(5.31018 -1.38393 0)
(5.73156 -1.06833 -5.6009e-22)
(6.17464 -2.08284 -8.15756e-23)
(5.56001 -0.643796 -2.63554e-21)