/*--------------------------------*- C++ -*----------------------------------*\
| =========                 |                                                 |
| \\      /  F ield         | OpenFOAM: The Open Source CFD Toolbox           |
|  \\    /   O peration     | Version:  2306                                  |
|   \\  /    A nd           | Website:  www.openfoam.com                      |
|    \\/     M anipulation  |                                                 |
\*---------------------------------------------------------------------------*/
FoamFile
{
    version     2.0;
    format      ascii;
    arch        "LSB;label=32;scalar=64";
    class       surfaceScalarField;
    location    "3.9";
    object      phi;
}
// * * * * * * * * * * * * * * * * * * * * * * * * * * * * * * * * * * * * * //

dimensions      [0 3 -1 0 0 0 0];

oriented        oriented;

internalField   nonuniform List<scalar> 
20045
(
0.498393
-0.542735
0.0443418
-1.06634
0.382275
0.684065
0.386856
2.05545
-2.44231
-0.379705
0.543583
-0.163878
-0.855769
0.807071
0.0486978
-0.642221
2.27005
-1.62783
-0.986685
0.377227
0.609458
0.0596645
0.432277
-0.491942
0.47894
0.411869
-0.890808
-0.818401
-0.0919384
0.91034
-0.466594
-0.419778
0.886372
2.2249
-1.05632
-1.16858
0.351348
-0.358021
0.00667284
-1.24202
1.10279
0.139232
-0.282353
1.0206
-0.73825
-1.0672
0.248803
0.104915
-0.270265
0.16535
0.4621
-0.518765
0.0566646
-1.68482
2.46747
-0.782645
-0.748182
0.0513223
0.69686
-0.554952
0.402826
0.152126
0.115913
0.235435
-0.136268
-0.930072
1.07085
1.17573
-2.24658
0.802661
0.222836
-1.0255
-1.21792
2.28877
0.145943
-0.149902
0.00395877
-1.40082
2.65683
-1.25601
1.65192
0.306348
-1.95827
-2.68678
1.43182
1.25496
-0.53978
0.592875
-0.0530948
1.37408
-0.992863
-0.381218
-0.681289
1.73866
-1.05737
2.6362
-1.45761
-1.17859
-0.553228
0.612892
2.09067
-1.02925
-1.06142
1.25527
0.0990161
-1.35429
-0.0623174
0.381875
-0.319558
-1.98
0.970906
1.00909
0.594607
0.521918
-1.11653
0.0429465
0.427424
-0.470371
0.153548
-0.213303
0.0597557
2.25566
-2.25691
0.0012551
1.46678
-0.554086
-0.91269
0.694564
0.772212
0.99387
1.23103
-0.333236
0.258222
0.075014
1.29607
0.472989
-1.76906
1.51614
-0.260867
0.224492
1.96021
-2.1847
1.30284
-2.19577
0.892931
1.78475
-1.25643
-0.528317
-1.1784
-0.817411
1.99581
-0.0939312
-0.297608
0.391539
0.69918
-0.415091
-0.28409
-0.68572
-0.170049
-0.518062
2.02533
-1.50727
1.50807
0.221935
-1.73
1.30797
-1.98926
1.44465
-0.933915
-0.51074
-0.546131
-0.359575
0.905706
0.705341
0.739314
0.319845
-1.77424
1.45439
-0.272332
-0.28262
1.79473
-0.481907
-1.31282
1.41262
0.0636574
-1.47628
0.207807
-0.529013
0.321207
-0.669801
0.155529
0.514272
0.848412
-0.369473
1.65285
-1.6856
0.0327496
0.466804
-0.258997
0.175877
0.523303
-0.2497
-1.04503
1.29473
-0.0147283
-0.162991
0.177719
1.55414
-0.45291
-1.10123
1.34735
-1.86542
0.141113
1.41302
0.464116
-0.746469
0.234791
-0.410218
0.175427
0.274127
-1.21652
0.942397
1.02019
1.14768
-2.16787
0.894877
-0.697885
-0.196992
1.25149
-0.931641
-2.63912
0.445813
2.19331
0.0197969
0.478596
-0.515877
0.591579
-0.0757019
0.572741
-1.28736
0.714622
-1.60034
0.0664915
1.53385
1.0296
0.157978
-1.18758
-0.819146
0.755423
0.063723
-1.37986
-0.205753
1.58561
0.724851
-0.139044
-0.585807
0.408379
-0.579548
0.171169
-0.166961
-0.80882
0.975781
0.579839
-0.621281
0.0414417
1.51615
0.311423
-1.82757
0.126307
0.0196356
-0.15939
0.603922
-0.444532
1.2188
-0.624194
0.163764
-0.306172
0.142408
1.42385
0.666823
-0.422418
-0.819604
0.533001
-0.692391
-0.379867
1.88793
0.0149658
-0.530843
0.300678
-0.136914
0.43982
1.21125
-1.65107
1.02491
-1.82639
0.801474
-0.0984449
-0.457797
0.39616
0.0616366
-0.24326
0.307572
-0.0643121
1.17387
-0.899915
-0.27395
-0.493508
0.399577
1.23021
-2.39804
1.16784
-0.169441
0.31492
-0.145479
0.0511928
-0.297811
0.246618
1.14286
-0.340202
1.8586
0.777602
-1.16654
0.916836
1.2624
-1.7062
0.443803
0.462565
-0.000464939
-0.902978
0.356847
-0.766363
0.620287
0.146076
-0.955083
0.103794
-0.580612
0.476819
1.213
0.571751
1.09567
-1.42375
0.328078
1.59503
0.200426
-1.79546
-2.21592
1.64073
0.575192
0.246991
-1.6501
1.40311
1.86099
-0.647985
0.399434
-0.141213
-0.0456015
0.00458506
0.0410164
-0.0643922
0.0554261
0.00896609
1.14225
0.799537
-1.94179
1.18193
-1.14109
-0.0408366
-0.329546
0.187117
0.142428
-0.325324
-0.132473
1.94584
-0.683443
-0.649682
0.684048
-0.0343653
1.26171
-2.38661
1.1249
0.321282
-1.49968
1.09242
0.444628
-1.53705
1.38032
-1.10619
2.07346
-0.267852
-1.80561
1.17226
-1.76692
0.59467
1.96322
-1.30398
-0.659241
-0.256758
0.441478
-0.18472
-0.115414
2.26119
-2.14578
2.12031
-0.468382
-1.65288
0.056031
1.59685
-0.956588
0.800597
0.155991
1.95561
-0.935415
0.330064
0.564813
-1.24006
1.54647
-0.306406
-1.73337
2.12023
0.0232638
-0.367833
0.344569
-0.134953
0.233507
-0.0985541
-0.0386753
-0.364581
0.403256
1.04403
0.770189
-1.81422
2.85399
-1.4103
-1.44368
-0.4395
0.400825
0.691118
-1.32213
0.631015
0.184338
-0.0307901
-1.6363
-0.887311
1.35559
-0.468282
-1.32238
0.937934
0.384448
-0.029271
-0.0514308
0.0807018
0.876193
1.08703
-0.0320707
-0.0323215
-0.11989
0.0742881
-1.41206
0.171996
-1.46348
1.85859
-0.395106
-1.32188
1.48746
-0.165587
-1.11873
-0.862415
1.98114
-0.40221
0.922955
-0.520745
0.899244
-0.901763
0.00251935
2.09107
0.00671355
-2.09779
0.0140304
-1.49807
1.48404
-0.711191
1.80361
0.384154
-1.0876
0.703443
-1.10237
2.33257
-1.61794
1.07926
0.538678
0.429866
-0.413534
-0.0163322
1.04466
-2.51112
1.46646
-2.11603
0.71521
-1.16899
-0.899735
2.45435
-1.43711
-1.01724
-0.551354
0.594301
0.29687
-0.315043
0.0181729
-1.36973
-0.228052
1.59778
-1.91701
2.65611
-0.7391
1.85401
-1.41235
-0.441658
0.156182
-0.483119
0.326937
-0.639756
-0.909771
1.54953
0.45402
-0.920614
-1.40066
1.64765
-1.51626
-0.484904
2.00116
0.209027
0.0539339
-0.262961
0.322976
-1.21029
-0.540859
0.00107848
1.73138
-0.136347
-0.307113
0.244795
-0.319246
0.3878
-0.0685535
-1.1332
2.17723
-1.67227
1.03251
0.0169308
0.205084
-0.222015
-1.40116
0.273038
1.12812
0.538669
1.31534
2.64587
-1.60121
1.59839
-2.777
1.17861
0.63994
-2.35191
1.71197
0.0616583
-0.80984
-0.979693
1.41951
1.29268
-1.9349
0.964149
-1.72917
0.765017
-2.90296
1.68863
1.21433
-0.0295583
-0.789587
0.359233
0.278186
-0.637419
1.48585
-0.553276
-0.932578
-0.201257
-1.57833
1.46292
-0.498603
-0.151079
1.33773
2.12471
-1.71024
-0.414475
-0.0202211
-0.259882
0.280103
1.31761
0.28917
-1.60678
0.374542
-0.859609
0.485067
-0.520456
1.5657
-1.04525
-0.851848
1.42459
1.13131
-0.747154
-0.178549
0.476931
-0.298382
2.02699
-0.765282
0.204538
-0.018584
-0.185954
-0.222734
-0.461134
0.683867
-0.241915
0.251609
-0.00969443
2.41766
-1.47732
-0.94034
0.51287
-2.42988
-0.266461
0.0245457
-1.71996
0.547192
1.17277
2.736
-0.997339
0.496632
-1.96012
2.80578
-1.17652
-1.62926
-0.0303086
0.239335
1.72293
-0.977297
-0.745632
-1.21608
0.273645
0.942439
-1.91794
1.92201
-0.00406686
0.784867
-2.18205
1.39718
0.0231425
-0.109741
0.0865983
-0.91646
1.24675
-0.330291
-0.13235
0.792745
-0.660396
-0.286307
0.116866
-0.288674
0.0454149
-1.0862
-0.740192
0.801151
-1.70364
0.902488
-0.423307
0.811455
-0.388149
0.799763
0.574318
1.59894
-0.634792
-0.00596213
-0.128991
1.45451
1.28149
-0.984654
0.0343374
0.950316
0.796357
0.926572
0.760893
0.25971
-0.779272
0.355965
-0.557641
-0.0518333
0.609474
0.0523434
0.377522
-1.65905
1.13859
-0.0190326
-0.415427
0.43446
-1.81603
1.7604
0.0556317
-0.653283
0.913303
-0.26002
-0.42325
-0.204964
0.628214
1.51855
-1.6586
0.140053
-1.77836
-1.12461
2.5284
-1.59568
-0.932722
-0.202404
0.182183
2.35968
-1.57482
-0.946217
1.74737
-0.907679
0.0929416
0.814737
1.75722
-0.471326
-1.28589
2.17672
-0.57295
-1.60377
-0.916047
0.0083681
1.6447
-0.972113
-0.672588
-0.32866
1.56522
-1.23656
0.847789
-2.07459
1.2268
0.479946
0.426758
-0.906704
-0.172752
0.0248048
0.147947
2.6219
-2.22776
-0.394145
-1.21012
-1.0058
1.40227
0.722438
-1.67093
-0.145099
0.339464
-0.562197
0.651656
-1.39023
0.738572
0.00756243
0.289308
-1.07408
2.21633
0.990649
1.42701
2.67258
-1.57177
-1.1008
-1.95137
1.46646
1.39533
-2.36618
0.970853
-1.24349
-0.0869736
1.33047
-0.496578
-0.326983
0.823561
1.12158
-0.430465
-0.279278
0.296209
0.872746
-0.0794943
-0.913369
-1.23916
1.67568
-0.436519
-0.372893
0.053647
-0.210978
0.0324294
0.239623
-2.15756
0.713236
-1.56508
0.146409
-0.377701
0.498987
-0.121286
0.0483721
-0.428077
-0.965026
0.74751
0.217516
0.691169
0.482696
1.10825
-0.286195
-0.822059
0.976982
0.204946
-0.680171
1.33183
1.14315
-0.113545
-0.414474
-0.986687
2.1877
-1.76967
-0.418036
1.51164
-1.59439
0.782494
0.811899
1.57904
-1.72452
0.145477
-0.869118
0.702157
-0.217732
-0.111814
-0.23032
-1.14954
0.579917
-1.07117
0.491248
0.826391
0.81831
1.33866
-2.23066
0.892003
0.469746
-1.06096
0.591214
-1.94346
0.343113
0.0304608
0.69439
-1.08341
1.65946
-0.576057
-0.498623
0.609113
-0.110491
-0.834274
-0.152411
-0.24402
-0.451133
0.695153
0.181622
0.00200673
-0.183629
-0.629543
-0.327045
0.751868
0.884428
-1.6363
1.60446
-0.808102
0.528652
-0.893023
0.0239047
0.925039
-0.455293
-1.31397
-0.303965
0.719304
-0.783001
0.0636966
1.91759
-0.621521
-0.920441
1.48673
-0.566288
-0.228132
0.262712
-0.0345795
1.41555
0.0703063
-0.768689
-0.62154
-1.01845
1.84351
-0.825057
1.21579
-2.22749
1.0117
1.1752
1.35321
-0.134325
0.116189
0.0181356
0.185664
-1.42916
1.27121
-1.91737
0.646157
0.144856
-0.159585
-0.159889
1.25556
-0.69644
1.40968
-1.55437
2.19431
0.407636
-2.09246
-1.7041
0.918634
0.785471
1.27696
-0.209122
-1.06784
1.86902
-0.350477
-0.998151
-1.04343
-0.913668
1.19525
-0.218239
0.442119
-0.223881
0.632641
-0.581319
-1.42376
1.26388
1.77486
0.4808
-1.56344
0.643004
2.08467
-0.682398
-0.624648
0.822676
-0.198028
0.0739698
-1.26575
1.19178
-1.80347
0.335833
1.46763
1.59831
-1.59831
-0.788372
1.54652
-0.758145
0.873775
0.234479
1.27804
-0.658367
-0.619673
-1.87411
1.95978
-0.0856664
0.659516
-0.0804593
-0.579057
0.517291
-0.214303
-0.302988
0.211362
-0.634612
0.181196
0.890262
-1.83648
-1.68732
1.9745
-0.287179
-0.560683
1.31255
0.330944
0.0221078
-0.353052
-0.152265
-0.176436
0.3287
-0.747283
0.808941
2.56912
-2.08373
-0.485396
-0.1548
-1.05299
1.20779
-0.452523
0.496658
-0.0441349
0.245467
-0.545454
0.299987
-1.80988
0.645051
1.16483
0.337095
0.206489
-0.832141
0.207493
0.0385662
-0.360507
0.321941
1.2946
1.3273
0.335772
-0.0048278
-0.0817542
-0.562732
0.644487
-1.00094
1.59337
-0.592437
-0.0143858
0.218809
-0.204423
0.833174
-0.455948
1.28298
-0.412221
-0.870755
0.0214709
-0.830291
0.377336
1.71374
0.862457
0.588469
-1.45093
0.92199
-0.81333
-0.10866
-2.02938
0.376499
-0.796232
0.318158
0.478074
0.992092
1.31939
-2.31148
-1.25378
1.1668
0.119547
-1.8148
1.69525
-0.243089
0.399271
0.4645
-0.479809
0.0153096
0.0510838
-0.608725
0.303194
-0.201617
-0.101578
-1.33469
-0.385268
1.22528
0.0930911
-0.0704583
-0.0226328
-0.23718
0.00904763
0.339817
-1.41001
1.0702
0.537724
1.05798
-1.5957
0.882576
-1.39662
1.72487
-0.328253
-1.43142
1.10276
-0.0689613
-0.0809405
-0.753782
-0.568599
-0.502543
0.133329
0.369215
-1.73296
0.732019
1.33538
-1.49018
0.861548
1.22312
-0.597426
0.594965
0.00246079
0.823172
-2.25602
1.43285
0.293717
-0.526891
0.233174
0.635232
-1.40392
-1.2591
-0.0627774
-0.618596
-0.051205
0.118137
-0.0838011
-0.0343362
0.790764
0.0057972
-0.0401326
0.0343354
2.19197
-1.19988
-1.03896
1.70765
-0.668695
0.521035
0.356518
-0.877553
-0.709379
0.46629
-0.418092
-0.0844511
0.890371
0.387669
-0.366231
-1.33997
0.732765
-0.0134609
1.22425
0.814853
0.328296
-1.88949
2.11398
0.271688
-0.922924
0.651236
-0.17876
-1.64895
1.82771
-0.595525
0.636204
-0.0406785
-0.795892
0.393681
-1.11475
1.96254
1.95216
-0.779906
-0.845891
-0.119135
0.0167324
-0.813473
0.796741
0.814009
-1.93274
-0.27371
-0.908347
1.18206
-0.212066
0.50204
-0.289974
-1.29699
0.0992129
1.19778
1.85379
-1.3808
-0.0357045
0.165532
-0.129828
-0.421868
-0.0306547
0.355347
0.713743
-1.06909
0.238991
-0.297346
0.0583549
1.23562
0.689338
-1.92496
-0.711015
2.22716
0.178083
0.00353919
-0.58715
-1.17408
1.76123
0.60286
1.34298
1.9199
-1.38218
-0.684989
0.440969
-0.189701
0.0169494
-0.89444
2.28977
0.26874
-1.52929
1.26055
1.715
-0.285963
-1.42904
-0.989483
1.3937
-0.40422
0.785722
-0.952533
-0.79432
1.74685
0.300802
-0.371019
0.0702169
-0.569044
-0.970561
1.53961
-0.366203
0.213939
0.0606481
-0.0899192
1.01087
-1.57991
-1.40643
-0.420362
1.82679
-0.121261
-0.957075
1.07834
0.143683
2.56752
-2.6297
0.0621805
0.412795
-0.28833
-0.124465
0.00223088
-0.599657
0.513049
0.462732
-0.628667
0.132089
-1.6188
2.05301
-0.434212
-0.548127
0.529095
0.540205
0.840115
-1.75113
-0.505779
-0.195616
-0.0654417
0.261058
1.06408
-0.249226
-0.399233
0.439042
-0.0398091
0.706199
-0.838549
-2.34247
1.17348
1.86449
0.40556
-0.246194
0.491661
-0.392507
0.913542
1.80034
-0.910082
-0.410574
0.0113414
-0.207918
-1.21585
0.366111
0.450091
-0.426828
-1.84
0.0365353
0.183305
0.414957
-0.12124
-1.70244
1.25034
0.452096
1.40137
0.251481
0.363764
-0.115632
-0.248132
0.545776
-0.506733
-0.0390431
-1.60565
0.576395
-2.05828
1.03983
0.584728
0.0165878
-0.601316
-0.0785648
0.585739
-0.507174
2.08999
-0.000772888
-2.08921
0.338298
0.0197785
-0.358076
-0.266239
-0.500124
0.442597
-0.0342178
0.0749694
-0.0687961
-0.00617325
0.756324
-0.102064
-0.654259
0.0729621
0.0020073
1.61622
-1.30479
-0.058983
-0.274733
0.333716
-2.06904
0.450237
0.0509661
-0.303398
0.836399
0.00342174
0.0896694
-0.0509309
0.0449687
0.473789
0.317469
-0.791258
1.22223
0.572503
0.87115
-0.599462
0.414552
-0.363359
0.133409
-0.632032
1.17551
0.0845955
-1.26011
1.06246
-0.0758499
-0.98661
-1.08496
-0.681964
-0.725126
-0.0411947
0.766321
0.789214
-0.822959
0.0337447
2.19477
-0.0583726
-2.13639
-0.825338
0.159634
0.665704
-0.974265
1.29965
-0.325383
1.17492
1.28215
-2.45707
0.601796
-0.961371
-0.53585
0.852295
-0.316445
0.420784
0.187652
-0.608436
-2.39031
1.3938
0.996509
-0.0527961
-0.016
-1.68675
0.280327
0.592022
-0.36995
-0.222073
0.969099
-1.21196
0.242863
-0.165464
-0.377271
0.362521
2.205
1.63831
-0.272592
-1.36572
-1.68641
0.28979
0.67067
-1.08514
1.5799
-2.41328
0.833385
-0.191973
0.551206
-0.00801743
-0.746395
0.664641
-0.306057
0.409851
-0.309048
-1.66799
1.97703
0.99425
1.36543
-1.47552
1.55707
-0.0815554
0.102377
0.0157604
-1.19098
-0.498018
-0.223413
0.248655
-0.0252423
1.12519
-0.390171
-0.73502
0.0416686
0.0983202
-0.139989
-0.11853
1.08763
-1.55346
-0.186063
1.73952
-1.53187
-0.484946
2.01681
0.929355
-0.68264
-0.246715
-0.40436
0.0394874
0.364873
-0.582486
0.208961
0.373526
-1.99716
0.108098
1.88907
0.0553286
0.358569
-0.413898
1.5784
-1.79033
0.211929
-1.02749
1.76627
0.492795
-2.25907
0.0186952
-0.242108
-0.120215
-1.37603
1.49625
1.18086
-2.28323
-1.89323
1.64742
0.245818
0.282798
-0.043807
1.43523
-0.895025
-0.0897068
-0.459863
0.54957
-0.0191476
0.298208
-0.27906
-0.354725
1.76202
-1.4073
1.40944
-0.777577
-0.631859
2.04384
-1.95477
-0.0890706
1.50691
-0.511035
-0.995873
0.0899296
-0.435038
0.345108
-0.555938
-0.0246746
-1.92731
1.699
0.228317
0.120495
-2.04781
-0.511833
0.926664
-0.414831
-1.17377
-1.05399
0.358711
-0.314782
-0.0439295
-1.61704
-0.452004
-0.342723
0.226829
0.115895
-0.202067
0.576609
-1.8497
1.77972
0.0699741
-0.370031
-0.237487
0.0744962
0.364694
-0.0263965
-1.189
0.272542
0.248097
-0.303022
0.0549253
-1.55913
0.839955
0.71917
0.70205
-0.0425331
-0.481043
1.39755
0.0180029
0.692665
-0.156946
0.37455
-0.217604
-0.13909
1.03833
-1.20532
0.779819
0.425498
-0.163766
0.11097
2.29722
-1.30297
1.95123
-1.12806
-0.480273
-0.288342
0.768616
0.989537
-1.87973
0.890196
1.0939
-1.21516
1.89819
-0.853761
-1.04443
-0.00876569
-1.01752
-0.1878
-0.508772
1.61644
-1.10767
0.0975499
-0.726342
2.32473
-2.11887
0.501833
0.862492
-0.382546
-0.154253
0.105062
0.259134
-0.00752522
-0.973464
-0.979501
2.7725
-1.42515
-0.906493
0.77047
0.136023
0.124889
0.392402
-1.30091
-0.816118
2.11703
0.434983
0.686599
-0.00352465
-0.265029
0.268554
1.63867
-0.621459
0.0729978
0.548461
1.27671
-0.101199
-0.700988
-2.00897
0.321654
-0.417804
0.0217828
0.396022
1.14913
1.65665
1.11268
-0.947599
-0.165081
1.95842
0.0854164
1.19446
-1.69125
0.496788
-1.63711
-0.0383905
1.6755
-1.57774
2.04582
-0.46808
0.254019
-0.00662723
-0.247392
-1.04164
2.2225
-0.5884
-0.417605
1.006
0.0684837
-1.544
0.438029
-0.167168
-0.27086
-1.92682
2.51472
-0.587894
-0.458998
1.05492
-0.595925
2.32276
-1.02208
-1.30068
-0.0262117
-1.17307
1.19928
-0.406883
-0.072926
-1.02281
2.19773
0.72746
-1.51583
2.18045
-0.964657
-0.348991
0.290008
-1.72658
0.0894774
2.34459
-1.00593
-0.0212323
-2.61789
0.470305
-0.0428805
0.720466
1.03967
-1.76014
1.08151
-0.244406
-0.837108
1.19404
-2.10801
0.913968
-0.298099
0.019502
0.278597
-0.390827
-0.946573
1.3374
0.68113
-0.547721
-0.532179
0.0984984
0.433681
0.214715
0.562554
-0.777269
0.150638
0.208074
-1.81368
2.13389
-0.320208
-0.566834
-0.0286915
0.887182
0.397642
-1.28482
1.18043
1.13557
-2.31599
0.30829
0.968674
-0.0392009
2.11266
-0.006802
1.56952
-1.56272
-0.00360591
-0.0107798
0.0966703
0.0180206
-0.114691
2.37123
-2.11058
-0.26065
0.880621
1.01757
-0.352598
0.185888
0.16671
-0.570991
1.58869
-1.0177
0.0272649
0.28753
-0.314795
1.20062
-1.84267
0.642045
-0.809607
-1.28371
2.09332
1.69151
-0.373895
0.587916
0.493598
-0.813007
-0.0683732
0.88138
0.554113
-1.60711
0.326564
-0.966864
0.640301
0.352368
-0.14555
-0.206817
0.086693
-0.493576
-0.145358
1.42044
-1.27508
-0.345835
2.30605
1.52445
-1.22113
-0.30332
1.23659
-1.07861
-1.00479
0.295749
0.709044
0.294115
-0.952483
0.446844
-0.180589
-0.266255
0.107962
0.255802
0.290463
1.46059
-1.75105
0.413831
0.342492
0.245078
-1.77694
-0.864362
0.316785
0.547577
-0.634915
-0.459339
1.09425
0.928718
-0.454929
-1.66705
1.10637
0.49869
-0.394265
-0.104424
-0.907959
1.73697
-0.829012
-0.848801
0.870272
-0.86842
1.05263
-0.184206
-1.10556
1.824
-0.71844
-0.0418059
0.402271
-0.360465
-0.645538
0.566973
-0.528545
-1.08872
1.73831
-0.649597
-1.07242
1.34546
0.994344
-1.00872
0.0143783
0.556207
0.218946
-0.775154
-2.48544
1.62461
0.860831
0.0562845
0.440657
-0.496941
0.174512
1.37523
-1.72996
1.77313
-0.783592
-0.701478
-1.00263
-1.39767
1.39086
0.979225
-0.0412911
0.764051
0.209737
-0.973788
-0.623717
0.575337
0.0483798
-0.247636
-0.0821392
0.329776
-0.593531
-0.798369
1.3919
-0.112572
0.914013
-0.801441
-1.4609
-0.56243
2.02333
-0.303676
0.859883
1.91515
0.456078
-1.69543
1.03251
0.662919
-0.689405
-0.0898816
0.779287
0.00947274
0.326894
-0.427902
0.101009
-1.20702
-1.63131
1.03777
0.250494
0.374582
-0.284653
0.520069
0.605123
-0.115146
-1.53495
0.0526753
0.527164
0.200439
0.143179
-0.343618
-1.30751
-0.988722
2.29623
-0.250031
-0.562976
-0.983556
-0.218667
1.20222
0.233967
0.360785
-0.594752
-0.0517966
2.22576
-1.43327
-0.792497
0.340631
1.29768
0.230606
0.325445
-1.01432
0.688875
-1.09818
2.11379
-1.01561
-1.09664
-0.532589
1.62923
-0.878051
0.342202
-0.80065
-0.204142
1.96398
-0.905538
-1.05845
0.939322
-0.470476
-0.468846
0.752604
0.0935947
-0.846199
-0.30643
0.361759
0.50086
-0.841321
0.340461
0.12205
-0.0515065
-0.387993
-0.0165604
1.10295
0.861036
-0.702767
1.67367
-0.895192
2.32701
0.720096
0.219226
-1.69873
0.602089
1.42349
-1.23783
-0.192086
-1.22339
0.249123
0.34053
-0.852363
1.45002
-1.37605
1.62566
-0.0466226
-0.377688
-0.20186
-0.531817
-0.13017
0.661986
-0.556878
-0.0644029
1.4746
0.286101
-1.7607
0.0471199
-0.481899
0.434779
-0.0352456
0.837831
-1.69385
0.856019
1.72559
-0.147183
-1.99716
2.15667
-0.159506
0.411472
-0.255943
-2.10262
-0.382821
-0.621523
1.76062
-0.0616207
0.892384
2.20906
-0.796231
-1.41283
-1.27694
-0.0558796
1.33282
0.504233
0.980956
-1.48519
-1.36669
0.0696973
-0.314685
-0.27669
0.591375
-0.926929
1.19567
0.245803
1.0242
-1.27001
0.0962414
0.281601
-0.377842
-1.93923
0.252456
1.68677
0.76137
1.01176
-0.451753
1.11346
0.393443
-0.56928
-0.226952
1.63355
-1.9014
0.383315
-0.742164
0.358849
0.972793
-0.370997
1.32513
0.096524
-1.42166
1.45215
-2.34735
0.0362006
-0.0130582
-0.451798
0.538734
-0.0869362
-1.50247
1.38226
-0.0338984
0.521261
-0.487363
-0.812678
0.417466
0.395212
-0.278783
-0.517109
-0.487339
1.15801
0.50906
0.0756678
-0.277409
0.296104
-0.430102
-0.429507
-0.0588861
-0.0508547
-0.358989
0.342943
0.0160456
0.372612
-0.423922
0.0513098
-1.07827
0.625362
0.28543
-1.26899
-0.0345997
-0.516754
0.0432988
1.07037
-1.11367
0.597536
-0.64937
0.20892
-1.60044
1.39152
-0.52295
1.46426
-0.941314
0.346045
-1.5852
-0.590602
-0.0474505
-1.84578
1.39052
1.38198
-1.47018
-0.196875
-0.87626
-0.718132
-0.775469
0.324336
-0.0861695
-0.0396431
0.125813
2.51079
-1.36166
1.65725
-0.386034
-0.444935
-0.283029
0.727964
-2.38751
1.06363
1.32388
-0.993616
0.573838
-0.413535
2.17981
0.291483
-0.17557
-0.721656
-0.767478
0.179078
0.809078
-0.853278
0.0441998
-0.241762
1.71636
-0.436358
0.838275
-0.401917
1.41773
-2.54002
1.13511
1.40491
0.413963
0.401713
-0.815675
1.10229
-0.453659
-0.648633
-0.992154
0.533156
-1.88257
0.0274037
0.7252
1.7674
-1.94616
0.761156
-0.340372
-0.786953
1.34107
-1.73516
1.2466
0.48856
1.29732
-1.93651
0.639193
-1.36872
1.44335
-0.0746234
0.835718
-0.974808
0.0228861
0.458896
0.470459
0.298281
-1.51481
0.671022
-2.00349
1.11668
0.886807
0.443408
-1.72034
1.30944
-0.0843212
-1.13176
0.240002
0.36757
2.02407
-0.677587
-1.34648
-0.342888
0.492579
-1.12749
0.275362
-1.89205
1.83617
-1.57739
0.624858
0.931661
-1.28798
0.713083
0.574899
-1.64709
1.00672
0.64037
-0.437789
0.164537
-0.376603
-1.9388
1.3573
0.581501
1.19433
-2.23597
-1.79333
-0.0203487
2.37515
-0.795252
0.385114
0.187209
-0.572323
-0.0432302
-0.26808
0.31131
-0.565174
0.912183
1.04437
-0.786697
-0.501285
0.324133
0.356997
0.435903
0.66769
-1.10359
0.698433
-0.420247
-0.0597209
-2.1113
2.17102
-0.608309
0.791516
-1.50271
-1.32384
-0.88956
2.21339
0.456574
-0.595618
-1.29793
0.401309
0.896622
-0.112512
-0.0714624
0.183974
1.62783
-1.93688
-0.0787215
-0.373077
0.967117
1.05056
-2.01768
-0.937452
0.0309598
-1.56671
0.435568
1.13115
-2.09863
1.28902
1.01523
-2.11341
1.03361
-0.650297
-0.0876108
-0.0249009
-0.0468046
1.76181
-1.16603
1.45236
-0.286326
1.75215
0.0046157
-1.75676
-1.28916
-0.0258339
-0.351867
0.104087
1.49422
0.20641
0.0563021
0.496279
1.03044
-0.156662
0.953459
-0.401935
0.154298
-1.74312
-0.106575
-1.64197
0.533172
-1.51047
0.31459
0.352217
-0.666807
1.58462
0.0946181
-1.67924
-0.189569
0.182942
-0.65886
-1.39942
-1.49753
-0.226984
-0.935479
2.38763
-0.62807
0.854238
-0.226169
-1.88218
0.574673
-0.522371
0.958274
-0.50267
-1.19977
-0.935801
-0.599726
0.602245
-1.17903
-0.380098
2.01519
-0.254574
1.14578
-0.520565
-0.625211
0.190101
0.28683
0.460222
1.95339
-1.83385
0.00969013
-0.4175
0.588669
-0.934369
0.968706
-0.837442
-1.0083
0.398504
0.314701
-0.713204
-1.64507
0.0467642
-0.22714
1.45769
-1.23055
-0.104477
-1.89269
-1.32702
1.61619
2.80678
-1.25161
-1.55517
-0.264397
0.582555
1.51479
-0.806487
-0.708307
0.469551
-0.521057
0.0580071
0.0386632
-0.381245
0.0878843
0.293361
-0.194753
0.958804
-1.05192
2.24625
-0.0612274
-0.253555
-0.511353
-0.141763
0.653116
-0.0483033
1.67614
0.382413
0.860624
-1.24304
-0.714726
1.07007
0.813444
0.775246
-0.678112
-0.18625
0.963668
-0.355154
-0.608514
-0.104706
0.083075
0.0216313
0.319389
-1.55689
1.2375
-1.75666
0.259131
0.400049
-0.971752
1.50492
-0.0170783
0.486629
0.21774
-0.84581
-1.86451
0.950843
-2.047
0.636699
-0.826771
0.0794882
-0.776687
-1.08271
1.8594
-1.56802
0.380914
0.263129
-0.644043
1.97403
-1.52821
1.58061
-1.07637
0.290298
0.991154
-1.28145
0.391306
-0.705991
-0.923743
-0.42474
1.34848
0.531864
-0.219947
-0.311916
-0.99136
2.23467
-1.24331
1.48581
-0.951961
-0.533846
1.38654
0.0443786
-1.43092
-1.05933
-1.48069
-0.597044
-0.0215515
0.726242
1.13474
-0.0288331
0.155506
-0.126673
-1.26518
-0.301531
1.34109
1.12637
-1.00046
1.19325
-0.192787
-0.623796
0.696793
-0.061725
0.433194
-0.371469
0.367498
-0.803856
-0.212515
-1.72629
-1.67452
0.457807
0.0408822
-0.364716
-0.176143
0.128107
1.39218
-1.52029
-0.937114
-0.251888
0.86495
0.739509
0.12769
-0.453014
-0.144262
0.464541
-0.320279
0.153471
-0.662212
0.508741
0.412234
0.501068
0.670256
1.54445
-0.718056
1.65095
-0.85943
-0.194421
-0.456625
0.651046
1.41109
0.154128
0.0553567
-1.2526
0.861773
0.805713
-0.854016
-1.00003
-1.27679
2.27682
-1.23578
-1.15173
-2.15837
2.23086
-0.0724878
0.722509
-0.671102
0.540932
1.03843
0.506014
-0.676014
0.457091
0.218923
-0.562212
-1.12339
-0.324354
-0.894169
1.21852
0.878349
-0.443366
0.965021
-0.638457
1.09998
-1.75884
0.878158
-0.655321
-1.06403
1.95219
-0.888156
1.30586
0.911297
0.564395
-1.47569
2.18073
-1.2283
-0.95243
-1.07559
-1.27095
2.14725
-0.8763
0.578003
0.567773
-0.509816
0.492738
0.803671
1.51909
-0.375749
0.332519
0.0351501
-0.0293529
1.80205
-1.00251
0.861001
1.64979
-0.736101
0.379182
0.356919
0.385358
-0.865631
1.42133
-0.0961985
0.753181
-0.368068
-1.26668
-0.262866
1.52955
0.32811
-0.0632002
-0.264909
0.239171
0.173624
0.255013
-1.83275
-0.499901
0.550985
1.30254
-1.13722
-0.165319
0.293032
0.670636
-0.252776
0.137144
0.45456
0.417988
-0.872548
-0.891705
2.19968
-0.196395
-1.07239
2.1777
-1.1053
-0.529831
0.744547
-0.124438
0.220679
2.05748
-1.03334
-0.637591
0.532827
0.569466
0.533687
-0.568287
-0.307416
0.26561
-0.538491
-0.235185
-0.001995
0.668447
-0.272658
1.52362
-1.25096
0.318007
-0.279441
-0.604468
0.144605
-0.579933
-0.0171112
-1.7873
1.20015
0.431861
0.420434
-0.832233
0.163751
0.668482
0.503167
0.0884121
1.5459
0.839658
-2.38556
-0.157754
-0.0397026
0.197457
0.310692
-1.34965
1.86402
0.942753
1.46019
-1.33209
-2.16539
-0.092573
-0.0466992
-0.0696139
0.853338
0.72669
0.854325
-1.58102
0.664354
-0.066818
-0.0658232
-0.581406
-0.154695
-0.951801
-0.7623
1.05642
0.913377
0.794277
1.0381
-1.08724
0.049134
0.331849
0.0110941
-0.113717
0.437964
-0.0653521
1.38769
0.370268
-1.75796
0.950362
-0.141284
-0.392772
0.235482
0.15729
-0.600367
-0.00367095
0.604038
0.483515
1.21542
-1.69894
0.402335
0.526383
1.27989
-0.0328052
-0.460703
0.9743
0.056136
0.178318
-0.276429
0.0981106
-1.89234
0.992609
1.55949
-1.2429
-0.316587
0.0276698
-0.24194
0.21427
1.55994
-1.7053
1.0341
-0.15575
0.777124
0.803483
-0.208526
-0.0266584
-0.916632
0.40161
0.515022
-1.092
-0.208153
1.99557
-1.02094
-0.974624
0.939115
-0.134737
-0.804377
0.744017
-1.27104
0.527025
-0.191919
0.919994
0.00504503
-0.822047
1.68521
-0.863159
-0.528881
-0.387751
-0.830481
0.609789
0.228486
1.64347
-0.00362855
-1.63984
-0.545349
-0.108968
0.309407
0.265719
-0.0798307
0.531989
0.00674576
-0.481517
0.523186
-0.0247349
-0.039396
-0.240217
0.255183
-0.710138
1.00044
0.0236687
0.426423
0.297857
-0.533411
1.33317
-0.112612
1.15071
-0.296152
-0.186587
-0.41056
0.86512
-0.316402
1.72775
-1.41135
-1.48074
-0.206017
-1.32382
1.96038
-0.636563
-0.288319
0.898109
0.539473
-0.107195
-0.0355748
-0.414414
0.449989
-1.52322
0.489879
0.176229
-0.211933
0.977501
-2.27841
0.727427
-1.9015
-1.00529
2.18102
-0.886511
0.89405
-0.476062
0.0212378
-1.13445
1.45384
-0.00169661
-0.258185
0.274807
-0.957447
-0.173707
-1.09266
1.26637
-0.531539
0.91228
2.59089
-1.71368
-0.877208
-0.376966
0.127589
0.386055
0.0373963
-0.423451
-1.43951
0.273472
0.302265
0.0501024
-0.0144485
-0.205096
0.219545
0.771268
-2.09509
0.157937
0.792937
0.0528469
-0.845784
-1.91536
1.59896
0.249734
0.0625201
-0.312254
0.647501
-1.73622
-0.226541
-0.00842611
0.234967
0.322105
-0.0723708
-0.0226667
1.28458
-0.976288
1.05925
0.869501
-0.467166
-1.84343
0.519595
-1.20903
0.966465
0.242562
1.1986
-2.19863
-0.87736
-0.529464
1.40682
0.113998
0.686599
-0.512631
0.432172
2.08185
-0.316384
-1.76546
-0.0169627
-1.72616
1.26598
0.120557
0.722229
0.792565
-0.254009
-0.0110205
0.242698
-0.480963
-0.590202
0.0888414
-0.0602772
-0.0285642
0.0225908
-1.59574
1.57315
-0.0999701
0.513006
-0.413036
0.771976
-1.83102
1.05904
-0.194359
-0.946732
-0.0632986
0.0487089
1.19635
-0.595665
-0.331077
0.926742
-0.62747
-0.707223
0.763549
-0.448848
0.767558
0.0917624
-0.859321
-0.983945
0.151712
-1.2481
-0.231689
-0.0427061
0.274395
0.241781
0.490197
-0.731978
0.726207
-1.53836
0.812157
0.0333578
-0.96343
0.327902
-2.25473
-0.677551
-1.6315
2.30905
-1.69643
0.0807515
1.61568
-2.26338
-1.4053
0.0365738
-0.48007
0.490799
-0.0107296
-2.37259
-0.624248
2.01194
0.64693
-0.32946
0.150989
-0.561549
-0.280772
0.807154
0.2436
0.144464
-0.655818
0.0285732
-0.236752
0.208178
-0.384194
0.127436
-0.155827
0.183497
-0.470702
0.884665
-1.75162
1.05358
0.698043
-0.5304
0.251122
0.998951
0.327174
0.000935903
-0.342537
-0.333477
-0.846215
-0.451715
-0.93742
0.329008
0.608412
-0.0206623
0.735279
-0.714617
-0.698377
0.851849
-0.131468
1.25959
2.16832
-1.7859
0.953851
-1.58132
0.738706
-1.01639
0.277687
0.162767
0.00276549
0.122567
-0.00637742
-1.84696
1.07027
0.183486
0.755629
0.0235896
-0.33407
0.31048
-2.89486
1.16149
0.240837
-0.701971
-0.31994
-0.0351599
-0.362943
0.398103
-0.962973
0.367309
-1.86759
1.65508
2.15883
-1.19171
-0.358915
0.323854
0.035061
-0.27215
0.206708
-0.24099
-1.68157
0.426243
1.25533
-0.226238
0.186536
-0.139252
0.547862
-0.40861
0.630706
0.403394
0.222049
-0.310157
0.0881083
-0.449351
0.47302
0.069016
0.0758405
0.957986
-1.57689
1.84085
0.117572
-1.04486
-0.242499
1.67835
-0.0478963
-1.63045
-0.427547
-0.326896
0.754444
0.943997
-1.91746
-0.35398
1.26206
-0.908079
-0.0332676
-0.00685354
0.0401212
-1.45944
1.41794
0.0414975
-0.88664
1.09556
0.935048
0.474388
1.74005
-0.615886
-1.12416
0.0683373
0.282433
-0.35077
-0.47622
-0.528506
-0.0274323
-0.509583
-0.0189226
0.0309167
-0.542259
0.511342
-0.150002
1.6666
-1.5166
-1.52232
0.569354
0.952968
0.47422
1.61577
0.0722691
0.0391749
-0.111444
0.984829
0.424984
-1.40981
0.0292257
-0.115395
-0.734909
1.73951
-1.0046
-1.53025
0.26357
1.17069
0.482409
-1.35977
-0.00228841
-0.177958
0.180246
1.98934
-0.587716
-1.40162
0.815571
0.366696
-2.0283
1.0488
1.92415
-1.98387
-0.890859
0.212662
0.678198
-0.106976
0.223903
0.547329
-0.771232
0.0835486
0.164239
-0.247788
-0.0149267
0.188014
-0.173088
0.553121
-0.615907
0.0627864
-0.989174
2.08915
-0.496042
0.512774
0.220512
-0.359764
0.614295
-0.933325
0.319031
-0.989552
-0.745605
-0.514633
-0.0678535
-0.0545689
-0.00310704
0.0576759
1.83455
-1.26474
-0.569806
0.197653
1.10489
-0.396693
-0.227024
-0.960755
0.147281
1.0617
0.677536
-1.73924
-0.0233545
-0.0127973
0.0361518
-0.0355034
0.58128
0.269374
0.186475
-0.455849
2.22565
-0.931004
-1.29465
-2.03958
0.371594