/*--------------------------------*- C++ -*----------------------------------*\
| =========                 |                                                 |
| \\      /  F ield         | OpenFOAM: The Open Source CFD Toolbox           |
|  \\    /   O peration     | Version:  2306                                  |
|   \\  /    A nd           | Website:  www.openfoam.com                      |
|    \\/     M anipulation  |                                                 |
\*---------------------------------------------------------------------------*/
FoamFile
{
    version     2.0;
    format      ascii;
    arch        "LSB;label=32;scalar=64";
    class       volVectorField;
    location    "4.1";
    object      U;
}
// * * * * * * * * * * * * * * * * * * * * * * * * * * * * * * * * * * * * * //

dimensions      [0 1 -1 0 0 0 0];

internalField   nonuniform List<vector> 
13486
(
(2.84704 -0.422564 2.18903e-18)
(3.2965 0.560543 1.11424e-18)
(5.38368 0.0630663 0)
(-4.38405 1.92382 -5.78204e-18)
(4.63976 -0.902954 2.70951e-19)
(4.93435 0.391786 2.58701e-20)
(4.94896 -0.464576 -2.1257e-20)
(3.89358 -1.37571 -8.90945e-19)
(3.81362 -0.727658 0)
(3.93592 1.52398 0)
(-1.9073 5.98146 -4.32293e-18)
(4.9627 -0.172803 0)
(2.50884 -0.791176 -2.16955e-18)
(4.79011 1.59975 -8.68221e-21)
(4.73239 -0.478203 1.82121e-19)
(3.84153 1.49889 -7.58201e-19)
(3.65632 -0.856673 3.22235e-18)
(1.04434 -1.2998 8.15348e-19)
(4.41717 -0.0401559 9.63987e-21)
(3.18345 -0.0900256 -2.2506e-18)
(-4.40464 0.642468 -2.41686e-18)
(2.55271 -0.825235 2.82307e-18)
(3.34628 0.540587 -8.86749e-19)
(8.42591 -1.66254 0)
(4.03146 1.23132 2.58191e-19)
(8.1398 -1.55507 -1.65336e-18)
(0.971708 -0.679097 3.45227e-18)
(5.99331 -0.344966 2.53e-18)
(3.99982 0.257367 0)
(5.68541 -0.970505 -1.98914e-18)
(-3.52354 -0.858147 -1.45343e-18)
(4.71405 -0.36358 -4.20185e-19)
(6.83374 0.0751055 1.97795e-18)
(4.72888 -0.401889 0)
(3.91662 -1.31649 0)
(3.50256 0.0294824 6.90429e-21)
(3.08843 0.183681 -2.7256e-19)
(3.01972 -1.40211 1.02481e-18)
(3.53498 -0.387349 -7.79903e-20)
(3.88677 -0.451494 1.02649e-18)
(5.01059 -1.56249 0)
(1.9571 -0.951567 -2.52844e-18)
(4.22516 0.0126277 0)
(4.073 1.05217 -1.21601e-18)
(4.12022 1.03113 5.06407e-19)
(4.96097 -0.1789 3.20076e-19)
(-1.50531 0.190224 6.36971e-18)
(3.94584 0.251456 7.12163e-22)
(3.12462 0.207246 2.05786e-19)
(5.69451 0.114656 8.80369e-19)
(3.9924 0.0537735 1.33943e-18)
(3.64322 -0.135305 0)
(4.98019 -0.371233 -5.39796e-19)
(3.21076 -1.16987 -1.51018e-18)
(1.04525 -1.82491 0)
(4.56132 -0.917544 -2.40621e-19)
(5.01923 1.40838 2.38839e-19)
(3.64838 -0.229984 -3.44354e-19)
(6.80158 0.126905 2.37759e-18)
(2.57013 -0.037457 0)
(-2.12589 6.12007 -5.86404e-18)
(2.51914 0.0562264 0)
(7.48055 1.842 -1.32206e-18)
(-4.2229 0.694154 -2.47483e-20)
(3.93474 -5.38597 0)
(3.0048 0.208326 -1.46235e-19)
(-4.94319 2.1412 -5.92583e-18)
(2.81951 0.10257 7.67152e-19)
(3.81585 -0.785531 -5.72776e-19)
(3.35466 0.031863 9.27979e-20)
(-4.60891 2.08696 6.76754e-18)
(1.08949 -1.67477 3.15757e-20)
(3.92635 -0.230143 7.84715e-19)
(-1.27607 -0.877411 -1.78408e-18)
(2.84217 0.375381 -3.92681e-20)
(5.12589 1.27054 -4.59941e-20)
(2.86539 0.418116 1.08727e-19)
(4.74691 -0.499426 -6.86951e-20)
(-1.35391 0.9037 -3.39041e-18)
(3.65511 -1.23929 0)
(3.8489 0.068927 -5.21165e-22)
(3.18329 0.780558 -6.99772e-20)
(5.78052 1.64154 -7.67231e-21)
(5.48555 0.0237877 -1.24623e-20)
(2.83304 -0.430957 -4.30492e-18)
(2.51293 3.31602 0)
(3.01608 -0.610942 -3.06908e-20)
(4.00767 0.0913417 -2.02576e-18)
(3.72255 0.433583 -8.89888e-19)
(3.5999 2.02599 -8.88538e-19)
(4.74554 -0.45234 -3.29241e-19)
(4.17216 -1.1603 -4.24765e-19)
(2.96972 -0.618587 5.60393e-19)
(3.27348 0.153014 6.00063e-20)
(3.5941 -1.10697 2.2916e-19)
(3.91571 0.20134 -7.52556e-22)
(1.10448 -0.679773 0)
(-5.52424 2.29312 3.87721e-18)
(3.91243 -0.450185 -1.96289e-18)
(3.80173 -0.575066 7.79999e-20)
(3.83853 0.0411933 0)
(4.74796 1.59076 -1.51185e-20)
(-5.67973 2.00481 2.36194e-19)
(3.6366 -0.198191 4.04327e-19)
(2.57537 3.17771 0)
(3.32206 -0.293886 7.7214e-20)
(3.92253 0.102419 1.48231e-21)
(3.54933 -0.437677 -1.72357e-19)
(-1.46124 0.961481 4.46665e-18)
(3.85705 -1.72985 0)
(2.9446 -1.39502 0)
(4.67862 -0.323642 -3.2928e-19)
(3.23297 -1.1202 1.30736e-20)
(4.74748 0.732492 -3.75684e-21)
(2.09378 -0.0761843 0)
(2.79878 -1.37815 -8.24774e-19)
(4.01374 1.26641 0)
(5.0246 -0.357393 0)
(3.9053 -0.206271 0)
(3.28162 0.248308 -1.11214e-19)
(1.27873 -1.19072 -3.51622e-19)
(-2.71222 6.03905 0)
(3.53795 -0.987953 0)
(3.54165 -0.387764 2.49469e-19)
(3.70953 -1.29347 0)
(3.6354 -0.12304 0)
(4.35964 -0.482039 1.99653e-20)
(4.36276 0.180049 4.74057e-19)
(4.28614 -0.197992 -2.78829e-19)
(4.76161 -5.435 -2.56534e-18)
(3.58425 -0.0986091 -4.26284e-20)
(-2.10224 -0.057764 -1.59949e-18)
(0.255183 0.0960924 3.04313e-18)
(-0.583798 0.491335 2.33819e-18)
(3.99847 0.0246739 -2.16445e-19)
(3.75949 0.852596 -1.06004e-18)
(1.18275 1.41572 -6.56666e-19)
(3.86296 -1.68718 0)
(3.29991 0.245711 3.10784e-20)
(3.95625 -1.07763 -3.32431e-19)
(6.37474 0.299936 -2.00897e-18)
(4.97367 -0.389589 4.60541e-19)
(4.78487 -0.340654 0)
(3.70621 -1.16255 0)
(4.52347 0.0214773 -5.4758e-21)
(6.60038 1.58461 -3.47107e-18)
(4.28651 -0.266002 -5.70965e-21)
(0.627703 3.49785 0)
(5.75179 0.153071 0)
(4.01353 0.239399 0)
(4.03178 0.0278182 2.11178e-20)
(4.80868 -0.655239 0)
(3.86258 0.0429717 5.48595e-22)
(3.14441 0.755048 -6.0176e-19)
(4.35991 0.688337 0)
(5.64371 0.0847304 0)
(3.6279 -1.65949 0)
(-1.6603 0.613241 9.67128e-19)
(3.39581 -1.3516 2.0561e-18)
(3.61987 -0.941238 -3.83474e-19)
(5.56401 0.0904603 4.63889e-19)
(3.42597 -1.30164 -3.13228e-18)
(4.83063 -0.532242 3.26399e-19)
(1.80826 -0.85162 1.11256e-18)
(3.68082 -0.165862 0)
(4.9947 1.61366 -1.55132e-19)
(4.64975 1.45556 2.46299e-19)
(0.894279 -0.222438 -2.7614e-18)
(4.2556 -0.169688 1.13988e-20)
(-0.591892 0.501194 6.23447e-19)
(-0.484968 -0.116866 5.18326e-20)
(4.34463 0.624446 4.03782e-19)
(3.98693 0.178135 -1.69257e-18)
(4.58472 -0.332923 2.84327e-20)
(3.85055 0.124711 -3.20205e-21)
(-5.1257 2.09403 0)
(4.70822 2.18378 4.77083e-20)
(6.56862 0.467222 2.6137e-18)
(3.93227 0.0866298 -2.12919e-18)
(4.8032 -0.325878 0)
(3.99304 -0.538867 1.99191e-18)
(4.7343 0.661074 -4.80528e-21)
(4.67495 -0.300686 -9.30636e-21)
(-2.07392 1.73653 0)
(5.25202 -0.127626 6.0946e-20)
(5.57631 -0.307203 -1.13795e-18)
(4.15017 0.227957 -1.04875e-21)
(5.44826 -0.720364 -5.47766e-19)
(4.97082 -1.49841 0)
(2.60052 -1.24771 -1.06488e-18)
(3.18529 0.261722 0)
(5.17765 0.124572 0)
(3.72893 -0.314177 0)
(2.57176 1.63645 -1.26507e-18)
(3.82367 -0.380195 0)
(-2.51885 5.92356 -1.15334e-18)
(4.60243 -6.25515 5.62247e-18)
(5.73087 0.0639208 2.95084e-19)
(2.48484 -1.22011 -4.54467e-19)
(4.96371 1.53219 -3.47737e-20)
(-3.33164 -1.13462 1.4924e-18)
(4.38773 0.223789 -1.42815e-20)
(2.91221 -1.39693 -1.19106e-18)
(3.95278 -1.66055 -1.47181e-20)
(3.80964 -1.14566 4.73297e-19)
(3.86913 -0.353965 -3.05008e-19)
(0.0191255 -1.69403 1.97947e-19)
(3.7655 -0.0909085 1.66226e-18)
(3.70432 -0.329633 0)
(5.29221 -0.0928531 0)
(5.88934 -0.416639 1.77391e-18)
(7.65311 -2.88049 3.44077e-18)
(3.22198 -0.0601804 2.05205e-18)
(3.89857 0.0983763 1.98103e-21)
(4.92589 0.488676 -2.97785e-20)
(4.40963 -1.82098 2.50956e-19)
(5.76114 -0.82588 0)
(3.59812 1.96143 2.16317e-18)
(3.13518 -0.660276 0)
(6.07821 1.83996 0)
(3.40625 -0.666865 -6.17902e-18)
(5.81417 0.237886 0)
(3.90945 -1.07809 7.6115e-19)
(5.5186 0.109667 0)
(5.06319 -0.401819 -8.7506e-20)
(2.54996 -1.18034 7.64519e-19)
(5.16814 0.838777 -1.53373e-20)
(-3.68916 -2.03129 1.58458e-18)
(4.23819 -1.15839 3.67849e-20)
(3.22656 -0.640328 -1.18651e-20)
(4.00452 -0.532529 -6.42344e-19)
(3.78941 -0.597132 1.75581e-18)
(6.46845 0.240144 2.50827e-18)
(1.9604 -0.944154 8.68243e-19)
(-5.15003 0.927228 0)
(2.37157 -1.14624 8.92627e-20)
(5.19699 -0.634418 9.45118e-19)
(5.23213 0.0997626 1.42971e-20)
(2.20703 -1.05651 2.38829e-18)
(4.69484 -0.19696 0)
(7.0005 0.0595074 0)
(4.01427 0.125819 2.56395e-18)
(4.84323 0.414661 0)
(2.16003 -1.07225 8.01919e-19)
(3.44148 -0.478216 -1.49706e-19)
(3.58896 0.139412 0)
(4.76457 -0.0290008 -1.3659e-19)
(6.76098 -1.41612 4.38612e-18)
(-0.338592 -0.585082 3.65254e-18)
(4.00095 0.99647 0)
(-5.85286 3.37505 -1.88461e-18)
(2.0213 -0.0124335 3.24042e-19)
(2.52171 -1.23629 1.01285e-18)
(3.56496 -0.445553 0)
(3.97503 -1.07116 2.17476e-19)
(-4.79374 2.83231 1.71471e-18)
(4.71043 -0.376956 3.80035e-19)
(4.31905 -1.89308 -3.18802e-19)
(-0.976167 0.852067 -9.98981e-19)
(6.99741 0.0328617 1.82494e-18)
(3.53458 0.461818 0)
(3.42908 -0.468543 -4.72005e-21)
(4.71566 -0.489729 -4.49844e-19)
(-5.13198 2.60022 -2.10493e-18)
(4.40138 -1.362 -3.38462e-19)
(-1.95693 2.00704 0)
(4.29214 -1.10972 -5.44725e-19)
(-4.2512 -0.436063 -2.43756e-18)
(4.20827 -0.0022427 -9.31379e-19)
(2.13755 -0.89521 0)
(2.9667 1.8679 9.23844e-19)
(3.93835 0.109775 -5.81262e-19)
(5.79194 -0.89794 0)
(5.01383 -0.251916 2.76248e-19)
(2.52343 -1.20017 1.01858e-18)
(6.4492 -1.52134 -2.46579e-18)
(3.99571 -0.977168 0)
(1.74973 -3.40783 0)
(3.60287 -0.504935 -1.87321e-19)
(4.47683 -0.329417 2.29395e-20)
(1.73225 -3.66817 1.02792e-18)
(4.21105 -0.36389 -7.22204e-19)
(3.87242 0.155644 1.25956e-18)
(7.94155 0.353329 -3.64632e-18)
(-3.15039 5.79556 6.77843e-18)
(2.1522 -0.285015 5.93861e-18)
(6.2542 0.478343 1.88364e-18)
(4.19476 -0.267512 3.64719e-19)
(5.42688 -0.413682 1.30004e-19)
(4.10684 0.011331 0)
(-5.35992 1.1944 0)
(3.17706 -0.535601 1.72256e-19)
(2.85615 -1.371 8.27987e-19)
(3.99086 0.0438684 -2.12833e-19)
(5.21272 -0.601594 8.79822e-19)
(5.3239 -0.689032 0)
(5.07562 -0.0429165 -6.69283e-19)
(5.0421 -0.228743 -2.12155e-19)
(3.84745 0.120441 -1.15584e-18)
(5.13716 -0.793436 -3.30944e-19)
(3.99523 -0.437858 -3.9203e-19)
(0.271195 -1.74453 6.02809e-20)
(4.61537 -0.256689 -1.98967e-20)
(4.70554 -0.369002 4.07161e-19)
(3.24098 0.1583 4.62489e-20)
(3.39376 -1.5611 0)
(1.70182 -0.360269 0)
(4.39017 -0.0711617 2.87226e-19)
(3.1834 -0.711273 3.73722e-20)
(3.15198 0.24705 0)
(3.76071 2.729 -4.22754e-18)
(-4.44001 2.10998 0)
(4.53293 2.12249 1.07297e-19)
(4.7127 -0.342084 -4.01426e-19)
(2.4484 4.5397 0)
(3.74035 0.808624 -6.64549e-19)
(3.08407 -0.57303 -2.56791e-19)
(3.7148 0.395611 -7.67193e-20)
(3.7597 -0.0798966 -1.83586e-18)
(4.46683 -1.13763 0)
(3.03179 0.245453 2.67769e-19)
(3.21538 -0.411305 -1.70399e-22)
(3.95442 0.0893096 2.68662e-19)
(3.23103 0.271422 -1.12355e-18)
(1.46784 1.35356 1.20422e-18)
(4.76952 -0.427999 6.55582e-19)
(4.41461 -0.65258 -1.62222e-18)
(4.24109 -0.358372 0)
(5.17558 -0.195563 6.35861e-21)
(4.49241 -0.650793 -2.4236e-19)
(4.00588 0.0472592 2.93945e-18)
(4.24031 -1.14295 0)
(4.65326 -0.487195 -1.78977e-19)
(2.85126 0.769318 0)
(4.97358 -0.429237 3.93643e-19)
(3.74094 -1.0251 -6.09991e-19)
(1.53026 -0.709816 1.03803e-18)
(4.77267 -0.702958 -1.84414e-19)
(4.03903 0.388023 0)
(3.40145 -0.476347 -2.33531e-19)
(4.36524 -1.15139 5.91565e-19)
(3.25782 0.2633 1.05938e-18)
(4.53662 -0.66076 1.05186e-18)
(4.66166 -0.306039 6.11862e-19)
(-4.49759 4.33744 -4.19148e-18)
(3.95085 0.231474 6.1111e-22)
(4.43217 -0.343306 0)
(2.00049 -0.66164 2.53519e-18)
(6.09593 1.7909 0)
(3.18523 -0.518284 2.0776e-22)
(4.49279 -0.17633 1.15225e-18)
(5.12007 -0.226915 -2.03673e-19)
(5.03254 -0.253332 2.12913e-19)
(1.15582 -0.589274 -4.03489e-18)
(3.86803 0.121026 1.44162e-18)
(3.69239 0.0560795 0)
(-0.940974 -0.397199 -1.64872e-18)
(4.37575 -0.482338 -3.91607e-19)
(3.2673 -0.653232 -3.51621e-20)
(6.89909 -3.0048 2.70465e-18)
(5.12507 -0.0418661 0)
(4.91719 -0.489428 4.61561e-19)
(3.57098 0.303689 2.26743e-18)
(3.92767 0.124891 1.77251e-18)
(5.72171 -1.04133 0)
(3.88359 0.0217438 -8.7648e-22)
(5.33964 -0.650666 -8.87752e-19)
(-2.52001 -0.969662 9.65245e-19)
(3.13816 -0.0950183 2.85155e-19)
(4.37095 -0.427852 3.71103e-19)
(4.34784 0.0171507 -3.24553e-22)
(4.42038 -0.338647 0)
(5.03977 -0.393927 -3.01988e-19)
(-5.78164 3.82687 1.87807e-18)
(4.86463 0.882199 -1.87444e-20)
(3.99846 0.0537038 1.12401e-18)
(3.03535 0.0287853 0)
(3.281 -0.471324 -2.77677e-19)
(2.40176 4.71627 0)
(6.24363 2.56605 -9.49629e-19)
(4.23129 -0.0217251 0)
(4.19131 -1.32449 -2.99524e-20)
(2.64427 -0.214997 -6.12446e-19)
(2.9987 1.68118 2.17172e-18)
(-2.30321 -0.57507 -3.43154e-18)
(4.06934 -0.986204 0)
(4.63629 0.153794 -3.0213e-19)
(4.05256 0.411468 -6.80942e-19)
(2.91254 -1.82347 -1.61774e-18)
(-3.25281 -0.10391 1.89515e-19)
(3.27836 -0.0929025 -3.0939e-18)
(5.90659 -0.758053 9.41902e-19)
(4.15995 0.403574 4.88617e-19)
(2.87798 -0.85714 0)
(2.72586 0.602509 1.2225e-18)
(3.35666 0.312759 -8.31365e-20)
(-4.73072 2.17135 3.47205e-18)
(-5.82091 3.51914 -6.2145e-18)
(3.5599 -1.65161 -3.68911e-18)
(6.35128 0.432712 0)
(3.2319 -1.7715 0)
(3.92653 2.32066 0)
(4.19083 -0.147578 0)
(2.11376 -0.483749 -7.4751e-19)
(4.86861 -0.369625 0)
(2.91257 -0.493314 0)
(3.32133 0.209157 4.3163e-19)
(6.57886 0.546039 -2.74118e-18)
(4.38473 -0.32207 -9.40854e-19)
(3.38771 0.635162 3.75967e-18)
(4.01581 0.05105 -3.46571e-19)
(4.50515 3.30094 0)
(6.01923 -0.545277 0)
(3.83372 0.129531 1.23542e-18)
(3.97292 0.0473397 2.14907e-19)
(2.54032 1.80361 0)
(-2.40587 1.83864 4.3501e-18)
(4.37121 -1.39255 3.83088e-19)
(-1.20197 -0.909299 0)
(4.69079 -0.193631 6.29821e-19)
(3.93696 0.0971094 -1.43308e-18)
(0.770919 0.373319 -3.23984e-19)
(1.98472 -0.641725 0)
(4.01923 0.410834 1.27196e-18)
(5.3096 0.517407 0)
(5.42545 -0.693513 0)
(4.41334 0.445421 -6.73397e-20)
(3.8525 0.159462 6.65811e-19)
(0.936968 -0.732179 -4.46046e-18)
(4.57035 1.4276 1.33354e-19)
(2.6503 -0.636265 -1.07141e-18)
(4.18888 -0.120784 1.31755e-19)
(4.1688 0.42163 3.84004e-19)
(5.43086 -0.40418 7.53981e-19)
(4.57418 -1.35154 0)
(6.79854 -1.09721 2.08944e-18)
(2.65477 -0.108491 0)
(3.22765 -0.495889 1.52393e-19)
(4.54816 -0.354113 0)
(2.86626 0.12766 1.61112e-18)
(-0.518509 -0.997838 -5.74946e-18)
(5.84041 -0.71088 0)
(-0.27093 0.369292 1.08127e-19)
(6.0756 -0.617088 -2.05268e-18)
(3.41776 -0.496494 -9.13719e-20)
(3.53587 -0.500823 2.79703e-18)
(2.75948 1.65575 -1.39958e-18)
(2.62839 -0.631812 -3.05358e-18)
(6.54606 2.60462 0)
(3.24435 0.227884 1.08691e-19)
(-4.45648 4.66468 -1.09001e-17)
(4.02518 0.443582 0)
(3.67611 0.454303 8.30689e-20)
(5.69811 0.00682605 -1.87381e-19)
(5.25035 2.39335 0)
(4.00604 0.0259321 0)
(-4.8071 2.74048 0)
(-4.64454 1.12742 8.06665e-18)
(7.10783 0.36186 4.46403e-18)
(6.24011 1.69941 1.00514e-19)
(4.46832 2.05212 0)
(3.39864 -0.327087 1.96484e-18)
(3.83429 0.119896 6.0105e-21)
(4.56356 1.32227 -2.76867e-19)
(-4.25588 1.39331 4.3298e-18)
(3.81806 0.308231 0)
(3.96625 0.253504 0)
(1.47454 -0.202378 -1.74146e-18)
(2.82082 -0.832152 -7.35429e-19)
(3.8879 -0.33543 0)
(3.08504 -1.47928 -6.8835e-19)
(3.93196 0.0353754 -4.39087e-21)
(3.9243 0.184541 1.08235e-21)
(1.68457 -0.774384 0)
(3.99541 -0.140756 3.72109e-19)
(3.33991 0.249184 8.29481e-20)
(5.29705 0.46926 4.0104e-19)
(3.69505 -1.06388 0)
(2.50511 -0.203703 -8.93175e-18)
(5.06524 -0.231831 2.31075e-19)
(4.0047 0.178448 2.65111e-19)
(3.56997 0.0761979 3.63397e-20)
(5.13111 1.60163 0)
(3.33004 0.642304 -1.00278e-18)
(6.20749 1.40687 -8.0183e-19)
(3.75966 -1.48711 7.21132e-19)
(4.02497 0.104502 0)
(-3.35163 -0.195327 -1.94369e-19)
(0.961232 -0.136189 0)
(4.02011 0.0950492 -1.02495e-18)
(3.98372 0.128708 4.45255e-19)
(3.7431 0.0894696 -2.41212e-19)
(-4.91874 1.88798 0)
(5.06172 0.0130175 -6.19039e-20)
(2.18137 0.913765 3.37876e-18)
(4.50113 -1.33629 0)
(3.24799 0.176774 1.36711e-18)
(5.0541 -0.852314 3.74932e-19)
(4.50838 0.0196681 0)
(-4.0159 -0.896573 1.28122e-18)
(3.69894 -1.11557 -3.63443e-19)
(4.37037 0.00890693 0)
(2.99628 0.184118 6.15393e-18)
(3.64942 0.434115 0)
(3.4606 -1.55487 7.94402e-19)
(-5.96079 3.2301 3.85349e-18)
(4.13881 0.260942 1.11503e-21)
(4.98253 0.415757 -1.40138e-19)
(2.70235 0.592338 6.46729e-19)
(3.51281 -0.550902 -1.03652e-18)
(4.07652 -0.885789 -2.35526e-19)
(3.48389 -1.53777 1.18622e-20)
(4.32802 -0.432386 3.72095e-19)
(5.1046 1.6049 3.4992e-19)
(4.00367 -1.76899 0)
(3.99312 0.0399646 -9.967e-19)
(-1.12536 -0.760589 -1.60159e-18)
(2.71451 -0.11461 0)
(3.31326 0.519952 -2.54443e-20)
(3.25475 0.0377649 0)
(2.41011 -0.669745 2.64894e-18)
(4.12634 -1.47979 0)
(3.70749 0.0156027 -1.65015e-20)
(4.53461 -0.184157 -6.52507e-19)
(-3.67426 -1.43616 2.36972e-18)
(-5.54043 3.04025 5.58756e-18)
(4.95055 -0.0552112 -5.74052e-21)
(3.20449 -1.52408 4.59187e-19)
(3.50872 -0.982039 9.34569e-19)
(2.9543 -0.625181 0)
(0.589871 -0.261847 -2.37146e-18)
(4.6182 -1.19642 -8.67987e-20)
(0.846093 -0.332672 -2.75985e-18)
(3.93211 0.216424 -1.36974e-21)
(2.85233 -1.08607 0)
(4.45604 0.00820467 -5.69332e-21)
(-2.38915 2.19086 0)
(-5.67488 2.15402 2.44464e-19)
(0.106463 0.254135 3.83259e-19)
(-0.0664872 0.774527 0)
(4.09059 -1.00434 2.3724e-19)
(4.1602 -5.56803 0)
(5.32577 2.15653 0)
(3.19833 -1.49773 -1.05108e-18)
(2.91692 0.688525 9.91757e-19)
(3.23694 -1.40778 0)
(3.58867 0.355372 -6.25338e-19)
(5.60301 1.66269 3.44317e-18)
(-5.6618 4.11921 8.47955e-18)
(5.19562 2.86116 0)
(4.29209 -0.0414365 0)
(-4.23419 4.81003 -4.81167e-18)
(3.75172 -0.206539 0)
(5.32752 -0.00433498 0)
(-2.6713 6.11046 -1.15899e-19)
(4.1011 -0.705681 -1.2184e-18)
(3.45597 -0.813266 8.35372e-19)
(7.14697 -0.111993 2.66721e-19)
(0.402582 -0.153022 5.04672e-18)
(3.97583 0.114579 5.06503e-19)
(3.02893 -0.693104 0)
(4.30424 0.998219 -1.98289e-19)
(2.82068 -0.373044 0)
(5.0064 0.0314138 0)
(3.99395 0.220266 0)
(4.3923 0.404807 -5.49223e-20)
(3.72234 -0.0767685 8.56939e-19)
(4.76979 0.306705 4.7528e-21)
(3.11094 -0.702664 0)
(1.08762 -0.577124 -3.28438e-18)
(3.97449 2.2328 3.43373e-19)
(3.70023 -1.31521 8.2376e-20)
(4.37151 -0.289892 -5.99649e-19)
(6.38609 -1.49893 3.91503e-18)
(4.13749 0.0802279 -8.1602e-19)
(-0.393169 -1.27023 0)
(5.03327 -0.23024 0)
(2.86157 1.67407 0)
(2.42837 -1.06317 -1.90709e-18)
(-1.00532 -4.13265 -2.80586e-18)
(1.10201 0.495769 0)
(4.36248 1.02882 0)
(5.14523 -0.449256 3.87441e-19)
(3.96332 -0.0258628 -2.09361e-19)
(3.75699 1.25317 1.11193e-18)
(3.9618 -1.65896 0)
(-1.42525 3.05608 -1.28043e-18)
(4.70773 0.174046 1.04503e-19)
(2.75436 -0.760977 -1.77987e-18)
(4.44072 0.16678 -3.03548e-19)
(4.53967 1.3384 4.66077e-19)
(7.5745 -2.28601 4.77704e-18)
(2.39146 -1.07138 3.31389e-18)
(4.44159 -2.96435 1.61552e-18)
(4.81589 0.639342 -7.35208e-21)
(3.99888 0.0237538 -2.47298e-19)
(2.84825 -1.31427 -2.04798e-19)
(3.72048 -1.04239 1.55548e-19)
(3.03371 4.04791 -1.22659e-19)
(3.06561 -1.46106 3.61196e-19)
(5.11559 -0.176243 0)
(3.16037 -0.528016 -3.17926e-21)
(4.33196 -0.0364237 -9.43546e-19)
(5.70571 1.78204 3.99028e-19)
(2.7005 -0.693996 -1.62763e-18)
(3.66994 -1.26999 -9.21904e-19)
(4.04155 -0.0159817 1.87842e-18)
(5.19416 -0.114295 -1.06234e-18)
(2.7322 -0.397681 -2.07577e-19)
(6.21076 0.507689 -1.00749e-18)
(2.26306 -0.285114 -3.6554e-18)
(4.43529 0.0045336 -7.57148e-19)
(2.22698 -0.391498 0)
(-4.05555 -1.31356 -6.59391e-18)
(4.10706 0.0606228 1.99855e-18)
(3.25743 0.00294448 9.61216e-22)
(-1.49157 -1.20551 0)
(3.56257 -1.63381 0)
(4.02587 0.902599 9.77034e-19)
(1.99099 -0.262057 2.27321e-18)
(3.39389 -4.26224 -9.0766e-18)
(4.23861 -1.32576 -3.32288e-19)
(4.455 -0.67789 8.7479e-19)
(6.2389 1.78168 0)
(4.04828 0.985364 5.31354e-19)
(0.629976 -1.38593 -3.06566e-20)
(4.79752 2.25038 1.7508e-19)
(3.94686 -0.48867 -1.16807e-18)
(0.180824 0.207485 -8.21125e-18)
(6.19576 -1.50537 -3.68662e-18)
(7.0002 -1.18422 1.15996e-18)
(4.36858 2.47941 0)
(4.78719 -1.09854 -4.45427e-19)
(3.7639 0.0850556 2.20386e-19)
(3.84887 0.0842378 -2.56014e-21)
(1.8244 -0.875588 3.04514e-18)
(3.90289 -0.493028 1.74322e-18)
(3.76543 -1.27695 2.18316e-19)
(-5.73079 3.85637 -4.94108e-18)
(5.18681 -0.457015 -8.98085e-19)
(4.39781 -0.0113915 6.75785e-19)
(-2.82466 5.71679 -8.17896e-19)
(4.64185 2.10148 9.67025e-20)
(3.49494 -0.20696 -6.65895e-18)
(2.26965 -1.09851 -9.88167e-19)
(3.87784 0.0640924 0)
(5.01503 1.16375 1.27556e-19)
(-4.21691 5.53501 -3.94307e-18)
(2.62645 -0.267399 3.31311e-18)
(4.27713 0.198212 0)
(4.37388 -0.52865 3.98924e-19)
(2.30485 -0.927431 7.51554e-19)
(3.98629 0.0851395 -2.17917e-18)
(-4.97986 3.89311 -4.48234e-18)
(3.26203 -1.35249 -6.88846e-20)
(4.3889 -0.336811 6.34975e-19)
(4.58396 0.16332 4.34092e-19)
(3.5164 -1.57706 -1.07653e-18)
(4.82025 0.419948 -1.23651e-20)
(-0.591202 -4.46542 -8.87025e-18)
(4.29613 -0.0291696 8.85399e-19)
(4.16735 -0.101142 -5.73235e-19)
(4.28136 0.230296 -2.45487e-20)
(4.61234 -0.0623073 -1.22187e-18)
(2.21506 -0.953123 -1.4545e-18)
(4.78346 0.590121 0)
(-5.28684 0.729138 5.6165e-18)
(4.20527 0.090597 1.57548e-19)
(2.23455 0.0275013 -3.98618e-19)
(5.03971 0.115538 -8.40243e-20)
(4.36336 -0.729137 -5.60415e-19)
(3.99875 0.0415381 -1.72729e-18)
(4.16801 0.693945 2.95051e-19)
(-2.64925 2.33373 -4.50651e-18)
(5.40676 0.00169467 0)
(3.30686 -0.442565 1.43795e-19)
(5.13749 -0.238951 2.08195e-19)
(2.87468 -1.05408 0)
(4.26055 0.181591 5.40624e-19)
(5.15703 -0.19852 2.19754e-19)
(5.33165 0.022438 1.01528e-23)
(5.18923 -1.55846 4.14578e-19)
(3.9523 -0.351015 0)
(3.53583 0.722103 1.83083e-18)
(4.22459 -1.50353 -7.20341e-19)
(2.99983 -1.43901 8.59411e-19)
(4.03684 -0.333629 0)
(2.91143 0.611796 -2.86596e-18)
(1.49184 -0.944379 -3.80624e-19)
(4.75833 3.00204 -7.16999e-19)
(2.28385 -0.324292 3.52341e-18)
(4.44759 0.0233118 -9.22971e-22)
(-5.61263 3.16002 4.4089e-18)
(3.86375 -0.184245 -1.29841e-18)
(6.74922 -0.789687 -2.80924e-18)
(3.53828 0.309967 -1.31671e-18)
(4.31261 0.0229188 0)
(4.00096 0.0478379 -9.33673e-19)
(0.265094 -0.271674 3.53973e-18)
(-0.728316 0.23201 0)
(7.99962 -2.56152 0)
(3.84232 0.0868791 0)
(3.74389 -1.27419 0)
(4.08391 0.674537 0)
(2.13654 -0.258072 0)
(4.64072 -1.81966 -4.01538e-20)
(6.99286 1.44701 -2.29697e-18)
(5.22164 0.918576 0)
(3.50249 0.684622 2.77761e-18)
(2.19088 -1.04756 4.67186e-19)
(4.15632 0.434159 2.2624e-20)
(-3.7437 5.76761 -1.6961e-18)
(2.16738 0.175736 -5.7516e-21)
(-3.29399 2.55565 3.87511e-18)
(3.96975 -0.00314329 -4.46725e-19)
(5.75103 0.0612751 1.3053e-19)
(4.03274 0.636691 -6.68123e-19)
(3.73572 0.371954 -1.766e-18)
(3.8623 2.08802 -7.99251e-19)
(6.37554 2.55817 0)
(-3.84016 0.50955 6.35479e-19)
(2.46076 -0.710068 -2.91101e-18)
(4.01514 0.0280485 -2.83789e-18)
(4.63754 -1.23628 -1.89175e-19)
(4.35059 -0.0064861 1.97359e-19)
(5.51763 -1.09233 -7.31896e-19)
(4.23958 -0.563147 -1.36104e-19)
(4.12146 -0.987396 -8.13993e-19)
(4.04882 0.368616 7.12171e-19)
(3.52637 2.46112 0)
(4.03429 -0.786774 -2.13343e-19)
(3.35241 0.153505 -3.9945e-19)
(4.86075 -0.32364 0)
(3.62929 -0.448361 0)
(3.68636 -1.65675 -1.61836e-20)
(-5.64786 2.9651 4.80797e-18)
(4.53718 -1.91065 -1.33729e-18)
(3.46802 -0.0926531 0)
(3.79375 -0.0958094 -1.7391e-18)
(3.58486 0.457262 -3.4397e-19)
(-5.18772 -0.178474 3.03599e-18)
(5.2297 -0.1223 7.83734e-20)
(-3.9181 2.8667 0)
(-4.0257 0.568178 8.20885e-19)
(5.23895 -0.156012 0)
(4.71801 -1.15783 4.72561e-19)
(4.77069 -0.482597 -3.46473e-19)
(4.01091 0.035965 -9.16474e-22)
(4.69471 1.47751 -4.3766e-19)
(5.17788 2.66129 -1.17771e-19)
(3.4215 -0.925436 1.97044e-18)
(-2.2556 -1.31605 0)
(3.11727 -5.46931 -4.44302e-18)
(2.51928 -1.95463 0)
(5.35387 0.919603 -1.77351e-19)
(-5.52004 0.71151 5.53255e-18)
(8.04467 -2.39906 3.63869e-18)
(3.35674 -0.430007 -1.43827e-19)
(-4.49207 3.69234 -1.11243e-17)
(2.67342 -1.30523 -9.96046e-19)
(2.54631 -0.721676 -1.65751e-18)
(3.32413 0.303769 3.00978e-20)
(3.87045 -5.16798 3.6756e-18)
(2.27057 -0.978973 1.20003e-18)
(2.6549 -0.777343 1.83077e-18)
(-0.747296 -3.64481 3.38681e-18)
(5.16536 -5.34721 -2.48492e-18)
(3.63206 -1.11242 9.34391e-19)
(-2.00876 -1.14415 3.87243e-18)
(4.86187 0.0751799 -9.89525e-21)
(2.20107 -1.15083 -3.87196e-19)
(4.65811 0.944478 -1.89411e-19)
(4.50383 -0.961779 0)
(3.34813 -1.34469 -7.3007e-18)
(4.19269 -0.0339966 -1.09523e-18)
(3.9801 0.244712 0)
(5.30022 0.834899 0)
(2.12964 -4.50323 -1.71623e-18)
(7.48312 -0.617706 -2.89324e-18)
(4.90372 0.54004 2.36712e-20)
(4.09444 -0.695129 1.59084e-18)
(3.82971 2.00023 7.24386e-19)
(3.07224 -0.0235526 1.2085e-18)
(-5.96174 1.37289 -4.21575e-19)
(3.51548 1.31603 0)
(2.71105 -0.835386 1.75869e-18)
(-1.53845 4.72749 9.16348e-19)
(-4.59526 3.24308 8.50701e-18)
(3.41344 -1.28092 3.15165e-19)
(3.5748 -1.61783 1.72802e-20)
(3.85584 -0.0292987 6.30646e-19)
(3.48788 -0.386929 8.41929e-20)
(5.55594 -1.0225 2.06553e-18)
(-5.62055 0.948221 -4.15931e-18)
(4.84965 0.528535 -6.70503e-21)
(3.8803 0.110564 7.16186e-19)
(2.21995 -0.389967 -1.45413e-18)
(3.76366 -0.166347 1.07378e-18)
(2.26451 -0.406527 0)
(4.85245 0.921136 5.55267e-20)
(3.94464 0.0876966 1.60578e-19)
(2.92609 -0.564404 -5.59471e-19)
(3.51781 3.62665 3.9813e-20)
(3.57138 -1.08576 7.09996e-19)
(4.19069 0.0538522 3.02341e-19)
(2.72097 0.27606 -2.20811e-18)
(4.88261 -0.394019 0)
(3.32672 -0.387648 -2.72925e-19)
(4.47933 0.215941 4.14123e-19)
(4.50953 -0.328377 0)
(2.77695 0.0573326 1.25037e-18)
(5.24793 -0.114027 0)
(3.4134 3.5642 6.6596e-19)
(4.99074 -0.0613257 0)
(4.02653 -0.879935 0)
(5.0202 -0.117072 1.60165e-19)
(4.84966 0.421142 5.34776e-20)
(6.09725 0.779142 -1.41257e-18)
(3.82477 0.287331 -8.0863e-19)
(3.05103 2.4307 -5.70008e-19)
(3.98863 0.200132 -3.26145e-19)
(4.1367 0.693832 0)
(-1.15914 2.05918 -2.22323e-19)
(5.09202 0.404128 2.20674e-19)
(4.62143 -1.10789 -9.58942e-19)
(4.49456 -0.958758 0)
(5.78007 1.74895 6.18402e-19)
(4.184 3.3246 2.54849e-20)
(4.79876 0.0586381 -2.42874e-20)
(2.40158 0.754994 0)
(-1.86637 6.08193 5.25653e-18)
(4.08426 0.350887 0)
(5.57913 -0.852131 -1.00509e-18)
(-0.272915 -0.387635 0)
(1.99032 0.50979 0)
(4.36623 -3.30413 0)
(4.03238 -1.47269 0)
(-2.3649 5.4582 -6.35257e-19)
(-4.47026 0.587433 -1.74247e-18)
(3.70347 -0.058076 -1.29217e-18)
(-4.20029 -0.996574 -3.12221e-18)
(2.43286 -1.02647 0)
(-3.64323 -2.02671 -2.76391e-18)
(-0.388482 -0.69982 -3.58451e-18)
(3.07894 -1.43028 0)
(2.88518 -0.978485 -1.83191e-18)
(2.75985 0.42416 -5.02382e-20)
(4.6309 0.921237 4.54859e-19)
(4.95227 -1.55221 -1.95501e-19)
(3.70796 0.351869 0)
(4.39014 -1.3121 0)
(6.70184 1.44676 6.16904e-19)
(3.72421 -0.938879 4.01769e-20)
(3.22758 0.151293 -8.99207e-20)
(1.90668 -4.04912 1.54872e-19)
(3.99346 0.0101994 6.90604e-20)
(4.97035 1.1455 -2.80985e-20)
(4.0401 0.369303 1.02772e-18)
(3.23169 -0.432034 1.43989e-19)
(3.74006 -0.98545 0)
(1.16481 -0.920461 0)
(4.83353 0.366649 0)
(3.50981 0.0324419 0)
(3.43372 -0.592728 7.63463e-19)
(6.07901 0.171254 0)
(-2.32376 6.04578 9.36534e-18)
(6.45548 -3.71345 -2.3298e-19)
(2.59395 -0.803085 -2.77343e-18)
(2.14004 -0.99703 -2.43206e-19)
(-4.97184 -0.24401 -3.10404e-18)
(-1.47526 5.99253 -4.19136e-18)
(4.05436 0.0742904 2.39656e-19)
(-5.70574 2.16345 -4.03969e-18)
(3.18271 -0.448767 2.31032e-19)
(5.0663 -0.0929698 0)
(4.63402 -0.56044 0)
(2.73414 -0.841626 0)
(4.36846 -0.751639 2.90666e-19)
(5.07778 -5.43628 0)
(3.6123 1.28456 0)
(4.00605 0.0120801 0)
(3.49784 -0.82721 7.73734e-19)
(4.1693 0.423853 -9.8202e-19)
(3.31857 0.0458645 0)
(4.85613 -1.80321 -1.26869e-18)
(3.9409 0.378476 -9.76169e-19)
(4.84455 2.03346 -3.71537e-19)
(3.10993 -1.43644 1.03079e-18)
(3.73434 1.40757 7.78178e-22)
(3.66455 -1.29378 -2.93057e-20)
(3.57899 -0.488959 1.8544e-19)
(4.10169 -1.11925 -4.49831e-19)
(4.80544 0.421972 -5.55657e-20)
(3.27349 0.177878 -1.82029e-19)
(3.61207 0.155762 -1.2568e-18)
(4.25977 -0.0234636 0)
(2.48178 0.198051 3.04118e-19)
(3.9107 0.110924 1.30312e-18)
(0.974248 -1.47489 -3.77062e-19)
(4.23127 -0.533272 -4.04082e-19)
(2.05339 -0.309885 -2.4863e-18)
(4.83662 0.375244 6.24158e-21)
(6.226 1.38448 1.14567e-18)
(3.99454 0.17343 0)
(2.93752 -0.462815 -3.5502e-20)
(3.46312 -0.157161 -8.10024e-20)
(4.16031 -1.1316 9.04405e-19)
(-4.29146 1.17728 -4.79189e-18)
(4.03648 0.0382248 6.57614e-19)
(4.84146 0.557547 6.93546e-21)
(4.40663 0.0343637 1.36367e-21)
(4.7284 0.321087 0)
(1.87508 -0.632083 0)
(2.86725 -1.36472 1.2838e-18)
(-4.60909 3.32272 4.89961e-18)
(3.8859 0.0392956 6.46369e-22)
(3.91428 0.112751 2.61095e-18)
(3.00987 -0.505236 1.24177e-19)
(2.85127 0.559355 0)
(3.55855 0.194003 0)
(3.17508 -0.676561 -1.75661e-20)
(4.8381 -0.0554178 2.53835e-19)
(3.84297 1.35955 1.49412e-18)
(4.7892 -0.302231 0)
(4.74092 0.0804378 0)
(4.15746 -1.10717 1.01535e-18)
(3.97968 -0.300638 9.61263e-19)
(-0.111301 1.37394 -3.85906e-19)
(3.91978 -0.175037 0)
(-0.00845039 0.0878738 4.69724e-19)
(5.55138 -2.11345 -5.91448e-19)
(-4.29697 5.00189 -4.38476e-18)
(4.00347 -0.039562 -1.37154e-18)
(8.38064 1.12781 0)
(7.58208 -0.358996 2.33475e-18)
(3.84342 -0.0179667 -1.04014e-17)
(-0.189917 0.969931 0)
(3.50987 0.0684945 -1.13637e-19)
(3.82041 0.219337 -8.56997e-19)
(3.781 0.0268278 -5.29233e-23)
(4.82852 -0.463424 2.00586e-19)
(2.48328 2.34381 1.30568e-18)
(4.1298 0.0437065 0)
(2.02911 -0.705218 -1.88909e-20)
(2.84803 -0.464219 -1.27488e-19)
(3.20294 3.74076 -7.51808e-18)
(4.06417 0.624971 7.9508e-19)
(-1.86935 -1.47602 6.87917e-19)
(4.11167 0.033821 -3.0455e-18)
(3.45034 -1.16103 -1.15562e-19)
(3.46534 -0.471752 1.64501e-19)
(3.42242 -0.747357 0)
(3.56152 -0.000420642 -3.92668e-19)
(2.1998 -1.00114 9.54966e-19)
(4.47593 -0.193175 -1.27225e-18)
(3.95652 0.088304 -1.17034e-18)
(5.4952 -0.855239 8.98836e-19)
(3.29929 -0.314813 2.91918e-18)
(4.76003 0.0550713 1.40988e-20)
(3.53097 0.210111 7.44996e-19)
(3.27522 0.518534 -1.03259e-19)
(7.14897 -0.100262 -2.97457e-18)
(4.67102 2.23824 -1.61926e-19)
(3.70014 -4.34772 6.99655e-18)
(3.90082 -0.037585 0)
(2.955 -0.776133 0)
(3.58663 -0.392287 0)
(2.59482 -0.73805 2.13319e-18)
(4.16245 0.0773837 -1.87741e-18)
(3.55922 0.483725 0)
(3.01416 -0.608803 -1.6497e-18)
(3.55185 0.408708 0)
(3.45939 -0.526929 -1.24942e-18)
(4.56126 -1.16688 -1.02524e-18)
(3.69898 -0.936009 -1.03278e-18)
(4.22357 0.0409595 0)
(3.8906 0.0910977 0)
(4.53004 -0.339169 5.31547e-19)
(5.1675 0.759186 1.53472e-20)
(5.79681 -0.101418 1.01319e-18)
(4.52415 3.50982 -1.44567e-20)
(4.75732 -0.372131 0)
(3.43996 -1.24292 -5.32306e-19)
(-0.431307 0.538235 0)
(1.7628 1.89338 -1.20717e-18)
(5.21219 2.64966 0)
(4.81077 0.512289 -1.17462e-20)
(2.27604 -0.254407 9.58441e-19)
(3.01416 -0.217393 9.40358e-19)
(3.74 -0.190467 -5.41302e-19)
(5.48756 -3.66347 -1.6906e-17)
(3.91449 -0.355923 2.43481e-18)
(4.10223 0.658899 -2.03675e-20)
(5.3054 -1.02565 8.5283e-19)
(3.93606 -0.812179 -4.9715e-19)
(-0.106047 0.743616 1.76377e-18)
(5.23071 1.16316 0)
(3.96418 0.0858446 2.54299e-21)