/*--------------------------------*- C++ -*----------------------------------*\
| =========                 |                                                 |
| \\      /  F ield         | OpenFOAM: The Open Source CFD Toolbox           |
|  \\    /   O peration     | Version:  2306                                  |
|   \\  /    A nd           | Website:  www.openfoam.com                      |
|    \\/     M anipulation  |                                                 |
\*---------------------------------------------------------------------------*/
FoamFile
{
    version     2.0;
    format      ascii;
    arch        "LSB;label=32;scalar=64";
    class       volVectorField;
    location    "3.9";
    object      U;
}
// * * * * * * * * * * * * * * * * * * * * * * * * * * * * * * * * * * * * * //

dimensions      [0 1 -1 0 0 0 0];

internalField   nonuniform List<vector> 
13486
(
(5.17827 -1.23008 7.03244e-21)
(5.33543 0.0249406 4.31389e-21)
(7.61842 -0.0768606 0)
(9.65388 -3.50423 -6.25061e-20)
(8.66633 -0.531138 -5.35862e-21)
(6.8267 0.528429 -1.3365e-21)
(9.34013 1.76616 3.66718e-23)
(7.40416 -2.33904 1.17853e-21)
(6.77333 -1.19126 0)
(5.47853 1.12842 0)
(-1.6276 1.08166 -7.45154e-21)
(6.50791 -0.0722671 0)
(4.85482 -1.78687 -6.76153e-21)
(6.19626 1.62012 -2.28089e-21)
(8.08517 0.966872 -2.49722e-21)
(5.42559 1.13855 -4.61564e-21)
(5.41767 -2.75253 5.90279e-21)
(-0.558701 5.27097 -7.81912e-21)
(6.0081 0.000810753 4.51251e-23)
(5.51435 -0.718123 -7.40371e-21)
(9.46644 0.0927105 -3.07714e-20)
(4.89847 -1.81886 8.71081e-21)
(5.36725 0.00799235 -3.45575e-21)
(8.44175 -0.170817 0)
(5.72788 0.937826 1.66819e-21)
(8.95298 -0.204695 -1.92433e-21)
(4.40779 -1.23203 8.96784e-21)
(9.3327 0.0228135 6.66829e-21)
(4.82703 1.43114 0)
(9.90286 -0.227387 -7.36282e-21)
(5.69548 5.63955 -2.59375e-20)
(6.62097 1.47342 -1.63888e-22)
(10.2285 1.1507 6.00031e-21)
(8.70308 -0.52091 0)
(7.4354 -2.21126 0)
(4.69949 0.0702791 1.03747e-22)
(5.25104 -0.541514 -4.93782e-22)
(5.76877 -2.64725 2.10835e-21)
(6.27742 -1.33679 -3.74913e-22)
(6.65323 -0.73561 2.30007e-21)
(11.0164 -2.26237 0)
(4.2979 -2.08501 -8.20891e-21)
(7.09615 0.0717122 0)
(5.80866 0.780085 -7.71144e-21)
(5.80571 0.799595 3.15788e-21)
(6.46703 -0.06794 2.31124e-21)
(-2.07845 0.307786 7.50729e-21)
(4.66314 1.07837 1.51633e-22)
(5.22631 -0.531658 3.77487e-22)
(8.39045 0.472534 1.98481e-22)
(5.98723 -0.00497344 5.64415e-21)
(6.59719 -0.551476 0)
(5.70945 0.00440693 -5.24475e-21)
(5.93404 -2.14891 -3.37955e-21)
(-1.82151 5.99346 0)
(8.45886 -0.761758 2.66704e-21)
(5.65162 -0.784142 -4.09205e-23)
(6.68718 -0.832563 -1.78163e-21)
(10.1584 1.12485 6.30405e-21)
(5.3121 -0.719958 0)
(-1.90814 -0.187028 -8.96681e-21)
(5.39051 -0.751999 0)
(2.4113 3.44873 1.11537e-22)
(9.41268 -0.222145 -3.52748e-22)
(-5.20117 6.50924 0)
(5.26961 -0.580107 -2.35767e-22)
(9.29536 -3.72117 -6.00928e-20)
(4.9912 -0.612168 2.67034e-21)
(6.78073 -1.26817 -8.85057e-22)
(4.81907 0.0632881 2.9232e-22)
(10.1771 -4.25276 6.93871e-20)
(-1.39789 6.26654 -7.17326e-22)
(6.4464 -0.453909 2.15128e-21)
(-0.809626 -1.80982 -1.79762e-21)
(5.25549 -0.670145 -4.36445e-23)
(5.5505 -0.786229 -9.8219e-24)
(5.24479 -0.679395 1.46422e-22)
(8.22669 0.970203 1.09663e-21)
(-2.23779 0.985906 -5.06857e-21)
(8.33374 -5.47308 0)
(5.04403 0.115573 -2.42254e-23)
(5.14887 0.166041 -2.85763e-22)
(1.98308 3.75478 1.02437e-21)
(7.68028 -0.159169 -4.3849e-22)
(5.18233 -1.24735 -1.36546e-20)
(4.09627 2.33755 0)
(4.37669 -2.78226 6.54074e-22)
(5.99315 0.0233643 -9.03291e-21)
(5.74204 -0.00411786 -3.69952e-21)
(5.00668 1.52368 -6.15472e-21)
(5.63645 1.28209 -1.63855e-21)
(7.87702 -1.68744 1.32115e-21)
(5.39843 -1.46758 1.66183e-21)
(5.46837 -0.39675 2.09373e-22)
(6.67719 -1.91339 3.07661e-22)
(4.80443 0.737691 -3.82144e-23)
(4.54215 -1.35691 0)
(9.69358 -4.33163 3.42292e-20)
(6.65191 -0.690916 -4.44354e-21)
(4.51921 -2.42472 -1.24729e-22)
(5.14156 0.0476752 0)
(6.19619 1.59744 -9.04538e-22)
(9.39657 -4.73809 1.20872e-21)
(6.58875 -0.741588 2.07522e-21)
(3.83098 2.10082 0)
(4.09438 -2.43066 -6.04804e-23)
(6.04598 -0.120935 -1.6339e-23)
(6.32783 -1.52247 -8.50915e-22)
(-2.0877 0.909233 6.32735e-21)
(7.73389 -3.36987 0)
(6.14175 -2.82199 0)
(7.2851 2.40524 3.30043e-21)
(5.97232 -2.10534 9.08876e-23)
(7.76797 -0.0543456 -3.71363e-23)
(4.21755 -1.01971 0)
(6.03621 -2.81513 -3.29002e-22)
(5.66814 1.00243 0)
(9.18643 -0.568706 0)
(6.44486 -0.440352 0)
(5.19677 -0.445241 -2.96831e-22)
(-0.268648 4.31433 3.4657e-21)
(-1.56341 -0.124383 0)
(6.51636 -1.75992 0)
(6.33833 -1.32817 1.26044e-21)
(6.92168 -2.24267 0)
(6.63894 -0.514838 0)
(7.26981 -0.270541 1.62729e-23)
(6.24567 0.168484 4.19779e-21)
(8.48142 -0.570161 -1.07181e-21)
(-3.1573 7.38637 -8.47925e-21)
(6.41192 -0.401488 -2.12631e-22)
(-1.89535 0.62245 -1.8361e-21)
(0.361095 -1.96677 1.31803e-21)
(-1.01246 -0.25335 2.70451e-21)
(5.99528 -0.00348834 -8.90267e-22)
(5.59761 0.482439 -5.11426e-21)
(3.05942 0.497453 -2.79709e-21)
(7.68573 -3.22532 0)
(5.15535 -0.401946 9.81632e-23)
(7.34765 -1.72392 6.42371e-23)
(9.3021 1.31114 -3.77704e-21)
(5.7359 0.0388899 4.51187e-21)
(6.20959 0.715219 0)
(8.07881 -4.82151 0)
(7.78217 0.143968 4.10865e-23)
(-0.130333 4.94387 -2.27219e-20)
(4.57202 -1.47613 -1.09508e-21)
(1.60502 1.25517 0)
(8.43592 0.671421 0)
(5.02273 1.50452 0)
(5.99478 0.00705302 1.20136e-22)
(8.80234 0.623793 0)
(5.11539 0.108235 2.53536e-23)
(5.09463 0.159542 -2.45019e-21)
(6.1366 0.607224 0)
(8.02665 -0.120314 0)
(7.9396 -3.3033 0)
(7.65507 4.07862 2.58539e-20)
(6.34511 -2.40532 3.06472e-21)
(5.02288 -0.961886 4.41921e-22)
(7.56409 0.241798 -9.04429e-22)
(6.3678 -2.35338 -4.46184e-21)
(4.7915 2.56438 1.21904e-21)
(3.86449 -1.94603 3.52537e-21)
(6.78282 -0.634951 0)
(6.38286 1.71852 2.31771e-21)
(6.13465 1.42391 5.8271e-21)
(2.86332 -1.30515 -1.06934e-20)
(4.41855 -1.57933 2.68327e-21)
(-0.998769 -0.598472 6.66564e-22)
(0.603783 -2.43839 -7.99094e-23)
(6.12328 0.536494 3.21818e-21)
(5.99949 0.0446668 -8.47814e-21)
(7.18909 0.296024 1.19691e-23)
(4.99924 0.271032 -3.74194e-23)
(-3.25986 -5.89799 0)
(5.95956 2.09451 -4.42403e-21)
(9.45474 1.97502 4.63238e-21)
(6.06433 -0.126768 -7.82739e-21)
(6.22499 0.600181 0)
(6.86602 -0.773254 3.49037e-21)
(8.01367 0.0927135 -9.49419e-23)
(6.9563 0.514837 5.05667e-23)
(3.81386 -2.80342 0)
(7.13412 -0.512879 1.26945e-21)
(8.7573 0.0272077 -3.00602e-21)
(6.60075 1.82888 1.6171e-22)
(9.45549 -0.357332 -1.98071e-21)
(10.9194 -2.16652 0)
(5.50661 -2.61583 -1.23627e-21)
(5.19445 -0.511799 0)
(7.86697 0.00381451 0)
(6.9051 -1.25819 0)
(4.29091 0.910293 -5.76292e-21)
(7.16643 -1.42745 0)
(-1.62019 1.32247 -2.05502e-21)
(-4.7582 8.52641 1.70987e-20)
(7.75284 0.144752 -3.40362e-22)
(5.05867 -2.46455 -1.2221e-21)
(6.39439 1.66161 1.79508e-21)
(5.55342 6.66428 2.77009e-20)
(6.26363 0.218916 -1.33126e-22)
(5.70042 -2.68928 -2.44314e-21)
(9.00824 -3.39216 -4.03467e-21)
(4.9618 -0.900609 -5.01289e-22)
(7.29213 -1.37129 -2.00258e-21)
(0.825443 7.78147 -8.81353e-21)
(6.19238 -0.389113 5.1972e-21)
(6.84899 -1.22535 0)
(7.26331 -0.443334 0)
(9.40567 -0.140829 5.64486e-21)
(6.87595 1.16576 6.21481e-22)
(5.56128 -0.649609 6.79823e-21)
(5.99913 -0.110164 -1.51334e-23)
(6.85578 0.611794 1.54128e-21)
(11.9126 -3.28122 4.5012e-21)
(9.74409 -0.114526 0)
(5.01361 1.46122 1.40312e-20)
(5.67033 -1.46517 0)
(6.69301 2.58601 0)
(4.75907 -2.62782 -1.10958e-20)
(8.29933 0.774189 0)
(7.28101 -1.74689 -3.02761e-22)
(8.13472 0.320962 0)
(5.35869 -0.463182 -1.12932e-21)
(4.97225 -2.32565 2.22269e-21)
(6.9361 1.15976 1.50596e-22)
(0.618872 5.00134 1.9799e-20)
(9.63628 -2.85615 9.25571e-22)
(4.67524 -2.69717 -2.39927e-22)
(6.86859 -0.728916 -1.15354e-21)
(13.0856 0.99921 3.68535e-20)
(9.47401 1.34813 4.64312e-21)
(4.27109 -2.0759 2.87016e-21)
(9.80245 -2.2627 0)
(4.67657 -2.26295 2.43815e-22)
(9.24783 -0.549507 3.86178e-21)
(7.85409 -0.0147842 -2.11091e-22)
(4.67062 -2.22643 6.8601e-21)
(6.83139 0.278628 0)
(10.5721 0.780452 0)
(5.99376 0.0493644 1.30944e-20)
(8.31643 0.0429314 0)
(4.50099 -2.2105 2.05482e-21)
(5.94481 -1.53181 -5.77638e-22)
(5.80074 -0.3105 0)
(6.84095 0.106439 -4.20852e-22)
(9.83925 0.249709 8.7805e-21)
(1.22144 -1.30871 3.23283e-21)
(5.7675 0.69399 0)
(5.1529 -5.57418 -1.01053e-20)
(4.14612 -0.960573 1.18681e-21)
(5.66161 -2.73938 -3.6709e-24)
(6.40374 -1.56725 0)
(8.69388 -3.39671 3.31237e-21)
(-3.47764 -6.26653 6.04728e-21)
(6.57747 1.4325 6.46038e-22)
(12.7829 -3.67317 -5.68796e-21)
(10.716 6.03659 -2.7067e-20)
(10.4371 0.913359 5.40923e-21)
(5.55998 -0.0228404 0)
(5.90499 -1.54272 -5.26906e-23)
(8.09003 0.969018 5.56714e-21)
(-3.68457 -7.11466 -7.55098e-21)
(8.71687 -2.06919 5.74701e-21)
(3.51692 -2.94456 0)
(9.39862 -2.53089 -5.94281e-21)
(7.15157 4.39849 -3.73628e-20)
(6.66209 -0.0363934 -2.82029e-21)
(-1.13774 0.74517 0)
(4.69871 1.13008 4.76693e-21)
(6.00825 -0.0922976 -2.23279e-21)
(9.7545 -0.0897657 0)
(6.19797 -0.241674 2.47578e-21)
(5.08346 -2.39764 2.9372e-21)
(10.2136 0.509704 -4.8117e-21)
(8.41537 -3.11362 0)
(-4.55955 9.48031 0)
(6.46334 -1.80701 -1.10924e-21)
(4.61815 -1.31645 2.34863e-21)
(-4.39632 9.18417 3.16752e-20)
(6.95851 -0.344196 -1.28448e-21)
(5.99292 -0.14487 4.74613e-21)
(1.35507 -1.11561 -9.4075e-21)
(-0.894691 -0.58564 1.10107e-20)
(4.73853 -2.03561 1.46839e-20)
(9.08524 1.63174 2.57425e-21)
(8.01888 -0.613267 1.40939e-21)
(6.05355 -0.495029 1.95557e-21)
(6.45118 -0.0455325 0)
(10.7483 -1.95622 0)
(5.36161 -0.932838 1.14355e-23)
(5.94243 -2.75581 9.4248e-22)
(5.99859 0.00592621 -8.63094e-22)
(9.18704 -0.568717 3.68144e-21)
(9.37244 -0.465123 0)
(7.93106 0.0359993 9.30616e-22)
(6.29294 -0.315772 -2.1538e-21)
(6.01785 -0.176695 -4.2596e-21)
(10.4079 0.514 -1.13032e-20)
(4.7439 2.6614 -1.32553e-21)
(0.583196 8.7399 1.35101e-21)
(4.73059 -1.47861 -2.00141e-21)
(6.79811 1.40012 3.69715e-22)
(5.2808 -0.410965 1.04225e-22)
(7.95313 -3.73669 0)
(11.3261 1.8786 0)
(6.26784 0.0509932 7.50919e-22)
(4.69693 -3.04705 -3.10692e-22)
(5.21262 -0.544446 0)
(5.18102 3.57896 -2.75413e-21)
(7.55672 -2.66633 0)
(5.78886 1.98646 2.6801e-21)
(7.08749 2.3479 2.30932e-21)
(-4.44613 0.970366 0)
(5.58304 0.409366 -3.23574e-21)
(5.40195 -0.954184 -8.00543e-24)
(5.70345 -0.0108845 -3.1467e-22)
(6.13363 -0.386027 -5.90411e-21)
(9.53145 -2.4683 0)
(5.22192 -0.585106 4.20214e-22)
(5.58417 -0.989431 3.43979e-23)
(6.07479 -0.0781562 9.95925e-22)
(5.43095 -0.313508 -4.04741e-21)
(3.31162 0.236594 5.06798e-21)
(5.77698 1.41439 3.62535e-21)
(7.73867 -0.323464 3.39732e-21)
(6.98704 -0.323083 0)
(6.62322 -0.631431 -2.01979e-23)
(7.85301 -0.198714 1.32372e-21)
(5.98676 -0.0237492 1.30436e-20)
(7.98112 -1.6582 0)
(5.22082 1.45296 -9.98309e-22)
(4.81211 0.0877584 0)
(9.30457 1.98225 1.93693e-20)
(6.87091 -1.70928 -5.06318e-22)
(3.50066 -1.6835 3.77652e-21)
(8.76668 0.386714 5.79064e-21)
(5.9682 0.185328 0)
(5.79131 -1.47241 -6.70995e-22)
(9.58716 -2.42685 6.21535e-21)
(5.41904 -0.300698 3.8274e-21)
(7.95551 -0.190423 -3.93598e-21)
(6.97538 0.560431 8.41717e-22)
(1.92325 -2.7701 -1.21233e-20)
(4.79652 1.01039 -2.23069e-23)
(7.15272 -0.0184288 0)
(4.17905 -1.66683 8.66123e-21)
(6.82469 2.66984 0)
(5.42776 -0.994025 -3.46677e-23)
(6.94441 0.0326783 2.21692e-21)
(6.37404 -0.542022 -2.54795e-21)
(6.15282 -0.243633 2.16791e-21)
(3.63282 -1.30471 -1.06763e-20)
(6.03031 -0.161402 5.28872e-21)
(5.0802 0.0125882 0)
(-1.05317 -2.2183 -1.64483e-21)
(7.25563 -0.220484 -3.22772e-22)
(5.1157 -2.86576 -1.03462e-22)
(7.86508 1.78928 2.27575e-21)
(7.10139 0.0119806 0)
(5.37017 1.05675 3.6005e-21)
(5.68118 -0.159616 8.6347e-21)
(5.99732 -0.0960493 6.80563e-21)
(9.89448 -0.137972 0)
(5.17834 0.0903004 -2.87911e-24)
(9.35391 -0.461512 -3.62695e-21)
(-1.53455 0.144291 9.32615e-22)
(5.4746 -0.710061 9.47177e-22)
(7.21826 -0.180718 3.07865e-22)
(7.46872 0.0665861 8.92444e-23)
(7.12753 -0.0539578 0)
(5.31472 -0.668382 -4.59786e-21)
(3.85324 -5.46941 7.449e-21)
(6.52952 1.03642 -3.19875e-21)
(6.00818 -0.0112039 4.67948e-21)
(4.78781 0.00796889 0)
(5.55611 -1.14377 -3.2989e-22)
(-3.81836 1.07588 0)
(6.95754 2.17392 -7.02819e-23)
(6.70139 -0.0652496 0)
(8.15509 -2.08393 -2.26089e-22)
(4.88182 -1.03136 -2.07003e-21)
(4.74195 0.966916 1.07971e-20)
(-1.86294 0.0690327 -2.98871e-21)
(8.67969 -2.8537 0)
(6.52016 0.144244 -4.37093e-21)
(5.95846 0.191118 -3.79427e-21)
(3.74067 -2.31189 -1.97506e-21)
(6.74182 2.73252 3.74038e-21)
(5.61995 -0.676098 -1.01245e-20)
(9.64534 -0.0148774 2.69773e-21)
(6.01726 0.274503 3.16162e-21)
(5.38586 -1.80918 0)
(4.70479 -0.123221 4.76026e-21)
(5.0759 -0.446624 -3.1429e-22)
(8.57984 -3.29128 3.59606e-20)
(3.96009 -5.44219 -2.88066e-20)
(4.14907 -2.46529 -4.96857e-21)
(9.16393 1.63013 0)
(3.74308 -2.36451 0)
(5.26753 1.95504 0)
(6.77622 -0.176905 0)
(12.3737 -0.012477 -2.27876e-20)
(8.73967 2.00077 0)
(3.26991 -2.07595 0)
(5.52294 -0.337453 1.54403e-21)
(9.48243 1.9501 -4.75973e-21)
(7.07824 -0.104827 -1.35712e-21)
(5.35341 0.11457 1.53482e-20)
(6.00426 0.0366284 -1.90251e-21)
(5.34835 3.05312 0)
(9.53015 0.159712 0)
(5.98713 -0.180218 4.55704e-21)
(5.96578 0.0286357 8.04207e-22)
(3.8438 0.850578 0)
(4.19847 -3.04361 1.4059e-20)
(8.65695 -2.13298 -6.44659e-21)
(-0.163286 -2.44483 0)
(6.84298 0.300637 1.49285e-21)
(6.08325 -0.110373 -5.27072e-21)
(5.85474 6.1715 4.59039e-21)
(4.15989 -1.64426 0)
(5.93 0.194693 6.72389e-21)
(7.2909 0.886438 0)
(9.4496 -0.360381 0)
(6.27803 0.395957 -6.27541e-22)
(5.97063 -0.1398 2.53668e-21)
(4.93901 -1.4342 -1.17427e-20)
(6.1175 1.35429 1.85321e-21)
(5.00041 -1.57537 -3.31165e-21)
(6.72821 -0.164143 3.42411e-22)
(6.07673 0.306423 2.55935e-21)
(6.02641 -0.754554 1.19896e-20)
(9.0706 -1.75797 0)
(10.043 0.164197 4.6965e-21)
(4.86114 -0.881831 0)
(5.47298 -1.00047 4.92267e-23)
(7.19746 0.216389 0)
(5.04035 -0.584904 5.74276e-21)
(-0.0879778 -1.46316 -6.9423e-21)
(9.60695 -0.0299319 0)
(-1.34984 0.248909 1.89465e-22)
(9.55959 0.12204 -5.25269e-21)
(4.90072 -1.73504 9.38979e-22)
(6.19115 -1.04326 7.29763e-21)
(4.44586 0.872904 -6.72841e-21)
(4.97427 -1.5525 -9.71943e-21)
(6.64813 2.19236 0)
(5.20701 -0.45161 2.88163e-22)
(1.68622 -2.50603 -2.81262e-20)
(5.93855 0.188394 0)
(5.6937 0.0103419 3.44754e-22)
(7.88726 0.298082 -7.81604e-23)
(6.33584 2.33923 0)
(5.99862 -0.00530843 0)
(7.54161 -4.53611 0)
(-2.70825 -4.35698 3.14546e-20)
(0.983627 -0.833768 1.1141e-20)
(1.93462 4.59 -2.96129e-22)
(5.77385 1.89877 0)
(5.89897 -0.909615 5.81944e-21)
(4.96826 0.23912 8.43606e-23)
(6.13322 1.24963 -4.49391e-21)
(10.443 -1.98639 5.82719e-20)
(5.83198 -0.0361828 0)
(4.7168 1.19304 0)
(3.53164 -1.22106 -6.33987e-21)
(5.30374 -1.81043 -2.17512e-21)
(6.55638 -0.591913 0)
(6.87993 -3.14285 1.96273e-21)
(5.30309 0.0408095 -4.44121e-23)
(4.95072 0.695322 5.25728e-23)
(3.78165 -1.78887 0)
(7.45726 -0.973833 2.3637e-21)
(5.15327 -0.409574 2.89651e-22)
(7.33885 0.865648 -2.1041e-21)
(6.85238 -1.80188 0)
(4.66797 -2.16972 -2.22221e-20)
(6.33143 -0.446799 2.35219e-21)
(5.98315 0.0785757 1.29667e-21)
(4.98871 -0.00193647 1.62068e-22)
(6.50643 1.76547 0)
(5.33894 0.107834 -4.08232e-21)
(7.36148 2.82231 6.58443e-22)
(4.47691 -2.52194 1.1925e-21)
(5.97792 0.0346958 0)
(6.79165 3.11932 -3.83833e-21)
(2.90483 -1.16555 0)
(6.00895 0.0505201 -5.27046e-21)
(5.97883 -0.0137326 1.89059e-21)
(5.99734 -0.262592 -8.82523e-22)
(-0.653923 -6.27096 0)
(7.38045 -0.123905 -8.62505e-22)
(4.05973 0.037737 1.32654e-20)
(8.98429 -1.91538 0)
(5.48359 -0.380292 4.68496e-21)
(10.2634 0.269295 1.30192e-20)
(6.52176 0.0290649 0)
(7.08442 3.7895 1.92542e-20)
(7.6271 -4.67199 -7.50313e-21)
(7.53995 0.0877142 0)
(3.45235 -2.07854 1.25123e-20)
(5.66492 -0.0172827 0)
(6.60773 -2.91897 3.43956e-22)
(4.32095 -6.34642 1.75874e-20)
(6.51234 2.17469 -1.69215e-22)
(6.92147 0.50988 2.5166e-21)
(4.71503 -0.167069 2.46386e-21)
(6.16177 -1.10733 -2.6254e-21)
(8.45384 -2.70023 -2.52637e-21)
(6.59795 -2.81921 8.82797e-23)
(7.19505 -0.231072 4.27818e-22)
(6.4671 1.80511 -4.2504e-21)
(8.28315 -3.44521 0)
(6.00164 -0.0157475 -4.15101e-21)
(-0.241653 -2.39493 -3.48656e-22)
(4.93305 -0.897361 0)
(5.02745 -0.635389 -1.27154e-22)
(4.76105 0.049159 0)
(4.70012 -1.63394 8.63754e-21)
(8.01508 -2.47571 0)
(5.04007 0.0278935 -1.96791e-22)
(7.05007 -0.0012322 -1.29175e-21)
(4.59011 5.44374 3.6588e-20)
(9.26933 -5.03623 3.38861e-20)
(7.0048 0.0873301 -1.97764e-23)
(7.33935 -3.38856 -5.08272e-21)
(6.47341 -1.77058 1.74455e-21)
(5.39583 -1.46614 0)
(2.22111 -1.57882 -6.51285e-21)
(9.18212 -1.59251 1.19291e-21)
(2.23119 -1.5793 -7.51957e-21)
(4.79094 0.823237 -3.01358e-23)
(5.38864 -2.12219 0)
(6.54793 -0.00628513 -4.46497e-23)
(4.23289 -3.19211 0)
(9.54068 -4.87649 2.078e-21)
(5.88578 5.97294 -6.58816e-21)
(11.3973 5.7613 0)
(7.54344 -1.41688 -1.9914e-22)
(-4.86554 6.57513 0)
(6.32125 2.30488 0)
(6.31399 -2.92129 -4.79954e-22)
(4.88605 -0.00315582 3.92528e-21)
(6.22921 -7.05051 0)
(5.66596 -0.106538 -2.44526e-21)
(0.874989 5.07495 2.19878e-20)
(2.92806 -4.96451 2.89166e-20)
(6.2722 2.80562 0)
(6.30835 -0.0396726 0)
(1.39964 -2.29628 -1.09607e-20)
(6.2402 -0.544365 0)
(7.34066 -0.200543 0)
(-2.19959 -0.729307 3.5182e-23)
(7.23929 -0.939496 -7.5699e-22)
(6.27571 -1.51372 1.83962e-21)
(10.7142 0.499121 7.98735e-22)
(2.33758 -1.45424 1.42693e-20)
(5.97332 -0.0170203 2.13393e-21)
(5.5254 -1.50484 0)
(6.00054 0.877877 -1.54735e-21)
(5.14326 -1.17615 0)
(6.87381 -0.0756148 0)
(5.97493 0.103579 0)
(6.27647 0.366061 -5.12279e-22)
(6.13925 -0.416148 2.71748e-21)
(8.30072 0.142512 1.25776e-22)
(5.65725 -1.50648 0)
(3.82113 -1.2201 -8.74213e-21)
(5.302 1.85316 3.62021e-21)
(6.91891 -2.25904 1.53305e-23)
(8.24243 -0.923074 -2.47734e-21)
(10.0384 0.180153 9.56034e-21)
(6.25315 0.0399118 -2.9917e-21)
(0.109676 -1.49091 0)
(6.30501 -0.313426 0)
(4.29914 0.927615 0)
(4.77571 -2.17816 -5.86165e-21)
(-5.11044 12.8073 -2.99179e-20)
(11.5202 5.8839 0)
(6.03584 0.896589 0)
(5.48862 -0.137608 4.43435e-21)
(6.27184 -0.0166972 -5.62965e-22)
(5.43408 0.909018 6.10637e-21)
(9.5139 -3.48671 0)
(3.48454 -0.335259 -3.00428e-21)
(6.6193 0.166892 2.58718e-21)
(5.1934 -1.73414 -5.30549e-21)
(6.32125 0.185464 -3.41573e-21)
(6.10623 1.27124 5.57816e-21)
(-3.07758 0.123158 3.07095e-21)
(4.71549 -2.15371 1.01841e-20)
(9.27574 1.88763 2.83091e-20)
(8.37248 0.036256 -6.5225e-23)
(6.0111 -0.00495768 -9.72425e-22)
(6.36607 -3.00222 9.85494e-22)
(7.69262 -4.20017 3.49083e-21)
(3.94326 3.11445 -4.13583e-21)
(6.65848 -3.06037 -6.51714e-22)
(6.65022 -0.631569 0)
(4.16971 -2.45312 -3.36936e-22)
(6.37016 -0.0354396 -6.56667e-21)
(6.74694 2.21511 -8.05083e-22)
(5.09377 -1.64738 -5.00628e-21)
(6.83836 -2.17817 -6.89613e-22)
(6.38372 0.0354087 4.03545e-21)
(8.35089 -0.0991724 -2.31915e-21)
(2.53591 -1.08747 -3.86794e-21)
(8.92507 1.78875 -1.4814e-21)
(4.44869 -1.20256 -1.26038e-20)
(6.50432 -0.038882 -5.83368e-21)
(4.44122 -1.36702 0)
(1.96684 5.98985 -8.48418e-20)
(6.74477 0.0235009 6.52968e-21)
(4.39665 0.048748 2.52467e-23)
(-0.541228 -1.74659 0)
(7.61231 -3.26805 0)
(5.79391 0.647934 5.66864e-21)
(4.1436 -1.22657 7.99529e-21)
(-6.43996 2.92907 -1.45069e-20)
(8.20099 -2.06565 2.15658e-21)
(7.80669 -0.279581 -1.97447e-21)
(6.69446 2.75959 0)
(5.76706 0.715043 3.28764e-21)
(0.354119 6.90146 -7.48989e-22)
(6.02857 2.10292 -3.98572e-21)
(6.77326 -0.748186 -2.37053e-21)
(2.46974 -1.93968 -2.31882e-20)
(10.2386 0.245694 -9.13036e-21)
(9.81068 0.11563 1.92067e-21)
(5.58494 2.1836 0)
(9.77774 -1.48497 -3.00879e-21)
(6.017 -0.258231 7.70278e-22)
(5.04822 0.169474 -4.3243e-23)
(3.90838 -1.94657 1.00244e-20)
(6.71553 -0.79959 3.61039e-21)
(5.05224 -0.91198 -1.81281e-22)
(3.08463 -5.17211 -1.7574e-20)
(8.86218 -0.112913 -2.7705e-21)
(6.4076 0.0669068 5.23952e-21)
(-0.583033 0.0186817 -1.37725e-21)
(5.91727 1.98443 7.87679e-21)
(3.96601 -2.27902 -1.35953e-20)
(4.78304 -2.29821 -2.63095e-21)
(5.14042 0.196289 0)
(5.97113 -0.788917 9.0825e-23)
(-1.58009 -3.67247 -7.06195e-21)
(4.86471 -1.09454 1.09845e-20)
(7.57953 1.09807 0)
(3.93245 2.26578 2.14399e-21)
(4.58007 -1.97039 2.43015e-21)
(5.99285 0.00759604 -9.20431e-21)
(3.98002 -3.3782 -1.5566e-20)
(6.36342 -6.99492 -4.13228e-21)
(7.1036 -0.0769824 9.08737e-22)
(6.47006 0.196383 6.62493e-21)
(6.71617 -2.96201 1.18584e-22)
(8.44942 0.0600091 -1.72158e-22)
(-6.18893 11.0793 -6.85092e-20)
(6.38425 -0.0318955 6.1612e-21)
(6.6923 -0.158678 -1.52084e-21)
(6.18742 0.2057 -3.22516e-23)
(7.53664 0.0768637 -2.84913e-21)
(4.48393 -2.0302 -4.69291e-21)
(8.30618 0.101682 0)
(-0.481563 -4.29733 4.22768e-20)
(6.41124 0.0410891 5.78239e-22)
(6.40721 5.60286 6.50543e-21)
(7.17758 0.186853 2.3253e-21)
(7.70389 -0.539781 7.46244e-22)
(6.00201 0.0286401 -8.19691e-21)
(5.99497 0.508086 1.92232e-21)
(4.85223 -3.12634 -1.44505e-20)
(7.48804 -0.199684 0)
(5.65339 -1.19399 1.93124e-22)
(6.40077 -0.667046 2.61151e-21)
(5.41027 -2.08084 0)
(6.17 0.147194 4.30417e-21)
(6.59377 -0.698954 3.161e-21)
(7.38916 -0.170752 2.16371e-25)
(11.0872 -2.66337 1.09181e-20)
(7.50548 -1.32797 0)
(5.43214 0.277558 8.00888e-21)
(5.16032 -0.762633 1.5936e-22)
(6.417 -2.93363 -1.45228e-22)
(6.72021 -0.475529 0)
(4.884 -0.041317 -1.12679e-20)
(-0.624735 3.39059 1.07462e-21)
(5.78499 2.83006 3.61608e-21)
(4.48342 -1.2447 1.22783e-20)
(7.71012 0.134528 -2.76383e-22)
(8.53994 -4.89678 2.43301e-20)
(6.38273 -0.444147 -3.72456e-21)
(9.88957 0.211534 -6.57769e-21)
(5.67905 -0.140139 -4.98977e-21)
(7.22379 0.212869 0)
(6.01815 -0.0173823 -3.63732e-21)
(3.45858 -0.463825 1.04127e-19)
(-1.46524 -1.08981 0)
(7.63107 0.848343 0)
(5.05018 0.174072 0)
(4.74598 -2.59984 0)
(5.91994 0.434724 0)
(4.31791 -1.20095 0)
(12.0944 -2.2093 4.02995e-22)
(4.05456 2.61776 -1.67041e-20)
(6.96108 1.26951 0)
(5.39394 0.208547 1.18823e-20)
(-1.6134 -0.610697 -6.20743e-21)
(6.03753 0.292596 5.24767e-23)
(-2.23048 -2.50957 -2.78908e-21)
(4.25217 -0.69452 4.13047e-23)
(4.62646 -3.37133 1.32631e-20)
(5.62783 0.0565764 -1.22146e-21)
(8.27167 0.469062 9.64049e-23)
(5.9059 0.379863 -3.80585e-21)
(5.74367 -0.04033 -7.21605e-21)
(5.25928 1.62565 -6.32439e-21)
(6.65102 2.37172 0)
(8.99915 0.19559 1.13179e-20)
(4.75139 -1.67935 -9.44696e-21)
(6.02313 0.0164017 -1.0825e-20)
(9.26229 -1.41405 1.23373e-20)
(7.27374 -0.0115775 5.40325e-22)
(11.7954 0.111837 -1.70844e-20)
(7.27496 -0.492005 -7.73734e-23)
(7.55936 -1.3922 7.52817e-22)
(5.96301 0.177879 3.93274e-21)
(5.76813 3.94228 0)
(8.13391 -2.51988 -2.09512e-21)
(5.57046 -0.383419 -1.47916e-21)
(8.4739 2.28066 0)
(6.60476 -1.62765 0)
(7.17203 -3.11228 -9.07482e-23)
(7.75634 -4.72325 2.79526e-20)
(12.3178 -2.91584 -1.94378e-20)
(6.07051 -0.326178 0)
(6.23398 -0.397535 -5.37407e-21)
(5.61443 -0.0155466 -1.37803e-21)
(3.62995 -1.50661 2.81765e-20)
(7.02346 -0.504074 1.35623e-21)
(5.33861 -3.6514 0)
(8.70629 0.623867 1.28508e-20)
(6.94978 -0.632715 0)
(9.81901 -1.64771 3.6601e-21)
(5.30612 1.14169 -2.32217e-21)
(6.03398 -0.0132869 2.47167e-24)
(6.1435 1.44469 -1.03162e-20)
(6.28053 2.56959 -2.64128e-22)
(6.28364 -1.75646 4.04369e-21)
(3.09705 7.25459 0)
(-4.73328 9.32755 -2.61382e-20)
(-3.09964 1.87108 0)
(7.09699 1.37396 7.93511e-22)
(4.19728 -2.3138 5.89219e-20)
(8.64958 0.702988 1.95332e-21)
(5.76434 -1.27063 -2.82461e-22)
(-4.95384 -5.26928 -2.73561e-20)
(5.8539 -2.69945 1.67733e-22)
(4.8642 -1.67462 -5.34483e-21)
(5.08546 -0.451774 1.09628e-22)
(-3.26904 8.66702 2.11648e-20)
(4.5212 -2.0483 3.86222e-21)
(5.03039 -1.7246 5.61584e-21)
(-4.3505 10.737 4.29618e-20)
(-2.52914 7.70989 -7.19713e-21)
(6.72914 -1.91203 1.04387e-21)
(-1.27413 -0.775899 3.63517e-21)
(8.22351 0.155868 3.49262e-23)
(-1.24446 -1.00645 6.17906e-21)
(6.3309 1.01146 -2.52922e-21)
(8.51889 -0.81863 0)
(4.58525 -2.50534 -1.12916e-20)
(6.22909 -0.0317918 -7.06652e-21)
(5.96661 0.0798013 0)
(7.065 1.25158 0)
(-4.79238 11.9053 -3.38091e-20)
(10.6971 -0.39464 -8.54947e-21)
(6.75395 0.696806 -6.05084e-21)
(7.21946 -0.905735 9.58993e-22)
(5.27324 1.59416 5.43633e-21)
(5.00501 -0.0651553 2.6208e-21)
(2.59563 -3.93873 -4.07517e-22)
(5.24456 0.820895 0)
(5.14911 -1.79347 5.18081e-21)
(-2.79371 2.25828 2.01242e-21)
(-2.25676 -5.82504 2.18402e-20)
(6.31313 -2.2926 4.90508e-22)
(8.40924 -3.71744 4.75295e-21)
(5.78099 -0.030794 1.41669e-21)
(6.18366 -1.31011 3.51681e-22)
(9.8305 -0.317393 7.62376e-21)
(3.92571 -6.33007 -3.31001e-20)
(6.72423 0.664711 4.56297e-21)
(6.03737 -0.171438 2.61093e-21)
(4.40803 -1.34513 -5.032e-21)
(6.26835 -0.486292 3.19369e-21)
(1.80315 -1.10668 0)
(6.54023 1.03788 5.51051e-21)
(6.05981 -0.106127 5.88579e-22)
(5.35081 -1.38763 -1.72342e-21)
(4.54537 2.89929 -3.67524e-21)
(6.6198 -1.89778 1.06935e-21)
(6.35472 -0.0123302 1.03227e-21)
(4.77492 -0.448078 -7.98884e-21)
(8.80438 1.88565 0)
(5.73836 -1.11074 -5.25946e-22)
(6.34568 0.213745 4.61549e-21)
(8.65266 -1.18364 0)
(4.92276 -0.647759 4.40475e-21)
(7.09715 -0.535322 0)
(4.1108 2.71847 1.36548e-20)
(7.91239 -0.0188178 0)
(8.31981 -2.67792 0)
(6.67213 -0.0987014 1.06143e-21)
(6.74449 0.505391 3.49259e-21)
(8.15175 2.03627 -5.14218e-23)
(5.85953 -0.0499025 -3.35262e-21)
(4.4392 1.54295 -3.56313e-21)
(5.99559 0.0496843 -1.63549e-21)
(5.96625 0.467096 0)
(-1.72539 2.4862 -7.0321e-22)
(7.05417 0.559432 -2.81335e-21)
(9.69184 -1.89571 -7.7808e-21)
(8.56345 -0.85657 0)
(6.79438 2.27496 -9.91006e-22)
(5.15735 2.97938 -6.45152e-22)
(8.40939 0.205481 -1.3519e-22)
(-6.46736 -1.33594 0)
(-2.35398 -0.801675 7.75591e-21)
(6.01992 0.205915 0)
(9.69196 -0.256747 -3.70112e-21)
(1.26071 -1.11453 0)
(0.26122 3.43176 0)
(7.72105 3.55728 0)
(7.78497 -2.48327 0)
(-1.14085 1.89424 -1.36172e-21)
(-4.99098 -4.8654 -7.73649e-21)
(6.1328 -0.402735 -4.07738e-21)
(5.05795 5.45989 -4.4598e-20)
(4.76714 -2.10084 0)
(-1.57826 7.32783 -3.26447e-20)
(0.623394 -1.14495 -3.2065e-21)
(5.87939 -2.70457 0)
(5.40206 -1.97074 -5.05457e-21)
(5.30167 -0.714066 -4.65876e-23)
(6.31952 0.950528 6.70528e-21)
(10.4585 -2.33669 -9.29121e-21)
(5.76295 -0.075196 0)
(8.55847 -1.83527 0)
(8.46489 4.54936 2.62068e-22)
(7.40049 -3.63629 6.25746e-22)
(5.31914 -0.454677 -2.1596e-22)
(-4.52199 10.5617 -2.54038e-21)
(5.99521 0.00104126 2.7049e-22)
(5.83187 -0.757587 1.57001e-22)
(5.96685 0.177702 5.60584e-21)
(5.57288 -1.01092 1.82515e-22)
(6.84716 -1.65178 0)
(5.13713 -1.27414 0)
(8.37492 0.120709 0)
(4.73407 0.0620879 0)
(6.10085 -1.23206 1.97019e-21)
(8.93621 0.850511 0)
(-1.76058 0.595553 1.50195e-20)
(-3.3261 1.53743 -1.50784e-23)
(4.95744 -1.76968 -8.53055e-21)
(-1.41752 -0.963754 2.02231e-21)
(-2.45722 -3.47976 -2.24721e-20)
(-2.67509 1.51353 -7.62665e-21)
(6.65287 0.0614888 8.17271e-22)
(1.96074 -5.8927 -2.19882e-20)
(5.49117 -0.937823 1.83499e-22)
(6.79584 -0.114218 0)
(8.04397 0.394406 0)
(1.92939 -3.90218 0)
(7.73169 -0.625789 -5.1966e-22)
(-4.07347 6.44762 0)
(5.2554 0.815229 0)
(6.00402 0.0025163 0)
(6.30551 -1.49605 1.75845e-21)
(6.06975 0.270487 -6.3212e-21)
(4.87784 0.0992634 0)
(11.9156 -1.53372 -1.22011e-20)
(5.90841 0.133571 -4.65955e-21)
(6.07073 1.99837 8.31067e-21)
(5.92159 -2.66213 2.01982e-21)
(5.37912 1.00053 6.14746e-23)
(8.53093 -5.56617 -9.26903e-22)
(6.39544 -1.78712 1.09016e-21)
(9.25411 -3.08437 -6.47469e-21)
(6.66733 0.547122 -4.73304e-21)
(5.26484 -0.410628 -4.93545e-22)
(5.82959 -0.241282 -4.55102e-21)
(6.32408 -0.0249427 0)
(6.59256 5.31344 -4.87198e-21)
(6.00274 -0.107151 4.95907e-21)
(-0.021317 5.4388 4.68436e-21)
(7.23769 -0.508828 -3.36693e-22)
(4.20959 -1.26703 -8.69758e-21)
(6.71788 0.456734 8.01766e-22)
(7.23268 2.75464 -9.52525e-22)
(5.99503 0.0599888 0)
(3.4535 -2.08303 -1.26723e-21)
(6.11901 -0.564775 -3.11801e-22)
(9.21879 -3.12026 1.20374e-20)
(9.80026 -1.24637 -6.64975e-20)
(6.31193 -0.046055 2.18157e-21)
(8.38196 -0.0345519 5.6175e-23)
(7.73049 0.121691 1.95695e-22)
(8.34496 0.214035 0)
(0.283856 1.31851 0)
(5.52932 -2.59186 3.10137e-21)
(4.75064 -3.64085 1.68125e-20)
(5.13639 0.118715 -5.60849e-24)
(6.02591 -0.112387 9.76837e-21)
(3.5883 -2.23143 3.89552e-21)
(4.86943 -0.118766 0)
(5.75393 -0.257391 0)
(5.74649 -1.42575 -1.26118e-22)
(6.57307 -0.0670858 1.57801e-21)
(5.44117 0.97178 8.85091e-21)
(6.3391 0.586034 0)
(7.13405 -0.0809126 0)
(7.78106 -1.55223 -3.21511e-21)
(6.63516 -0.479081 2.37959e-21)
(0.343119 1.18874 -1.25912e-20)
(7.85851 -0.62493 0)
(0.116951 2.68403 5.11541e-22)
(11.7033 0.162922 -2.54627e-21)
(-1.5633 -3.66483 -8.93657e-21)
(6.41551 -0.183327 -4.26329e-21)
(6.3108 3.32439 0)
(11.5075 -0.380916 6.6257e-21)
(-6.38183 -0.326265 -1.24452e-20)
(-0.45131 1.13801 0)
(4.89745 0.00921646 -5.09424e-22)
(5.91157 -0.133905 -3.32223e-21)
(5.17053 0.049361 -3.43778e-25)
(5.58632 1.53749 9.98212e-22)
(4.7564 4.51556 9.70476e-22)
(6.44942 0.0467343 0)
(4.21399 -1.72113 -9.92954e-23)
(3.07197 -2.00315 -3.63791e-21)
(-3.76404 0.162851 -1.60742e-20)
(5.91012 0.403958 4.50673e-21)
(3.27902 11.5037 2.87832e-20)
(6.31069 0.00834706 -1.00254e-20)
(5.21409 -0.96212 8.08068e-23)
(6.04138 -1.59951 6.35825e-22)
(6.19794 -1.41532 0)
(5.9605 -0.0194586 -2.36637e-21)
(4.47721 -2.10526 3.10294e-21)
(6.98893 0.010254 -2.61725e-21)
(6.0523 -0.100221 -4.39511e-21)
(9.64326 -0.340399 3.37829e-21)
(5.74856 -0.882579 8.84613e-21)
(7.96066 0.133158 -6.13543e-23)
(5.72051 -0.217389 2.72495e-21)
(5.01864 -0.641373 -3.64544e-22)
(10.8145 0.452799 -8.86781e-21)
(5.91864 2.12413 6.42301e-21)
(-6.85297 2.76753 1.13923e-20)
(6.16479 0.0192332 0)
(3.73501 -3.90428 0)
(12.3507 3.04752 0)
(4.92736 -1.68095 6.69099e-21)
(6.16501 0.0285965 -7.0014e-21)
(5.58835 -0.0137636 0)
(5.47226 -1.40298 -4.88023e-21)
(5.58774 -0.0632909 0)
(6.10539 -1.11446 -3.26047e-21)
(9.90778 -1.88025 -9.56996e-21)
(6.73859 -1.54886 -1.31631e-21)
(6.53505 0.0479299 0)
(6.07842 -0.177169 0)
(8.40276 -1.08251 2.53754e-21)
(6.98858 1.10965 -1.49822e-22)
(8.58769 0.298681 1.64567e-21)
(5.30411 3.1866 -2.92942e-22)
(6.07117 1.11221 0)
(6.35323 -2.2377 -7.55061e-22)
(-1.53917 -1.61351 0)
(3.12039 0.853142 -5.59989e-21)
(6.30139 2.54145 0)
(8.24279 0.0226013 -5.33777e-23)
(4.4522 -1.14928 3.28832e-21)
(5.33728 -0.935101 3.04763e-21)
(7.0367 -0.636217 -2.0154e-21)
(-3.69418 2.14087 -1.05688e-20)
(6.57932 -0.601407 5.93993e-21)
(5.91759 0.444756 -5.50013e-23)
(11.5379 0.0674394 2.09576e-20)
(7.01027 -1.19162 -4.76949e-22)
(-1.13377 -0.850691 3.23876e-21)
(6.8153 1.52671 0)
(6.0559 -0.0608516 -8.79966e-24)
(5.57469 -1.55739 0)
(6.08789 -1.43475 -7.44761e-22)
(6.4402 -2.20804 -3.25935e-22)
(5.7905 -0.819665 -2.86164e-21)