/*--------------------------------*- C++ -*----------------------------------*\
| =========                 |                                                 |
| \\      /  F ield         | OpenFOAM: The Open Source CFD Toolbox           |
|  \\    /   O peration     | Version:  2306                                  |
|   \\  /    A nd           | Website:  www.openfoam.com                      |
|    \\/     M anipulation  |                                                 |
\*---------------------------------------------------------------------------*/
FoamFile
{
    version     2.0;
    format      ascii;
    arch        "LSB;label=32;scalar=64";
    class       volScalarField;
    location    "7";
    object      p;
}
// * * * * * * * * * * * * * * * * * * * * * * * * * * * * * * * * * * * * * //

dimensions      [0 2 -2 0 0 0 0];

internalField   nonuniform List<scalar> 
13486
(
8.5249
7.3456
2.53802
-0.221219
2.29078
1.11655
0.295857
4.6254
5.93
4.35218
-18.2838
3.34897
8.87706
0.937678
1.92211
4.64843
-11.1076
-17.1997
3.43083
7.86649
-3.59466
8.78113
7.19805
-2.36624
4.06994
-1.21689
-11.1429
1.95212
0.49322
4.27684
-12.4212
1.38532
-2.24997
3.95489
4.65933
0.218574
0.771527
6.90873
-4.54081
6.0783
-0.945022
9.15309
0.465349
4.01362
3.89438
3.36962
-8.50352
0.411087
0.765801
0.0905515
5.62094
-2.50209
3.01813
7.05035
-27.6184
2.68417
1.1286
-2.95491
-1.9377
0.872017
-22.0935
0.865941
-6.03507
-4.24556
-11.2832
0.803408
-0.378219
8.67736
5.85961
0.203324
-0.336815
-23.1378
6.18851
-14.4199
0.857482
1.12916
0.867759
1.8197
-8.2309
-22.1058
0.111331
7.44837
-6.24063
2.7576
8.54925
6.31262
-3.17713
5.38766
6.20461
5.12392
0.94408
3.9978
8.19437
7.62088
5.98566
0.248583
-11.26
-2.22855
5.98367
-11.2455
0.204853
1.18075
-2.71417
-2.57055
6.90849
-11.351
6.23537
-6.65115
-8.60957
3.26316
5.39129
0.00326308
7.05681
0.955848
9.95545
5.67297
4.11832
3.96825
6.24489
0.763281
-15.6092
-20.9146
6.30156
-5.38429
5.4396
-2.2063
4.34489
2.67857
3.82404
-8.41756
-2.09147
-8.02526
-16.6673
-13.1833
5.82504
5.45357
10.8787
3.46936
0.751932
4.86305
-1.31425
2.89272
2.50246
-23.2614
1.15007
-8.84211
3.48421
9.78931
-0.16591
0.339672
4.20569
1.57707
0.0910431
7.59169
2.89246
2.53813
2.38683
-1.18661
6.27156
1.40358
0.297418
6.26787
-1.94371
9.09105
-2.65927
0.100991
1.60114
11.5292
3.43405
-13.2508
-16.9034
2.93864
4.77786
3.48308
0.191698
-15.1105
0.65955
-2.3381
6.25752
2.6531
5.64986
0.966844
3.04668
-13.2446
3.10967
1.81072
0.134153
3.78926
-0.519802
5.99078
0.780598
1.97945
-5.26992
8.43172
-6.7902
-17.3357
-10.3627
0.321005
7.65112
0.33524
-14.3272
2.6107
6.91025
1.11937
1.33039
-5.89731
-27.1754
6.62933
-4.27809
3.06606
2.8358
2.33641
7.78309
6.23391
1.11207
3.47614
3.78999
5.0886
7.78956
-4.26585
-11.185
-0.301386
5.02527
0.267188
3.1915
8.25832
0.249843
-14.3538
0.295778
-4.578
5.59799
-3.69365
-1.49261
9.35163
-3.79561
7.93331
4.18338
2.05766
8.00499
3.44953
-2.15611
4.7022
1.1291
7.59599
-5.78405
6.94599
3.77186
2.72868
-13.2313
4.31589
-8.6661
10.0764
5.4173
-7.83936
-12.3805
-18.4033
1.41867
2.31895
-0.755844
-1.71818
6.74882
-4.36918
1.90412
-16.6594
2.60126
-13.4028
0.490822
-9.45925
6.03334
-5.04327
6.98222
6.13211
3.55877
3.3962
8.27009
3.09169
-12.0947
-43.6438
-12.8168
3.63086
-39.6731
5.12134
6.28938
-12.0875
-19.5442
-10.946
-1.34794
3.89443
3.32522
6.07972
-3.11358
0.199875
5.88759
5.86864
4.25474
4.11462
0.395243
3.47927
6.38768
-0.0802943
-2.63265
-26.6605
3.57357
1.54731
0.707772
1.19733
-3.63505
3.88234
-7.19412
0.785106
-10.5698
-0.148813
1.48301
0.0968619
-22.3849
5.58237
0.306127
6.2235
6.66853
1.99957
0.797772
-0.186156
6.20941
7.66953
10.6439
1.10015
3.72122
5.00496
3.5437
3.34513
5.42771
3.66622
0.441754
8.28146
0.231683
5.70146
10.1695
1.73993
4.4119
-3.85697
0.887989
7.61971
3.11807
3.0362
-14.6999
0.371872
4.25788
9.83161
-4.24295
-0.00419624
4.29507
3.55315
3.45653
-11.5598
6.35363
0.502639
-14.5695
4.28271
-8.87354
2.79815
3.40446
1.50142
6.81047
6.14582
4.04466
0.0357049
4.25532
-8.57678
7.93386
4.38418
0.424914
4.36106
3.3649
-10.4316
1.14653
5.72196
6.26446
-0.999547
-21.5478
-7.79635
5.90502
3.55493
8.98572
7.18311
-8.79969
-8.0688
1.97802
4.32367
-11.1505
-7.18896
7.6748
2.82883
3.53378
8.10474
8.68873
0.774675
-0.158068
-9.84502
-10.9938
-1.45192
-11.0743
3.68468
5.54051
-4.94379
0.539664
2.52054
7.52962
-2.03451
4.57802
6.97939
4.26579
0.104652
1.87443
6.39939
6.23013
8.25183
-12.8588
2.70399
-17.3939
3.46268
6.25189
-6.26732
9.87868
4.55805
0.137605
4.03401
2.5907
6.28674
-11.0566
1.91728
8.71379
5.58429
3.48807
3.45036
1.86067
1.39235
8.9926
-0.124233
3.67466
8.55988
-11.1603
3.25708
-12.8822
1.92802
-0.633624
6.95989
7.88452
8.77799
-8.01455
0.751342
-15.1475
4.47573
6.32332
0.160116
-2.03277
6.14795
-7.27897
-16.3511
-13.7756
-8.41489
1.79885
7.32506
0.203004
1.97629
-1.59614
6.04792
0.380592
10.8765
8.2469
6.16364
4.31008
0.279881
0.18313
10.0989
1.157
0.757166
0.231519
5.73806
-11.0449
3.49684
4.85275
0.586491
-0.36499
7.14354
-3.5367
-11.0018
4.56182
-8.16023
11.5027
4.6291
5.66927
6.65249
-15.3372
2.96848
9.67894
2.2074
7.69217
0.178575
2.90378
-10.4941
-27.1859
0.513391
-11.5222
6.43029
5.55845
-9.06928
0.250098
0.9929
8.73282
6.95934
-7.68387
5.67597
4.57128
-0.251509
2.49129
5.73959
-17.5751
8.87132
0.840049
0.264413
9.15122
3.59245
0.207507
4.38908
-13.6905
-5.58707
3.54228
3.03877
6.3999
8.1987
-13.0887
1.84353
-13.074
0.291641
7.9421
2.91534
-13.1533
-3.48809
-7.19094
-0.898169
4.55879
-13.369
-1.88144
5.67722
8.18778
-13.5576
6.70397
-8.28949
-12.0165
-2.73463
3.46946
-15.5512
6.60168
2.96415
-23.3249
4.99876
6.81655
-1.6163
-13.1626
5.68545
7.99946
3.10753
8.59884
2.94535
4.69861
2.66708
6.74592
1.00029
7.79546
-11.3863
3.51689
5.40585
3.65723
3.59076
6.21192
-11.4778
3.46311
7.64143
8.73922
-29.8558
-0.238542
2.9169
2.76084
5.67395
5.17479
0.638534
-13.0382
1.7844
8.4396
2.36783
2.07697
-10.2837
8.80065
0.30872
1.01962
6.0655
4.1518
-28.1735
4.03044
4.64301
3.48893
0.610397
3.38029
-2.81699
8.57973
5.60332
4.46985
4.59394
2.28229
-1.47316
9.59286
3.02088
9.60674
-13.3167
6.08183
0.261674
-14.6164
2.8451
4.29616
10.0559
-16.3531
3.34652
3.52493
-4.65339
4.18766
-20.2227
0.140294
5.86523
-13.277
3.78643
1.28471
1.60977
4.97014
6.60756
0.149427
9.27397
6.00398
1.17376
-11.3467
2.90302
3.11476
-18.6372
1.03506
-11.402
7.88137
0.0247414
1.12985
-22.283
8.99696
0.253709
-2.53552
9.11074
5.67957
-12.329
-15.3193
4.48364
2.0578
5.32927
1.08681
-25.4054
3.3437
5.70577
2.95085
5.18877
9.23914
1.03572
-11.6809
6.20155
-5.36533
1.02704
3.91933
5.0295
3.62936
-12.4736
2.94665
-1.20361
3.58981
7.93012
3.00625
3.57182
2.82104
-1.59944
-4.57396
6.42161
1.34079
5.21411
5.77922
8.23499
-12.5147
-0.73688
9.53893
0.372903
-6.75046
6.36911
0.862336
6.89418
1.08778
6.07153
-5.1081
-13.4737
0.146698
0.108298
-11.0424
4.08821
9.81956
5.12985
-8.16201
0.0364069
6.54955
-7.13894
3.61513
-23.515
9.85661
-12.2979
4.05678
0.056198
4.31599
6.26429
4.10238
-7.1465
-4.60436
9.02358
6.24347
1.69025
5.69258
-1.38397
4.67832
4.5001
4.27213
-11.4649
-9.52872
7.45729
0.180736
-9.34758
4.53263
-5.65987
4.43405
-0.877331
6.56738
6.60093
-9.7347
3.19381
-11.5468
-4.08032
3.4602
4.67749
1.24201
6.05322
1.44194
-2.21003
6.6973
-20.3925
-17.0332
-19.1166
-0.354773
-8.6295
1.59849
-1.88209
-21.433
5.31284
8.85551
0.777234
-13.8639
9.12998
8.6137
-30.1187
-5.44001
5.87703
-10.8787
1.3518
-9.5973
1.80225
2.92491
-10.996
3.67261
4.71883
-0.118326
-41.352
-2.01529
1.13494
5.04594
4.28503
4.36899
-9.1272
5.92225
8.47976
-11.0864
-19.6157
6.34229
0.834513
4.63883
-4.49541
4.23497
-8.93757
1.26412
6.34875
9.61447
6.60711
1.89773
1.16163
6.22422
8.30739
3.33046
6.08308
6.19224
8.78574
0.450618
-1.14017
2.30135
2.74625
8.73765
3.2772
4.18551
4.38872
-10.0883
3.39006
1.33113
-2.21649
6.03367
6.31973
4.81218
3.80797
-5.7998
0.730701
3.98049
2.97128
-3.10651
1.14582
1.15543
-29.3226
-24.5504
4.02323
3.89724
-13.2555
-6.23677
-1.34612
3.96081
-15.2774
-15.8413
6.79657
-12.3793
8.78347
-16.2555
-13.333
6.66982
7.98076
0.888709
1.90607
-0.0555533
6.40221
2.72161
-4.95851
-33.3242
0.71339
-38.6885
6.07895
1.1065
4.29338
-0.454209
5.78254
-10.9902
1.0812
0.484399
7.06455
-0.367494
-19.4523
-11.5684
8.71081
-7.02886
-12.873
-17.7248
6.19319
-10.5417
-0.0621713
3.31931
2.62198
-2.70371
3.91488
-9.59752
5.75841
6.12044
6.68338
3.67096
-0.231682
6.01072
5.1128
0.330977
6.79298
5.06811
-18.7317
-9.93119
-6.3305
1.42405
0.726196
6.888
3.4387
-6.17989
6.20545
-20.8513
4.77254
9.93684
1.34447
-3.75505
4.77583
2.47
-0.852019
-3.94835
-2.31505
6.16858
1.07639
0.420006
0.962159
-5.70077
7.22968
-11.7245
0.0539774
6.22479
2.36669
8.40852
6.96876
7.65565
3.27605
4.81497
2.71964
2.2495
4.13534
5.95572
-4.31935
3.71976
-5.81666
6.50357
-21.2088
6.1689
-7.24239
-2.68573
-27.7807
-4.59822
0.571097
6.26549
0.410963
0.529787
-12.166
6.25167
9.75289
2.67928
-22.6536
4.22102
-21.7541
6.11291
1.23655
-6.41306
6.96614
-3.54019
9.25579
4.49627
6.18876
3.87959
7.5599
1.38244
7.00906
0.84508
-1.88114
0.750167
-15.3935
4.34724
-3.68448
-3.0956
8.75428
6.23883
6.67395
8.09619
6.76529
7.07093
3.73025
5.99162
6.26867
6.35703
2.90752
0.286728
0.544217
-0.611618
1.81399
6.34284
-13.2925
9.99644
-2.29963
1.08024
9.58919
8.22294
3.67924
-7.98512
6.09764
4.00801
-1.66707
5.48207
-12.8914
-0.166625
6.17893
7.88774
-5.38726
6.24832
7.50746
0.0560441
0.303839
7.591
3.52217
0.756293
-13.7725
2.74755
-2.0254
5.95763
6.07062
0.63725
-24.5465
4.42214
1.53839
-0.804646
3.34903
8.50918
-1.80746
10.6066
6.20139
3.45246
6.75702
-12.6054
-12.8163
-9.50475
6.17837
-5.55431
-10.7599
-17.8887
3.85161
4.40092
-2.9445
3.655
-10.0901
2.7201
-4.27422
-0.609987
4.92316
2.82706
7.45315
6.32864
6.52223
5.83202
3.73524
-0.749582
-0.452786
2.87853
-26.7933
3.33643
4.82161
-17.5212
0.0709418
0.66499
-3.09738
-24.948
4.56325
3.93759
1.91338
4.25359
3.27659
-0.381906
0.834738
3.52285
-3.10165
6.25228
5.0316
7.24386
-13.0113
5.78505
1.04563
8.0413
1.91903
4.01985
-5.57007
1.03315
9.16681
9.92855
5.28814
2.56054
4.75526
5.35296
9.24858
3.76456
-1.44544
-22.4074
3.41874
-1.24002
-5.44642
6.23268
6.0944
-1.94189
0.248117
4.53225
5.66741
9.99461
-8.78732
5.26444
-11.0565
4.69022
8.37327
1.79549
4.87725
-36.0668
5.75362
3.54823
10.4441
-0.295355
0.701042
3.90378
3.49986
-15.1678
-13.0467
-13.9419
6.79034
1.49107
2.62443
8.61784
8.07642
-5.54949
-6.61998
-0.266708
2.44781
6.60036
5.98171
7.88548
4.4508
-18.4132
8.22022
5.11148
-4.46859
4.29494
6.37605
7.16614
-21.9268
-3.27492
0.340977
5.53815
8.97372
4.04101
-2.7266
-1.94784
10.0503
-12.7033
-1.296
9.35027
5.66838
1.79085
4.81567
-0.328538
2.96653
5.91212
-13.3275
-2.45794
-10.941
1.88837
5.79222
-11.4837
-11.0369
-6.35463
-0.483878
-11.0088
-9.05624
7.63824
5.91905
2.29253
-9.98127
1.23774
2.35837
3.80794
10.556
3.55385
-0.18453
5.6642
6.43392
-12.0907
4.46291
4.39311
6.07605
10.7438
0.396667
0.884715
-2.76822
3.17308
3.78635
5.43831
-0.120738
8.32641
5.0481
6.51722
-13.2407
-33.4893
1.5195
5.93455
6.24656
5.99815
6.239
9.95551
9.58542
6.46732
5.69029
7.50848
-0.0606771
7.82952
-0.909391
9.49083
7.76502
1.87604
6.909
3.88961
4.29155
2.21227
6.3523
-0.66396
5.31718
1.66098
3.48003
1.15408
6.13958
-0.663762
1.93922
9.18258
9.14869
3.85747
-12.9976
3.23829
-1.65017
-2.66682
5.44427
8.31471
-12.8785
6.36551
5.56232
3.53416
5.91777
-17.6878
-38.247
0.613785
10.2927
0.972947
0.476025
7.04545
1.16963
1.10494
3.87463
3.42381
5.1342
1.27359
3.69503
4.3078
4.46758
3.44752
4.11432
9.70611
8.16038
7.00216
9.88412
8.9741
2.67898
-1.30797
-29.5147
-2.85763
9.12479
-20.1918
6.03943
5.2393
-12.6474
2.81152
6.66101
-6.33892
3.62093
4.75244
10.8536
-11.6897
3.49233
1.8817
6.43432
2.5598
-5.00371
8.94071
7.70703
5.64349
6.17002
6.46321
1.76477
-11.5993
9.57283
0.882486
10.373
-3.29131
-1.70702
-14.0728
2.36561
-14.1498
0.785557
-11.9576
3.26754
-3.4433
3.1667
-4.64547
0.0413201
-32.6092
-13.1715
1.68246
-5.17359
0.690028
-2.62619
-1.4591
-20.7307
5.75729
5.88458
8.07606
6.14753
2.94674
3.48576
11.7355
5.92809
-10.9379
0.238279
1.1808
5.17586
5.37709
8.33833
-1.53325
-1.40523
4.37882
0.0474996
3.27451
7.53483
-13.1018
-14.3763
-11.5194
9.66683
-1.63165
4.50216
7.39859
-4.14499
4.63969
-0.43576
-12.9325
-12.4211
1.2763
4.70583
6.79902
7.30086
-5.27093
-13.3725
3.30036
-8.85987
4.95774
3.73943
1.25572
2.09589
-12.7645
-4.08745
-11.9003
-1.69025
8.65348
-3.44262
9.4719
-16.2072
-7.77614
2.40157
-4.53026
8.01898
5.41847
7.26177
1.29352
6.26394
-13.6754
7.71173
-12.8503
4.98329
-0.979483
7.52888
8.08822
-1.55013
6.18174
9.08323
6.28646
6.53756
-7.35276
-23.4675
2.94791
1.27488
-17.0287
3.30082
3.66404
2.60903
-15.2509
3.38327
1.27177
4.82142
3.93468
2.60953
9.47047
3.01522
0.304084
3.53652
6.11349
-3.60695
0.610982
6.34566
-0.77997
2.3677
0.812594
5.88183
6.13004
5.92523
-14.6982
5.97356
6.9723
6.56617
6.23281
1.12871
2.68181
5.18531
-1.75192
-17.2535
-12.9317
-3.97378
-0.574285
0.210408
-7.62843
0.997744
-12.7614
-0.419558
-27.5571
1.28272
2.45559
3.32395
-13.8432
6.52727
11.6488
3.23365
-27.7458
3.69942
2.1738
3.24259
0.282821
5.30186
-25.8333
2.97354
7.53697
0.515747
8.91119
0.244632
5.90398
4.63979
3.17087
-13.7882
2.62297
10.1124
-1.32879
6.1687
6.04519
8.30949
2.92957
7.67796
6.00622
-13.9789
6.42911
-11.5987
-11.7642
7.80809
5.67236
-4.81536
2.18038
7.59088
-1.15344
-10.2675
0.964624
1.04443
5.31418
4.05832
6.28309
5.27771
5.33317
-7.51607
1.61968
6.43491
6.18133
10.341
4.87591
-11.1528
-14.8319
5.55417
2.91131
2.93725
1.68929
-21.1236
4.52678
-5.30037
0.24515
9.91612
3.60564
-14.7871
-10.3132
-3.95085
1.81146
-11.0885
-1.4559
-14.9526
7.22616
4.05296
1.54519
9.49355
0.265525
-14.3787
-17.4115
-11.9059
6.29348
-11.2679
3.14168
5.79599
-3.85102
5.95392
-33.429
-11.0023
-13.7027
6.68772
-26.0496
-0.379954
-11.5233
6.05112
6.53173
-2.05043
7.37975
6.833
8.58704
8.87492
6.34207
3.46445
10.3545
-11.5479
5.57828
0.00331571
-27.5371
7.38183
-10.6432
8.83377
3.77423
-3.14124
-11.771
-7.53708
6.57613
-14.2587
-7.23878
3.39084
-0.986636
-16.5184
4.47643
2.48822
4.1878
9.66104
-13.4202
-0.943412
2.35633
5.78975
5.21001
3.41901
11.5073
-1.08896
1.22324
4.84444
-3.04195
6.01345
6.01907
6.69571
6.51488
-13.4973
2.93091
5.8168
3.23813
-5.29839
0.372914
6.14267
6.73743
7.8115
-2.69514
2.50397
2.09569
4.41016
1.40852
-18.2233
5.47757
-36.7626
5.62485
6.37398
-11.0791
8.85204
-5.29394
9.98976
6.51676
-26.7134
0.506163
0.823573
4.3139
6.50092
-24.5121
7.73118
6.0148
2.3406
0.910756
3.18767
0.644527
2.3455
-11.3286
3.36916
-15.4381
6.10342
-15.7932
-0.777994
6.38406
7.35119
8.05844
4.82695
-14.2822
3.86382
-16.2362
2.92745
4.15293
-4.5766
-3.09629
9.42993
-0.705833
-20.7718
-0.328341
-12.2449
-0.436208
6.26336
-11.229
4.63636
6.48068
3.75439
6.55458
-7.84188
3.50197
9.67384
-7.20125
6.12715
2.01977
-3.68453
3.22428
3.23511
2.22242
9.80533
6.64734
1.47388
9.77112
7.45126
7.35769
-8.88828
-16.2851
3.08967
-3.66274
-0.842184
-6.93779
-3.0701
-6.3335
4.72778
3.50618
3.28728
3.82222
-4.325
4.01248
6.3097
-14.7474
5.81436
4.49434
6.17336
-18.5788
0.58657
-2.40384
-11.1629
-6.13953
4.87259
6.27534
-29.0999
8.58453
-12.2694
6.03284
3.06119
0.662373
-0.10851
6.20682
3.77982
2.72267
5.32575
2.48652
-23.0268
8.16865
7.38188
2.85745
-10.4995
-0.795646
5.70885
1.71564
1.49159
-5.15545
1.783
1.0942
0.197966
5.31924
4.54624
-1.53053
3.76638
1.5797
-0.216965
-30.3917
7.45701
-3.28627
6.13313
0.259738
5.57392
6.38298
4.22615
5.50172
-0.63015
-5.66875
0.490858
-14.6785
-10.407
-3.27622
-3.21702
-3.56123
5.34253
1.50475
6.09307
-10.337
-24.0286
-5.14968
-0.771826
6.29162
-12.2857
5.90144
3.3655
-23.7401
-2.9279
-4.14226
4.53485
6.3652
-0.0983766
3.42982
-13.8536
6.56755
-4.59933
1.86575
-14.3902
7.32949
3.71316
0.675954
6.51575
6.07201
7.06506
4.98995
7.56651
-7.70944
1.27851
-35.967
5.32836
4.54932
3.35733
-0.790428
-11.3752
-17.8868
3.05102
2.312
-21.7954
9.65446
-8.09998
6.86506
4.54683
-9.49137
-2.03779
1.69576
-37.5643
2.17767
3.50814
5.95523
0.608292
6.2204
-5.27619
1.26876
-3.50209
0.174251
-13.336
7.00133
9.64865
6.63208
2.65572
-0.159623
4.83729
-11.0037
-11.0769
-7.4037
-4.14429
1.49793
-28.1086
-15.6803
1.75976
5.2853
5.49003
-6.66326
3.26131
6.83478
0.583287
-4.21092
6.58748
-1.58422
-18.5768
0.873894
0.900866
0.584812
9.5467
-5.74168
5.50161
-2.79556
-1.09013
0.643091
5.7711
0.503055
4.80565
-2.03044
-0.119852
1.86545
-0.19675
6.9898
5.38096
2.44702
-48.334
4.00109
9.96255
-2.69799
6.62689
7.00907
1.7612
-3.13176
3.58476
-15.5357
4.85815
5.64124
4.35895
5.87285
-11.9096
6.66208
2.20579
8.32242
-0.312128
5.70477
7.42267
5.46678
3.01206
-12.5808
3.11106
-11.4767
4.6664
3.71544
7.04736
2.09544
8.56584
3.46087
9.04178
-2.38667
7.15468
1.01803
4.68626
-15.5184
6.01061
3.33379
3.60083
9.2097
6.18808
2.98085
1.53826
4.00378
5.94085
-0.702044
-10.9769
4.60204
1.35314
7.56106
-2.07142
8.67937
2.79162
11.8941
8.94322
3.8808
3.16873
-17.4276
1.97962
9.32882
3.46785
1.51391
-12.5017
10.1861
3.99195
5.1168
9.45001
-1.1329
6.56778
4.28258
6.81737
1.14094
6.36163
6.16071
7.80223
-1.81501
-7.20917
3.36817
-4.41947
3.12276
-0.607943
0.357498
7.87146
8.29656
1.00156
1.07857
3.6509
7.3541
5.1687
5.46105
4.46405
-28.339
-13.3125
-3.91959
6.3398
-5.36292
-32.9772
4.0588
4.04561
3.62502
1.03527
9.92679
-4.30599
8.58724
0.604871
9.53179
5.65775
0.185859
0.800223
1.44574
5.27936
6.12919
2.66384
-37.9971
-3.42343
-27.2098
8.15291
0.177151
1.76396
-5.77747
-41.8285
0.76041
6.93985
2.13839
1.19213
0.883195
6.18071
10.3792
-5.10451
1.75633
5.61393
-14.4682
3.91499
-1.66394
3.75012
-41.9281
-10.3432
2.61603
-35.694
-6.29368
3.19446
-6.99794
-12.271
1.6369
5.18495
6.42517
5.61783
10.0253
-21.9527
10.0019
-12.2445
9.26868
-25.867
-1.3349
9.72111
3.52058
-23.8558
5.55551
-2.37235
6.15791
-6.05116
-11.4145
3.44204
2.45381
2.20382
0.205393
-9.18659
3.4409
7.00121
-30.863
3.63528
-5.10849
1.59808
-5.16168
-0.548276
-4.76399
-3.90998
-3.95899
8.41373
-0.0869685
8.79438
3.5068
-12.0523
3.23855
-2.25884
0.846988
5.56228
7.25999
10.3506
5.09176
5.60082
2.16497
-13.4763
10.0559
10.4279
6.65931
-1.05914
-10.8283
-11.5981
5.51978
3.64037
2.33055
6.052
-19.2899
-0.084989
-15.6418
9.09217
-1.1041
2.20935
-5.94729
5.50182
4.82923
11.3356
10.649
5.47468
2.67811
0.631767
-9.14752
3.69324
10.892
-1.79469
0.84809
4.12313
0.157567
3.33325
1.14848
0.717891
3.20087
2.54081
3.77945
0.822897
3.08718
7.96993
0.545186
6.40219
-8.05849
0.571717
9.41681
-9.65105
-1.2307
0.398582
3.62098
2.97657
-2.46496
-0.212366
1.33584
1.55926
11.5313
-13.1802
-6.66087
-6.92551
-1.13291
-0.144714
0.326546
-1.03806
-6.00907
0.697707
-6.1062
-1.97542
1.22107
2.85809
2.2597
2.10951
11.1986
2.0985
3.37761
-6.33804
2.59104
-12.8791
5.0783
8.12011
6.18006
3.35747
-38.841
5.93463
6.47526
-11.8085
-25.1971
-6.00185
8.11128
0.862117
5.88182
1.88462
8.65798
3.55451
-10.0642
-2.29985
6.60613
2.68146
5.71611
-1.23342
10.6182
-1.52563
0.780136
-16.1755
3.92412
-3.8335
-1.27599
-2.55533
3.39649
1.65699
-14.3592
-3.72521
-2.91255
1.76793
3.68879
-2.03675
5.01591
-11.7473
5.16297
-3.88407
6.66792
9.92184
5.33706
-12.4815
5.78014
2.96693
-0.750635
-2.48124
0.48078
-11.0474
1.50255
6.57212
1.61554
1.6417
-0.575536
-2.01747
-15.2236
3.99009
6.23287
-0.652104
-3.69941
0.0985957
0.789342
-42.7902
3.60348
-6.70338
-4.66563
6.40066
-8.2967
2.63395
-1.27428
-17.0961
-14.045
-23.0046
11.6755
1.75548
0.591602
3.68486
9.55547
9.42992
-12.2349
4.32178
6.16269
-0.0721699
1.5319
9.73204
3.88006
4.81972
11.6817
0.309751
0.661247
2.32423
8.62277
6.37425
5.863
7.71536
4.87894
0.951324
1.80707
3.75195
3.29509
-11.1079
9.711
1.72007
-0.707147
0.821604
4.16988
3.14444
-7.19758
5.16364
2.87118
6.07902
6.59816
6.47367
-10.9623
8.603
9.46552
-6.98763
4.2105
-16.6402
-12.7604
-1.13312
4.33877
-2.57061
0.475326
2.93495
10.4067
-11.4703
6.656
6.21785
7.4752
4.14822
4.96199
-44.6858
0.937266
2.74374
-3.21291
-11.6858
-4.60058
2.43948
-0.938093
7.16861
-14.1671
0.273438
2.60708
-12.8457
-6.60916
-11.3373
5.52944
4.11439
-4.82365
3.69184
-10.9158
2.37361
-6.824
-18.9669
6.5569
-13.1927
9.86775
0.779393
10.6006
0.0891686
-6.72722
3.04099
5.63814
5.07283
-6.60103
-12.123
0.743784
3.00208
4.08835
11.8407
7.51058
1.4886
1.05494
2.96969
-20.2382
6.46653
-39.8666
4.37485
-5.39416
-3.80722
-11.6211
1.08037
0.94902
-12.6898
4.62806
4.18864
9.31489
10.1761
-11.0721
-10.9946
2.36249
-2.5511
9.63452
-0.708213
0.0367082
3.6137
4.9473
-20.0349
-3.25352
3.53194
-2.1599
5.09867
-22.9024
0.792311
1.91558
-1.4231
-5.75003
0.422735
-6.00478
-5.20419
6.34836
-14.6262
-9.2563
5.8538
-16.9987
10.5808
3.88675
5.9219
2.68604
3.30514
1.54116
2.27065
3.02624
-1.41614
-15.0426
9.59354
6.47965
1.59317
-12.277
11.0255
-5.60519
-16.4124
-4.86126
2.53711
-4.67567
-15.4117
8.52039
1.33371
5.37635
3.46153
-0.653272
-9.84382
0.316394
3.91718
-6.60396
1.73682
3.08666
5.92894
-4.83267
-15.8766
-0.616524
5.92827
-3.28688
-2.74572
10.4555
4.65623
-23.5781
2.26244
2.81783
9.10327
3.25279
-15.9607
3.33666
7.49081
6.08468
2.49828
5.70797
-41.9697
9.52183
0.939218
6.35613
-14.6806
2.72009
0.813689
-5.52188
2.94543
3.20851
-14.8865
-5.92321
6.83152
-25.6271
1.41972
8.04895
5.25223
7.87895
5.89025
-0.377338
0.964679
1.85239
5.78758
0.221391
7.09372
4.19036
9.51228
-1.0189
7.71107
2.15302
9.81154
-0.512702
-1.16597
9.84464
-1.9612
4.02766
-11.5646
8.46083
9.58391
6.57785
-5.61469
6.15923
7.41803
4.39629
3.76638
-13.5797
7.88993
-3.08404
-4.78293
-11.2524
-11.5312
7.33042
2.22457
-11.0053
3.44306
9.54585
-0.445412
0.969473
-11.7073
-1.61729
4.50952
-4.30005
5.98184
5.63417
-9.79192
10.7185
-3.32766
8.3594
7.98998
1.89891
0.521758
5.13588
-4.34484
2.93127
4.98505
4.39
0.037266
5.6202
-2.77955
9.49777
6.64239
2.55067
-1.90352
6.23858
-24.9893
4.54094
7.51525
3.19372
0.789056
7.35315
6.25557
-0.0493843
-13.2646
4.12103
6.48468
9.53083
-15.0198
10.0106
10.6577
10.2349
-46.1343
7.24459
-15.379
6.2132
7.60922
7.66131
6.4627
8.30907
11.2962
5.64315
-15.985
-1.07968
-13.0865
11.2018
3.66283
-36.8527
-3.0446
6.0887
8.6404
5.94127
2.15345
-10.6369
8.48371
-6.38556
6.10991
-3.93655
3.70588
-0.219049
0.702358
4.15847
-13.4554
-13.4144
-2.14315
5.81841
-17.2983
7.12738
0.709735
3.55428
5.6397
-13.5409
3.0049
0.804504
-11.91
-13.8036
-16.6822
8.00302
8.64823
-4.68732
5.39864
7.54203
7.58435
0.97761
-23.4746
6.40122
-11.2756
7.98157
-10.3624
7.81743
4.61964
2.30578
7.40869
4.42121
7.51799
2.42323
3.7701
2.60741
-12.5484
-15.5748
-43.5181
7.40281
-23.381
-17.9945
-18.6682
8.70081
7.42579
3.37368
4.31991
8.32625
-4.93216
5.6636
-9.63508
1.57086
5.67996
-11.3708
-11.1342
-2.43677
-11.2246
4.76487
-26.7835
-12.1196
-11.9656
-13.5504
4.94337
9.7151
10.5373
9.22022
-27.3852
6.15779
-15.5364
5.63685
8.47423
2.34656
7.3284
-14.9589
2.51918
2.24042
1.39674
7.8712
-1.52251
6.53487
-10.8745
0.489572
-11.3682
6.91676
6.53613
6.18205
-12.4739
5.68681
-5.0737
-11.341
-11.5793
2.08596
9.65639
-6.15961
3.7564
-5.06205
6.06973
6.01488
-3.07373
4.49022
-11.8497
8.43731
8.30629
-17.7682
0.716001
8.18899
-14.3003
-24.5049
1.72508
7.64577
8.39348
-14.0138
3.78564
1.0999
9.58433
-10.4157
-5.52155
1.39612
8.95775
1.70298
2.935
-31.1817
7.74744
5.26362
7.75114
1.24838
-5.54493
6.48171
11.0477
-12.6526
4.95284
1.57041
-8.27809
1.60602
2.79704
-4.46282
3.65451
-1.17287
4.63907
-22.9132
2.01628
7.22674
8.37039
5.68603
-3.99585
-2.25208
6.52062
-11.1991
1.68448
0.774782
3.35319
-12.351
6.72439
6.58851
1.45552
6.11924
9.3662
-18.186
4.47212
6.8386
-11.6265
4.49925
0.0201615
3.20763
1.37147
5.24921
0.555865
2.50696
3.4519
-6.33621
7.88841
1.63414
-2.2224
-16.426
0.725025
6.36614
-12.7524
10.1826
-11.8598
-10.8688
-2.67296
7.50691
6.45275
7.55293
-11.6202
9.01108
-21.8546
4.23962
3.76837
-10.3461
5.88232
3.28614
3.85834
4.00368
-13.4586
5.32806
-11.1448
-13.6876
0.10347
-8.61683
-9.78185
5.08601
9.29758
0.633745
-15.7241
7.36337
-5.67532
8.48391
1.80861
1.84281
4.7697
6.26575
3.51652
-26.1665
-0.745152
1.64178
2.82
3.38503
-12.4185
-6.11934
1.29301
2.79471
1.7309
11.3583
6.16587
6.20794
8.51124
2.44795
6.77386
-10.6245
-7.5037
-15.3833
6.20446
11.0245
5.67583
-1.48896
7.9153
5.20967
5.34536
-4.5505
1.4724
3.83256
10.2031
-0.190978
1.82343
9.08697
8.06097
5.89856
6.00185
7.1002
4.46815
-3.3598
-18.4072
6.42
-14.0576
-12.6587
6.15141
-16.6077
-2.0884
1.05801
6.13819
6.33117
6.52723
1.29476
7.56878
7.71635
-0.24816
6.8164
6.12225
6.75053
5.43631
3.4394
3.36043
-3.29767
7.4724
6.70244
-11.7988
5.13989
1.22263
0.589476
9.21933
7.03744
0.25587
-15.6871
-0.188558
7.16854
3.90059
3.10063
-0.239274
3.35013
-26.9599
3.38183
-7.55281
1.03579
3.84844
-22.897
-11.6997
-12.4234
8.67431
-4.07939
-11.994
-10.2134
9.34134
-43.7911
1.85886
2.62143
-11.6901
5.53801
5.92189
3.47339
8.22223
5.05808
1.78532
-14.9904
-14.6907
0.380658
7.07329
-11.0869
-14.4747
-9.63884
-7.9853
-12.9895
-8.64338
-6.26654
2.35207
3.34591
6.12619
7.32281
-11.8476
-12.6031
8.26602
6.64721
-13.7547
1.40053
-13.3717
3.60181
3.74626
3.92885
5.5245
-27.1454
-40.5932
-33.408
2.89927
-23.8206
-14.9471
2.98066
-21.4808
-11.1928
-11.625
-13.5444
2.83216
-10.2841
3.45198
-13.7577
6.16695
5.68316
0.686409
7.58865
-25.0829
9.29363
3.48483
1.94801
-2.2521
6.0185
4.12515
-13.112
-8.83138
6.31251
7.29718
9.60928
-16.4142
-11.3136
-24.8651
2.79177
0.64053
-11.653
1.38255
-10.9285
4.07798
-15.3191
4.05922
-0.468893
-3.73618
8.57467
5.30353
-0.802528
0.314103
-3.61068
-14.964
7.87451
10.5355
-15.6145
6.90081
5.85108
0.214166
-5.26993
7.41751
7.26805
-6.4892
-47.6638
-15.3521
-27.8316
-1.99522
-11.0273
-1.61155
4.82822
-13.7628
6.72681
-14.3481
-11.4621
5.92396
-1.68677
-11.3831
1.93529
5.38727
-11.6404
-0.31766
-10.519
-11.9775
-11.1108
9.73573
-8.6919
0.898451
-16.8632
6.55528
-11.4237
-44.4219
-6.12783
-22.4948
2.1922
6.57261
0.50983
-11.2441
5.38283
0.13573
0.300942
-11.1245
-12.9454
3.9363
4.80905
6.23157
-6.66569
8.40054
-3.82159
0.363949
1.85334
-5.76979
-19.5555
-11.8989
-10.123
1.90376
3.53603
-7.33433
0.678958
-1.48112
5.43209
-27.1988
6.32989
-16.6477
4.51683
5.25849
-12.8936
-15.5206
11.7345
-3.96117
-11.7014
-5.85706
-0.229057
6.19318
-4.57084
-12.1732
1.11576
-8.40355
-15.7964
-13.6059
-10.8682
6.1252
-13.0283
2.30181
-9.1716
1.54788
5.40629
1.84819
2.03644
0.386065
7.43288
-11.2365
-2.30206
7.91404
2.58169
-11.4197
0.632214
-13.2454
-0.934492
0.480266
7.35609
-11.8044
3.66583
-11.137
-11.6169
-17.3142
-14.4379
-14.1091
2.91236
-22.9698
6.19627
3.49106
-23.5762
5.85123
-22.6955
7.37626
8.34179
-11.711
2.12076
6.45201
6.10542
4.25391
-6.79384
-10.1068
-8.35406
6.21195
2.9648
-0.875555
-14.0118
3.07016
7.19282
0.870516
-21.4488
1.89897
7.85103
-3.29896
-3.65318
0.323353
5.57284
2.4228
-20.7652
8.45066
7.33792
-11.6628
-20.4751
7.27391
3.93659
1.34017
5.09103
6.53181
-9.77838
-9.8255
-16.6117
7.30685
6.02474
0.906307
0.902507
-10.3625
-11.9698
6.29137
-24.8717
3.94252
7.49807
7.98044
-29.7363
6.18899
5.01616
6.23015
6.60601
1.14378
6.71171
0.174785
6.23445
4.46437
6.58268
-13.2444
7.36994
7.0081
5.74467
4.754
-2.09324
4.04587
1.34808
0.576699
7.64286
8.25832
-23.0333
8.90931
-12.3148
-13.1837
6.348
6.52974
-5.4997
1.40842
-11.1887
-23.1105
-1.44669
-7.73792
-6.28721
0.451274
5.47188
10.4303
7.0903
-11.41
-4.81349
6.09746
4.01752
-4.3089
-10.9979
-3.49601
-3.67429
-13.8103
-12.5533
5.98347
-4.14388
3.83044
0.929595
0.926058
-28.7581
0.618578
2.16408
2.59751
5.36326
3.66881
1.91739
3.72066
-28.2215
4.41643
4.15542
-3.51285
-0.19168
4.82326
-1.68708
3.50554
2.03898
6.21691
5.2216
8.91069
6.2192
-7.7272
0.433307
1.15511
-3.13339
-0.0946374
0.448101
-4.50985
-21.6706
10.6457
2.66906
-20.7269
8.31745
-5.11543
-1.1072
-4.21137
-13.7292
-11.2419
0.84582
-2.54999
5.56111
-2.07783
-6.03964
-7.31266
-23.7576
-1.09851
-12.609
3.26283
5.2186
-1.68688
-6.50393
-2.90953
3.03703
-1.04203
6.54876
8.51563
-4.91346
6.64509
3.31564
4.96544
9.42001
-6.30284
4.46682
3.87783
3.70474
8.08505
0.733463
2.59121
-24.2045
6.43008
8.50749
-15.8976
-11.6433
-1.70221
0.121078
4.01969
-3.23422
-4.81177
-7.19424
3.52881
-11.3814
3.22678
2.18136
5.65921
3.37809
-15.776
1.68621
-2.59523
-25.6696
9.0487
10.0959
7.62269
10.9634
5.84444
8.33229
6.3393
5.46959
6.19538
-0.292482
6.13715
0.52528
-13.8039
8.43361
3.52444
-1.35032
9.81589
1.75588
-23.7459
4.08764
3.72226
7.24597
-5.40141
5.89453
9.36406
-5.2947
-13.3513
-3.84547
4.56357
-14.2625
7.30159
1.26732
7.30546
6.18704
-5.71753
6.84205
0.208067
-16.8965
-16.9051
-16.8578
6.8587
-0.36864
6.26796
-2.72234
-11.254
3.392
-37.2211
-1.93191
-6.56933
-9.85807
7.06279
2.58357
-11.2757
-0.19605
4.74045
3.2737
-25.6693
3.93137
-5.92181
3.93793
-11.6723
4.55638
2.85284
2.89344
-3.02309
5.831
4.18728
3.06339
-11.2847
10.763
-1.10886
-10.9247
5.8939
5.19959
-10.8675
-0.798699
-11.8339
3.47895
3.04037
0.155713
1.38879
0.943529
10.9849
-2.83506
-6.44794
3.28692
2.48196
3.65489
4.65901
5.61859
4.74337
-13.4306
4.31274
-11.3943
4.19448
3.58022
5.86467
4.90539
0.608695
0.123813
2.84372
6.6005
-0.619834
2.82509
-11.5384
-0.460574
0.332254
5.7483
-11.3291
3.19224
-6.97895
6.79717
-11.4605
0.749365
7.54001
6.94373
4.21327
-8.16322
-11.4878
6.69821
-15.1638
7.32938
4.19711
-4.0589
6.22795
2.00555
2.99513
3.1062
3.54835
2.13578
4.82405
-12.1975
7.72479
3.51167
11.0898
1.656
2.9686
7.05293
2.29617
3.35435
6.5096
4.80382
4.02884
-1.17071
-3.58091
5.79324
4.18521
1.72497
-28.7014
-4.24242
-14.0525
-10.947
3.32385
5.78198
1.507
5.36833
1.40904
9.55183
7.83717
3.42297
4.79711
3.30665
-11.3608
5.97889
4.73305
2.00556
3.16699
7.22638
6.47098
-26.0261
-19.7767
-4.77002
5.19502
2.61514
-2.95187
6.50227
-28.2042
5.27055
-6.23873
5.96345
3.86293
-28.3551
3.69516
6.75217
-2.5564
5.99022
7.39046
3.41102
6.72896
4.41533
3.10324
8.67402
-12.3651
7.94403
6.69171
-12.3219
-0.256468
0.789423
3.76075
-16.3195
-16.8384
6.07923
8.11467
6.81087
8.16743
4.86303
7.49864
3.62496
3.39828
3.81166
2.22973
2.19646
5.24828
1.21344
8.64373
2.71737
-7.78085
5.0151
8.37616
8.84694
-25.7211
3.46164
-3.51684
-13.5229
4.01267
-1.87432
-4.98012
4.15182
9.24814
-10.896
-11.0125
-16.8094
3.74349
2.93835
2.43026
5.58056
5.6978
-3.42878
3.253
-6.54118
-13.3553
5.97882
5.94989
6.18736
3.07065
-0.357332
3.63937
2.25669
-7.91561
2.32983
5.20021
3.88841
4.07619
-0.562279
4.88725
0.738463
6.09694
-12.7816
3.33189
7.17075
4.66226
0.0486391
-13.678
-12.4973
2.76119
4.82232
3.14447
-12.8057
6.26102
5.08077
-1.98896
1.87387
-3.52404
2.05396
-20.0983
5.34266
3.67778
2.90787
3.98204
-8.10568
4.53532