/*--------------------------------*- C++ -*----------------------------------*\
| =========                 |                                                 |
| \\      /  F ield         | OpenFOAM: The Open Source CFD Toolbox           |
|  \\    /   O peration     | Version:  2306                                  |
|   \\  /    A nd           | Website:  www.openfoam.com                      |
|    \\/     M anipulation  |                                                 |
\*---------------------------------------------------------------------------*/
FoamFile
{
    version     2.0;
    format      ascii;
    arch        "LSB;label=32;scalar=64";
    class       surfaceScalarField;
    location    "7";
    object      phi;
}
// * * * * * * * * * * * * * * * * * * * * * * * * * * * * * * * * * * * * * //

dimensions      [0 3 -1 0 0 0 0];

oriented        oriented;

internalField   nonuniform List<scalar> 
20045
(
0.560441
-0.670203
0.109762
-1.16847
0.522685
0.645788
0.228214
1.88591
-2.11412
0.317139
-0.297458
-0.0196817
-1.00408
0.938458
0.0656227
-0.486611
2.00761
-1.521
-1.19897
0.438353
0.760612
0.072056
0.507732
-0.579788
0.531552
0.492053
-1.02361
-0.627487
-0.247381
0.874868
-0.33401
-0.0383318
0.372342
2.05855
-1.13635
-0.922195
0.458616
-0.444119
-0.0144965
-1.17046
0.894112
0.276352
-0.282332
1.17557
-0.893243
-1.00651
0.379026
0.00601005
-0.140447
0.134437
1.68672
0.0245612
-1.71129
-1.61334
2.29212
-0.678776
-0.77434
-0.0672114
0.841552
0.442765
-0.608329
0.165565
0.170243
0.288372
-0.279745
-0.888728
0.647842
0.958486
-1.60633
0.879949
0.0493385
-0.929288
-0.957495
1.60534
0.00657259
-0.00257766
-0.00399494
-1.05149
2.21545
-1.16396
1.52026
-0.0976516
-1.42261
-2.11742
1.55727
0.560156
-1.10019
-0.201241
1.30143
1.5533
-1.31541
-0.237899
-0.567573
1.34852
-0.78095
2.84579
-1.77742
-1.06837
-0.65136
0.723416
1.79852
-0.873178
-0.925337
1.18781
0.595879
-1.78369
-0.0760013
0.459093
-0.383092
-3.57172
2.62761
0.944102
0.706707
0.553453
-1.26016
0.0484619
0.500339
-0.548801
0.192963
-0.273951
0.0809876
2.59525
-2.57652
-0.0187352
1.38695
-0.406778
-0.980169
0.557653
0.829294
1.06681
0.991743
0.0777101
-0.266362
0.188652
0.787946
0.660053
-1.448
1.90766
-0.719849
0.173554
1.65073
-1.82428
1.31453
-2.20102
0.886483
3.19291
-1.81682
-1.37609
-0.629465
-1.09645
1.72591
-0.0984001
-0.364391
0.462791
0.0308486
1.41406
-1.44491
-0.79711
-0.20697
0.468767
1.01775
-1.48651
2.19521
1.11061
-3.30582
0.965519
-1.53309
1.9103
-1.65176
-0.258535
-0.253161
-0.0678578
0.321019
0.392778
1.51752
0.412979
-1.28701
0.87403
0.688613
-0.245849
1.47726
-1.21892
-0.25834
1.27228
0.65822
-1.9305
0.0197105
0.190603
-0.210313
-0.699781
0.0455556
0.654225
0.969271
-0.437719
1.35895
-1.4116
0.0526485
-0.137675
0.157385
-1.74382
1.77467
-0.330271
-1.10069
1.43096
0.132809
-0.154792
0.0219829
1.45858
0.0904431
-1.54902
1.2723
-0.803535
-0.439159
1.89773
0.600175
-0.882506
0.0437537
0.0338158
-0.0775695
3.13553
-1.70468
-1.43085
0.885085
1.01701
-1.9021
0.879024
-0.819643
-0.0593813
1.05579
-0.64281
-2.21042
0.269169
1.94126
-0.0351242
0.595565
-0.325259
0.516742
-0.191483
-0.205644
0.0172171
0.188427
-1.59535
0.0533018
1.54205
0.960098
0.297499
-1.2576
-0.863734
0.656962
0.206772
-1.8084
0.235478
1.57293
0.848929
-0.163319
-0.68561
0.45235
-0.703215
0.250865
-0.297189
-0.781541
1.07873
0.689443
-0.729249
0.0398061
1.0983
0.423581
-1.52188
-0.0304435
0.0370161
-0.196229
-0.0190071
0.215236
1.37612
-0.669411
0.0409799
-0.170834
0.129854
1.22337
0.575149
-0.512294
-0.65817
-0.305368
0.109139
-1.24784
3.44305
0.142265
-0.467524
0.19018
-0.1492
0.386153
1.26034
-1.64649
0.913991
-3.47139
2.5574
0.121464
-0.538291
0.463633
0.0746578
-0.286627
0.363554
-0.0769264
1.45235
-1.22724
-0.225108
-0.581002
0.482602
1.64073
-2.25002
0.609287
-0.293154
0.414516
-0.121362
0.0591603
-0.350967
0.291807
1.05329
-0.173345
2.29925
0.546537
-1.3076
0.977325
1.21132
-2.067
0.855678
-0.163904
1.85063
-0.323856
0.070695
-0.901257
0.739567
0.16169
-2.65773
0.11691
-0.683413
0.566502
1.74678
1.44613
1.21329
-1.6044
0.391112
1.57024
0.148247
-1.71849
-2.80984
2.29895
0.510894
1.25895
-1.20661
-0.0523316
3.1439
-1.39712
-0.0701096
-0.196253
0.639211
-0.463826
-0.175385
-0.0624769
0.0337567
0.0287202
1.1464
0.797034
-1.94343
1.26026
-1.07157
-0.188686
-0.280859
0.0353667
0.245493
-0.383448
-0.154843
2.26952
-1.0582
-0.756387
0.79994
-0.0435527
1.0388
-1.90958
0.870786
0.73151
-1.36098
0.811784
0.798158
-1.60994
1.67218
1.46334
2.2635
-0.294117
-1.96938
0.915309
-1.44016
0.524849
1.37297
-0.886301
-0.486667
-0.294988
0.315009
-0.0200206
-0.0461731
1.87523
-1.82906
1.40208
0.11818
-1.64624
0.0468157
1.59942
-1.14018
0.934334
0.205842
1.70525
-0.820167
0.186403
0.692621
-1.26855
1.45705
-0.188498
-1.61095
1.83916
0.0258558
-0.440183
0.414327
0.606997
-0.819811
0.212814
-0.0385906
-0.438284
0.476874
0.993152
0.462335
-1.45549
2.4623
-1.19963
-1.26266
-0.518619
0.480028
1.6435
-1.89144
0.247941
0.231457
-0.0384939
-3.06467
-0.927603
1.18424
-0.256641
-1.18393
0.966016
0.217912
-0.0135937
-0.140712
0.154306
0.668167
0.704801
-0.0422612
-0.0202157
0.351937
0.287273
-1.3176
0.0490467
-1.48763
1.85776
-0.370129
-1.51928
1.63165
-0.112369
-1.03798
-0.685289
1.72327
-0.754484
0.269143
0.485341
0.698563
-0.863595
0.165032
1.57568
0.0858349
-1.66152
-0.0414789
-1.48828
1.52976
-1.01631
1.8281
0.450896
-1.23514
0.784245
-0.753347
2.39408
-1.72766
1.2864
0.441257
0.221974
-0.243149
0.0211749
0.907327
-2.01495
1.10763
-1.7714
0.719911
-2.07664
-0.286869
2.15207
-1.5893
-0.562773
-0.645372
0.693834
0.349722
-0.371555
0.0218325
-1.28219
-0.657879
1.94007
-1.7948
2.60516
-0.81036
3.35438
-3.10708
-0.247308
-0.0634387
-0.35368
0.417119
-1.79489
-1.51373
3.30862
0.0985921
-0.432602
-0.145793
1.40474
-1.2886
-0.420249
1.70885
0.248915
0.0656666
-0.314581
0.108345
-1.03595
0.112844
-1.21303
1.6443
-0.0740554
-0.367501
0.2915
-0.3845
0.468808
-0.0843081
-0.745197
1.73835
-3.49335
1.69845
2.03262
-0.870205
-1.16241
-1.52559
0.369681
1.15591
0.455093
2.89929
2.16189
-1.25457
1.61795
-2.42877
0.81082
0.158265
-1.24243
1.08416
0.173693
-0.948034
-1.03416
1.42031
1.23814
-1.72475
-1.31664
-0.344721
1.66136
-2.33984
1.02389
1.31596
-0.19945
-0.664284
0.390979
0.371921
-0.7629
1.12962
-0.28422
-0.845404
-0.164824
-1.29075
1.24457
-0.584831
-0.171557
1.1737
1.44637
-1.55797
0.111607
-0.0281149
-0.321954
0.350069
1.24122
0.137834
-1.37905
1.30414
-0.778053
-0.526085
1.96457
0.369145
-2.33371
-0.283159
0.0775157
1.28198
-0.83108
-0.196753
0.567353
-0.3706
1.60226
-0.563466
0.261754
-0.0192195
-0.242534
0.706799
-0.390043
-0.316755
-0.291289
0.30141
-0.0101211
2.31312
-1.75819
-0.554934
0.569367
-2.36417
-0.320605
0.0293167
-1.75997
0.43663
1.32334
2.09883
-0.750311
0.467955
-1.95559
3.25482
-1.61418
-1.64064
-0.0358223
0.284737
2.61898
-2.75965
0.140666
-1.21954
0.16715
1.05239
-1.95311
1.88846
0.0646457
0.681671
-1.51559
0.833923
0.0377024
-0.00447725
-0.0332252
-0.979319
1.16582
-0.186505
-0.22321
0.213713
0.00949745
-0.384644
0.0914899
-0.3415
0.054873
-1.02965
-2.44174
3.25324
-2.13999
-1.11326
0.69222
-0.0109921
-0.681228
1.15799
0.395313
-0.271289
-1.04535
0.0176317
0.589365
1.11909
0.97974
-1.10079
0.173757
0.927036
2.178
0.440981
0.929737
0.245837
0.21382
0.478401
-0.652229
-0.062993
0.715222
-0.0145108
0.236485
-0.822252
2.78682
-1.20229
1.02758
0.174708
-1.91536
1.84001
0.0753515
1.01439
0.947119
-1.96151
-0.237563
-0.346875
0.584438
1.49974
-1.68625
0.186509
-1.19981
-1.14003
2.14439
-1.60252
-0.541871
-0.250571
0.222456
1.60857
-0.9269
0.400632
2.85261
0.940556
-0.433622
-0.506934
3.87134
-2.27773
-1.59361
1.45121
-0.339344
-1.11187
0.535894
0.404662
1.82728
-1.07916
-0.748127
-0.417839
1.63871
-1.22087
0.726109
-1.55417
0.828065
0.162119
0.16416
-0.32628
-0.108971
-0.0378408
0.146812
2.11155
-1.74736
-0.364188
-1.44604
-1.3638
1.35583
0.0905375
-1.74117
-0.17419
0.20357
0.503229
1.24136
-1.85884
0.61748
0.00827713
0.341445
-1.07127
2.21767
0.529366
1.78376
2.41904
-1.76715
-0.651891
-1.61001
1.18976
1.39936
-2.01656
0.617201
-1.23554
-0.169445
1.40498
-0.58633
-0.384166
0.970496
1.70069
-0.0571928
1.39008
0.642541
0.564909
-0.299516
-1.01589
-1.27474
2.09315
-0.818412
-0.450734
0.0662333
-0.234039
0.0372857
0.172335
-2.12544
-0.497092
0.213933
0.625467
-0.494459
0.677936
-0.183476
0.0160514
0.301088
-0.924692
0.574779
0.349913
1.00419
0.448157
0.67677
0.145404
-0.822174
0.91404
0.346217
-0.52716
1.76852
1.18075
-0.220647
-0.523258
-1.00233
2.8475
-1.02014
-1.82736
1.86816
-2.18931
1.56566
0.623649
1.5706
-1.75745
0.186854
-0.993744
0.696556
-0.315769
0.0349098
-0.623942
-1.18446
0.68614
-1.23053
0.544385
0.910691
0.916592
1.16499
-1.77105
0.60606
0.567929
-1.22353
0.655604
-1.94766
0.352312
0.0368091
0.81212
-1.62134
1.77185
-0.15051
-0.405835
0.671288
-0.265453
-1.01891
-0.180054
-0.300521
-0.515163
0.815684
0.26329
0.000218977
-0.263509
-0.731867
-0.40831
0.666537
0.93017
-1.59671
2.23332
-0.0553221
2.02525
-0.900947
-0.0927972
1.07779
-0.509864
-1.49643
-0.231223
0.217449
-0.288754
0.0713046
1.41547
-0.627525
-1.05852
1.65132
-0.592799
-0.30155
0.364763
-0.0632123
1.23625
-0.106624
-1.52289
-0.335944
-1.13956
1.99692
-0.857362
1.13801
-1.80471
0.666697
0.748494
1.39589
0.0233681
-0.0613879
0.0380198
0.261498
-1.49704
1.17726
-1.79205
0.614797
0.0936454
0.0391636
-0.20205
1.41534
-0.465366
-0.0317261
-0.953966
1.11223
0.309758
-1.9231
-1.70626
1.38455
0.321702
1.39058
-0.340673
-1.04991
1.89961
-0.399868
-1.09354
-0.906153
-0.792596
0.660854
0.35065
-0.189761
-0.160889
0.666035
-0.733247
-1.60484
1.40279
2.02027
0.574982
-1.72674
0.668221
1.4371
-0.0812745
0.0637016
0.17375
-0.237451
-0.0813741
-1.07056
1.15193
-1.79905
0.325878
1.47317
1.60473
-1.60473
-1.77068
2.07445
-0.303768
0.878292
-0.201522
1.08896
-0.707514
-0.381441
-1.97721
2.05886
-0.0816542
0.775681
-0.0934226
-0.682259
0.614818
-0.180949
-0.433869
0.320823
-0.558386
0.280541
3.14588
-2.74525
-1.56553
1.8748
-0.309268
-0.616395
1.28293
0.0590078
0.0201475
-0.0791553
-0.881381
0.98021
-0.0988294
-0.77357
0.947263
2.13168
-1.54593
-0.585747
-0.249255
-0.973272
1.22253
-0.568426
0.591737
-0.0233102
0.391934
-0.605636
0.213702
-2.07927
1.04085
1.03842
-0.245942
-0.0515157
-0.0962781
0.15998
-0.0379687
-0.0990381
0.137007
0.997342
1.1142
0.112319
-0.0533116
-0.23801
-0.400422
0.638433
-1.07577
1.72211
-0.646337
-0.0320096
0.281936
-0.249926
1.01893
-0.580578
0.513322
0.38808
-0.901403
0.154878
-0.936419
0.220322
1.35536
0.975569
0.617622
-1.59319
1.03874
-0.778749
-0.259995
-2.02818
0.381936
-0.68898
0.367623
0.321357
0.628584
1.20704
-1.83563
-1.32383
1.15438
0.12682
-1.81993
1.69311
-0.348574
0.285135
0.225059
-0.258104
0.0330454
0.0620401
-0.714269
-0.474111
0.229582
0.244528
-1.45863
-0.301338
1.21886
0.870912
-0.0224058
-0.848506
-0.343347
0.0417961
0.2472
-1.35867
1.11147
0.352853
0.996347
-1.3492
0.384919
-1.39685
1.62401
-0.227162
-1.48577
1.06793
0.0118484
-0.014426
-0.780888
-0.403041
-0.61325
0.128662
0.484589
-1.86361
0.787838
1.25994
-1.50919
0.221894
1.21521
-0.702022
0.696272
0.00574963
0.485402
-1.60358
1.11818
0.432377
-0.634535
0.202158
0.350598
-1.87349
-1.38506
-0.13422
-0.755031
0.0552502
0.14437
-0.255421
0.11105
0.931867
0.0292621
-0.053501
0.0242389
1.7057
-1.07711
-0.184329
1.12945
-0.945119
0.551621
0.461295
-1.01292
-0.694849
0.346276
-0.55299
-0.0602603
0.556407
0.532548
-0.768251
-1.29875
0.301154
-0.0837052
1.17737
0.94526
0.235486
-1.60367
1.77723
0.0551
-0.69987
0.64477
-0.179778
-1.64936
1.82914
-0.142816
0.132573
0.0102434
-0.0702495
-0.684234
-0.750441
1.47655
1.50472
-0.589412
-0.666434
-0.258258
-0.0553676
-0.878897
0.934265
0.669609
-1.70759
-0.0826279
-0.936983
1.01961
-0.119772
-0.342451
0.462223
-1.25926
-0.00134536
1.26061
1.50316
-0.843103
0.00949714
0.236002
-0.2455
-0.502463
-0.0659637
0.433615
0.763864
-1.19748
0.285829
-0.353303
0.0674743
1.06161
0.601828
-1.66344
-0.688817
1.78712
0.24766
0.0156295
-1.21546
-1.73297
2.94843
0.978789
1.29073
1.63249
-1.27963
-0.810376
0.509855
-0.181276
0.0723046
-0.512617
1.91198
0.228869
-1.50738
1.27851
1.68041
-0.255705
-1.42471
-0.70019
1.22915
-0.528961
0.758999
-0.603109
-0.807672
1.41078
0.160618
-0.133788
-0.0268308
-0.551931
-0.981097
1.53303
-0.0167617
-0.864619
0.154982
-0.168576
1.02144
-1.57337
-1.3911
-0.44368
1.83478
-0.0259016
-1.06121
1.08711
0.482963
2.11921
-2.21644
0.0972254
0.462426
-0.185252
-0.277174
-0.000965439
-0.701057
0.493074
0.585656
-0.740988
0.154658
-1.60677
2.00723
-0.400462
-0.60963
-0.592662
3.21958
-1.54739
-1.97552
-0.601
-0.0691781
-0.119974
0.189153
1.06994
-0.124679
-0.471403
0.517965
-0.0465616
-0.0693951
-0.153815
-2.52461
0.447966
1.71355
0.294061
-0.15612
0.548055
-0.494118
1.04574
3.11772
0.0281589
-0.485629
0.0142255
-0.25139
-1.35345
0.484054
0.528135
-0.502279
-1.84038
0.0413333
-0.122173
0.491359
-0.058982
-1.9247
0.994712
0.929993
1.16918
0.189777
0.478167
-0.180043
-0.298124
0.639024
-0.592164
-0.0468597
-1.36521
0.49203
-2.2291
1.08954
-0.530357
1.2182
-0.687838
-0.0652991
0.104531
-0.0392324
2.00839
-0.0527124
-1.95568
0.403951
0.0250353
-0.428986
-0.301487
-0.59977
0.538329
-0.0859785
0.167093
-0.154915
-0.0121778
0.887808
-0.116235
-0.771574
0.0341444
0.132948
1.33309
-0.909508
-0.0584094
-0.344386
0.402795
-2.02498
0.418205
-0.0180904
-0.230773
-0.0745944
-0.185033
1.05594
0.123945
-0.106313
0.550781
0.366891
-0.917672
0.268703
1.20855
0.675425
-0.620325
0.488771
-0.429611
0.262179
-0.668014
1.1729
-1.85869
0.685789
1.16689
-0.205362
-0.961525
-0.845973
-0.594185
-0.0354849
-0.194662
0.230147
0.580511
-0.746063
0.165552
2.18647
-0.0651204
-2.12135
-0.282357
-0.0162296
0.298587
-1.01725
1.43065
-0.413404
1.08077
1.01424
-2.09501
0.221477
-0.289335
-0.606804
0.974818
-0.368014
0.513714
0.195965
-0.70968
-1.81186
1.05354
0.758319
-0.127554
-0.0273606
-1.69508
0.303982
0.712766
-0.404684
-0.308082
0.80635
-1.14567
0.339318
-0.256307
-0.413897
0.232171
1.88704
1.65801
-0.317255
-1.34075
-1.58154
0.184694
0.644322
-1.16758
1.71457
-2.83524
1.12067
-0.258253
0.649232
-0.00707548
-0.734845
0.496834
-0.366377
0.483287
-0.23642
-2.36213
2.59855
0.894028
0.714544
-1.48074
1.5732
-0.0924605
0.220021
-0.0756507
-1.26807
-0.374026
-0.281623
0.317461
-0.0358379
1.83472
-0.867059
-0.967658
0.200971
0.147117
-0.348088
-0.264836
1.07119
-0.932119
-0.695909
1.62803
-1.64321
-0.513248
2.15645
0.855359
-0.773195
-0.082164
-0.488957
0.0455943
0.443363
-0.282112
0.139503
0.142609
-1.84558
0.0602632
1.78532
0.0381258
0.457816
-0.495942
1.53479
-1.6972
0.162405
-0.863516
1.80979
-0.391445
-1.41834
0.0325475
-0.314171
-0.121134
0.301819
-0.180685
1.64136
-2.3947
-1.89475
1.65088
0.243871
0.33833
-0.0525016
1.61336
1.60622
-0.187735
-0.27308
0.460815
-0.0243782
0.354922
-0.330544
-0.362916
1.41502
-1.0521
0.352675
-0.326282
-0.0263937
2.03233
-1.93394
-0.0983823
1.36214
-0.618225
-0.743913
0.0760769
-0.525905
0.449828
-0.66143
-0.0219822
-2.10709
1.83812
0.268974
0.095725
-2.20281
0.269414
0.876128
-1.14554
-0.989928
-0.757431
0.486066
-0.381555
-0.104511
-1.5713
-0.453676
-0.451149
0.325635
0.125513
0.934369
0.369769
-1.93224
1.8496
0.0826355
-0.303598
-0.0711992
-0.0835927
0.437424
-0.0334733
-1.10842
0.129103
0.386953
-0.409098
0.0221447
-1.47838
0.225411
1.25297
0.827058
-0.0513765
-0.537393
1.01895
0.217302
0.759047
1.57585
0.279901
-1.85575
-0.281303
0.979867
-1.37413
0.867439
0.506692
-0.17748
0.0499261
1.56924
-0.675209
1.31027
-0.824869
-0.280445
-0.403365
0.68381
-0.341983
-1.76944
2.11142
1.19817
-1.22407
1.66831
-0.725648
-0.942665
-0.0121969
-1.13664
-0.237493
-0.741252
1.67933
-0.938081
0.138265
-0.445953
2.0639
-2.08797
0.516671
0.329965
-0.167846
-0.288816
0.121002
0.310895
-0.00948553
-0.83409
-0.865798
1.78772
-0.515415
-0.0302238
0.239954
-0.209731
0.0864666
0.528351
-1.8551
-0.791088
2.64619
1.52402
0.176675
-0.0161847
-0.339561
0.355745
1.64041
-0.210505
-0.0340422
0.244547
-0.979635
2.15254
-0.751175
-1.90748
0.34195
-0.492632
0.026697
0.465935
1.54543
1.70939
1.8369
-1.45646
-0.380438
1.93213
0.100191
1.27387
-1.81047
0.536601
-1.62591
0.0234065
1.6025
-1.71088
2.19561
-0.484728
0.339141
-0.0181437
-0.320997
-0.823775
2.46513
-0.649131
0.702583
-0.0534518
0.0744598
-1.5552
1.22455
-0.363516
-0.861037
-1.79074
2.2937
-0.502955
-0.516416
1.21162
-0.695208
2.32285
-1.02378
-1.29907
0.106503
-1.21534
1.10884
-0.225809
-0.032295
-0.812062
1.89283
0.323546
-2.09423
1.71077
-0.572756
-0.419897
0.361488
-1.66667
0.0407617
1.83783
-0.672833
0.0694908
-2.27992
0.550202
-0.0498625
1.77738
1.7325
-3.50988
1.11245
-0.356693
-0.755756
0.689149
-1.62715
0.937997
-0.35179
0.0216838
0.330106
-0.456068
-1.0225
1.47856
0.768199
-0.50602
-1.36027
1.68737
-0.327097
0.2964
0.395683
-0.692083
0.162321
0.323745
-2.21957
2.60492
-0.385356
-0.0801688
-0.0626472
0.913094
0.491309
-1.4044
0.7881
0.915951
-1.70405
0.433878
0.956704
-0.0643941
2.32789
-0.0164921
1.57781
-1.56132
-0.0193364
-0.0126733
0.102832
-0.00316503
-0.0996674
1.40731
-1.44326
0.0359488
0.756777
0.911536
-0.159884
0.128814
0.0310698
-0.463066
1.54066
-1.07759
-0.019867
0.420551
-0.400684
-0.763878
-0.507521
1.2714
-0.593585
-0.974334
1.56792
1.44555
-0.204327
0.486957
0.625492
0.963785
-1.93485
0.971061
0.637636
-1.61091
-0.0829004
-0.143703
0.226603
0.417704
-0.0713823
-0.346322
-0.00565077
-0.220158
-0.0997532
1.27879
-1.17904
-0.270017
1.92075
1.46335
-1.26922
-0.194127
1.34004
-1.04254
-0.970233
0.422397
0.547836
0.000326279
-0.707841
-0.546164
0.68363
-0.137466
0.163114
0.315053
0.292495
1.45872
-1.75121
0.489323
0.398485
0.251593
-1.8948
-1.0124
0.375824
0.636573
-0.724543
-0.516317
1.24086
1.07505
-0.524268
-1.68076
1.06436
0.640553
-0.538786
-0.101767
-3.07906
3.40166
-0.322595
-0.854321
1.0092
-1.1013
1.30457
-0.203269
-1.22511
3.64626
-2.42115
-0.0473059
0.471047
-0.423741
-0.0871016
0.0218025
-1.1086
-1.45819
2.7406
-1.28241
-1.10081
1.47049
0.978601
-1.11659
0.137987
0.550674
-0.777249
0.226574
-1.99404
1.26453
0.729501
-0.0190744
0.212999
-0.193925
0.14245
1.06558
-1.4285
1.46967
-1.81165
-0.284358
-1.4219
-1.40317
1.38668
0.87414
0.0918763
0.552495
0.311031
-0.863526
-0.735239
0.692636
0.0426031
1.39086
-1.32961
-0.0612503
-1.28067
0.570832
0.709836
-1.64647
0.0135243
1.63295
-1.38322
-0.349635
1.73286
0.671413
-0.120739
1.26008
0.147226
-2.45995
0.781847
1.67811
0.503883
-0.640531
0.136648
0.0117635
0.44762
-0.548499
0.100878
-1.10048
-0.975683
-0.304985
0.322956
0.457505
-0.381428
1.17259
0.662127
-1.00465
-0.201962
0.072181
0.617262
0.359517
-0.288495
-0.0710227
-1.4386
-1.1227
2.5613
1.85989
-0.896106
-0.99807
-0.0815525
1.07962
0.266648
0.42662
-0.693268
0.000734682
2.22423
-1.43751
-0.786718
0.390964
1.26705
0.0623227
-0.28619
0.198347
0.0878434
-0.795523
1.56993
-0.774405
-1.08773
-0.385096
1.47283
-1.00249
0.395685
-0.624065
-0.346168
1.95507
-0.958819
-0.996248
0.0847958
-0.611729
0.526934
0.607297
0.233831
-0.841128
-0.399991
0.438117
0.407529
-0.366113
-0.0414155
0.492891
-0.0512221
-0.467397
-0.0201491
1.06809
0.886974
-0.165234
2.79285
-0.32525
1.88252
-0.305308
0.390104
-1.56452
0.476789
1.49195
-1.23045
-0.288828
-1.35297
0.335725
1.11995
-0.850535
1.24904
-1.33041
1.65914
-0.0885468
-0.408026
-0.295189
-0.336288
-0.22522
0.561507
-0.663711
-0.0655377
1.5295
0.275867
-1.80537
-0.0770849
-0.50217
0.579255
-0.0823658
1.85674
-2.45103
0.59429
1.62553
-0.0907394
-2.97318
3.02056
-0.0473862
0.423566
-0.37801
-1.67555
-0.318491
-0.524022
1.87991
-0.0417994
0.0386588
2.06099
-0.845685
-1.21531
-1.1119
-0.136056
1.24796
0.283129
0.874787
-1.15792
-1.42024
0.160977
-0.408081
-0.10398
0.512061
-0.951161
1.18003
0.374811
0.920869
-1.29568
-0.446375
0.252537
0.193837
-1.68952
0.151616
1.53791
-0.928996
2.39866
-0.530462
0.877948
0.484191
-0.383648
-0.305332
1.88983
-2.18395
-0.580205
-0.349659
0.929864
0.283982
-0.0625048
1.35585
0.0253109
-1.38116
1.60114
-1.92639
-0.00469511
0.0423975
-0.785908
1.03772
-0.251816
0.205291
-0.326425
-0.0402459
0.610813
-0.570567
-0.388614
0.324396
0.0642172
0.696271
-0.76652
-0.586201
1.23052
0.525235
-1.05559
-0.349839
0.382387
0.571875
-1.34993
0.0770075
-0.0814847
-0.429033
0.411133
0.0178998
0.464586
-0.509104
0.0445182
-1.25857
1.34901
0.143314
-1.14138
-0.0423366
-0.603036
-0.0863096
1.1669
-1.08059
0.702269
-0.765262
0.337012
-1.26248
0.925465
-2.64125
1.98258
0.658675
0.769208
-2.04394
0.249704
-0.0476611
-1.84709
0.470208
1.31751
-1.41787
-0.262887
-0.636628
-1.55268
-0.907513
0.39235
0.0225095
-0.0402092
0.0176997
2.93519
-1.38976
1.52222
-0.344967
-0.479129
-0.36683
0.845959
-1.93927
0.854755
1.08451
-0.389719
0.351388
0.41974
1.39005
0.365098
-0.194854
-0.920455
0.133933
-0.783064
0.563571
-0.341551
-0.222019
-0.241721
1.77123
0.438411
0.00281574
-0.441227
1.91626
-2.34542
1.11037
1.23505
0.435027
0.510942
-0.945968
0.0469328
-1.21661
1.16968
-1.13842
0.622003
-1.36471
-0.126514
0.733811
1.76546
-1.94524
0.890999
-0.377284
-0.702151
1.33979
-1.47019
1.05809
0.412104
-0.475198
-0.834058
1.30926
-1.32763
1.4809
-0.153266
0.644152
-0.925456
0.0300596
0.296152
0.559207
-2.11544
0.41076
2.84169
-2.72917
-0.519197
3.24837
0.468959
-1.58086
1.3249
0.00866335
-1.2282
0.252525
1.20215
2.05785
-0.726946
-1.33091
-1.71926
0.548006
-1.27255
0.367086
-1.77452
1.63846
-1.21993
0.616823
0.906602
-0.455162
0.4771
-0.021938
-2.71114
1.25732
1.45382
-2.36003
-0.484344
0.364572
-1.97758
1.40738
0.570203
1.66085
-2.48462
-2.19003
-0.0295393
2.83789
-1.12332
2.31726
-1.14555
-1.17171
-0.0500624
-0.323636
0.373699
-0.22958
0.799099
1.0237
-0.691792
0.23663
0.240679
0.527519
0.338726
0.781975
-1.1207
0.837303
-0.465382
-0.101961
-1.89989
2.00185
-0.710361
0.558783
-1.5751
-1.2057
-0.87652
2.08222
0.531899
-0.695218
-1.43882
0.471963
0.966854
-0.0130253
0.203361
-0.190336
2.36102
-2.59744
0.148621
-0.93453
1.10816
-0.0626275
-1.04553
-0.190407
0.160183
-1.67186
0.500459
1.1714
-1.51136
0.917774
0.803722
-1.59925
0.533548
-1.11375
0.0323661
-0.0453914
-0.0550433
1.73546
-1.14036
1.51327
-0.372908
1.51955
0.00612121
-1.52567
-1.38586
0.00849926
-0.502959
0.0997691
1.50497
0.29966
0.065103
-0.17847
0.643381
0.234911
1.00028
0.3292
1.06166
-1.80696
-0.125281
-1.48645
-0.37011
-2.38954
0.398341
0.384014
-0.782355
2.22138
0.0262732
-2.24766
-0.253444
0.235301
-0.73285
-1.49625
-1.48923
-0.268218
-0.430026
2.03116
-0.650231
0.980215
-0.329984
-2.06187
0.623274
-0.646467
0.985194
-0.97975
-0.944955
-0.692762
-0.455664
0.620696
-0.415508
-1.06287
2.16729
-0.287376
-0.373286
-0.737262
1.11055
0.233894
0.333459
0.576282
1.96347
-1.83665
-0.122192
-0.456729
0.707594
-0.908244
1.082
-0.973247
-1.94914
0.452159
0.38115
-0.833309
-1.64837
0.0436327
-0.29915
1.52715
-1.228
-0.503688
-2.46949
-1.24736
1.38519
2.29705
-1.04955
-1.2475
-0.133245
0.500868
1.69716
-0.665593
-1.03157
0.562054
-0.613277
0.0624785
0.040354
-0.264787
-0.0692393
0.334026
-0.28462
0.837115
-0.93044
2.59129
3.07401e-05
-0.381586
-0.540281
-0.239821
0.780102
-0.0204706
2.38149
-0.546346
0.951143
-0.404798
-0.765827
1.19944
0.703559
0.837099
-0.793004
-0.219393
1.10005
-0.395481
-0.704574
-0.0715646
0.0686241
0.00294054
0.133967
-1.31466
1.18069
-1.78251
0.293273
0.454512
-2.73552
2.36541
-0.0106813
0.572736
0.338144
-0.988375
-1.61335
0.820756
-1.78551
0.585875
-0.963815
0.190245
-0.690774
-1.22667
1.91745
-1.95663
0.180919
0.104073
-0.284992
1.6461
-1.37693
1.26281
-0.979684
0.192889
1.06277
-1.25565
0.21931
-0.627391
-0.882276
-1.01965
1.90192
-0.18142
1.16609
-0.984667
-0.981494
1.53801
-0.556513
1.70702
-1.36366
-0.343359
1.00124
0.074405
-1.07565
-0.906847
-1.43857
-0.613538
-0.141493
1.5322
1.6117
-0.0141207
0.230145
-0.216024
-1.31007
-0.361783
1.17307
1.11905
-1.04106
1.32587
-0.284807
-0.257617
0.223575
0.202341
0.693455
-0.895796
0.378623
0.0597884
-0.19645
-1.78113
-2.90075
0.693737
-0.0531841
-1.17611
1.28895
0.172796
1.35637
-1.52917
-0.995317
-0.113105
0.351089
1.88224
0.147445
-0.530893
0.427308
-0.408093
-0.0192149
0.145724
-0.757995
0.612271
1.82758
-0.880461
1.43782
1.70981
-0.799117
1.66259
-1.1038
-0.269454
-0.507179
0.776633
1.40496
0.233753
-0.0466494
-1.3929
0.936832
1.93056
-1.95103
-0.763154
-0.981877
1.74503
-1.02671
-0.912559
-1.86373
1.85717
0.00656443
0.969844
-0.591515
0.366295
1.14022
0.569584
-0.668192
-0.589207
1.2574
-0.539681
-0.87192
-0.887427
-0.911457
1.79888
1.79997
-0.275949
0.141568
-0.224469
1.15776
-1.89061
0.754825
-0.705486
-1.00585
1.48612
-0.480264
0.587743
0.883965
0.735835
-1.6198
1.83827
-1.08373
-0.754535
-0.815478
-1.28204
1.72884
-0.446797
0.417799
-0.791085
-0.59826
0.587579
0.807758
1.5151
-0.454268
0.404205
0.0528204
-0.0235583
1.80072
-1.00369
1.18921
1.74598
-0.85801
0.488773
0.369237
0.448714
-0.729159
1.37512
-0.0192685
1.22696
1.0903
-1.22235
-0.107812
1.33016
0.399979
-0.0324071
-0.367572
0.369091
0.0933347
0.249969
-1.96085
-0.582955
0.644995
1.2517
-1.17425
-0.0774547
0.326206
0.773848
-0.337353
0.15731
0.530549
0.47853
-1.00908
-0.703825
1.66934
0.0962512
-0.746499
1.88474
-1.13824
-0.376938
0.673337
-0.174739
-0.271636
2.06323
-1.05871
-0.682461
0.999549
-0.952617
0.622721
-0.665058
-0.361031
0.313725
-0.589738
-0.316339
-0.0270071
0.530387
-0.353013
1.55126
-1.19825
0.093959
-0.131928
-0.496749
0.223669
-0.70932
0.0957823
-2.89125
1.67579
0.491942
0.482876
-1.00711
-0.24259
1.2497
0.302254
0.214489
1.43603
0.975272
-2.4113
-0.260797
-0.0179065
0.278703
0.663
-0.84733
1.56064
0.736417
1.47133
-1.29853
-1.79466
0.018797
-0.00908613
-1.52417
0.826215
0.363527
0.859492
-1.22302
0.783839
-0.0815703
-0.0413164
-0.613561
-0.244449
-1.71597
-0.776236
0.776562
1.11806
0.0113938
1.04803
-0.972557
-0.0754717
0.395575
0.0155587
-0.137197
0.523957
-0.0593719
1.46021
0.335447
-1.79566
0.368791
0.19478
-0.482558
0.302659
0.179898
-0.707731
0.000568086
0.707163
0.535987
0.806262
-1.34225
0.46551
0.609538
1.25373
-0.0252723
-0.555729
0.948427
-0.305046
-0.399989
0.567294
-0.167305
-1.94894
1.66207
1.57491
-1.22589
-0.349015
0.0318236
-0.308635
0.276811
1.58919
-1.68895
1.3455
0.454471
0.526131
0.736682
-0.312691
-0.00364874
-0.440163
0.0160781
0.424085
-0.91224
-0.272664
1.99802
-1.02298
-0.975039
1.1586
-0.948546
-0.210049
0.844708
-1.42543
0.580719
-0.0553391
1.0534
0.0243919
0.144958
0.141877
-0.286835
-0.424902
-0.015261
-2.10886
-0.327218
0.330034
1.45331
0.0204309
-1.47374
-0.982719
0.132211
0.227307
0.155103
-0.0262895
0.691466
0.346258
-0.488089
0.68906
0.0132814
0.117435
-0.116752
0.259018
-0.79303
0.985919
0.0252837
0.502852
0.237546
-0.37494
1.53293
0.0237426
1.02429
-0.298494
-0.274917
-0.470357
1.00091
-0.283585
1.43924
-1.15566
-1.47044
-0.224638
-0.0031777
1.14049
-1.13731
-0.392826
0.0656081
0.634266
-0.126534
-0.0399721
-0.486456
0.526429
-1.58106
0.522351
0.307747
-0.29825
0.886938
-2.74204
1.38624
-3.1192
-0.516245
1.47473
-0.750418
1.03195
-0.553415
0.0253329
-1.09685
1.23082
0.00372925
-0.325684
0.106331
-0.879526
-0.263389
-1.07656
1.33995
0.608565
-1.02789
2.78768
-1.80735
-0.980332
-0.455354
0.170866
0.457116
0.0446733
-0.501789
-1.49203
0.351665
0.430803
-0.0130996
-0.00880744
-0.284014
0.292822
1.30328
-1.30646
0.16997
0.819595
0.162828
-0.982423
-1.60521
1.32163
0.303764
0.0802636
-0.384028
1.39468
-2.85287
-0.31367
0.00511221
0.308558
0.391833
-0.0880686
0.0292233
1.3821
-0.948226
1.07837
1.0039
-0.538393
-1.73224
0.526539
-1.19065
1.05885
0.131804
0.949954
-1.71311
-0.970152
-0.596953
1.56711
0.106395
0.827939
-0.601936
0.508514
1.87043
-0.233045
-1.63739
-0.00863474
-1.79832
0.948061
0.0531807
1.08193
0.615235
-0.341908
0.00234746
0.316288
-0.538083
-0.692442
0.0569248
-0.0808215
0.0238967
0.0315873
-1.10292
1.07133
-0.118383
0.601568
-0.483185
1.24216
-3.40719
2.16503
-0.0498259
-1.02175
-0.044647
0.00342381
1.1928
-0.664806
-0.39508
1.05989
-0.785301
-0.673327
0.888163
-0.507014
0.275081
-0.253889
-0.0211914
-1.44549
0.438378
-1.7697
-0.183969
-0.182094
0.366063
0.374449
0.530159
-0.904608
0.0665666
-1.0241
0.95753
0.194067
-1.08279
0.273247
-2.06399
-1.06948
-0.842752
1.91224
-1.68854
0.0674263
1.62111
-2.01457
-1.43749
0.109853
-0.562479
0.572142
-0.0096622
-2.01932
-0.6152
2.07541
0.75078
-0.383889
0.178761
-0.649118
-0.324927
0.934465
0.316041
0.245284
-0.785565
0.0345059
-0.279954
0.245448
-0.260338
-0.0346501
-0.196154
0.227977
-0.586184
1.02121
-2.92437
1.44402
1.48034
-0.294728
1.68481
0.891541
0.439126
-0.0391471
-1.33217
0.663978
-0.905296
-0.533521
-1.06979
0.383907
0.685878
0.0821901
0.174402
-0.256592
-0.833321
0.979045
-0.228571
1.38448
0.928967
-1.47531
0.903501
-1.6888
0.816685
-0.932799
0.116115
0.265899
-0.0298962
-0.053207
-0.00818084
-1.91141
1.22064
0.911
0.247596
0.0296877
-0.398757
0.369069
-2.53162
0.92067
-0.67545
0.285407
-0.385385
-0.0256877
-0.447659
0.473347
-1.10021
0.435407
-1.8987
1.70225
1.19539
-0.0872341
-0.431002
0.39065
0.0403523
-0.162395
0.0424208
-0.322477
-1.84128
0.941809
0.899471
-0.312015
0.294108
-0.177251
0.661017
-0.483766
1.6058
-0.2603
0.192603
-0.115351
-0.0772515
-0.526673
0.551957
0.114311
-0.0206655
1.48749
-3.50284
1.83077
0.101366
0.176105
-0.158888
1.67357
-0.0947936
-1.57877
-0.354037
0.532206
-0.178169
0.838041
-1.67213
-0.794284
0.342589
0.451695
0.019644
-0.0236481
0.00400413
-1.30825
1.36326
-0.0550113
-0.589626
0.926638
0.321501
0.0311744
3.18253
-1.59859
-1.58394
0.016929
-0.416284
0.399355
-0.159696
-0.620864
-0.0405668
-0.606171
-0.0146929
0.187997
-0.594524
0.406527
-0.162495
1.67447
-1.51198
-1.63771
0.465337
1.17237
0.525141
1.48325
0.0321349
0.16728
-0.199415
1.05685
0.495013
-1.55187
0.0853846
-0.0628752
-0.551128
1.50576
-0.954631
-1.34219
0.119839
1.12788
0.537728
-1.50788
-0.00109938
-0.215588
0.216687
1.57769
-0.404344
-1.17334
0.58776
0.431075
-1.77379
0.907991
1.60005
-1.70201
-0.89102
0.0907749
0.800245
-0.0899076
-0.0228653
0.251286
-0.22842
0.144795
-0.0170503
-0.127745
-0.0147939
0.247775
-0.232981
-0.144015
0.0869099
0.057105
-1.08654
2.2443
-0.611086
0.555718
0.270582
-0.447833
0.70066
-1.07017
0.369511
-0.721486
-0.748705
-0.23316
-0.0489519
0.115811
-0.0118539
-0.103957
1.6728
-1.00755
-0.665243
0.103243
1.14846
-0.481398
-0.253841
-1.1208
0.241902
0.676638
0.618878
-1.29552
-0.0126162
-0.0369013
0.0495175
-0.0397164
0.67874
-0.0191008
0.063062
-0.0439612
1.5691
-1.04927
-0.519834
-2.52875