/*--------------------------------*- C++ -*----------------------------------*\
| =========                 |                                                 |
| \\      /  F ield         | OpenFOAM: The Open Source CFD Toolbox           |
|  \\    /   O peration     | Version:  2306                                  |
|   \\  /    A nd           | Website:  www.openfoam.com                      |
|    \\/     M anipulation  |                                                 |
\*---------------------------------------------------------------------------*/
FoamFile
{
    version     2.0;
    format      ascii;
    arch        "LSB;label=32;scalar=64";
    class       volVectorField;
    location    "7";
    object      U;
}
// * * * * * * * * * * * * * * * * * * * * * * * * * * * * * * * * * * * * * //

dimensions      [0 1 -1 0 0 0 0];

internalField   nonuniform List<vector> 
13486
(
(3.33749 -0.811201 2.06723e-18)
(3.52153 0.0827135 1.0566e-18)
(4.75887 -0.095846 0)
(2.20663 -1.96069 -9.30066e-20)
(5.36279 -1.0434 5.44113e-19)
(4.48394 0.149891 -1.08905e-19)
(6.02352 -0.625898 2.392e-20)
(4.51757 -1.62114 -1.06097e-18)
(4.33926 -0.923538 0)
(3.89723 0.784108 0)
(-0.0781095 2.72208 -3.0472e-18)
(4.64879 0.297572 0)
(3.10938 -1.16459 -2.0417e-18)
(4.49667 0.807536 -1.06599e-19)
(5.61665 -0.384434 3.07555e-19)
(3.83332 0.768932 -7.79013e-19)
(1.61322 -0.618972 1.77212e-18)
(6.18779 3.43783 -8.51217e-18)
(4.1075 0.112654 1.77237e-20)
(3.58913 -0.478011 -2.15807e-18)
(2.76877 -4.03883 -5.63037e-19)
(3.14 -1.18592 2.66908e-18)
(3.56168 0.087158 -8.39548e-19)
(5.54564 -1.69105 0)
(3.98335 0.633831 2.66062e-19)
(5.31566 -1.54829 -6.94516e-20)
(0.0888604 0.0902176 2.02607e-18)
(5.04364 -0.0114878 -8.54184e-19)
(2.85059 -0.649672 0)
(4.45959 0.297806 1.3345e-18)
(3.67349 -5.1384 -1.43209e-18)
(5.59519 0.418772 -3.92514e-19)
(5.25115 -0.156267 5.05558e-19)
(5.06809 0.321736 0)
(4.54136 -1.55728 0)
(3.05531 0.0276518 -5.90095e-20)
(3.94889 -0.596267 3.34916e-19)
(3.58152 -1.67885 1.03854e-18)
(5.7595 -2.86336 -3.80415e-19)
(4.31737 -0.611804 1.10809e-18)
(5.72298 -1.81559 0)
(2.45067 -1.2166 -2.34194e-18)
(4.77693 0.0486791 0)
(4.00715 0.530078 -1.25652e-18)
(4.04479 0.503628 5.23657e-19)
(4.57895 0.29799 7.67083e-19)
(-0.00618525 -1.59133 2.78994e-18)
(3.04411 -0.39264 -6.24689e-20)
(3.95176 -0.539222 -2.5491e-19)
(4.81907 0.0262165 -1.41431e-20)
(4.00125 0.039293 1.34168e-18)
(6.18746 -1.19308 0)
(4.43593 0.83776 -1.14185e-18)
(3.7642 -1.44661 -1.5285e-18)
(6.2782 5.1031 0)
(5.2781 -1.04887 -4.04696e-19)
(3.53262 -0.510831 -2.11045e-19)
(6.49009 -1.71566 -8.14882e-19)
(5.16952 -0.154125 4.40313e-19)
(3.75326 -0.831092 0)
(-0.409509 2.06638 -4.15253e-18)
(3.6965 -0.80013 0)
(5.28342 0.333834 -9.05574e-19)
(3.16104 -4.0444 -6.99961e-21)
(-0.421486 -5.41397 0)
(3.89765 -0.649592 1.69455e-19)
(1.26338 -1.43013 -1.09675e-19)
(3.25221 -0.369896 7.1365e-19)
(4.35251 -0.980208 -6.25809e-19)
(2.82357 0.102365 -1.88564e-20)
(1.48101 -1.31045 1.27162e-19)
(5.88135 4.68474 -5.65568e-19)
(4.24785 -0.378954 8.3453e-19)
(-1.06225 0.615354 -2.02058e-18)
(3.77775 -0.633932 3.70215e-20)
(3.1194 -0.481202 4.80779e-20)
(3.76038 -0.574406 -1.29183e-19)
(5.6519 -0.455314 -1.24638e-19)
(-0.0137755 -0.422869 -1.42126e-18)
(2.2458 6.57381 0)
(3.4127 0.0154464 2.54541e-20)
(3.43037 0.211334 -6.60769e-20)
(5.35295 0.434584 2.35406e-20)
(4.73851 -0.170542 -2.118e-19)
(3.33283 -0.823056 -4.07419e-18)
(2.82387 1.97802 0)
(0.136058 -0.446862 -8.61564e-19)
(4.00581 0.0645696 -2.04022e-18)
(3.83485 0.111592 -8.64462e-19)
(3.59986 1.11694 -1.0102e-18)
(5.40417 1.01111 -1.83798e-19)
(4.80091 -1.36939 -5.5728e-19)
(3.46275 -0.958172 5.40419e-19)
(3.58686 -0.244739 5.71275e-20)
(4.19471 -1.34982 2.46373e-19)
(3.17038 -0.161922 1.963e-20)
(-0.0128654 0.243641 0)
(0.490329 -1.81696 4.62273e-19)
(4.34956 -0.602274 -2.12314e-18)
(1.75724 -0.593571 1.74914e-20)
(3.35318 0.0361327 0)
(4.44684 0.815882 -5.15228e-20)
(0.379323 -1.97765 1.64619e-19)
(6.2357 -1.53169 9.33484e-19)
(2.7807 1.86312 0)
(1.59946 -0.603758 1.44106e-20)
(3.98167 -0.00802058 2.95592e-21)
(5.95371 -3.49286 -1.16075e-18)
(-0.133318 -0.74164 1.90495e-18)
(4.48719 -1.99985 0)
(3.44347 -1.61556 0)
(6.11212 0.153154 -2.38925e-20)
(3.77687 -1.40529 8.73097e-21)
(4.4649 -0.345206 1.62952e-20)
(2.71051 -0.597872 0)
(3.26693 -1.59736 -8.98487e-19)
(3.96544 0.638961 0)
(5.55877 0.280454 0)
(4.23291 -0.358134 0)
(3.9229 -0.385843 1.81113e-19)
(5.67323 3.89159 3.57361e-18)
(-0.63018 2.32153 0)
(4.12138 -1.24003 0)
(5.92219 -2.92438 1.24254e-18)
(4.29576 -1.53011 0)
(6.36178 -1.15124 0)
(4.87914 -0.488827 2.45866e-20)
(4.21725 0.0612013 6.00721e-19)
(5.80274 0.102137 2.87667e-19)
(-0.331758 -4.70776 -1.28116e-18)
(5.84654 -0.926291 -7.62799e-20)
(-0.233488 -1.49382 -6.82155e-19)
(3.85832 0.557286 3.6849e-18)
(-0.471715 0.135029 2.67102e-18)
(3.99751 0.0219375 -2.16879e-19)
(3.81252 0.38563 -1.03124e-18)
(1.98144 0.524374 -6.35243e-19)
(4.46525 -1.94543 0)
(3.91664 -0.334388 -5.56833e-20)
(4.57444 -1.29487 -3.87898e-19)
(5.02242 0.0743333 -3.8706e-19)
(4.58878 0.934563 9.73879e-19)
(5.10581 0.552055 0)
(3.09565 6.50532 0)
(5.03598 0.0722395 8.09252e-20)
(6.20284 0.778244 -2.15965e-18)
(3.01587 -0.168089 -4.38141e-19)
(1.00866 1.51607 0)
(4.83959 0.00063196 0)
(2.77639 -0.525903 0)
(4.02082 0.0271923 2.23151e-20)
(5.66149 -0.732467 0)
(3.40894 0.0201071 -2.6775e-20)
(3.39791 0.184494 -5.67291e-19)
(4.19655 0.329804 0)
(5.06677 -0.125577 0)
(4.2379 -1.94204 0)
(4.3314 -2.3557 1.99472e-19)
(3.97416 -1.61212 2.17025e-18)
(3.20994 -0.904729 4.34021e-19)
(4.61403 0.0268395 -5.18155e-20)
(3.99837 -1.55862 -3.32202e-18)
(6.13871 1.49488 -3.66484e-19)
(2.24561 -1.08801 1.03559e-18)
(6.62533 -1.40281 0)
(4.6284 0.80522 -1.04793e-20)
(4.39157 0.741152 4.52296e-19)
(1.7425 -0.763563 -2.51151e-18)
(2.95284 -0.244226 1.11629e-18)
(-0.460775 0.197161 7.24141e-19)
(3.39291 0.152649 9.45562e-20)
(4.19804 0.292039 4.67006e-19)
(3.99471 0.108489 -1.73022e-18)
(5.11072 -0.158631 3.88892e-20)
(3.36475 -0.0145399 2.56207e-20)
(-0.842309 -3.81455 0)
(4.46513 1.22928 -1.68712e-19)
(5.13691 0.0157272 7.3241e-19)
(3.99613 -0.0178002 -2.14193e-18)
(5.01435 0.572353 0)
(4.46344 -0.683993 2.21849e-18)
(4.53934 -0.277457 3.44368e-20)
(5.17093 0.0423171 -8.26581e-21)
(-2.13348 1.22342 0)
(4.21368 -0.214814 5.54315e-19)
(4.53877 0.0179427 3.81324e-19)
(4.72443 -1.25868 -5.08543e-20)
(4.81539 0.369727 3.75706e-19)
(5.70279 -1.7716 0)
(3.02997 -1.45263 -1.13473e-18)
(3.90847 -0.461632 0)
(5.03004 -0.0446639 0)
(7.06544 -2.10871 0)
(2.89109 0.773509 -1.23459e-18)
(7.66441 -2.11186 0)
(-0.563338 2.90633 -8.40519e-19)
(-0.972792 -4.78937 2.33971e-18)
(4.60734 0.0260315 -3.26939e-20)
(2.93924 -1.44671 -4.47156e-19)
(4.59704 0.744791 5.51901e-20)
(3.07307 -5.88811 2.17488e-18)
(4.22677 0.0881163 -1.8543e-20)
(3.44499 -1.65746 -1.20922e-18)
(4.66913 -1.94469 8.77602e-20)
(3.26 -0.895053 -5.23924e-19)
(7.64739 -1.67647 -1.05891e-18)
(7.15424 1.68974 -5.50317e-18)
(4.03525 -0.311738 1.69014e-18)
(6.80189 -2.19852 0)
(4.3362 -0.232791 0)
(5.03636 0.0510413 -9.6057e-19)
(3.6733 -2.6208 -3.85073e-19)
(3.61037 -0.438112 1.96682e-18)
(3.97744 -0.00419493 3.02834e-21)
(4.48848 0.194892 1.2548e-19)
(2.126 3.25611 -1.72078e-19)
(4.52153 0.181111 0)
(3.64511 1.08873 2.31449e-18)
(3.62646 -0.978275 0)
(5.2784 0.632992 0)
(1.58725 -0.698922 -3.40207e-18)
(4.77319 0.0480633 0)
(4.52989 -1.29644 8.9197e-19)
(4.9053 0.0477423 0)
(4.11708 1.03558 -2.40778e-19)
(3.12036 -1.47596 7.31579e-19)
(4.6328 0.334071 3.29044e-21)
(1.53449 -6.41119 8.8175e-19)
(4.51424 3.41854 -4.73113e-19)
(-0.256433 -0.527271 -3.94192e-19)
(4.47705 -0.670717 -7.15534e-19)
(4.14776 -0.480688 1.00095e-18)
(5.04531 -0.0461688 4.82569e-19)
(2.49546 -1.23308 8.01609e-19)
(1.15308 -3.71123 0)
(2.79497 -1.35764 8.72114e-20)
(5.09018 0.467364 -8.2889e-19)
(4.97727 -0.0393496 -1.41963e-19)
(2.6246 -1.26908 2.30675e-18)
(4.98123 0.106465 0)
(5.23768 -0.203673 0)
(4.0065 0.0850888 2.62417e-18)
(5.33667 -0.0976447 0)
(2.52943 -1.26307 7.95722e-19)
(4.63242 -3.48857 -1.03857e-18)
(3.80316 -0.157537 0)
(4.63166 0.11049 -2.11488e-19)
(4.36182 -0.672671 -1.08272e-18)
(-0.36991 0.238735 4.41297e-18)
(3.9725 0.489216 0)
(-1.25275 -0.791666 -4.78995e-19)
(2.65361 -0.550921 2.94789e-19)
(2.94223 -1.43668 1.11267e-18)
(6.16338 -3.5592 0)
(5.95328 4.57328 1.50741e-18)
(-1.25606 -3.56165 6.11731e-19)
(5.60803 0.438438 3.12092e-19)
(2.02915 3.31588 2.1649e-19)
(4.32802 -2.37959 -2.15018e-19)
(5.18263 -0.186319 3.03292e-19)
(3.71219 0.0684279 0)
(4.34944 -3.30634 1.61526e-20)
(5.62433 -0.408038 -7.45018e-19)
(-1.2138 -2.97126 -7.73449e-19)
(5.10319 -1.58811 -5.87137e-19)
(-2.03361 1.26555 0)
(5.60647 3.17227 -5.9399e-20)
(2.75138 -5.39936 -1.43153e-18)
(4.41699 -0.033776 -1.00651e-18)
(3.62117 4.3366 0)
(3.211 1.00358 9.36749e-19)
(3.97376 0.0192608 -5.79991e-19)
(4.49208 0.125739 0)
(4.40562 0.491916 6.9834e-19)
(3.09234 -1.48921 9.79986e-19)
(4.22963 -0.508344 6.25438e-19)
(6.01206 4.11068 0)
(-0.232721 3.27687 0)
(6.64497 -4.2881 -1.965e-18)
(3.06948 0.0603121 8.53458e-19)
(0.210354 2.02318 9.03516e-18)
(4.64815 -0.398571 -8.355e-19)
(3.95031 -0.00302878 1.25613e-18)
(6.4847 -0.591046 -1.70099e-18)
(-1.12527 2.13521 4.6616e-18)
(1.31665 -0.0350633 3.36884e-18)
(4.95768 0.0369562 4.37927e-19)
(5.07333 0.229889 -3.76064e-19)
(4.24795 1.01577 4.34882e-19)
(4.25 -0.0283672 0)
(1.38689 -3.59276 0)
(3.63324 -1.52476 -4.57615e-20)
(3.32452 -1.58899 8.85978e-19)
(3.99335 0.0284457 -2.13188e-19)
(5.0843 0.465052 -8.30809e-19)
(4.91827 0.43306 0)
(4.4777 -0.0480421 8.44669e-20)
(4.32814 0.378929 -6.55257e-19)
(3.95481 -0.0472777 -1.15591e-18)
(5.9535 -1.04834 1.2222e-20)
(6.2778 1.67258 4.29238e-19)
(7.18388 1.86384 5.6503e-19)
(3.11127 -0.0670577 -7.36481e-19)
(5.60592 0.330863 3.77318e-19)
(4.05567 -0.392719 -5.63951e-20)
(3.99246 -1.83988 0)
(1.36518 -0.201206 0)
(4.46605 0.0502484 4.13767e-19)
(-0.351909 -1.03934 1.10117e-18)
(3.90808 -0.511148 0)
(4.36049 2.89411 -4.16734e-18)
(2.21856 -1.71135 0)
(4.32626 1.19353 2.14565e-19)
(6.07702 0.146529 -4.68726e-20)
(3.78662 1.63331 0)
(3.79004 0.339933 -6.49427e-19)
(3.66409 -1.43036 7.89561e-20)
(3.83111 0.0817835 -7.4185e-20)
(4.01656 -0.290863 -1.86088e-18)
(4.72037 2.84109 0)
(3.89485 -0.594919 -3.07879e-19)
(3.90957 -1.69262 2.08014e-21)
(4.00121 0.0145689 2.70252e-19)
(3.55379 -0.160649 -1.06504e-18)
(2.10866 0.47707 1.14179e-18)
(5.49846 0.877943 3.55725e-19)
(5.06194 -0.690026 -2.20938e-18)
(4.67732 -0.391022 0)
(4.07909 0.151078 -7.46682e-21)
(5.16409 -0.678166 -3.64224e-19)
(4.00448 0.0392118 2.96016e-18)
(4.90559 -1.33802 0)
(5.4835 1.22703 -1.53691e-20)
(3.20431 0.152228 0)
(6.07908 -0.684397 -1.49802e-19)
(4.33035 -1.24311 -6.81983e-19)
(2.09144 -1.02382 9.33338e-19)
(5.60852 -0.798994 -4.72735e-19)
(4.02318 0.188135 0)
(4.19373 -3.08696 -1.08168e-18)
(4.8846 2.87118 -2.33352e-19)
(3.55814 -0.160711 1.00451e-18)
(5.21812 -0.685568 1.51632e-18)
(5.17855 0.0565333 8.48226e-19)
(-2.26554 1.18222 -2.56619e-18)
(3.00496 -0.274668 2.00439e-21)
(4.90194 -0.251661 0)
(2.66579 -1.07621 2.32743e-18)
(5.28415 0.570133 0)
(3.71718 -1.61229 -4.78458e-21)
(4.86037 -0.0887464 1.48351e-18)
(4.15062 0.316756 -7.99704e-19)
(4.37049 0.486374 6.24721e-19)
(-0.269906 0.427395 -2.44318e-18)
(3.96115 -0.0388763 1.44228e-18)
(3.52321 0.0457807 0)
(-0.659809 0.715089 -1.86636e-18)
(4.90118 -0.458592 -4.92811e-19)
(-0.500067 -1.10987 -1.16825e-18)
(3.42816 -1.52052 -4.80996e-19)
(4.72765 0.0692717 0)
(5.20869 1.16599 3.93941e-19)
(3.75747 -0.0340788 2.18887e-18)
(3.96939 0.0205891 1.76917e-18)
(4.39607 0.210522 0)
(3.39339 0.0174494 -6.06932e-21)
(4.91772 0.412998 7.78341e-19)
(0.532726 -1.90164 5.14351e-19)
(3.55937 -0.485731 2.72008e-19)
(4.86973 -0.403556 4.66673e-19)
(5.00599 0.0817729 -3.06444e-20)
(4.87418 -0.286264 0)
(3.92071 1.00457 -1.03907e-18)
(-1.59073 -0.672879 6.18367e-19)
(4.49 0.400188 -2.07755e-19)
(3.99615 0.0401511 1.12741e-18)
(3.01573 0.0297633 0)
(3.90501 -2.08162 -3.72197e-19)
(4.3758 1.54937 0)
(5.92025 1.07336 -7.97122e-19)
(4.45945 -0.0488671 0)
(4.86263 -1.55859 -2.52554e-20)
(3.15086 -0.656112 -5.69027e-19)
(3.23324 0.836663 2.14411e-18)
(0.316983 -1.95319 -1.66542e-18)
(6.79719 3.37596 0)
(4.40226 0.0622025 -5.30356e-19)
(4.03434 0.202852 -7.02041e-19)
(0.566228 -0.568429 -1.14998e-18)
(4.38418 -4.33989 1.8574e-19)
(3.65833 -0.451059 -2.98889e-18)
(4.62148 0.07634 -3.56749e-19)
(4.10092 0.191075 5.28754e-19)
(3.43564 -1.19731 0)
(3.11275 0.00192981 1.1346e-18)
(3.82593 -0.332899 1.77695e-19)
(1.77513 -1.61931 3.53764e-20)
(-1.58204 -0.37252 -2.01397e-18)
(0.990785 -0.784106 -2.14062e-18)
(5.0155 0.0865753 0)
(0.649647 -0.727024 0)
(3.8178 1.39923 0)
(4.51245 -0.181473 0)
(2.25264 -0.77309 -6.02894e-19)
(6.02643 -0.535503 0)
(1.73536 1.30858 0)
(3.6136 -0.187274 4.1313e-19)
(5.08836 0.0576234 -7.6357e-19)
(4.81404 -0.283476 -1.1613e-18)
(3.58724 0.154175 3.56043e-18)
(4.01354 0.0307278 -3.62861e-19)
(4.28654 2.19601 0)
(4.72429 -0.0213318 0)
(3.94336 -0.0539988 1.23215e-18)
(3.97456 0.0379159 2.16745e-19)
(2.86313 0.782987 0)
(-2.15382 1.09497 2.43222e-18)
(5.0536 -1.62464 6.6573e-19)
(2.29533 -0.343252 0)
(5.0083 0.115024 8.91587e-19)
(3.99736 -0.0053488 -1.43558e-18)
(5.16681 -0.315221 1.23535e-18)
(2.64741 -1.05303 0)
(4.00942 0.198997 1.2952e-18)
(4.669 0.179358 0)
(4.81708 0.369157 0)
(4.24128 0.195182 -8.60309e-20)
(3.93831 -0.00791353 6.61259e-19)
(0.141043 0.0780105 -2.62385e-18)
(4.33297 0.733563 1.82677e-19)
(3.21962 -1.02765 -1.01358e-18)
(4.48834 -0.160489 1.47115e-19)
(4.10577 0.197271 4.19101e-19)
(4.06629 0.966211 2.82337e-18)
(5.28705 -1.58397 0)
(4.66103 -0.527905 -3.66314e-19)
(3.14523 -0.558037 0)
(3.68624 -1.71522 1.11288e-20)
(5.06853 -0.175363 0)
(3.28688 -0.326149 1.5065e-18)
(-0.801832 -1.75054 -3.00392e-18)
(4.60313 0.116134 0)
(-0.415841 0.110762 1.19059e-19)
(4.74408 -0.0233784 4.93733e-19)
(1.77274 -1.67905 -1.9404e-19)
(3.98164 -0.769696 2.84211e-18)
(3.03778 0.76607 -1.39649e-18)
(3.19513 -1.01613 -2.86399e-18)
(5.88896 1.05418 0)
(3.94796 -0.394288 -1.64289e-19)
(-2.14038 1.23165 -6.49986e-18)
(4.01573 0.21341 0)
(3.80224 0.105122 8.03068e-20)
(4.66442 -0.0165994 5.74222e-21)
(4.91571 1.31385 0)
(4.00211 0.015425 0)
(-1.29048 0.307093 0)
(-0.946193 -3.97731 2.7277e-18)
(5.78462 -0.893499 2.0782e-18)
(5.68884 0.892781 1.39182e-19)
(4.27463 1.15239 0)
(3.82991 -0.630445 1.93508e-18)
(3.39014 -0.0361023 -5.5103e-20)
(4.32752 0.677085 -4.1619e-19)
(2.77201 -2.97531 5.9369e-19)
(3.88339 0.079148 0)
(3.05188 -0.449895 0)
(2.20263 -0.722879 -1.58186e-18)
(3.38627 -1.17774 -7.04288e-19)
(4.29021 -0.49391 0)
(3.62596 -1.7296 -8.33989e-19)
(3.4551 0.048619 3.91714e-20)
(3.1487 -0.0587366 -2.59908e-20)
(2.31308 -1.1302 0)
(6.1145 -0.823461 -2.37052e-19)
(3.90047 -0.321197 -1.61403e-19)
(4.63939 0.153369 -6.5652e-20)
(4.30106 -1.29483 0)
(1.53418 -0.0604312 -5.1006e-18)
(4.27542 0.375987 7.14406e-19)
(3.99631 0.109052 2.69166e-19)
(3.58957 0.0388026 -8.56551e-20)
(4.70434 0.778114 0)
(3.54632 0.151575 -9.50872e-19)
(5.17632 0.427569 -4.67879e-19)
(1.27808 -0.778535 4.48405e-19)
(4.02084 0.0671168 0)
(3.95118 -4.63256 -1.82137e-19)
(1.78372 -0.688114 0)
(4.01482 0.0719744 -1.05208e-18)
(3.98745 0.0669468 4.45987e-19)
(3.92626 -0.138736 -2.38763e-19)
(-0.977108 -3.32438 0)
(4.34678 -0.0866682 -3.48244e-19)
(2.67119 0.171536 3.13172e-18)
(5.21937 -1.56077 0)
(3.5733 -0.226836 1.30418e-18)
(5.89151 -1.09779 -1.32978e-20)
(4.40327 -0.0280159 0)
(2.62046 -5.66269 7.71026e-19)
(2.97726 6.08854 -6.63944e-18)
(5.02805 0.0757115 0)
(1.52368 -0.356477 3.39299e-18)
(3.78742 0.0890921 0)
(4.04938 -1.8255 8.72993e-19)
(-1.25502 -1.06789 1.17306e-18)
(4.36883 -1.54685 5.43646e-20)
(4.51108 0.165465 1.79874e-19)
(3.11365 -0.0024803 5.99298e-19)
(3.99312 -0.80988 -1.05963e-18)
(6.54782 3.11931 -6.32802e-19)
(4.08266 -1.8105 8.58349e-21)
(4.82186 -0.422754 4.57254e-19)
(4.69053 0.769049 6.49479e-20)
(4.67644 -2.05443 0)
(3.99505 0.0314621 -9.99659e-19)
(3.1248 0.15651 -1.93348e-18)
(3.1961 -0.563121 0)
(3.7627 -0.428902 6.72683e-20)
(2.76589 0.109531 0)
(3.01603 -1.06604 2.46504e-18)
(4.76607 -1.72866 0)
(3.19587 0.0252309 9.79844e-20)
(4.88871 -0.108963 -8.40331e-19)
(2.24271 -6.13757 1.9255e-18)
(-0.878022 -0.011351 1.17255e-18)
(4.65631 0.10111 -9.33816e-21)
(3.77952 -1.78401 6.65144e-19)
(4.08999 -1.23709 9.7783e-19)
(3.46117 -0.974983 0)
(-1.34609 0.907172 -1.55263e-18)
(5.35975 -1.41022 -1.44565e-19)
(-1.38149 1.08946 -1.8651e-18)
(3.06699 -0.230628 2.11705e-20)
(3.42578 -1.4018 0)
(4.35575 -0.0357214 -6.92375e-21)
(-2.13249 1.20925 0)
(0.27627 -2.19694 1.68966e-19)
(5.68976 -0.0332484 -1.50028e-18)
(1.45204 -0.804193 0)
(4.6986 -1.19333 2.86984e-19)
(0.0165217 -6.05514 0)
(4.93848 1.13768 0)
(3.74661 -1.75216 -1.15308e-18)
(3.24815 0.0948823 9.24963e-19)
(1.08805 6.31156 0)
(3.75881 0.0071695 -6.01576e-19)
(5.69445 0.925268 2.28293e-18)
(-1.78761 -0.358347 3.28824e-18)
(4.94968 1.76785 0)
(4.26752 -0.0583934 0)
(-2.04969 1.48299 -2.9428e-18)
(4.09642 -0.413215 0)
(4.5088 -0.150616 0)
(-0.503842 1.977 -1.4094e-19)
(4.65837 -0.844556 -1.42766e-18)
(3.98692 -1.07194 8.61403e-19)
(5.19058 -0.268462 4.17348e-20)
(-1.4932 1.09411 3.39023e-18)
(3.98856 0.0659487 5.07783e-19)
(3.53552 -1.02125 0)
(4.16281 0.499996 -2.19808e-19)
(3.31057 -0.772231 0)
(4.08286 -0.0829715 0)
(3.99557 0.128549 0)
(4.22645 0.170992 -7.06602e-20)
(3.98414 -0.297513 8.61818e-19)
(5.4827 -0.0542593 -1.16286e-19)
(3.62169 -1.02311 0)
(-0.13469 0.236949 -1.96149e-18)
(3.89523 1.27964 4.49258e-19)
(4.29572 -1.55805 9.29585e-20)
(5.73173 0.255838 6.36141e-19)
(4.18552 -0.39444 -1.48569e-18)
(4.15831 0.0621518 -8.27402e-19)
(-0.988386 -1.52401 0)
(4.3808 0.402086 0)
(3.08937 0.80716 0)
(3.05022 -1.40483 -1.80643e-18)
(1.28581 -7.08834 -5.75327e-18)
(1.01308 -0.467151 0)
(4.1953 0.517101 0)
(4.36497 1.20968 7.63913e-19)
(4.18783 -0.0157236 -2.35836e-19)
(3.77268 0.616073 1.10592e-18)
(4.69277 -1.952 0)
(-0.952082 2.12249 -8.46434e-19)
(4.43948 0.0722295 2.88178e-19)
(3.32399 -1.12112 -1.69792e-18)
(4.26226 0.0481662 -4.42781e-19)
(4.30724 0.668713 6.02604e-19)
(3.9272 -4.33694 1.25908e-18)
(3.01013 -1.40376 3.12384e-18)
(-0.500572 1.08961 -2.58962e-19)
(4.93734 -0.218387 3.7925e-20)
(3.99785 0.0135998 -2.48332e-19)
(3.33116 -1.53862 -2.5555e-19)
(3.62504 5.83037 3.24244e-18)
(3.03573 2.59258 -5.05063e-19)
(3.5924 -1.70365 4.27487e-19)
(4.06522 0.0293879 0)
(0.669079 0.251764 -3.53787e-20)
(4.307 -0.0616285 -1.07529e-18)
(5.09062 0.751088 2.56e-19)
(3.27248 -1.07188 -1.54033e-18)
(4.25539 -1.50172 -1.01696e-18)
(4.29048 0.0241832 2.32955e-18)
(5.63788 -0.0473621 -1.31549e-18)
(2.98361 2.02988 -5.81473e-19)
(4.99219 0.0791059 -1.99312e-19)
(2.86963 -0.758681 -3.35298e-18)
(4.33649 -0.033654 -9.01461e-19)
(2.84972 -0.848277 0)
(1.28355 -6.23109 -3.63119e-18)
(4.3238 0.0299609 2.10018e-18)
(2.80162 0.00478763 -2.24532e-20)
(-0.893967 0.653881 0)
(4.16234 -1.90467 0)
(3.98683 0.431117 9.8655e-19)
(2.64501 -0.755335 2.07296e-18)
(1.27656 -6.2505 -3.08933e-18)
(4.91266 -1.54958 -4.61213e-19)
(5.10994 -0.714175 1.19547e-18)
(5.32545 0.570197 0)
(4.00033 0.476911 5.45354e-19)
(6.96464 2.63751 -5.36808e-19)
(4.54848 1.28004 -5.47929e-20)
(4.40011 -0.641622 -1.27708e-18)
(-1.64583 1.17907 -5.49554e-18)
(4.13452 -0.27315 1.41014e-18)
(4.73513 -0.615171 -8.60037e-21)
(4.21041 1.51071 0)
(5.20157 1.7304 5.3093e-19)
(3.93943 -0.135088 2.18771e-19)
(3.41275 0.00992444 2.8849e-20)
(2.29885 -1.13499 2.81573e-18)
(4.34767 -0.658078 1.89995e-18)
(3.26563 -0.991008 -1.90126e-19)
(-1.85352 -0.221098 -1.83014e-18)
(4.55104 0.106092 4.61993e-19)
(4.34568 -0.0486253 8.07076e-19)
(-1.02767 2.05153 -5.69207e-19)
(4.41492 1.16888 4.44295e-19)
(1.68644 -0.438546 -3.67699e-18)
(2.69948 -1.31575 -9.73078e-19)
(3.39823 0.02876 0)
(3.55852 -0.494741 -1.86373e-19)
(-1.46681 -0.198371 -2.10827e-18)
(3.14627 -0.702948 3.08945e-18)
(5.32241 -0.336725 0)
(5.97169 2.0028 -5.30124e-19)
(2.93556 -1.28725 6.98793e-19)
(3.98763 0.0524952 -2.18317e-18)
(-2.18376 0.962396 -2.19396e-18)
(-0.0484246 6.62854 -1.19595e-18)
(4.84063 -0.27555 7.85519e-19)
(4.34483 0.0560835 7.92595e-19)
(4.1068 -1.84661 -1.21103e-18)
(5.48583 -0.101586 1.52815e-19)
(0.310648 -7.20778 -8.90977e-18)
(4.25074 -0.048845 1.00927e-18)
(4.44361 -0.147424 -6.38973e-19)
(4.17433 0.0932825 -1.81816e-20)
(4.97104 -0.00960432 -1.42718e-18)
(2.86018 -1.31026 -1.35102e-18)
(4.90661 -0.189415 0)
(-0.0801272 -4.46003 1.71056e-18)
(4.23178 0.0763073 1.59457e-19)
(5.55327 -0.0926839 1.33378e-18)
(4.60818 0.0230022 2.09509e-19)
(4.98269 -0.80522 -7.31604e-19)
(3.99853 0.0327291 -1.74964e-18)
(4.09621 0.325337 3.1273e-19)
(-2.06139 1.02164 -2.51072e-18)
(4.60386 -0.158796 0)
(3.94325 -2.22218 1.92557e-19)
(4.0562 0.284469 8.1782e-19)
(3.44201 -1.37351 0)
(4.16613 0.0619846 6.45107e-19)
(4.01153 0.101791 1.08039e-18)
(4.55151 -0.170732 1.01398e-22)
(5.94105 -1.84387 2.3503e-19)
(7.60929 -1.31257 0)
(3.67465 0.240358 1.75347e-18)
(3.39884 -0.765349 2.53604e-19)
(3.50913 -1.66869 9.68645e-19)
(4.42315 -0.443594 0)
(3.25517 0.0422524 -2.6705e-18)
(4.89716 3.0977 2.85938e-18)
(4.55627 1.90707 -2.98964e-19)
(2.89086 -0.784893 3.21848e-18)
(5.34003 0.010254 1.37747e-19)
(-1.16621 0.185215 1.10054e-18)
(4.16915 -0.35022 -1.35419e-18)
(4.79671 -0.36882 2.98191e-19)
(3.74314 -0.0356159 -1.26581e-18)
(4.58249 0.0652365 0)
(3.99616 0.0253788 -9.3943e-19)
(-0.0134556 -0.455496 2.85889e-18)
(-0.728604 0.52282 0)
(4.49966 -2.01966 0)
(3.4078 0.006891 0)
(1.47848 -0.732117 0)
(4.0391 0.331907 0)
(2.76494 -0.743692 0)
(2.19463 2.67659 9.1539e-20)
(5.81338 0.636824 -1.24842e-18)
(4.65946 0.379797 0)
(3.64782 0.215259 2.64727e-18)
(3.00332 5.176 -3.82506e-18)
(4.09581 0.212064 1.83338e-20)
(-1.26463 0.65262 -1.04792e-18)
(2.73738 -0.381545 -3.79041e-21)
(-2.13621 1.11246 1.99093e-18)
(3.57745 0.0624422 -6.41264e-19)
(4.7216 0.00152249 -2.71568e-21)
(4.00576 0.302805 -6.82843e-19)
(3.83357 0.0825476 -1.71634e-18)
(3.82062 1.14904 -9.48444e-19)
(5.73047 1.1056 0)
(3.68633 -4.03165 3.03513e-19)
(3.05321 -1.09621 -2.71502e-18)
(4.01887 0.0341648 -2.8561e-18)
(5.37816 -1.4549 -6.73602e-19)
(4.68259 0.00142461 2.21523e-19)
(6.28733 -1.33921 -3.22082e-19)
(4.78253 -0.623706 -1.6537e-19)
(4.73329 -1.16734 -9.93623e-19)
(4.03605 0.178655 7.34556e-19)
(5.45731 2.8452 0)
(7.42977 1.97624 -8.12272e-19)
(3.64688 -0.224025 -3.84527e-19)
(6.12943 -0.404598 0)
(6.89329 -3.40937 0)
(4.2874 -1.91819 -1.32897e-20)
(-0.919079 -0.162581 1.08903e-18)
(2.13098 2.3048 1.2821e-18)
(5.3129 -0.744638 0)
(4.06632 -0.286393 -1.77939e-18)
(3.74694 0.0835914 -3.30545e-19)
(0.563658 -4.71628 9.17541e-19)
(4.17254 -0.135559 5.46505e-19)
(-2.07135 0.98662 0)
(3.25103 -4.10522 3.17176e-19)
(4.19025 -0.0180126 0)
(4.95865 2.22969 -5.2499e-19)
(5.22238 1.19493 -2.93358e-19)
(3.99812 0.0315931 -7.65573e-22)
(4.41901 0.754231 -8.04736e-19)
(4.90246 1.57118 -1.11653e-19)
(3.99184 -1.1995 2.04458e-18)
(5.42432 -3.69983 0)
(-1.75725 -4.9122 -4.28046e-18)
(1.71363 5.71602 0)
(4.72557 0.363515 -3.35485e-20)
(0.467823 -4.414 1.54727e-18)
(4.33363 -2.28387 -3.98137e-19)
(4.17702 -2.48917 -3.0762e-19)
(-1.36253 -3.13488 -4.50825e-18)
(3.1249 -1.51065 -1.12382e-18)
(3.13247 -1.10035 -1.54578e-18)
(3.83874 -0.341233 -6.20001e-20)
(-1.23905 -2.71918 3.47712e-18)
(2.90834 -1.33424 1.11581e-18)
(3.23861 -1.14332 1.73454e-18)
(0.739306 -6.48828 7.00962e-18)
(-0.396604 -4.37135 -8.02694e-19)
(4.22827 -1.34747 1.01958e-18)
(-0.555672 -1.99689 2.23934e-18)
(5.36045 0.0431763 1.07381e-19)
(3.02148 4.95982 3.55346e-18)
(4.36812 0.454346 -2.7393e-19)
(5.20211 -1.11415 0)
(1.25176 -0.721749 -4.17958e-18)
(4.17991 -0.0432095 -1.21452e-18)
(3.99117 0.129625 0)
(4.69719 0.311374 0)
(-1.3413 0.0960573 -1.04839e-17)
(5.3571 -0.753918 -4.98027e-19)
(4.48344 0.218674 -4.94589e-19)
(4.64065 -0.838382 1.8638e-18)
(3.78933 1.14228 8.09194e-19)
(3.26074 -0.00878256 1.53981e-18)
(0.097061 -3.99449 -1.77175e-19)
(3.62326 0.610128 0)
(3.29029 -1.18618 1.68351e-18)
(0.468124 2.45137 4.9904e-19)
(-1.50543 -2.55988 3.3917e-18)
(3.98002 -1.53774 3.31368e-19)
(4.20654 -1.89524 -1.03053e-19)
(3.72385 -0.0121492 8.4338e-19)
(5.46594 -2.84835 3.54531e-19)
(4.4886 0.383142 -1.38562e-18)
(0.118271 -3.57978 -1.02823e-18)
(4.46587 0.22051 3.73673e-19)
(3.97004 -0.0438171 7.19757e-19)
(2.84132 -0.850237 -1.33373e-18)
(4.08051 -0.381338 1.09589e-18)
(2.96979 2.31573 0)
(4.47541 0.420567 4.03083e-19)
(3.99536 -0.00335203 1.61794e-19)
(3.42723 -0.921277 -5.32696e-19)
(3.47395 2.29608 -3.66886e-19)
(4.16347 -1.32682 7.55664e-19)
(4.24238 0.0154967 3.11562e-19)
(3.1597 -0.261924 -2.04506e-18)
(6.03115 -0.444724 0)
(4.25898 -2.1185 -3.35977e-19)
(4.27153 0.0855171 6.0359e-19)
(6.79225 0.0856355 0)
(3.22047 -0.406413 1.15502e-18)
(4.22509 -0.131258 0)
(3.3115 2.27773 1.77789e-18)
(5.38875 -0.00534176 0)
(7.67504 2.47159 0)
(4.65655 0.184899 3.74645e-19)
(4.45127 0.160948 3.23209e-19)
(5.06174 0.15861 -5.82912e-19)
(3.89664 0.0688107 -7.95193e-19)
(3.20257 1.35703 -6.41036e-19)
(3.99841 0.109094 -3.31646e-19)
(4.0784 0.333218 0)
(2.39063 0.168829 -2.06411e-19)
(4.55935 0.151934 -1.81321e-19)
(5.61199 2.14103 1.0319e-18)
(5.19772 -1.11281 0)
(5.15146 0.734619 4.13385e-19)
(3.97946 2.27742 -3.94205e-20)
(5.48393 0.0632884 4.21446e-19)
(1.58047 -4.66132 0)
(-0.319094 1.6045 3.6284e-18)
(4.0577 0.165447 0)
(4.63822 0.320743 6.61474e-19)
(-0.318179 0.175511 0)
(5.03356 0.668544 0)
(-0.620287 0.749977 0)
(4.66496 -1.7247 0)
(-0.421027 2.91833 -4.39347e-19)
(-0.462529 -4.66988 -5.72447e-19)
(3.97882 -0.291637 -1.30086e-18)
(1.92317 -6.15652 -1.78581e-18)
(3.05124 -1.36879 0)
(1.03326 -6.72687 -1.87384e-18)
(-0.625513 0.335425 -4.34913e-18)
(3.63517 -1.70192 0)
(3.44987 -1.30533 -1.77788e-18)
(3.71057 -0.634466 4.61921e-20)
(4.35722 0.433035 6.90606e-19)
(5.65979 -1.80844 1.43376e-20)
(3.82511 0.0438953 0)
(5.09302 -1.54042 0)
(5.27513 0.362562 3.79995e-19)
(4.91155 3.99249 1.03654e-18)
(4.0619 -0.457267 1.16763e-19)
(-1.59254 2.75014 1.13204e-18)
(3.99786 0.0135999 6.93717e-20)
(3.27341 -0.459569 4.27636e-21)
(4.0302 0.189871 1.0594e-18)
(3.99012 -1.78228 9.11874e-20)
(4.31295 -1.20701 0)
(0.239487 0.374216 0)
(5.39883 -0.0753986 0)
(3.23951 0.028539 0)
(3.92703 -0.878169 7.71357e-19)
(4.86737 0.0526347 0)
(-0.336394 2.72487 6.66327e-18)
(3.97851 -5.28062 -5.1165e-20)
(3.18149 -1.16935 -2.62293e-18)
(3.52825 4.97164 1.62797e-18)
(0.1053 -4.74429 -8.90357e-19)
(0.665684 2.92589 -2.99031e-18)
(4.25971 0.0432162 2.47636e-19)
(-0.624425 -2.92352 -1.14365e-18)
(3.87853 -1.59741 1.81495e-20)
(4.75249 0.130585 0)
(5.40492 -0.512595 0)
(0.97354 3.42495 0)
(4.97848 -0.835851 3.84657e-19)
(0.313693 -5.33261 0)
(3.65664 0.6279 0)
(4.00072 0.0185536 0)
(4.0284 -1.076 8.00025e-19)
(4.09641 0.197124 -1.06009e-18)
(2.79384 0.181801 0)
(2.4028 1.91978 1.43742e-18)
(3.96204 0.171638 -9.75322e-19)
(4.55137 1.1024 1.01428e-19)
(3.69061 -1.71653 1.05329e-18)
(3.76359 0.734693 5.92883e-21)
(2.49181 6.82023 -3.62554e-19)
(6.22387 -4.24029 1.94817e-18)
(6.01846 3.97869 -1.51435e-18)
(4.4429 0.166013 -4.32643e-19)
(4.02438 -0.376714 2.72484e-19)
(3.82087 -0.126726 -1.22734e-18)
(4.23027 -0.0430073 0)
(5.65849 -0.131428 -1.00589e-18)
(3.96979 0.00880416 1.29996e-18)
(6.16743 4.08377 4.42807e-18)
(4.75769 -0.594823 -4.85786e-19)
(2.69474 -0.791689 -2.27429e-18)
(4.44585 0.15181 7.30349e-20)
(5.22871 0.389898 6.71135e-19)
(3.99348 0.105889 0)
(1.20407 0.642947 -3.11883e-19)
(5.50535 -1.19675 -8.42486e-20)
(4.81866 4.28874 8.21581e-19)
(2.60469 -3.50856 -6.81636e-19)
(4.15379 -0.0207425 6.79772e-19)
(5.28414 -0.158219 -4.2823e-20)
(5.40397 0.0434082 -1.03077e-19)
(5.44245 -0.0502543 0)
(5.35383 4.1283 0)
(3.40971 -1.63646 1.278e-18)
(-2.13676 0.858134 2.37706e-18)
(3.41358 0.0233307 5.65942e-21)
(3.96889 0.00470758 2.60386e-18)
(1.37247 1.01513 9.60505e-19)
(3.2134 -0.000230617 0)
(3.76958 -0.125194 0)
(3.67749 -0.985448 -1.18417e-20)
(4.41754 0.0934494 5.63124e-19)
(3.82592 0.678334 1.51901e-18)
(5.06063 0.458188 0)
(4.34589 -0.035473 0)
(4.8063 -1.29862 1.32115e-18)
(4.35509 -0.437603 1.04123e-18)
(2.33647 -1.4448 -3.53248e-19)
(5.79386 0.00834883 0)
(4.68863 0.287782 3.46707e-19)
(2.79096 0.434703 4.2714e-19)
(-1.9404 0.0327178 -2.45123e-18)
(4.21493 -0.141975 -1.44279e-18)
(6.06699 0.369042 0)
(5.49404 -0.535068 3.74628e-19)
(2.53657 -4.55918 -4.8996e-18)
(0.772238 -0.399782 0)
(3.50103 0.025923 2.58507e-19)
(3.90527 0.0121769 -8.44646e-19)
(3.32488 0.0323089 2.51702e-22)
(5.59574 1.03303 5.11548e-20)
(4.3259 3.65778 1.36337e-18)
(4.18276 0.0375202 0)
(2.69018 -1.1062 -1.46586e-20)
(1.54684 0.993545 -9.19393e-19)
(4.12677 0.859158 -5.35147e-18)
(4.02619 0.288776 8.12659e-19)
(5.96173 -3.39078 5.35255e-18)
(4.19908 0.0058878 -3.19415e-18)
(3.24622 -1.00216 1.13882e-19)
(4.81141 -3.74364 1.13809e-18)
(3.94692 -1.01416 0)
(4.91807 -0.357614 -1.03643e-18)
(2.85326 -1.35847 8.84638e-19)
(4.82632 -0.110067 -1.59222e-18)
(3.99587 0.00872694 -1.175e-18)
(4.69355 0.401668 -6.13156e-19)
(3.73953 -0.635153 2.8533e-18)
(5.136 0.0487104 -1.26885e-19)
(3.76019 -0.109752 7.19307e-19)
(3.75631 -0.428795 2.13539e-19)
(5.21615 -0.31076 -4.91723e-19)
(4.44556 1.24795 1.78396e-19)
(0.962263 -6.15079 2.35133e-18)
(4.12729 0.00809973 0)
(-0.337381 3.32762 0)
(3.69492 -0.740169 0)
(3.17868 -1.11258 2.00363e-18)
(4.16418 0.065972 -1.89307e-18)
(3.72227 0.0925981 0)
(3.50973 -0.94692 -1.5938e-18)
(3.72289 0.0376471 0)
(3.93644 -0.811705 -1.26741e-18)
(4.87732 2.49729 1.06861e-18)
(4.25655 -1.15636 -1.12616e-18)
(4.26557 0.0373964 0)
(3.9871 -0.0580587 0)
(5.91957 0.264188 -5.22877e-19)
(4.63297 0.295323 -3.29022e-21)
(4.66697 -0.01878 -9.08291e-20)
(4.27477 2.46427 -7.36886e-20)
(5.30874 0.689505 0)
(3.99783 -1.49498 -5.66136e-19)
(-0.593717 0.532254 0)
(2.19056 0.851166 -1.21822e-18)
(4.91715 1.54341 0)
(5.18682 -0.128791 9.11094e-20)
(2.87559 -0.718378 8.79417e-19)
(3.46359 -0.612798 8.9371e-19)
(4.98682 0.0952878 5.80929e-19)
(2.20286 -4.79378 -3.81475e-18)
(4.30801 -0.500619 2.63166e-18)
(4.05265 0.312993 -1.58511e-20)
(6.06561 -1.32331 3.76627e-19)
(4.48483 -0.97932 -5.65586e-19)
(-0.340595 0.320942 1.89019e-18)
(4.69264 0.505416 0)