/*--------------------------------*- C++ -*----------------------------------*\
| =========                 |                                                 |
| \\      /  F ield         | OpenFOAM: The Open Source CFD Toolbox           |
|  \\    /   O peration     | Version:  2306                                  |
|   \\  /    A nd           | Website:  www.openfoam.com                      |
|    \\/     M anipulation  |                                                 |
\*---------------------------------------------------------------------------*/
FoamFile
{
    version     2.0;
    format      ascii;
    arch        "LSB;label=32;scalar=64";
    class       surfaceScalarField;
    location    "4.6";
    object      phi;
}
// * * * * * * * * * * * * * * * * * * * * * * * * * * * * * * * * * * * * * //

dimensions      [0 3 -1 0 0 0 0];

oriented        oriented;

internalField   nonuniform List<scalar> 
20045
(
0.867832
-1.05011
0.182277
-1.76539
0.824614
0.940771
0.314006
2.90426
-3.21827
0.946962
-1.30873
0.361771
-1.60444
1.43524
0.169192
-0.735699
2.97855
-2.24285
-1.80253
0.487423
1.31511
0.0962364
0.806094
-0.90233
0.842545
0.742195
-1.58474
-0.884292
-0.39927
1.28356
0.275497
0.00141499
-0.276912
2.94431
-1.61993
-1.32438
0.724489
-0.698825
-0.0256633
-1.69679
1.29383
0.402964
-0.301625
1.69785
-1.39623
-1.46747
0.583182
-0.0247244
0.203417
-0.178692
1.7343
0.089783
-1.82408
-2.40815
3.40295
-0.994796
-1.16826
-0.138868
1.30713
1.50549
-1.27599
-0.229497
0.272396
0.452093
-0.460325
-1.30506
1.7213
-0.152182
-1.56911
1.31804
0.0345074
-1.35255
0.173621
1.54767
0.0286139
-0.0540996
0.0254857
-1.64074
3.68672
-2.04598
1.9479
-0.0422522
-1.90565
-4.1969
3.1007
1.09621
0.122357
-1.70111
1.57875
2.17572
-1.97843
-0.197294
-0.432458
1.75031
-1.31785
4.82918
-2.92556
-1.90362
-1.02801
1.12425
2.73814
-1.34281
-1.39533
1.76128
0.820396
-2.58168
-0.119249
0.722294
-0.603045
-4.68303
3.25137
1.43166
1.07721
0.862636
-1.93984
0.0329202
0.858863
-0.891783
0.330511
-0.462737
0.132226
4.10217
-4.03204
-0.0701205
2.05033
-0.576027
-1.47431
0.796967
1.25337
1.50832
1.43599
-0.028093
-0.00980333
0.0378963
1.14737
0.879912
-2.02728
2.7681
-1.00682
0.344014
2.43961
-2.78362
1.98772
-3.29456
1.30684
4.34552
-2.49401
-1.85151
-0.867276
-1.53795
2.40522
-0.155797
-0.565094
0.720891
0.13646
1.60842
-1.74488
-1.22515
-0.379282
0.785311
1.41555
-2.20086
2.99372
1.36936
-4.36307
1.72989
-2.16234
2.8288
-2.39671
-0.432093
0.370527
-0.0153012
-0.355226
0.643439
2.18536
0.964663
-2.18221
1.21754
1.10683
0.398659
0.691153
-1.9502
1.25904
1.91041
0.907706
-2.81812
-0.411413
1.19968
-0.78827
-1.05718
0.0290007
1.02818
1.50937
-0.66682
2.21659
-2.29694
0.0803506
-1.00934
0.597924
-1.69107
1.82753
-0.520657
-1.66108
2.18173
0.217058
-0.142133
-0.074925
2.19265
0.0747318
-2.26739
1.91725
-1.13194
-0.599154
2.79181
1.0227
-1.32432
0.241565
0.0789549
-0.32052
4.12786
-2.73573
-1.39213
1.30989
1.49492
-2.80481
1.29944
-1.26484
-0.034604
1.87171
-0.907052
-3.31992
0.371624
2.94829
-0.0655236
0.933355
-0.401381
0.718116
-0.316735
-0.765334
-0.426465
1.1918
-2.37944
0.0571641
2.32227
1.4004
0.49886
-1.89926
-1.26297
0.923582
0.339387
-2.56329
0.460063
2.10323
1.35036
-0.291825
-1.05853
0.697408
-1.09714
0.399734
-0.487703
-1.14893
1.63663
1.07025
-1.14281
0.0725502
1.64384
0.565877
-2.20971
0.0933063
-0.0646924
-0.0341497
-0.877137
0.911287
2.09934
-1.02214
-0.0941734
0.263277
-0.169104
1.86475
0.873396
-0.743974
-0.952818
-1.1621
1.12795
-1.62423
4.61794
0.249934
-0.651315
-0.322981
0.228807
0.544612
1.92043
-2.46504
1.40476
-4.4515
3.04674
0.213472
-0.868271
0.740905
0.127366
-0.499445
0.626745
-0.1273
2.05148
-1.91153
-0.139953
-0.904753
0.748956
2.2979
-3.46293
1.16503
-0.483906
0.660492
-0.176586
0.0936418
-0.602682
0.50904
1.53561
-0.217571
3.75536
1.07382
-2.00657
1.48591
1.76833
-2.9972
1.22887
-0.686209
2.42051
0.326352
0.0441758
-1.41126
1.14864
0.262619
-3.27827
0.188704
-1.06852
0.879816
2.41923
1.92629
1.79548
-2.44739
0.651912
2.32834
0.226222
-2.55456
-4.66203
3.68088
0.981153
1.8038
0.0180842
-1.82189
4.33656
-1.91733
-0.111094
0.101291
0.413696
-0.203196
-0.2105
-0.0425555
0.0197067
0.0228488
1.73068
1.18442
-2.9151
1.88954
-1.57411
-0.315426
-0.365535
-0.0293987
0.394934
-0.619007
-0.249264
3.287
-1.51867
-1.19156
1.2436
-0.0520441
1.35278
-2.80316
1.45038
1.00323
-1.8705
1.04927
1.21874
-2.26801
3.04077
1.08709
3.56101
-0.478025
-3.08298
0.626023
-1.51804
0.892018
1.94538
-1.12127
-0.824116
-0.481468
0.425724
0.0557441
-0.200826
2.91312
-2.71229
1.88423
0.0636706
-2.45974
0.0580764
2.40166
-1.79515
1.3706
0.424543
2.52902
-1.21913
0.226351
1.07309
-1.88845
2.15187
-0.26342
-2.45161
2.76561
0.031373
-0.753664
0.722291
0.00682689
-0.222589
0.215762
-0.0654239
-0.680085
0.745509
1.60737
0.682602
-2.28998
3.70668
-1.80255
-1.90413
-0.809697
0.744273
2.40714
-2.50247
0.0953366
0.404484
-0.0739734
-4.11823
-1.32985
1.70818
-0.378325
-1.72391
1.40984
0.314076
-0.0172876
-0.242922
0.260209
1.11056
0.834819
-0.0431667
0.000611181
0.0233409
0.390356
-1.94604
0.0575881
-2.25151
2.78243
-0.530919
-2.31948
2.41944
-0.0999608
-1.51606
-1.02417
2.54023
-1.1751
-0.118958
1.29405
0.985478
-1.22878
0.243299
2.39758
-0.0500005
-2.34758
-0.0927501
-2.2204
2.31315
-1.51793
2.56721
0.677116
-1.89621
1.2191
-1.26757
3.56548
-2.48832
1.93366
0.554658
-0.376795
0.417492
-0.0406976
1.4391
-3.04258
1.60348
-2.8946
1.25386
-3.09663
-0.734024
3.87226
-2.8379
-1.03436
-1.07448
1.1074
0.595996
-0.636866
0.04087
-1.89443
-0.92971
2.82414
-2.75841
3.98746
-1.22906
4.36779
-4.03154
-0.336249
-0.151036
-0.474933
0.625969
-2.43936
-1.84718
4.28655
-0.0119425
0.287439
1.51563
0.288175
-1.97163
-0.61059
2.58222
0.422575
0.107561
-0.530136
0.168368
-1.49822
1.64044
-1.51809
2.43608
-0.107739
-0.59686
0.477611
-0.673016
0.822197
-0.149182
-1.08891
2.69629
-4.60903
2.16966
2.70675
-1.41031
-1.29644
-2.32662
0.585504
1.74111
0.629306
3.73848
3.27162
-1.83252
2.80357
-4.15621
1.35263
-0.698825
0.668337
0.0304877
0.295258
-1.46352
-1.57989
2.12451
1.82577
-2.56147
-2.14095
-0.514319
2.65527
-4.42024
1.87707
2.54317
-0.33664
-0.92633
0.607282
0.58071
-1.18799
1.71237
-0.487823
-1.22455
0.238553
-1.99734
1.79651
-0.90856
-0.283001
1.73505
2.01538
-2.12894
0.113563
-0.0422028
-0.51074
0.552943
1.81314
0.227128
-2.04027
1.40021
0.132812
-1.53302
1.83885
1.94125
-3.7801
-1.62382
0.858487
1.96056
-1.28345
-0.449913
1.19818
-0.748269
2.35872
-1.00594
0.440239
-0.0338335
-0.406405
1.14116
0.273266
-1.41443
-0.493743
0.513242
-0.0194995
4.09988
-2.99522
-1.10466
0.870091
-3.6285
-0.547181
0.0534389
-2.54107
0.58553
1.95554
3.02368
-1.27337
0.671454
-2.92296
4.85667
-2.39817
-2.4585
-0.0636679
0.486243
3.63036
-3.34516
-0.285195
-1.82222
0.206711
1.61551
-2.92655
2.82744
0.0991111
2.34669
-3.09727
0.750576
0.0440552
0.0284745
-0.0725298
-1.46877
1.70699
-0.238218
-0.272574
-0.580774
0.853349
-0.613426
0.129519
-0.603426
0.103981
-1.55845
-2.89305
4.56114
-4.80018
0.239042
1.61199
-0.660632
-0.951358
1.75493
0.420796
-0.48251
-1.65844
-0.00417898
0.0110059
1.23532
1.78836
-1.68535
0.30815
1.3772
2.69536
0.935
1.45398
0.243873
0.99066
0.62133
-1.02055
-0.131952
1.15251
-0.0356017
-0.341193
-2.79599
4.63484
-1.34248
2.14294
-0.800456
-2.89678
2.77358
0.123201
1.33368
0.996624
-2.33031
-0.27643
-0.565555
0.841985
2.23579
-2.54442
0.308634
-2.05518
-2.36506
3.04537
-2.25046
-0.794909
-0.405454
0.363251
3.25499
-0.908296
-1.11566
5.6768
3.58728
-2.53444
-1.05285
4.83161
-2.64543
-2.18618
2.18523
-0.697257
-1.48797
1.20177
2.38551
2.79561
-1.67173
-1.12387
-0.672211
2.49739
-1.82517
0.163499
-1.28167
1.11817
0.0710745
-0.378492
0.307418
0.153491
0.0642519
-0.217743
3.09669
-2.6634
-0.433285
-2.48257
-2.17946
1.83337
0.182004
-2.61115
-0.285634
-0.330551
1.47171
1.67853
-2.69957
1.02104
0.0118846
0.584111
-1.60498
3.33566
1.13791
2.96197
4.34275
-3.08701
-1.25574
-2.6811
2.07051
1.94166
-2.88102
0.939358
-1.84947
-0.289723
2.13919
-1.03686
-0.542775
1.57964
2.19772
0.209416
2.18897
0.517788
1.06396
-0.563091
-1.41534
-1.85192
3.01217
-1.16025
-0.80391
0.130895
-0.655647
0.205734
0.258297
-3.18484
-1.0819
-0.541916
0.873675
-0.733164
0.938688
-0.205525
-0.119683
1.06665
-1.3253
0.805671
0.51963
1.56856
0.482926
-0.313537
0.654987
-0.34145
1.32913
0.560405
-0.905518
2.58404
1.77088
-0.370475
-0.816973
-1.50964
5.85879
-2.86568
-2.99312
2.73081
-3.15142
2.11905
1.03236
2.34532
-2.65167
0.306352
-1.52403
1.03633
-0.499005
0.13347
-0.982408
-1.58088
1.10593
-1.88225
0.77632
1.37558
1.42003
1.59865
-2.58965
0.990992
0.936265
-1.87944
0.943179
-2.92023
0.540788
0.0818249
1.26853
-2.30757
2.34593
-0.0383655
-0.560504
1.01517
-0.454662
-1.69887
-0.103665
-0.454777
-0.810492
1.26527
0.438597
0.000227987
-0.438825
-1.06342
-0.731724
0.969067
1.40663
-2.3757
3.18651
-0.491153
3.0628
-1.34568
-0.178352
1.67842
-0.742156
-2.22597
-0.262346
-0.41972
0.354113
0.0656069
1.99912
-0.851748
-1.67009
2.51796
-0.847873
-0.483075
0.584442
-0.101367
1.812
-0.0996324
-2.05634
-0.643226
-1.73239
2.99196
-1.25957
1.55925
-2.59376
1.03451
1.11028
1.93509
-0.0756708
0.128566
-0.0528955
0.428472
-2.27794
1.76385
-2.687
0.923154
0.0873785
0.12968
-0.349349
2.14483
-1.8557
0.77379
-0.174965
-0.52386
0.471131
-2.87928
-2.28536
1.95767
0.327691
2.1128
-0.553598
-1.5592
2.8621
-0.626312
-2.31983
-1.3532
-1.18017
1.34753
-0.0697628
-0.308266
0.378029
1.00914
-1.14801
-2.47414
2.12479
3.16873
0.933437
-2.61261
0.942523
2.01913
-0.185756
0.891049
-0.666807
-0.224242
-0.108816
-1.57286
1.68168
-2.69061
0.472845
2.21777
2.49744
-2.49744
-2.31318
3.00226
-0.689082
0.466101
-0.779638
1.53699
-0.935552
-0.601442
-2.99578
3.1079
-0.112128
1.20596
-0.121977
-1.08398
0.95955
-0.263162
-0.696388
0.517425
-0.793855
-0.180857
4.33044
-5.4461
-2.32167
2.77671
-0.455041
-0.941036
1.9101
-0.237973
-0.0388558
0.276829
-0.351551
1.32514
-0.973591
-1.16818
1.46344
3.8739
-2.58557
-1.28833
-0.379192
-1.4357
1.8149
-0.890663
0.924085
-0.0334218
0.641102
-0.923852
0.28275
-3.02723
1.50509
1.52214
-0.856869
-0.451864
0.84133
0.0497192
0.00561652
0.256093
-0.261709
1.60592
1.49076
-0.26434
0.0263668
-0.372151
-0.536035
0.908185
-1.63309
2.61129
-0.9782
-0.0523986
0.599283
-0.546885
1.52426
-1.03683
0.63725
0.19838
-0.83563
0.284674
-1.4336
0.482348
1.91523
1.50456
0.890346
-2.39491
1.5858
-1.1499
-0.435902
-3.03388
0.574137
-0.943028
0.512048
0.43098
0.75629
2.29118
-3.04747
-2.01404
1.72432
0.21068
-2.73611
2.52543
-0.53016
0.379124
-0.456734
0.510324
-0.0535897
0.119953
-1.14051
-0.383322
0.490186
-0.106864
-2.14839
-0.392676
1.82768
1.90861
-0.581872
-1.32674
-0.552042
0.0689673
0.341069
-2.01554
1.67447
0.569399
1.44478
-2.01418
0.785254
-2.08916
2.42186
-0.332705
-2.25315
1.58094
-0.0528597
-0.00123992
-1.15012
-0.573797
-0.960856
0.196772
0.764083
-2.8182
1.18511
1.86882
-2.24802
0.398778
1.62035
-1.13711
1.09467
0.0424409
-0.373379
-2.47453
2.84791
0.698717
-0.991574
0.292857
0.663993
-2.72034
-2.05622
-0.263266
-1.18075
0.123573
0.338473
0.0966766
-0.43515
1.81872
0.110555
-0.128355
0.0178004
2.85312
-2.09683
-0.476805
2.09701
-1.6202
0.853897
0.712727
-1.56662
-1.0032
0.473041
-0.872742
-0.0881132
0.895271
0.641723
-1.09143
-1.90577
-0.25215
-0.16757
1.7477
1.45597
0.31491
-2.38864
2.73266
0.107301
-1.00185
0.894552
-0.277702
-2.47038
2.74808
0.760652
-0.828457
0.0678051
0.481841
-1.65694
-0.832871
0.99637
1.66129
-1.03527
-0.941503
-0.383798
-0.101521
-1.34937
1.45089
0.998494
-2.51455
-0.107962
-1.37301
1.48097
0.416973
-1.38446
0.96749
-1.86753
-0.0429831
1.91051
2.08603
-1.20612
0.027688
0.384585
-0.412273
-0.784554
-0.106109
0.661037
1.16951
-1.83054
0.505076
-0.611762
0.106686
1.62601
0.922439
-2.54845
-0.942206
2.58604
0.413884
0.024713
-1.73447
-2.47421
4.20869
1.40966
1.87733
2.44878
-1.87938
-1.25807
0.80329
0.257115
-0.103624
-0.796165
2.73783
0.321788
-2.25122
1.92943
2.48034
-0.353257
-2.12709
-1.03311
1.78397
-0.75086
1.12548
-0.952691
-1.12953
2.08222
-0.261199
0.270097
-0.00889875
-0.809928
-1.48029
2.29022
0.968067
-1.31962
0.258185
-0.275472
1.5426
-2.35253
-2.05863
-0.694124
2.75275
-0.00239228
-1.63404
1.63643
0.871703
3.28597
-3.45211
0.16614
0.702164
-0.231394
-0.47077
-0.0348316
-1.10228
0.729912
0.90672
-1.18843
0.151569
-2.37984
2.97421
-0.594374
0.471354
-1.81383
3.70222
-0.661444
-3.13047
-0.901575
0.156683
0.192544
-0.349228
1.59735
-0.141385
-0.743934
0.814562
-0.0706279
-0.91966
0.647086
-3.95401
0.857388
2.5243
0.454257
-0.196513
0.837615
-0.769289
1.62319
5.8533
-1.52286
-0.762332
0.0183987
-0.425813
-2.04832
0.675069
0.84426
-0.812887
-2.7655
0.0748868
-0.359981
0.76461
-0.0658931
-2.8199
1.46363
1.35627
1.88723
0.329358
0.756566
-0.291438
-0.465128
1.02935
-0.92927
-0.100082
-2.10654
0.763731
-3.32768
1.59529
-2.00358
1.54925
0.454333
0.0292978
-0.824585
0.795287
3.01697
-0.0722496
-2.94472
0.692164
0.0541282
-0.746292
-0.476935
-0.934328
0.839982
-0.142574
-0.258628
0.246784
0.011844
1.40509
-0.154714
-1.25038
-0.043808
-0.21482
1.90058
-1.3347
-0.0927066
-0.535539
0.628245
-3.03563
0.655789
-0.0392419
0.0695787
-1.23168
0.217776
1.69084
0.0964746
-0.100654
0.83181
0.599706
-1.43152
-1.04855
1.7397
0.981349
-0.874049
0.785323
-0.691681
0.44075
-1.00125
1.31289
-2.90983
1.59693
1.78437
-0.35455
-1.42982
-1.08152
-0.436519
0.789199
-0.338763
-0.450436
0.828881
-1.02903
0.200149
3.25328
-0.0891488
-3.16413
0.400843
-0.258053
-0.14279
-1.56232
2.21206
-0.649734
1.65752
1.47979
-3.13731
-0.456573
0.441272
-0.960489
1.50037
-0.539882
0.791512
0.305516
-1.09703
-2.46413
1.90185
0.562279
0.200436
0.0463471
-2.54536
0.486735
1.11102
-0.625672
-0.485345
1.17267
-1.68867
0.516004
-0.409618
-0.640491
0.335307
2.95066
2.48781
-0.495637
-1.99218
-2.35222
0.263067
0.963107
-1.78008
2.54521
-4.22215
1.67694
-0.402509
1.00979
0.0176355
-1.0477
0.67555
-0.566455
0.755159
-0.518205
-3.64324
4.16144
2.53161
0.723376
-2.20925
2.36331
-0.154053
-0.0796373
0.41811
-1.77074
-0.485776
-0.447
0.502297
-0.0552976
0.434631
-1.28498
0.850352
0.250578
0.692159
-0.942736
-0.406256
1.57892
-1.25157
-0.951753
2.20332
-2.52546
-0.777502
3.30297
1.24296
-1.16361
-0.0793568
-0.861789
0.0786524
0.783137
0.110114
-0.171553
0.0614387
-2.74194
0.101753
2.64018
0.055425
0.717298
-0.772723
2.27076
-2.51965
0.248882
-1.25808
1.25927
-1.64357
0.384299
0.0466503
-0.49365
-0.668838
1.77158
-1.10274
2.38635
-3.65393
-2.83885
2.48185
0.357002
0.605715
-0.100639
3.36989
0.332329
-0.284439
-0.331991
0.61643
-0.0439797
0.612771
-0.568792
-0.42157
2.03628
-1.61471
0.987912
-0.146864
-0.841048
3.0265
-2.88445
-0.142048
1.97607
-0.862269
-1.1138
0.112946
-0.820976
0.70803
-1.02446
-0.0440638
-3.24288
2.822
0.420879
0.124549
-3.36743
0.326077
1.05875
-1.38482
-1.39901
-1.26439
0.774592
-0.594783
-0.179808
-2.35751
-0.678121
-0.716512
0.520047
0.196465
1.79947
-0.399259
-2.95329
2.80591
0.147374
-0.480528
0.0169418
-0.159075
0.750388
-0.0582247
-1.6276
0.158826
0.633416
-0.657081
0.0236653
-1.13602
-0.9045
2.04052
1.31295
-0.106998
-0.773519
1.57528
0.236725
1.13096
1.6811
0.172862
-1.85396
-0.411696
1.39717
-2.11639
1.3444
0.771988
0.272135
-0.071699
3.36448
-0.832863
1.74548
-2.11886
-0.372182
-0.579995
0.952177
0.433285
-3.49884
3.06556
1.84098
-1.84337
2.45772
-1.07273
-1.38499
-0.0224978
-1.75871
-0.357675
-1.24841
2.6103
-1.36189
0.122392
-0.76279
3.56636
-3.10934
0.751836
-0.203774
0.274849
-0.423106
-0.166297
0.52936
-0.0161178
-1.24074
-1.27179
2.68992
-0.77267
0.853627
-0.172745
-0.680882
0.119603
0.839946
-2.67313
-1.49282
4.16595
2.1669
0.0308235
-0.0240553
-0.536388
0.560443
2.46057
0.449764
-0.12263
-0.327134
-1.60815
2.92104
-1.10805
-2.8245
0.502835
-0.777314
0.0450245
0.73229
2.30861
2.54806
1.3418
-0.397138
-0.944662
2.88797
0.138525
1.93016
-2.73904
0.808876
-2.41272
0.0372219
2.3755
-2.61782
3.34506
-0.727236
0.533646
-0.0259403
-0.507705
-1.29498
3.68133
-0.713168
1.65165
-0.938485
0.133205
-2.34246
2.52908
-1.05476
-1.47432
-2.66033
3.43071
-0.770381
-0.749706
1.85849
-1.10879
3.48698
-1.54223
-1.94475
0.177111
-1.80813
1.63102
0.421355
0.0889694
-1.18689
2.84442
0.691726
-3.00491
2.47157
-0.912324
-0.653889
0.561182
-2.47646
0.0637406
2.67658
-1.07793
0.120358
-3.44027
0.911367
-0.0525042
2.51744
2.21434
-4.73178
1.66196
-0.567276
-1.09468
1.07444
-2.46604
1.3916
-0.604121
0.0329753
0.571146
-0.684156
-1.56738
2.25154
1.17282
-0.732075
-1.86674
2.88919
-1.02244
0.408025
0.546024
-0.954049
0.250418
0.524174
-3.36777
4.01486
-0.647092
0.809725
-0.0490727
1.39213
0.75097
-2.1431
0.45532
2.16581
-2.62113
0.686567
1.42624
-0.0915248
3.65253
-0.0430844
2.37728
-2.33419
-0.0158053
-0.0365932
0.0884427
0.00214395
-0.0905867
0.817738
-0.61677
-0.200968
1.1223
1.33542
0.267066
-0.18142
-0.0856451
-0.669618
2.28995
-1.62033
-0.0458219
0.682288
-0.636466
-1.13442
-0.716052
1.85047
-0.821604
-0.826775
1.64838
2.14092
-0.327782
0.685559
0.976397
1.40965
-2.45851
1.04886
0.957846
-2.39355
-0.615978
0.652589
-0.036611
0.650972
-0.0799005
-0.571071
-0.08672
0.508075
-0.139049
2.14236
-2.00331
-0.49575
2.93536
2.17124
-1.90753
-0.263708
2.04763
-1.54877
-1.3988
0.643423
0.755375
0.108803
-1.04436
-1.44675
0.938885
0.507868
0.262513
0.494052
0.452675
2.18025
-2.63292
0.809117
0.595974
0.400372
-2.92584
-1.6247
0.510259
1.11444
-1.14628
-0.752095
1.89837
1.6764
-0.844586
-2.5205
1.57946
0.909642
-0.71012
-0.199522
-3.91503
5.77718
-1.86215
-1.2802
1.56487
-1.81971
1.93292
-0.113207
-1.62662
4.59711
-2.97048
-0.0708831
0.742284
-0.671401
0.805734
-0.776436
-1.64874
-2.05605
3.81173
-1.75568
-1.66502
2.25053
1.45513
-1.7043
0.249168
0.267879
-1.49873
1.23085
-3.00627
1.84199
1.16428
-0.070718
-0.460105
0.530823
-0.339921
1.64057
-2.06214
3.13203
-2.69875
-0.274984
-2.01038
-2.11701
2.07393
1.26563
0.144208
0.796569
0.412728
-1.2093
-1.14459
1.07576
0.0688333
2.42717
-1.25401
-1.17316
-0.975255
1.82577
-0.850518
-2.85985
-0.167895
3.02774
-2.0107
-0.543761
2.55446
1.37337
-1.10549
0.327682
0.490056
-3.46568
1.31507
2.15062
1.46219
-1.12418
-0.33801
0.022624
0.708147
-0.864412
0.156265
-1.61756
0.713608
-1.68886
0.50959
0.717132
-0.604186
1.26345
-0.828816
-1.5555
1.57358
0.105622
0.964633
-0.279746
0.287295
-0.00754901
-2.15232
-1.69899
3.85131
2.39889
-0.989242
-1.46211
-0.113261
1.57537
0.359948
0.709053
-1.069
0.00586683
3.31924
-2.13641
-1.18283
0.606886
1.88093
0.130227
1.50299
0.836293
-2.33928
-1.66278
2.06574
-0.402961
-1.60387
-0.57786
2.18173
-1.54217
0.581682
-0.862077
-0.536721
3.19284
-1.483
-1.70984
-0.690614
-0.650946
1.34156
0.857728
0.388969
-1.2467
-0.630399
0.685824
-0.47313
0.43785
0.0352807
0.801553
-0.0830537
-0.726643
-0.039592
1.81084
1.382
-0.515132
3.7665
-0.61181
3.71251
-1.15
0.459387
-2.3188
0.714931
2.26317
-1.8347
-0.466094
-2.07808
0.515752
1.29272
-0.966643
1.83909
-1.94791
2.50085
-0.155536
-0.626091
-0.47105
-0.406333
-0.336291
0.742624
-1.0312
-0.11161
2.32236
0.393812
-2.71617
-0.165208
-0.752486
0.917694
-0.295453
2.43621
-3.46672
1.03051
2.4037
-0.132937
-4.48629
4.74051
-0.254218
0.637449
-0.608448
-2.46728
-0.538984
-0.690772
2.87699
-0.054985
1.93828
2.97079
-1.21578
-1.75501
-1.65818
-0.188357
1.84654
0.490177
1.23174
-1.72191
-2.14504
0.277513
-0.625326
-0.0814512
0.706777
-1.43813
1.75992
0.575631
1.35052
-1.92615
-1.17185
0.0565744
1.11528
-2.51561
0.246196
2.26941
-0.372202
3.50423
-0.865206
1.31367
0.662395
-0.502832
-0.440197
2.82024
-3.29827
-1.54221
0.298587
1.24362
-0.487408
0.0308353
2.0241
0.0216702
-2.04577
2.96327
-3.57508
-0.00631975
0.050375
-1.06652
1.92991
-0.863386
1.33833
-2.00717
-0.0806848
0.971298
-0.890614
0.187036
-0.244971
0.0579357
1.56712
-1.08528
-0.91476
1.87787
-0.370609
-1.63297
-0.551087
0.597737
1.84981
-1.71699
0.131878
-0.103404
-0.67712
0.648076
0.0290443
0.724447
-0.793402
0.0689552
-1.85175
1.92648
0.206691
-1.6688
-0.106091
-0.968393
-0.178443
1.78516
-1.60672
1.08497
-1.21693
0.517572
-1.85737
1.3398
-2.37643
4.18938
-1.81295
1.08505
-2.93697
2.70476
-0.0655812
-2.77327
0.700795
1.98913
-2.10303
-0.417474
-1.09337
-2.05805
-1.40931
0.598815
0.00652232
0.0955756
-0.102098
4.38151
-2.0729
2.29063
-0.526785
-0.738196
-0.568244
1.30644
-2.94203
1.4526
1.48943
0.293383
-0.291968
1.65102
-0.391755
0.57313
-0.300734
-1.12483
0.852272
-1.56544
-0.374461
0.346263
0.0281985
-0.370978
2.69334
1.24389
-0.706117
-0.537769
2.78305
-3.40161
1.6019
1.79971
0.559764
0.876617
-1.43638
-0.436449
-1.2086
1.64505
-1.7484
0.998691
-0.434568
-0.237099
1.09483
2.64462
-2.92232
1.37862
-0.587109
-1.03873
1.99657
-2.40277
1.71558
0.687193
-0.466027
-1.26572
1.73175
-1.9655
2.22122
-0.255715
0.91677
-1.32847
0.0451736
0.391072
0.851893
-2.65266
-0.0830698
3.27316
-5.44693
0.729736
4.7172
0.689788
-2.34797
1.92074
0.0487506
-1.87097
0.36883
1.9472
3.10294
-1.11112
-1.99182
-1.60129
0.802055
-1.94833
0.587594
-2.62036
2.432
-1.8301
0.877412
1.3443
-0.781549
0.357806
0.423743
-3.69896
1.78382
1.91514
-3.50568
-0.679919
1.09689
-2.97373
2.12995
0.843785
2.44666
-3.74164
-3.35311
-0.0146534
4.23354
-1.68832
2.78817
-1.58147
-1.2067
-0.081342
-0.522863
0.604205
0.379046
1.17582
1.52305
-0.600405
-0.181144
0.327714
0.845111
0.469021
1.21658
-1.68561
1.30027
-0.719558
-0.147481
-2.78535
2.93283
-1.0764
0.727973
-2.24591
-1.89756
-1.37345
3.27101
0.809911
-1.10174
-2.19497
0.714956
1.48001
-0.110928
0.139812
-0.0288842
3.76131
-4.27951
0.754
-1.82052
0.886834
0.433839
-1.32067
0.47145
0.382177
-2.54172
0.776432
1.76529
-1.77678
0.955177
0.327039
-1.98982
-0.326896
-1.21531
-0.188003
0.0770754
-0.091058
2.5714
-1.69721
2.28979
-0.592578
2.34441
0.00780235
-2.35221
-1.8475
-0.0385853
-0.694578
0.137606
2.35983
0.480355
0.104087
0.0368452
-0.119478
0.585579
1.50162
1.68218
0.744993
-2.74757
-0.205719
-2.33733
-0.0737782
-3.27139
0.617015
0.597711
-1.21473
3.43837
-0.0585667
-3.3798
-0.400427
0.374486
-1.11213
-2.21555
-2.22544
-0.426236
-0.808638
3.77191
-0.992344
1.51485
-0.522503
-3.13916
0.986843
-1.00967
1.47869
-1.42033
-1.39957
-1.22881
-0.633575
0.876874
0.900202
-2.03622
3.33974
-0.462757
-0.125151
-0.383916
0.509067
0.386412
0.81177
0.90492
2.93605
-2.72537
-0.230215
-0.703003
1.10274
-1.35267
1.66082
-1.50749
-3.23788
0.711856
0.579578
-1.29143
-2.54702
0.0495831
-0.481635
2.32078
-1.83915
-0.510999
-3.97529
-1.8279
2.05503
3.58851
-1.75109
-1.83741
-0.152716
0.664764
2.3784
-0.846507
-1.53189
0.873708
-0.956762
0.0957007
-0.00725795
-0.31656
-0.157569
0.474129
-0.382384
1.17895
-1.40779
3.85445
0.0187197
-0.613503
-0.821325
-0.389276
1.2106
-0.0871382
3.84845
-2.44254
1.12281
1.31974
-1.16536
1.82639
1.03069
1.25926
-1.34255
-0.282151
1.71452
-0.633519
-1.081
-0.0405037
-0.0673745
0.107878
0.218566
-1.93899
1.72042
-2.69045
0.465015
0.708508
-3.34099
3.26721
-0.0214977
0.895206
0.540812
-1.53316
-2.43131
1.25113
-2.63688
0.834334
-1.49089
0.322702
-0.967561
-1.80888
2.77644
-2.83548
-0.182155
0.0724482
0.109707
2.47321
-2.10158
1.86784
-1.37766
0.255865
1.6193
-1.87517
0.261181
-0.886507
-1.36971
-1.39995
2.76966
-1.97601
2.39667
-0.420655
-2.5297
3.35213
-0.822429
2.40227
-2.04383
-0.358448
1.73149
0.12483
-1.85632
-1.32028
-2.08133
-0.925848
-0.254902
2.06633
2.27023
-0.0205888
0.370828
-0.350239
-1.97493
-0.566792
1.75059
1.65236
-1.58051
2.03445
-0.453946
0.313505
-0.436135
0.109984
0.981517
-1.0915
0.393649
0.850237
-0.283044
-2.69069
-3.85612
0.93474
-0.0250982
-0.478816
2.11926
0.269468
2.02191
-2.29137
-1.49392
-0.133675
0.802623
2.38389
0.230769
-0.849776
-0.0783217
-0.483729
0.562051
0.142556
-1.13191
0.98935
2.24641
-1.24978
1.9089
2.61192
-1.23634
2.35745
-1.62948
-0.423169
-0.784174
1.20734
2.1084
0.388982
-0.10695
-2.12227
1.43812
3.16799
-3.25513
-0.788822
-1.78879
2.57761
-1.43884
-1.50319
-2.84455
2.82102
0.0235268
0.0568163
-0.804278
0.467987
1.71607
0.89585
0.707926
-1.99715
1.28922
-0.832679
-1.46426
-1.20772
-1.42679
2.63451
2.292
-0.125102
-0.642903
0.0269253
1.69395
-2.80608
1.08518
-1.05068
-1.61424
2.36429
-0.750046
0.834779
1.22351
1.15294
-2.37644
2.73785
-1.55904
-1.17881
-2.01921
-1.75357
2.45852
-0.704946
0.00282277
-0.127974
-0.933601
0.912103
1.21827
2.26872
-0.714919
0.633577
0.116742
-0.00618776
2.69822
-1.5138
1.77826
2.60325
-1.33059
0.767984
0.56261
0.639125
-1.01131
2.03607
-0.011964
1.36774
1.42043
-1.79266
-0.17208
1.96474
0.6253
-0.0427719
-0.582528
0.59917
0.102993
0.390607
-3.00843
-0.914461
1.03441
1.85963
-1.77147
-0.0881526
0.529874
1.18464
-0.53687
0.245432
0.857113
0.703616
-1.56073
-0.703883
2.43377
0.479844
-1.10132
2.70957
-1.60825
-0.513831
0.921856
-0.175151
-0.996699
3.07365
-1.5724
-1.03875
0.865895
-1.30234
0.981805
-1.0879
-0.583412
0.512528
-0.888033
-0.507971
-0.0440713
0.834513
-0.55295
2.31215
-1.7592
-0.332726
0.338342
-0.674015
0.342024
-1.11103
0.185183
-4.207
2.47253
0.788228
0.712143
1.4445
-1.94707
0.502571
0.348595
0.369521
2.08946
1.43139
-3.52085
-0.426263
-0.023766
0.450029
1.28099
-1.75779
2.55912
1.02938
2.20243
-1.93296
-2.54973
0.148693
0.055197
-2.55295
1.23077
0.667195
1.39631
-2.06351
1.24983
-0.164852
-0.0568927
-0.938912
-0.391682
-2.09158
-1.0585
1.1673
1.89286
0.204142
1.53865
-1.41577
-0.122886
0.625619
0.0224573
-0.222198
0.817643
-0.0931958
2.23023
0.538365
-2.7686
-0.521322
0.146861
-0.753636
0.47295
0.280686
-1.09906
-0.0138423
1.1129
0.787564
1.19132
-1.97889
0.689767
0.98663
1.86918
-0.0426984
-0.862054
0.483478
-0.602956
-0.490657
0.975561
-0.484904
-3.19899
2.46496
2.37091
-1.82263
-0.54828
0.0514154
-0.497944
0.446528
2.39841
-2.53746
1.50757
0.784428
0.850703
1.01714
-0.505249
-0.00272176
0.409371
-0.0223376
-0.387034
-1.19723
-0.43426
2.99665
-1.53788
-1.45877
1.22771
-1.00216
-0.225547
1.33294
-2.17903
0.846089
0.342813
1.58655
0.091874
0.263331
-0.768883
0.505552
0.37857
0.0308012
-2.66306
-1.20452
0.498401
2.3228
0.0229579
-2.34575
-1.18208
-0.376167
0.0964213
-0.225715
0.0442949
0.610885
1.31903
-1.30035
1.55093
-0.00824684
0.260556
-0.123144
0.373078
-1.20863
1.4645
0.0364785
0.807781
-0.386588
-0.389756
2.14468
0.0445034
1.49415
-0.598633
-0.446852
-0.700709
1.55782
-0.291926
2.11967
-1.82774
-2.18352
-0.361839
-0.781148
1.91644
-1.13529
-0.599981
-0.604538
0.996206
-0.190113
-0.055963
-0.769748
0.825711
-2.37264
0.800246
0.510803
-0.483115
1.68314
-4.35627
2.04851
-4.52272
-1.27246
1.12028
-1.20059
1.59835
-0.894732
0.0372474
-1.584
1.80257
0.00190675
-0.512647
0.112514
-1.27612
-0.432073
-1.60818
2.04025
2.0206
0.993459
4.21278
-2.71468
-1.4981
-0.697451
0.280458
0.73482
0.0674592
-0.802279
-2.25726
0.560054
0.694452
-0.0434807
-0.0157928
-0.450152
0.465945
1.90329
-2.68444
0.277043
1.23529
0.281409
-1.5167
-2.41737
2.12544
0.485382
0.125993
-0.611375
1.86342
-3.91947
-0.497472
0.00845463
0.489018
0.630933
-0.14555
0.0347745
2.09236
-1.4058
1.60632
1.55195
-0.862183
-2.76193
0.864365
-1.76099
1.60905
0.151943
1.77454
-2.56337
-1.49996
-0.890967
2.39093
0.0514289
1.31918
-0.926148
0.804171
2.76403
-0.361794
-2.40223
0.00456682
-2.75214
1.61979
0.111702
1.58865
0.789745
-0.540951
0.00456318
0.506712
-0.771883
-1.11036
0.0661684
-0.129186
0.063018
0.0405135
-1.88257
1.84206
-0.250126
1.01703
-0.766901
2.05728
-4.7934
2.73612
-0.0309479
-1.54316
-0.0672555
-0.0621865
1.78154
-1.03612
-0.592358
1.62847
-1.19872
-0.949677
1.37549
-0.795907
-0.107272
-0.643967
0.751239
-0.267157
1.71165
-2.57743
-0.25146
-0.330413
0.581872
0.712445
0.643856
-1.3563
0.292089
-1.88287
1.59078
0.343846
-1.64891
0.429145
-3.08948
-1.69391
-1.3502
3.04411
-2.52833
0.0957121
2.43262
-2.87205
-2.15984
0.194333
-0.908915
0.917639
-0.00872411
-3.64654
-0.906619
3.13685
1.18033
-0.580622
0.307115
-1.00782
-0.475
1.46163
0.50248
0.39768
-1.21901
0.0568865
-0.483118
0.426232
-0.352988
-0.128481
-0.338556
0.389971
-0.963046
1.52281
-4.02936
2.04424
1.98512
0.136989
2.05198
1.24161
0.693815
-0.0685147
-1.36616
2.07408
-1.37827
-0.816698
-1.64243
0.564048
1.07838
0.172604
-0.554129
0.381525
-1.3365
1.47906
-0.375709
2.11682
-1.47241
-0.970134
1.27499
-2.4737
1.23226
-1.35929
0.127034
0.438179
-0.0535942
0.116897
0.0116688
-2.77323
1.80567
0.956769
0.270939
0.0444597
-0.628818
0.584358
-3.8449
1.3933
-1.21649
1.48976
-0.601899
-0.0414172
-0.696007
0.737424
-1.68955
0.653434
-2.83903
2.55599
1.5657
-0.678868
-0.757264
0.695657
0.0616072
0.38708
-0.194536
-0.513265
-2.70908
1.37348
1.3356
-0.502881
0.479115
-0.24123
1.08592
-0.844693
2.04482
-0.537249
0.0960256
0.258192
-0.354217
-0.841637
0.878116
0.119484
-0.032106
2.07095
-4.27205
2.72531
0.162666
-0.72252
0.296054
2.49019
-0.139884
-2.35031
0.13722
1.15119
-1.28841
1.22863
-2.46937
1.44324
-2.17504
0.731806
-0.0405776
-0.056757
0.0973346
-2.58612
2.72001
-0.133886
-0.859963
1.37754
1.27868
-0.290767
4.30383
-2.12021
-2.18362
-0.252253
-0.864677
1.11693
-0.0521408
-0.972006
-0.0524507
-0.94039
-0.0316161
0.338712
-0.895528
0.556817
-0.263802
2.52087
-2.25707
-2.36775
0.601037
1.76672
0.780867
2.2361
0.0330142
0.293301
-0.326316
1.61546
0.751202
-2.36667
-0.138251
0.144773
-0.822656
2.21647
-1.39381
-1.97674
0.184079
1.66827
0.793721
-2.29368
-0.00543013
-0.370038
0.375468
2.37792
-0.686801
-1.69111
0.978903
0.686321
-2.61722
1.34544
2.39928
-2.54676
-1.3252
0.0887393
1.23646
-0.0739894
-0.326892
-0.164423
0.491316
-0.262919
-0.166931
0.42985
-0.0259616
0.416961
-0.391
-1.10637
1.14725
-0.0408825
-1.64264
3.33658
-0.952811
0.85129
0.57956
-0.82079
1.03614
-1.64886
0.612721
-1.22028
-1.1825
0.0198825
0.0902317
-0.180908
0.00687411
0.174033
2.57531
-1.49981
-1.07549
0.125848
1.73378
-0.749575
-0.395019
-1.73566
0.386284
0.885372
1.00477
-1.89014
-0.0329665
-0.0452982
0.0782647
-0.0517434
1.08109
0.195676
-0.391967
0.196292
3.53658
-2.48554
-1.05104
-4.12467
0.481426
0.0928538
1.44322
-0.123663
-1.31956
-1.41244
-0.443256
1.14795
-1.07837
0.155763
-0.0388652
-0.0469554
1.57341
-1.52646
0.503514
0.0696159
-0.60245
-0.673543
-0.745733
0.764453
0.107048
-0.365101
3.23562
-0.708816
-2.52681
1.93503
-1.42938
-0.505647
0.605533
1.64087
0.7789
0.145185
-0.714695
0.587395
-0.328373
-0.936462
0.67641
-0.823274
0.282008
-0.0186769
-0.0555995
-0.115953
0.437511
0.193422
0.0124739
-0.0530515
2.24724
-2.33534
0.0880941
3.12794
-1.29833
0.758897
0.539431
0.384685
-1.08769
-2.15165
-2.44522
-0.761511
0.718739
-0.531265
-0.813686
1.34495
-2.27422
0.6092
0.589173
0.650818
-1.23999
-0.278673
-1.69734
-0.434094