/*--------------------------------*- C++ -*----------------------------------*\
| =========                 |                                                 |
| \\      /  F ield         | OpenFOAM: The Open Source CFD Toolbox           |
|  \\    /   O peration     | Version:  2306                                  |
|   \\  /    A nd           | Website:  www.openfoam.com                      |
|    \\/     M anipulation  |                                                 |
\*---------------------------------------------------------------------------*/
FoamFile
{
    version     2.0;
    format      ascii;
    arch        "LSB;label=32;scalar=64";
    class       surfaceScalarField;
    location    "2.4";
    object      phi;
}
// * * * * * * * * * * * * * * * * * * * * * * * * * * * * * * * * * * * * * //

dimensions      [0 3 -1 0 0 0 0];

oriented        oriented;

internalField   nonuniform List<scalar> 
20045
(
0.500886
-0.537911
0.0370259
-1.07729
0.385512
0.691779
0.35588
1.81265
-2.16853
0.144972
-0.193841
0.0488691
-0.82759
0.812557
0.0150329
-0.576926
2.19566
-1.61874
-1.01208
0.447987
0.564097
0.0675081
0.426743
-0.494251
0.466225
0.415076
-0.881301
-0.825046
-0.107507
0.932553
0.457004
-0.385489
-0.0715151
2.26
-1.09104
-1.16896
0.349522
-0.357911
0.00838846
-1.28196
1.08166
0.2003
-0.33318
1.05864
-0.725462
-1.08912
0.264076
0.185488
-0.0279636
-0.157525
0.848885
-0.632372
-0.216512
-1.72703
2.51754
-0.79051
-0.77113
0.0698741
0.701256
0.321798
-0.304825
-0.0169728
0.113707
0.235815
-0.134272
-0.943019
0.517556
1.00202
-1.51958
0.81728
0.214727
-1.03201
-1.05923
1.57679
-0.700098
0.761212
-0.0611145
-1.18843
2.28293
-1.09449
1.74116
0.234806
-1.97597
-2.18415
1.21487
0.969277
-0.154983
-0.271497
0.42648
1.42797
-0.997088
-0.430886
-0.852777
1.57999
-0.727208
2.29363
-1.30689
-0.986735
-0.54944
0.616948
2.20127
-1.10162
-1.09965
1.45576
0.197061
-1.65282
-0.0638917
0.385755
-0.321864
-1.90135
0.74632
1.15503
0.585744
0.512812
-1.09856
0.0603741
0.397186
-0.45756
0.156316
-0.21772
0.0614044
2.17108
-2.16694
-0.00414321
1.47951
-0.546023
-0.933482
0.690722
0.788783
1.03381
1.22619
-0.267555
0.870147
-0.602592
1.25266
0.56109
-1.81375
1.81714
-0.361384
0.157129
1.84461
-2.00174
1.29215
-2.19428
0.90213
1.77878
-1.31511
-0.463672
-1.21364
-0.861251
2.07489
-0.090034
-0.300139
0.390173
0.829908
-0.204239
-0.625669
-0.687943
-0.139647
0.0263412
1.51669
-1.54303
1.59579
0.0883702
-1.68416
0.881453
-1.73423
2.08918
-1.37529
-0.713888
0.572545
-0.218227
-0.354319
0.880777
1.2084
0.679982
-1.90562
1.22564
0.287255
0.0345429
0.806124
0.0698054
-0.875929
1.64573
0.198285
-1.84401
-0.050837
0.186821
-0.135984
-0.673701
0.176951
0.49675
0.83849
-0.372265
1.83492
-1.86703
0.0321147
-0.125459
0.0746223
-0.114568
0.944476
-0.23866
-1.04064
1.2793
-0.142848
-0.12775
0.270598
1.82563
-0.354995
-1.47063
1.36805
-1.3417
-0.0144452
1.84007
0.422636
-0.755816
-0.383243
-0.452845
0.836088
0.418751
-1.17204
0.75329
1.03374
1.19922
-2.23296
0.905618
-0.70545
-0.200168
1.68742
-1.00744
-2.40868
0.455993
1.95269
0.0254082
0.475477
-0.549609
0.630588
-0.0809793
0.20385
-0.884826
0.680976
-1.60232
0.0667986
1.53552
1.02893
0.155567
-1.18449
-0.851392
0.779396
0.0719954
-1.42443
-0.241183
1.66561
0.712393
-0.121591
-0.590802
0.406663
-0.575601
0.168938
-0.164618
-0.821763
0.986382
0.583398
-0.62221
0.0388121
1.49489
0.389159
-1.88404
-0.641348
-0.0587502
-0.043527
-0.137023
0.18055
1.20003
-0.614286
0.25429
0.179662
-0.433951
1.49101
0.71026
-0.478021
-0.803942
-0.236555
0.193028
-0.274559
1.87035
0.0155369
-0.565146
-0.387584
0.641873
0.449324
1.2024
-1.65172
1.14242
-1.71492
0.572504
-0.650799
-0.450884
0.39244
0.0584439
-0.239601
0.302426
-0.0628252
1.23718
-0.896622
-0.340555
-0.489749
0.399715
1.29985
-2.15481
0.854957
-0.163207
0.316598
-0.153391
0.0512612
-0.293889
0.242627
1.15424
-0.336955
1.67875
0.614878
-1.14993
0.911272
1.38513
-1.97937
0.594245
0.552873
0.296012
0.184109
0.388436
-0.770266
0.625453
0.144813
-0.758929
0.0996286
-0.580569
0.480941
1.28433
0.494448
1.11117
-1.41181
0.300645
1.60709
0.185889
-1.79298
-2.05525
1.58045
0.474809
-0.299849
-0.758329
1.05818
1.88663
-0.602296
0.0486823
0.821465
-0.163251
0.0543965
0.108855
-0.165327
0.0681118
0.0972155
1.13651
0.80095
-1.93746
1.19933
-1.14964
-0.0496886
-0.349006
0.209776
0.13923
-0.319267
-0.131617
2.21556
-0.830428
-0.63938
0.682846
-0.043466
1.26366
-2.15031
0.886653
0.351564
-1.5652
1.14442
0.439164
-1.58359
1.28333
-0.864579
1.98497
-0.249483
-1.73549
0.622589
-1.88969
1.2671
2.66267
-1.86283
-0.799831
-0.26803
0.476321
-0.208291
-0.00988748
2.04078
-2.03089
2.12902
-0.387854
-1.65566
0.058593
1.59707
-0.940871
0.829489
0.111382
2.00845
-0.97471
0.335196
0.570422
-1.26327
1.5477
-0.284431
-1.47745
1.83333
0.0257805
-0.35448
0.3287
0.0940089
-0.128462
0.0344529
-0.0357286
-0.368594
0.404323
1.93372
-0.335329
-1.59839
2.63954
-1.29115
-1.3484
-0.440174
0.404446
0.686417
-1.33166
0.645241
0.187501
-0.0311857
-1.58967
-0.954085
1.35953
-0.405442
-1.33656
0.993641
0.342921
-0.0319155
-0.047174
0.0790895
0.841792
1.82087
-0.155671
-0.00965651
-0.161534
-0.00171703
-1.40874
0.145474
-1.47094
1.86701
-0.39607
-1.29854
1.49998
-0.201434
-1.19264
-0.850497
2.04314
-0.423033
-0.0805091
0.503543
0.908119
-0.96168
0.0535612
1.72078
0.204522
-1.9253
0.024844
-1.49986
1.47501
-0.710544
1.85497
0.389086
-1.08077
0.691682
-0.839486
2.13934
-1.64978
1.06803
0.581755
0.232619
-0.324415
0.0917954
0.821219
-2.36524
1.54402
-1.84631
0.657875
-1.23287
-0.802893
2.04618
-1.24561
-0.800578
-0.524896
0.58527
0.293564
-0.311243
0.0176791
-1.53904
-0.340874
1.87991
-1.63731
2.28775
-0.650442
1.80391
-1.27302
-0.530895
0.173295
-0.506534
0.33324
-0.473318
-0.942694
1.41601
0.410051
0.0469539
-0.906974
0.607125
-1.37448
-0.466303
1.84079
0.209022
0.0551198
-0.264142
0.245996
-1.20008
0.24882
-0.403803
1.73209
-0.125003
-0.308598
0.244706
-0.304773
0.365938
-0.0611649
-0.0413559
1.97507
-1.52008
1.04676
0.582083
-0.0238384
-0.558245
-1.37975
0.25745
1.1223
0.621698
1.18221
2.45677
-1.63555
1.41573
-2.36848
0.952752
0.405536
-1.46173
1.0562
0.0482843
-0.819415
-0.963608
1.41293
1.31193
-1.88885
0.591946
-1.40253
0.810588
-2.37727
1.35036
1.02691
-0.0413384
-0.810054
0.357526
0.275158
-0.632684
1.43065
-0.438357
-0.992291
0.36515
-1.41976
1.40987
-0.498978
-0.140402
1.26506
2.18381
-1.78118
-0.402631
-0.0217755
-0.265473
0.287249
1.34611
0.206942
-1.55305
0.376299
0.0667207
-0.44302
-0.262948
1.27142
-1.00848
-0.657058
0.860907
1.12299
-0.733902
-0.13239
0.347507
-0.215117
1.79966
-0.536009
0.208685
-0.0188526
-0.189832
0.283471
-0.0050137
-0.278457
-0.244183
0.252982
-0.00879929
2.028
-1.2892
-0.738798
0.471432
-2.10874
-0.268501
0.0243184
-1.7451
0.574445
1.17065
2.23779
-0.657803
0.494646
-1.96558
2.52993
-1.16805
-1.36188
-0.0303628
0.239385
1.62041
-0.670091
-0.950323
-1.22385
0.285632
0.93822
-1.96211
1.96784
-0.00573312
0.532543
-1.5983
1.06575
-0.0818909
-0.120623
0.202514
-0.932953
1.25088
-0.317923
-0.21164
0.0858325
0.125807
-0.287521
0.124315
-0.283635
0.0440338
-1.16639
-0.54853
0.836692
-1.50089
0.6642
0.775077
-0.373088
-0.401989
0.797743
0.630231
1.25313
-0.661183
0.0261172
0.0678917
1.35467
0.883121
-0.979741
0.014995
0.964746
0.484193
1.13622
0.751028
0.307614
0.461822
0.313255
-0.56062
-0.0354258
0.596046
-0.131607
0.364226
-1.34988
1.08694
-0.364837
0.458766
-0.0939288
-1.79396
1.71128
0.0826747
-0.741579
1.18554
-0.443962
-0.439728
-0.212294
0.652021
1.52499
-1.65907
0.134078
-1.4489
-0.928368
2.59141
-1.66396
-0.927451
-0.206761
0.184986
1.78524
-1.2527
-0.716339
1.55303
-0.223864
-0.465818
0.689682
1.57949
-0.257054
-1.32244
2.73318
-0.702595
-2.03058
-0.763767
0.539903
1.62607
-0.9512
-0.674869
-0.322597
1.56733
-1.24473
1.3523
-1.70194
0.349639
0.513326
-0.563957
0.0506314
0.826795
-0.260814
-0.565981
2.42569
-1.94659
-0.4791
-1.11866
-0.936592
1.48241
0.701393
-1.63366
-0.160294
-0.0269436
0.310415
0.256447
-1.48913
1.23268
0.00813065
0.285433
-1.07982
2.21634
0.773862
1.25414
2.2277
-1.36341
-0.864291
-1.81404
1.34774
1.48128
-2.42175
0.940472
-1.24712
-0.0793768
1.3265
-0.447751
-0.35467
0.802422
1.10064
-0.414228
0.10036
0.481723
0.870343
-0.0440614
-0.953026
-1.40596
1.93748
-0.531523
-0.353376
0.0486025
-0.122389
-0.0100014
0.246101
-2.20821
0.483745
-1.1408
0.278106
-0.453122
0.618073
-0.164951
-0.00940806
0.15438
-1.02159
0.752779
0.268806
0.689824
0.547353
-0.752587
1.35775
-0.605163
0.987876
0.211455
-1.27642
1.53287
1.1345
-0.10557
-0.397594
-0.982159
1.92671
-1.43871
-0.488001
1.84279
-1.71732
0.504294
1.21303
1.58108
-1.72072
0.139632
-0.873896
0.709277
-0.218807
-0.130198
-0.215974
-1.20845
0.550586
-1.06789
0.517307
0.826641
0.799428
1.49393
-2.26688
0.772952
0.434311
-1.05602
0.62171
-1.93945
0.33713
0.0171287
0.695264
-1.11837
1.74389
-0.625515
-0.51795
0.618777
-0.100828
-0.79253
-0.219554
-0.251611
-0.441838
0.693449
0.184401
0.00203884
-0.18644
-0.658265
-0.282606
0.750727
0.888606
-1.63933
1.53151
-1.04732
0.576826
-0.900874
0.0269779
0.91002
-0.475709
-1.31191
-0.337874
0.0115932
-0.258757
0.247164
1.93421
-0.681543
-0.884917
1.47058
-0.585663
-0.23104
0.264973
-0.0339329
1.47906
-0.0484173
-0.361497
-1.12763
-0.983731
1.82144
-0.837711
1.3171
-2.27489
0.95779
1.16202
1.42939
0.658128
-0.594431
-0.063697
0.178019
-1.42514
1.35665
-2.05862
0.701969
0.215961
-0.35881
-0.139013
1.25018
-0.478189
0.961934
-1.05007
1.4556
0.407165
-2.13419
-1.79004
0.952794
0.837246
1.26659
-0.196823
-1.06977
1.86313
-0.33814
-0.83379
-1.06141
-0.956224
0.938499
-0.708414
-0.0290252
0.737439
0.645336
-0.575462
-1.40066
1.26165
1.72428
0.446803
-1.54799
0.663072
2.1572
-0.674784
0.212644
0.0416282
-0.254272
0.00828742
-1.21905
1.21076
-1.80345
0.337566
1.46588
1.59603
-1.59603
-0.441632
1.58715
-1.14552
0.846689
-1.59928
1.3475
-0.798079
-0.54942
-1.82866
1.89904
-0.0703761
0.664561
-0.0931942
-0.571367
0.522049
-0.222349
-0.2997
0.215496
-0.655224
-0.659732
0.906141
-1.62248
-1.6654
1.96715
-0.301747
-0.56791
1.31864
0.155783
0.00973984
-0.165522
-0.216602
0.365502
-0.1489
-0.763791
0.812076
2.12329
-1.72855
-0.39474
-0.173148
-1.04528
1.21843
-0.451473
0.494614
-0.0431412
0.235427
-0.556092
0.320665
-2.05865
0.830917
1.22773
-0.139838
-0.0540033
0.0439101
0.168734
-0.011445
-0.148413
0.159859
1.05001
1.37567
0.159534
-0.00375113
-0.106267
-0.573108
0.679375
-0.977551
1.56436
-0.586811
-0.024808
0.179509
-0.154701
0.855303
-0.407316
1.87717
-0.915602
-0.961571
0.00854591
-0.830309
0.123388
1.59739
0.833893
0.60336
-1.43725
0.923412
-0.817809
-0.105603
-2.02887
0.373214
-0.851465
0.361744
0.48972
0.859777
1.09105
-1.95083
-1.24372
1.16435
0.116928
-1.81233
1.6954
-0.245408
0.418703
0.208312
-0.290054
0.0817425
0.0380199
-0.59864
0.440599
-0.310903
-0.129695
-1.33487
-0.410227
1.22724
0.222532
0.0817265
-0.304258
-0.237204
0.00616378
0.343397
-1.41367
1.07028
0.430485
1.07092
-1.5014
0.682776
-1.41458
1.72327
-0.308696
-1.42896
1.10637
0.371981
0.389231
-0.793989
-0.542574
-0.507321
0.135462
0.37186
-1.6983
0.720747
1.32851
-1.50166
0.843621
1.31358
-0.580786
0.594071
-0.0132848
0.747309
-1.77427
1.02696
0.286383
-0.527896
0.241513
1.08939
-1.45089
-1.26824
-0.0303019
-0.601691
-0.0720096
0.0966935
0.554416
-0.651109
0.674393
-0.0630704
-0.0382232
0.101294
1.82566
-0.96588
-1.27088
1.1333
0.137575
0.518445
0.351565
-0.870009
-0.730783
0.485375
-0.420649
-0.0866723
0.792221
0.555278
-0.476691
-1.50268
0.371557
-0.359963
1.232
0.800179
0.334318
-1.74396
1.90109
0.203109
-0.923307
0.720197
-0.176882
-1.64975
1.82663
-0.0150175
-0.00191083
0.0169283
0.279434
-0.702467
-0.410199
1.7625
1.9099
-1.28731
-0.85484
-0.166746
0.0260524
-0.813466
0.787413
0.802299
-1.99494
-0.225363
-0.950416
1.17578
0.0543249
-0.26776
0.213435
-1.30883
0.10747
1.20136
1.90171
-1.34062
-0.042247
0.166442
-0.124195
-0.421865
-0.0296077
0.354245
0.705125
-1.05937
0.231852
-0.29051
0.0586581
1.31819
0.730404
-2.04859
-0.785769
2.28065
0.181219
0.00318185
-0.516708
-1.10446
1.62117
0.767283
1.44827
1.8159
-1.38541
-0.687683
0.436072
0.520875
0.30592
-0.863262
2.34454
0.277104
-1.53423
1.25712
1.84611
-0.282675
-1.56344
-0.918208
1.40431
-0.486097
0.78914
-0.789747
-0.926627
1.71637
0.110477
-0.152455
0.0419776
-0.57244
-0.96724
1.53968
0.123027
-0.339629
0.0556084
-0.0875239
1.00859
-1.58103
-1.41196
-0.414878
1.82684
-0.124314
-0.948652
1.07297
0.381313
2.42103
-2.48418
0.0631426
0.423538
-0.30917
-0.114368
0.0205034
-0.601289
0.521182
0.4652
-0.617763
0.170012
-1.59385
2.01646
-0.422614
-0.00105641
-0.36378
0.64445
0.63888
-1.6974
-0.469539
-0.280224
0.758829
-0.478605
1.05806
-0.257882
-0.399327
0.4403
-0.0409731
-0.194152
-0.0174882
-2.32388
1.09101
1.84287
0.352796
-0.268067
0.503494
-0.389895
0.90834
1.59687
-0.690724
-0.412194
0.0128666
-0.187373
-1.21329
0.44132
0.442443
-0.416663
-1.83837
0.034928
0.279064
0.416199
-0.129816
-1.9648
1.27241
0.69239
1.54385
0.291064
0.362214
-0.113126
-0.249089
0.536802
-0.507598
-0.0292043
-1.71876
0.617143
-2.02695
1.04322
-0.416143
0.400641
0.0155021
-0.0334512
-0.0245075
0.0579587
2.11858
0.0138211
-2.1324
0.327286
0.0180811
-0.345367
-0.264778
-0.505488
0.442582
-0.0359181
0.396007
-0.439287
0.0432799
0.754205
-0.120517
-0.633688
-0.11601
0.512017
1.68064
-1.29148
-0.058053
-0.277279
0.335332
-2.03129
0.437448
-0.116103
-0.0444502
-0.192105
-0.198442
0.420974
-0.0104523
0.0365695
0.483294
0.300454
-0.783748
0.838113
-0.0319895
0.873201
-0.670091
0.413503
-0.362242
0.124941
-0.642891
1.21591
-0.0629779
-1.15294
1.04954
-0.054874
-0.994665
-1.36946
-0.520233
0.155025
-0.30896
0.153935
0.791321
-0.886551
0.0952309
2.18079
-0.0541797
-2.12661
-0.0840188
-0.402117
0.486136
-0.970476
1.28313
-0.312652
1.01554
1.25844
-2.27398
-0.675551
0.457324
-0.515857
0.842811
-0.326954
0.419918
0.186244
-0.606162
-1.95736
0.960464
0.996892
-0.426517
-0.0127701
-1.68321
0.271247
0.591215
-0.367148
-0.224067
0.958261
-1.22467
0.266407
-0.158718
-0.379193
0.354945
2.06609
1.63919
-0.269981
-1.36921
-1.67866
0.26408
0.673548
-1.07114
1.36407
-2.18471
0.820636
-0.193245
0.550772
0.0167799
-0.784973
0.678706
-0.310584
0.410212
-0.23147
-1.53078
1.76225
0.75306
1.03218
-1.46333
1.54181
-0.0784777
-0.370107
0.466801
-1.25974
-0.515287
-0.22832
0.254606
-0.0262852
0.414334
-0.628514
0.21418
0.0617863
-0.0468323
-0.014954
-0.153389
1.11165
-1.60069
-0.215108
1.8158
-1.48585
-0.483577
1.96942
0.94666
-0.700796
-0.245864
-0.383167
0.0432356
0.339932
-0.38861
-0.335523
0.724133
-1.96767
0.0954415
1.87223
0.0563667
0.359118
-0.415485
1.57951
-1.78012
0.200612
-1.01935
1.22547
0.0945283
-1.32
0.0193891
-0.247709
-0.380969
-0.854683
1.23565
1.22214
-2.06163
-1.89562
1.64805
0.247572
0.274257
-0.0424047
1.30037
-0.655916
-0.102515
-0.493262
0.595777
-0.0176764
0.29091
-0.273234
-0.538394
1.87526
-1.33687
1.02335
-0.228947
-0.794401
2.02583
-1.93607
-0.0897589
1.57332
-0.622215
-0.951108
0.0913464
-0.438221
0.346874
-0.559911
-0.0206579
-1.90453
1.68006
0.224472
0.110223
-2.01476
-0.694098
1.18357
-0.489469
-1.16493
-0.781659
0.358264
-0.318345
-0.0399192
-1.58722
-0.444073
-0.342961
0.224322
0.118639
0.452139
-0.0758397
-1.81954
1.74063
0.0789142
-0.40057
-0.250642
0.122892
0.350434
-0.0231484
-1.19254
0.259586
0.242883
-0.3035
0.0606173
-0.984188
0.673922
0.310266
0.692557
-0.0279958
-0.505435
1.30674
0.172328
0.704853
0.14936
0.509977
-0.659336
-0.202238
1.11036
-1.19349
0.768664
0.42483
-0.376927
-0.0495897
1.76172
-1.00866
1.50599
-0.758686
-0.471122
-0.334944
0.806067
0.711755
-1.57024
0.858487
1.08196
-1.20628
1.96118
-0.854884
-1.10629
-0.00903516
-1.00384
-0.189652
-1.63127
1.93503
-0.303755
0.196653
-0.56726
1.98299
-2.09448
0.50726
0.123474
0.389852
-0.208901
-0.667807
0.260825
-0.00784324
-0.980685
-1.02287
2.33303
-0.964985
0.632046
0.0207736
-0.65282
0.131693
0.390356
-1.3262
-0.734772
2.06097
0.419833
0.680811
-0.00353529
-0.26925
0.272786
1.62971
-0.125604
-0.148733
0.274337
1.1764
0.0395147
-0.714097
-2.00313
0.337733
-0.417385
0.0203653
0.397019
1.12663
1.40329
0.570285
0.0254574
-0.595743
1.93817
0.087665
1.16787
-1.65536
0.48749
-1.64385
-0.0279181
1.67177
-1.53963
1.98594
-0.446316
0.259312
-0.00697258
-0.252339
-0.796927
2.01907
-0.191985
0.487214
-0.295229
0.0709156
-1.53425
0.297211
-0.0414719
-0.255739
-1.86472
2.41007
-0.545354
-0.479342
1.05187
-0.572529
2.32888
-1.02697
-1.30191
-0.00851748
-1.18838
1.19689
-0.28854
-0.00151411
-0.990625
2.00617
1.06667
-1.5083
2.2307
-0.913603
-0.348665
0.290612
-1.72683
0.0829835
2.41198
-0.918053
-0.0521121
-2.35657
0.449514
-0.0523278
0.552374
1.03778
-1.59015
1.09629
-0.246428
-0.849858
1.4223
-1.93448
0.51218
-0.293534
0.0203831
0.273151
-0.390982
-0.931636
1.32262
0.690866
-0.565925
-0.881096
0.346061
0.535035
0.262868
0.569852
-0.832721
0.154221
0.204042
-1.73888
2.03032
-0.291442
0.0399174
-0.0549349
0.891626
0.384281
-1.27591
1.05684
0.801835
-1.85867
0.303029
0.963561
-0.0433837
2.02836
-0.00372344
1.56775
-1.56403
-0.0224521
-0.00235592
-0.0713381
0.25278
-0.181442
1.47139
-1.40147
-0.0699227
0.89017
1.07101
-0.103854
0.0178107
0.0860436
-0.568483
1.5984
-1.02991
0.0328726
0.284339
-0.317212
0.798509
-1.47634
0.677829
-1.19679
-0.653797
1.85058
1.6331
-0.286994
0.598458
0.497828
-0.907458
-0.232326
1.13978
0.574322
-1.6196
-0.667308
0.541262
0.126046
0.360481
-0.159898
-0.200583
-0.0978898
-0.19065
-0.161308
1.52519
-1.36389
-0.25803
2.10264
1.53035
-1.23324
-0.297112
1.24188
-1.08631
-1.04524
0.322934
0.722301
0.13953
-0.937609
-0.31794
0.257867
0.0600739
0.106248
0.255966
0.288733
1.46505
-1.75378
0.395049
0.359155
0.251499
-1.73734
-0.844846
0.353154
0.491692
-0.61401
-0.473314
1.08732
0.92065
-0.437355
-1.67932
1.11141
0.624978
-0.500476
-0.124502
-0.925234
1.54432
-0.619081
-0.856131
0.864676
-0.830852
1.08799
-0.257139
-1.19706
1.72751
-0.530457
-0.0437901
0.401937
-0.358147
0.0502453
-0.0836964
-0.604026
-1.22469
1.83593
-0.611243
-1.07618
1.33363
0.997829
-0.994041
-0.00378833
0.0954199
-0.406485
0.311065
-2.34902
1.68289
0.666124
-0.084403
0.211108
-0.126705
-0.0306854
1.2714
-1.8098
1.46632
-0.754563
-0.753656
-1.03638
-1.39584
1.39212
0.987534
0.00610735
0.756258
0.276228
-1.03249
-0.628782
0.581519
0.0472635
0.54901
-0.479876
-0.0691344
0.126728
-0.789683
0.662955
-0.421248
1.01515
-0.593905
-1.50241
-0.457559
1.95997
0.347856
-0.252436
1.23323
0.238165
-1.66058
1.30239
0.35819
0.829112
-0.564812
-0.2643
0.00889215
0.324842
-0.427705
0.102862
-1.29137
-0.766001
0.892729
0.255776
0.374656
-0.28331
0.585977
-0.171643
0.253475
-1.0118
0.0573346
0.526064
-0.662167
0.672246
-0.0100796
-1.16089
-0.899435
2.06033
-0.129003
-0.778454
-1.01061
-0.178386
1.189
0.258881
0.335308
-0.594189
0.00662279
2.22925
-1.43115
-0.798098
0.33765
1.30154
0.130692
0.821107
-0.805711
-0.0153963
-0.628423
1.65346
-1.02504
-1.12393
-0.472883
1.59681
-0.867227
0.35137
-0.817683
-0.227552
2.06667
-0.903192
-1.16348
-0.152207
-0.206587
0.358793
0.769154
0.101013
-0.870167
-0.304907
0.361274
0.372311
-0.314915
-0.0573966
0.456024
-0.048019
-0.392155
-0.0172291
1.17713
0.889541
-0.88011
1.62643
-0.687905
1.90278
-0.319905
0.167698
-1.68027
0.556335
1.41185
-1.23383
-0.18874
-1.20278
0.232308
0.41026
-1.10436
1.4054
-1.39712
1.62097
-0.0398822
-0.375709
-0.199893
-0.56499
-0.152328
0.717318
-0.560536
-0.0616749
1.46411
0.275222
-1.73934
0.0700321
-0.497388
0.427356
0.0244508
0.566484
-1.71961
1.15312
1.71772
-0.138213
-1.7807
1.86309
-0.0823859
0.419369
-0.242417
-2.11563
-0.233392
-0.667505
1.74227
-0.0622076
0.671632
2.21969
-0.816081
-1.40361
-1.23837
-0.0941424
1.33252
0.322698
1.02469
-1.34739
-1.36996
0.0611273
-0.332681
-0.291393
0.624074
-0.925608
1.20271
0.264369
1.02773
-1.2921
-1.09604
0.679981
0.416057
-1.86118
0.193177
1.668
0.491856
0.974462
-0.429062
1.08098
0.492342
-0.588842
-0.262623
1.4753
-1.72478
-0.35082
-0.679093
1.02991
-0.681384
0.00583296
1.32478
0.0943655
-1.41914
1.24483
-1.93273
0.0528752
-0.134766
-1.21821
1.65477
-0.436563
-1.20141
0.820444
-0.025371
0.514842
-0.489471
-0.244332
-0.292443
0.536775
0.570033
-0.290599
-0.471093
1.14464
-0.0101096
-0.406033
-0.282397
0.301786
0.534593
-0.467872
-0.190876
0.0702529
-0.360801
0.345885
0.0149154
0.370694
-0.421744
0.0510499
-1.39468
1.03969
0.245059
-1.25567
-0.0154869
-0.509409
0.0444875
1.08339
-1.12788
0.603262
-0.638688
0.449683
-1.6052
1.15552
-0.602371
1.31242
-0.710054
0.445024
-1.85098
0.0573397
-0.0499841
-1.84564
0.94875
1.38428
-1.47811
-0.201211
-1.27126
-0.446059
-0.772652
0.330814
0.554083
0.171539
-0.725622
2.26265
-1.13602
1.78562
-0.428973
-0.444051
-0.279731
0.723782
-2.14748
0.875147
1.27233
0.090805
-0.476294
-0.0681728
1.29364
0.290701
-0.176994
-0.973906
0.320862
-0.512847
-0.317883
0.267011
0.0508717
-0.22389
1.688
0.397139
-0.160793
-0.236346
1.59368
-2.5413
1.15588
1.38542
0.456393
0.364126
-0.82052
1.2019
-0.5021
-0.699803
-0.988392
0.50905
-0.837168
0.0227786
0.746375
1.76858
-1.94546
0.757493
-0.337575
-0.777103
1.35142
-1.91943
1.38011
0.539319
0.86772
-1.54658
0.678861
-1.37547
1.44302
-0.0675504
0.834201
-1.03644
0.0249547
0.460985
0.485675
0.141737
-1.31378
0.413098
-1.78159
0.865124
0.916464
0.466967
-1.70534
1.46079
-0.0977684
-1.12608
0.244721
0.378938
2.00635
-0.665102
-1.34125
-0.74694
0.50579
-1.1198
0.275756
-1.88183
1.78769
-1.50581
0.71606
0.941401
-1.82341
0.513034
1.31038
-1.70946
1.15328
0.556185
-0.510165
-0.17648
0.230805
-1.92517
1.34839
0.576779
1.20758
-2.00451
-1.70346
-0.0354164
2.16299
-0.798919
0.626281
0.223214
-0.849495
-0.0421194
-0.271161
0.313281
-0.210007
0.947036
1.04274
-0.705289
-1.11812
0.343946
0.34692
0.448999
0.669779
-1.11878
0.69423
-0.419072
-0.0787108
-2.12439
2.20311
-0.628137
0.828836
-1.53938
-1.18941
-0.814605
2.00402
0.462934
-0.584525
-1.27957
0.398194
0.881372
-0.00210101
0.023029
-0.020928
1.6173
-1.84877
0.134966
-1.35317
0.867907
0.653533
-1.52144
0.211128
0.420918
-1.55634
0.427626
1.12872
-1.86526
0.668475
1.03495
-1.66337
0.808993
-1.15981
-0.00150518
-0.000595833
-0.0785339
1.92464
-1.17337
1.45198
-0.278614
1.8695
0.0041003
-1.8736
-1.35956
-0.0164853
-0.436637
0.0986176
1.49741
0.207182
0.0577904
1.17188
-0.509385
1.35607
0.961864
0.145266
0.403744
-1.71098
-0.10856
-1.67263
0.748718
-1.41881
0.311658
0.351348
-0.663007
1.62068
0.108177
-1.72886
-0.193962
0.186989
-0.627503
-1.39944
-1.50042
-0.220301
-0.730484
1.97531
-0.639103
0.854913
-0.215811
-1.70568
0.544792
-0.519894
0.968893
-0.740458
-1.22434
-0.602688
-0.606366
0.659927
-0.844845
-0.139343
2.014
-0.271733
1.10996
-0.424425
-0.68553
0.188678
0.158829
0.460304
1.94852
-1.83159
0.0180885
-0.414168
0.583106
-0.946123
0.961119
-0.833947
-0.946854
0.390314
0.319419
-0.709733
-1.64319
0.0471665
-0.221588
1.44893
-1.22734
-0.158915
-1.62179
-1.34418
1.55113
2.50944
-1.08953
-1.41991
-0.266607
0.628352
1.56668
-0.85337
-0.713305
0.472589
-0.520608
0.133765
-0.205104
-0.404201
0.102358
0.301843
-0.254463
1.01072
-0.848597
2.05618
-0.0685126
-0.249832
-0.511723
-0.122751
0.634474
-0.0231562
1.64046
0.19821
0.505892
-0.704102
-0.707962
1.06221
0.811785
0.786613
-0.63369
-0.211156
0.949416
-0.341323
-0.608093
-0.0262533
0.0403754
-0.0141221
0.232344
-1.51671
1.28437
-1.75414
0.253725
0.39797
-0.707757
1.45648
-0.0143002
0.486889
0.204249
-0.843352
-1.94802
0.991794
-1.91981
0.628662
-0.827266
0.0634746
-0.796268
-1.07634
1.8726
-1.84355
-0.174527
0.628281
-0.453754
1.77924
-1.32325
1.45564
-1.13294
0.29501
0.991297
-1.28631
0.406962
-0.739644
-1.37391
-0.38819
1.7621
-0.19264
0.521398
-0.328758
-0.789015
1.73749
-0.948478
1.53537
-0.953561
-0.581813
1.54344
0.04784
-1.59128
-1.04604
-1.49526
-0.603983
0.00229146
0.676904
1.20972
-0.0314918
0.156604
-0.125112
-1.26449
-0.291851
1.36321
1.15433
-0.991986
1.17245
-0.180465
-0.262352
0.113619
0.117982
0.69397
-0.811952
0.207946
0.189193
-0.209021
-1.71615
-1.58787
0.614671
0.0103066
-0.26771
0.516529
0.131903
1.38707
-1.51897
-0.954082
-0.238457
1.12619
0.405329
0.130452
-0.449719
-0.567072
0.00387226
0.5632
0.190415
-0.674339
0.483924
0.602494
0.583048
0.315886
1.52421
-0.697566
1.69336
-0.864525
-0.191863
-0.455838
0.647701
1.41373
0.1536
0.0640196
-1.23858
0.847595
1.1053
-1.12846
-0.994447
-0.908434
1.90288
-1.19351
-0.953968
-1.98812
2.07099
-0.0828705
-0.0582284
-0.721079
0.568751
1.03422
0.48999
0.0465712
-0.432104
0.385533
-0.605739
-1.26129
-0.230626
-1.43341
1.66404
0.848858
-0.429025
-0.672583
0.00527521
1.09032
-1.71782
0.886235
-0.671509
-0.566064
1.96739
-1.40132
0.972705
0.954593
0.532378
-1.48697
2.05163
-1.21726
-0.834372
-0.717433
-1.35735
2.20675
-0.8494
0.407205
0.702751
-0.509534
0.495234
0.803362
1.52552
-0.380516
0.338396
0.0411019
-0.104172
1.80155
-1.0006
0.851714
1.41094
-0.727941
0.366872
0.36107
0.427549
-0.898671
1.41785
-0.0930697
1.04787
-0.421593
-1.29814
-0.195963
1.49411
0.330388
-0.0664637
-0.263924
0.235686
0.187851
0.257339
-1.79697
-0.500596
0.538616
1.31441
-1.14356
-0.170849
0.280026
0.66939
-0.25158
0.138454
0.429235
0.435594
-0.864829
-0.950004
1.83146
0.562035
-1.054
2.20912
-1.15512
-0.541451
0.804319
-0.783284
-0.312754
2.04714
-0.99661
-0.637052
0.497603
0.7043
0.530914
-0.546401
-0.305217
0.261427
-0.530423
-0.237358
0.000154019
1.2561
-0.266419
1.52187
-1.25545
0.070075
-0.0815201
-0.650925
0.157663
-0.564065
-0.0399174
-1.6808
1.1641
0.411974
0.430837
0.0774208
-0.556392
0.478971
0.535157
0.0954315
1.58111
0.832396
-2.4135
-0.155461
-0.0437434
0.199204
-0.625471
-0.645404
1.64125
0.868198
1.46692
-1.33502
-2.22061
0.287538
0.107512
-0.328223
0.852715
1.5286
0.219781
-1.74838
0.650298
-0.0470364
-0.0663611
-0.589206
-0.138736
-0.96771
-0.878323
1.01785
-0.147996
1.2813
1.06255
-1.07833
0.0157753
0.333041
0.0128439
-0.11738
0.43543
-0.0647368
1.41722
0.37872
-1.79594
-0.578992
0.261109
-0.39313
0.235085
0.158045
-0.603057
0.00502164
0.598035
0.674399
1.0051
-1.6795
0.415653
0.504997
1.28637
-0.0306193
-0.45913
1.03405
-1.54344
-0.108102
0.155313
-0.0472104
-1.82219
1.01929
1.55069
-1.24477
-0.305917
0.0277731
-0.247331
0.219557
1.59943
-1.76074
1.03713
-0.188267
0.578218
0.877422
-0.207053
-0.030305
-0.207496
0.0531239
0.154372
-1.1003
-0.212814
1.9943
-1.01828
-0.976019
1.11856
-0.0895119
-1.02905
0.720921
-1.26019
0.53927
0.046983
0.932109
-0.0220895
-0.407385
1.16164
-0.754256
-0.0980658
-0.10943
-0.534397
-0.417901
0.257108
1.59549
0.00858958
-1.60407
-0.608619
-0.613795
-0.0483712
0.0278897
-0.010079
0.939143
0.715627
-0.272808
0.334595
0.0111203
0.129743
-0.257072
0.272609
-0.701562
0.996572
0.0286885
0.413755
-0.596097
-0.586658
1.3844
-0.0787199
1.14127
-0.268327
-0.186953
-0.427541
0.856776
-0.370432
1.61213
-1.2417
-1.4792
-0.204013
-0.922702
1.55798
-0.635276
-0.282174
-0.135727
0.539016
-0.112273
-0.038556
-0.412243
0.450799
-1.48844
0.49183
0.169997
-0.212244
0.884569
-2.21077
0.61346
-1.71792
-0.412166
1.41419
-0.682343
0.88715
-0.451557
0.0229157
-1.1788
1.41114
-0.000584021
-0.264889
0.272608
-0.973404
-0.163997
-1.09027
1.25426
0.399584
0.697995
2.30348
-1.5088
-0.794679
-0.382338
0.12111
0.38551
0.038447
-0.423957
-1.43264
0.259269
0.301747
0.0587347
-0.0150019
-0.209382
0.224384
0.730435
-1.65314
0.150515
0.805518
0.0368086
-0.842327
-1.78275
1.41232
0.253264
0.0656418
-0.318906
0.586648
-1.81134
-0.230258
-0.00914563
0.239404
0.327058
-0.0737939
-0.000521122
1.28935
-0.986326
1.07615
0.8629
-0.447247
-1.70319
0.513778
-1.21531
0.966775
0.248534
0.88503
-1.87948
-0.857245
-0.532664
1.38991
0.157241
0.672248
-0.514572
0.421378
2.01279
-0.273436
-1.73935
-0.00455609
-1.70642
1.40481
0.138629
0.730772
0.835904
-0.257467
-0.0117828
0.248394
-0.504413
-0.56348
0.114889
-0.158586
0.043697
0.036361
-1.67572
1.63936
-0.0707626
0.480036
-0.409273
0.601316
-1.61844
1.01712
-0.201601
-0.948042
-0.0627469
0.076666
1.19026
-0.578728
-0.33645
0.915178
-0.606022
-0.72885
0.758273
-0.438853
0.177356
-0.494027
0.316671
-0.541438
0.618859
-1.60454
-0.247673
-0.029664
0.277337
0.192434
0.548902
-0.741337
1.42657
-1.35489
-0.0716768
0.032564
-0.975583
0.306812
-2.17153
-0.855396
-1.19679
2.05218
-1.70349
0.0830329
1.62046
-2.31373
-1.40525
0.0297798
-0.465707
0.484036
-0.0183285
-1.97609
-0.635694
2.05292
0.635083
-0.334629
0.134357
-0.561898
-0.294079
0.799076
0.24442
0.126537
-0.63826
0.0291657
-0.235341
0.206175
-0.411081
0.143051
-0.158745
0.186518
-0.439724
0.896117
-1.79011
1.14742
0.642686
-0.583933
0.684293
1.06755
0.326623
0.00376427
-0.429738
0.476309
-0.832544
-0.447021
-0.927122
0.33751
0.589613
0.218168
0.00142689
-0.219595
-0.670252
0.860666
-0.116751
1.23905
1.19412
-0.995908
0.975381
-1.5814
0.75664
-1.03152
0.274875
0.160498
0.00594383
-0.625222
0.030791
-1.86188
1.06561
0.107115
1.01144
0.0250196
-0.336089
0.31107
-2.52768
1.05023
-0.288011
0.282997
-0.321457
-0.033985
-0.361469
0.395454
-0.952443
0.373715
-1.86085
1.65183
1.68312
-0.815209
-0.343403
0.306708
0.0366951
0.40445
0.35438
-0.24526
-1.92992
0.718896
1.21102
-0.227234
0.183491
-0.14671
0.515463
-0.368753
0.62943
0.407696
0.02539
-0.00401133
-0.0213786
-0.440305
0.468993
-0.0976995
0.313661
0.990232
-1.45411
1.82249
0.115674
-0.941878
0.0570523
1.68616
-0.0555044
-1.63066
-0.0316013
0.269119
-0.237517
0.990773
-1.97146
0.390478
0.487751
-0.878229
0.0621677
-0.0809345
0.0187668
-1.29211
1.27887
0.0132411
-0.757916
1.2076
0.827659
0.195688
1.67298
-0.563984
-1.10899
-0.0233395
-0.169054
0.192394
-0.379848
-0.528649
-0.0312621
-0.512545
-0.0161047
0.0209456
-0.551326
0.53038
-0.148882
1.66623
-1.51734
-1.54879
0.605013
0.943777
0.472012
1.64657
0.0811108
0.027567
-0.108678
0.970669
0.420353
-1.39102
-0.0232328
0.577315
-0.710524
1.7897
-1.07918
-1.5066
0.20846
1.1766
0.485355
-1.3426
-0.00156488
-0.179939
0.181504
1.78067
-0.425185
-1.35549
0.615745
0.363381
-2.08939
1.06651
1.93742
-2.01613
-0.90124
0.216128
0.685112
-0.0510741
-0.298962
0.375074
-0.0761127
-0.744223
0.395232
0.348992
-0.0152917
0.191827
-0.176535
-0.178919
0.176369
0.0025503
-0.963594
2.05391
-0.489987
0.51604
0.174217
-0.320926
0.627562
-0.924374
0.296812
-1.10616
-0.813272
-0.639147
0.250537
0.501791
0.0388104
-0.540601
1.96027
-0.495293
-1.46498
0.203639
1.11077
-0.401451
-0.227331
-0.950425
0.136959
0.76544
0.905652
-1.67109
0.0108741
-0.0527294
0.0418554
-0.0430745
0.579877
-0.0876135