/*--------------------------------*- C++ -*----------------------------------*\
| =========                 |                                                 |
| \\      /  F ield         | OpenFOAM: The Open Source CFD Toolbox           |
|  \\    /   O peration     | Version:  2306                                  |
|   \\  /    A nd           | Website:  www.openfoam.com                      |
|    \\/     M anipulation  |                                                 |
\*---------------------------------------------------------------------------*/
FoamFile
{
    version     2.0;
    format      ascii;
    arch        "LSB;label=32;scalar=64";
    class       volVectorField;
    location    "2.8";
    object      U;
}
// * * * * * * * * * * * * * * * * * * * * * * * * * * * * * * * * * * * * * //

dimensions      [0 1 -1 0 0 0 0];

internalField   nonuniform List<vector> 
5098
(
(2.60549 0.796502 0)
(2.21792 0.00169857 -3.25182e-20)
(2.13303 0.0965929 -2.71086e-21)
(1.60926 -0.725104 7.20601e-19)
(1.82574 -0.370332 0)
(0.933289 -0.452594 0)
(2.27681 0.000490615 3.53631e-20)
(2.11525 -0.204455 7.1691e-22)
(2.35171 0.0360847 -5.71705e-20)
(2.31182 -0.400642 1.10879e-20)
(1.5333 -0.741192 0)
(2.31375 -0.0772842 1.65036e-19)
(2.55733 -0.423013 -8.36628e-21)
(0.999152 -0.489029 0)
(1.93191 -0.092212 3.93612e-20)
(1.98346 -0.0152114 1.39552e-21)
(1.22876 -0.632098 -6.58266e-20)
(1.43888 -0.750799 0)
(-0.532171 -0.166251 5.66567e-19)
(1.09869 -0.56058 7.43147e-20)
(1.85078 0.484059 -7.12583e-20)
(1.92273 0.0350761 4.10767e-21)
(2.16507 -0.836578 0)
(0.846687 -0.038363 2.75091e-20)
(0.788788 -0.390332 0)
(1.54319 -0.631273 0)
(1.94917 -0.0548759 1.1824e-19)
(1.92104 -0.818787 1.88991e-19)
(-0.245308 0.283986 -1.71069e-18)
(1.77514 -0.777221 0)
(2.4315 -0.139127 -1.03048e-19)
(0.769743 -0.374689 0)
(1.91039 0.109706 -1.31775e-19)
(1.4358 -0.732333 0)
(2.44269 0.156737 -3.31452e-20)
(3.17299 -0.417139 1.19542e-18)
(1.92009 -0.489888 1.39607e-19)
(1.98399 0.0127357 -3.61434e-21)
(1.40787 -0.476048 5.27356e-19)
(1.45192 -0.67307 0)
(1.61824 -0.73894 -3.39133e-19)
(1.69981 -1.33763 -2.45664e-19)
(1.55988 -0.636177 0)
(2.53883 0.296193 4.58393e-20)
(2.45094 0.552027 3.62909e-20)
(2.05422 0.0504209 7.1072e-21)
(1.31099 -0.653713 2.45582e-20)
(1.16218 -0.403847 0)
(2.45729 -0.162256 0)
(1.61015 -0.688398 7.68237e-20)
(2.25787 0.147069 5.1534e-20)
(1.69576 0.364667 -4.37027e-19)
(-0.591301 0.141636 -1.81476e-20)
(2.13082 -0.116376 1.69355e-19)
(0.998534 -0.501017 -3.20865e-19)
(1.61355 0.113165 0)
(1.88451 0.306008 -2.3384e-19)
(1.71368 -0.70824 0)
(0.910813 -0.448428 0)
(1.94969 0.0531973 -3.24765e-21)
(1.78081 0.239854 -1.56908e-20)
(0.633306 -0.308763 -8.13239e-20)
(2.47876 0.214901 0)
(2.5258 -0.419634 0)
(-0.655693 -0.0170946 7.62724e-19)
(0.862276 -0.433688 4.01725e-19)
(2.01862 0.032915 6.63752e-21)
(2.30012 0.0859406 9.8357e-21)
(2.13528 -0.250438 1.7019e-19)
(1.75349 -0.742612 2.24666e-19)
(1.89527 0.231758 1.54665e-20)
(1.15929 -0.36512 -1.91538e-20)
(1.98977 -0.830985 0)
(1.46791 -0.654202 0)
(1.86595 0.0536026 -7.21072e-21)
(1.17501 -0.575619 -3.67906e-19)
(1.91333 0.160181 0)
(1.55236 0.174826 4.09319e-19)
(2.74675 0.0229485 2.08781e-20)
(1.65948 0.177184 0)
(1.786 -0.0463577 0)
(2.4003 -1.3234 2.61324e-19)
(1.74546 -0.32045 4.92545e-19)
(1.50393 -0.730923 -9.96486e-21)
(1.40925 -0.774821 4.47282e-20)
(1.60629 -0.706465 1.79622e-19)
(0.172714 0.164645 -2.5344e-19)
(1.94054 0.0573123 7.9007e-22)
(2.37257 -0.215628 3.49093e-20)
(1.7913 0.285469 -1.78124e-20)
(2.31416 -0.254737 -7.36799e-21)
(-2.43474 1.39429 1.22992e-18)
(2.42939 -0.116508 -2.00783e-19)
(1.62764 -0.708298 -3.84287e-19)
(1.39474 -0.506542 9.30177e-20)
(0.998531 -0.741272 8.81926e-20)
(1.09305 -0.548092 -3.08651e-19)
(1.5648 0.199567 3.0147e-19)
(1.79846 0.139013 -7.15729e-21)
(2.08658 -0.496544 -1.14657e-19)
(1.7403 -0.62697 -4.05058e-20)
(1.05604 -0.52152 -3.80951e-19)
(-0.0267799 -0.0950016 -1.78713e-20)
(2.09613 0.0985047 -2.13624e-20)
(1.58757 0.151499 -4.65291e-19)
(2.45072 0.970315 0)
(1.91785 0.268117 2.47301e-19)
(2.09698 0.0504216 1.5106e-20)
(1.10639 -0.451417 7.18195e-20)
(1.53582 -0.74817 0)
(1.09898 -0.529262 -8.27366e-19)
(2.20901 0.700227 8.32548e-19)
(1.93556 0.024992 -2.50445e-19)
(-2.19849 0.636784 2.36349e-19)
(1.8467 0.589332 1.01658e-19)
(0.27031 -0.0720194 0)
(2.25072 -1.24597 4.01512e-19)
(2.78714 1.18522 0)
(2.00421 0.087315 1.90158e-20)
(0.885643 -0.0870492 -4.2288e-19)
(1.73107 0.373332 3.58885e-19)
(1.65036 1.81676 -8.92845e-20)
(2.32313 -0.418591 -3.96825e-21)
(1.35232 -1.76279 -2.69371e-19)
(-2.18836 1.13336 -1.92649e-18)
(0.59113 -0.296971 8.30823e-21)
(2.18265 -0.1148 1.45498e-19)
(2.14702 -0.801599 -2.21778e-19)
(1.42339 -0.19594 -1.1082e-19)
(-2.30392 0.806439 -5.0784e-19)
(0.943862 -1.06523 -1.14479e-19)
(1.19844 -0.532175 -5.298e-19)
(1.22755 -0.531132 4.43623e-19)
(2.66504 1.25552 -1.31873e-19)
(1.58127 -0.611793 -1.0925e-19)
(2.1744 -0.525482 1.60835e-19)
(2.08244 2.28593 5.29098e-19)
(1.91097 0.268772 1.67583e-19)
(0.92172 -0.454182 0)
(2.12067 -0.108161 -5.39406e-19)
(1.62314 0.478893 -2.91045e-19)
(1.36568 -0.332137 3.91851e-20)
(1.82741 -0.832113 3.60526e-19)
(2.27657 0.0662513 -1.52038e-20)
(2.00841 0.00241966 -4.63809e-20)
(2.04147 0.0880595 0)
(2.13317 -0.271357 1.76891e-19)
(1.7467 -0.365231 0)
(2.44035 -0.15022 2.32352e-19)
(1.71178 -0.784713 1.34972e-19)
(1.91419 -1.02506 -1.15115e-19)
(2.76236 0.54892 0)
(1.77642 -0.390257 3.68644e-20)
(2.02443 -0.0359702 0)
(0.159861 0.0835036 -3.16755e-19)
(0.890351 -0.358572 -1.75525e-19)
(1.71343 -0.695508 -4.03118e-19)
(1.72538 -0.616672 -2.84232e-20)
(1.56231 -0.731626 -2.77578e-19)
(-0.271481 -0.0274299 1.7293e-18)
(2.00428 -0.463259 -3.80354e-19)
(1.90678 -0.124545 -5.32543e-20)
(2.51 0.42306 -5.04803e-19)
(1.81823 -0.189836 -3.07617e-19)
(1.37232 -0.701141 -4.15748e-20)
(2.5081 -0.0818722 -9.7355e-20)
(1.80789 -0.396583 -1.24936e-19)
(2.40845 -0.57907 0)
(0.979062 -0.503866 5.17692e-20)
(1.75837 -0.576446 -4.4044e-19)
(0.944447 -0.682104 -6.1707e-20)
(1.61478 -0.660502 -2.61824e-19)
(2.192 0.437065 9.0009e-20)
(1.91469 -0.791 3.3748e-19)
(2.45575 0.0334259 0)
(1.93124 0.0150596 0)
(1.77501 -0.325257 -1.91301e-19)
(3.05755 -0.353004 -6.38905e-20)
(1.80449 -0.193909 4.23178e-19)
(0.357578 0.0200812 0)
(1.98571 2.34563 0)
(2.26511 -1.07559 -3.3977e-19)
(1.80395 -0.583158 5.40915e-19)
(1.35689 -0.68349 0)
(1.91201 -0.23083 0)
(2.65686 0.531438 4.92154e-19)
(1.55481 0.240412 0)
(1.95525 -0.473574 4.79751e-19)
(1.0327 -0.505259 7.14347e-19)
(-0.352826 -1.4037 -4.23741e-19)
(2.52483 0.919958 0)
(1.61867 -0.228266 1.19475e-19)
(2.01156 -0.846966 0)
(1.77518 0.0494114 -7.12209e-21)
(2.49736 -0.0951346 1.08303e-20)
(-2.43184 1.24317 -1.22204e-18)
(2.65121 -1.06304 2.71887e-19)
(2.20921 -0.548255 0)
(2.04203 -0.00145161 -2.79318e-21)
(1.77962 -0.561963 -7.97473e-20)
(0.756211 -0.925073 -2.01392e-19)
(1.68128 0.326322 5.4628e-21)
(2.42632 0.577466 7.87561e-21)
(2.18877 -0.0153676 4.53005e-21)
(1.62441 0.0558164 1.92847e-19)
(0.854291 -0.35912 -1.2563e-19)
(2.56757 -0.0369549 -1.12089e-20)
(1.26058 -0.585666 0)
(2.18758 -0.0756017 0)
(1.32303 -0.641778 -3.72694e-19)
(2.01956 -0.1825 -1.5632e-19)
(1.68628 0.296559 2.92293e-19)
(1.71187 -0.306221 -1.21554e-19)
(2.11529 0.0692507 -1.51543e-19)
(2.05174 -0.0688181 -1.18796e-19)
(1.21962 0.173468 -4.48446e-19)
(1.85495 0.0914329 0)
(1.51751 -0.747597 -8.49228e-20)
(-2.31434 1.48382 2.54117e-19)
(2.01742 0.000976857 1.12367e-19)
(2.36262 -0.271789 -2.73075e-20)
(1.64023 -0.344764 0)
(2.03836 0.0511806 1.5602e-20)
(2.3507 -0.286426 1.40421e-19)
(-1.89691 0.572627 2.15758e-19)
(2.06711 -0.18922 0)
(0.4667 -0.140501 0)
(1.94953 0.0462022 0)
(2.04709 -0.503057 0)
(1.80248 -0.715191 3.46152e-21)
(1.8497 0.395794 0)
(0.655353 -0.286606 -4.58588e-19)
(2.52251 -1.04479 -2.61847e-19)
(2.03147 -0.00704135 -3.13711e-21)
(2.45339 0.0385074 -6.32715e-20)
(2.28195 -0.0178498 0)
(1.52802 1.38615 -1.52368e-19)
(0.188526 -1.46072 -8.51103e-19)
(2.5932 -0.387466 0)
(1.82414 -0.0176685 3.03991e-19)
(2.32899 -1.57407 -8.81101e-19)
(2.26104 0.53222 0)
(2.13099 0.024522 0)
(1.0942 -0.284033 7.74037e-19)
(1.83201 0.445638 -3.71464e-19)
(2.31861 -0.152074 -1.75901e-19)
(1.12218 -0.539109 8.57528e-20)
(1.52737 -0.739572 -6.31943e-20)
(1.41064 -0.712503 0)
(2.26517 -0.139224 5.14047e-20)
(2.28985 0.705973 -4.67047e-20)
(1.92621 -0.814963 3.48106e-19)
(-0.839478 1.25781 8.20835e-19)
(0.44509 -1.21767 2.03662e-19)
(1.96163 -0.000658073 -2.27346e-19)
(0.324202 -1.69636 8.55927e-19)
(1.61132 -0.54833 9.48476e-20)
(1.406 -0.528809 -4.96685e-21)
(1.19385 -0.423084 -3.25235e-19)
(1.91403 0.0517597 -8.694e-21)
(2.67646 0.479822 7.16742e-20)
(-0.971732 0.116671 4.64647e-19)
(0.705441 -0.35836 8.16823e-20)
(1.94108 -0.842402 0)
(1.96727 -0.0428017 -9.19108e-22)
(1.10439 -0.518724 2.8541e-20)
(-0.115224 -0.0479569 -2.02945e-18)
(1.50128 -0.742374 0)
(1.10759 -1.21701 0)
(1.8438 -0.00612869 -2.82558e-20)
(-0.430491 -0.956847 5.23379e-19)
(1.9319 0.061643 -3.42657e-20)
(-0.024921 -0.0403542 -9.25527e-19)
(1.75273 -1.07091 0)
(1.20735 -0.484508 2.34219e-21)
(0.31332 -0.229054 9.85751e-21)
(1.63882 -1.26133 -1.97509e-19)
(1.9608 -0.908158 0)
(2.30304 -0.735849 0)
(1.98673 -0.171922 0)
(0.950876 -0.96949 -6.62683e-20)
(2.07632 -0.125399 7.56197e-20)
(-1.7687 0.449705 -8.5892e-19)
(2.09062 -0.133453 -8.40368e-20)
(2.107 -0.565332 -3.6769e-20)
(1.08612 -0.653799 0)
(1.92854 0.0387205 0)
(2.07016 0.101073 -5.8847e-20)
(2.47455 -0.057956 7.83206e-20)
(1.869 -0.0106861 -2.51303e-19)
(1.61693 -1.78692 0)
(-0.0107504 1.32743 1.24108e-18)
(1.0975 -0.0735465 -2.27346e-19)
(2.41216 0.462046 2.97381e-20)
(2.01519 -0.645268 3.64728e-19)
(1.69184 -0.344802 -1.2115e-20)
(2.38615 -0.017409 0)
(2.48364 -0.139866 -9.31737e-20)
(2.02448 0.0679656 0)
(2.01134 0.0627434 -1.46941e-19)
(2.05164 0.0860877 4.79673e-20)
(2.39025 0.0594155 7.4979e-20)
(1.65334 -0.456909 5.12676e-19)
(1.88823 0.409036 2.04798e-19)
(0.941392 -0.449443 -4.54442e-20)
(1.85066 -0.76077 -2.14125e-19)
(2.65432 1.70693 -1.53487e-19)
(2.05603 -0.00381967 0)
(1.86621 -0.475323 0)
(1.41818 -0.699048 0)
(2.30016 -0.282554 3.58216e-20)
(-0.676808 1.6089 8.49418e-20)
(0.856696 -0.426666 4.21834e-19)
(1.91668 0.0119549 -9.95676e-22)
(2.59511 -0.426952 -3.20961e-20)
(0.228852 0.0130698 6.21701e-19)
(1.97384 2.18758 -5.62236e-20)
(2.15059 0.049374 -1.43472e-20)
(2.24193 -0.134456 5.11855e-19)
(0.934348 -0.401769 0)
(2.73902 0.0255237 -2.25566e-20)
(0.10104 1.69436 -2.35249e-18)
(2.5445 -0.214363 -3.11284e-19)
(-2.03653 1.70587 -4.77324e-20)
(1.90651 0.11343 -4.72415e-21)
(1.39147 -0.443417 3.54902e-19)
(2.23576 0.707851 0)
(1.98542 0.0726602 -8.58746e-20)
(1.11402 -0.455654 -7.59439e-19)
(1.98442 0.0944248 -1.74378e-20)
(1.32163 -0.640698 0)
(2.23683 -0.114164 -1.51135e-19)
(1.08036 -0.524931 2.38557e-19)
(2.34483 -0.732571 -9.85782e-20)
(1.77918 -0.749668 -3.03928e-19)
(2.38144 0.100147 -5.07014e-20)
(2.44947 -0.358857 8.39635e-21)
(0.985725 -0.488314 4.65633e-19)
(2.12444 -0.0649301 2.19382e-19)
(1.88593 -0.43717 0)
(1.84577 -0.841768 -3.41182e-19)
(1.73484 -0.743628 -9.18533e-19)
(2.68107 -0.060709 1.51146e-20)
(2.00273 0.0104941 3.64476e-20)
(2.78189 1.47193 0)
(1.79959 0.077281 0)
(2.01222 -0.159232 -1.72424e-19)
(1.05787 0.594466 4.1844e-19)
(2.7929 1.10705 0)
(2.36654 -0.0849441 1.46386e-19)
(1.59291 -0.706792 -4.03692e-21)
(0.945858 0.29462 -5.57583e-19)
(0.921794 -0.401716 -4.05538e-19)
(0.819137 -0.919696 6.96425e-20)
(1.89681 -0.00994373 4.1164e-21)
(0.958643 -0.826892 2.12937e-19)
(2.14504 -0.492538 -1.34327e-19)
(2.19651 0.0930437 0)
(1.44771 -0.161322 -9.55199e-20)
(1.17562 -0.19018 0)
(2.0117 0.109164 -4.21159e-19)
(2.04171 -0.454031 0)
(2.25537 0.0140465 -1.37981e-19)
(1.95633 0.0947532 -1.84106e-20)
(2.52778 0.265018 -4.27587e-20)
(1.18119 -0.459901 4.29101e-19)
(1.93725 0.0178031 -3.43062e-19)
(1.98457 0.336883 -3.91258e-19)
(2.05149 -0.879754 0)
(0.502816 -1.8549 0)
(1.25917 -0.500537 -4.23338e-19)
(2.65556 0.283295 0)
(3.30073 0.153794 -8.76198e-19)
(1.85866 0.142429 0)
(1.17831 -0.429304 2.56523e-20)
(0.821636 -0.395341 7.18032e-20)
(1.79418 -0.599271 6.42704e-19)
(1.16432 -0.444709 -2.00875e-20)
(2.38558 -0.544606 0)
(1.98336 0.0774293 1.5418e-20)
(1.93528 0.00353261 -2.21118e-19)
(0.630681 -0.323966 -9.75695e-21)
(1.94177 0.0521311 -1.92829e-19)
(2.33364 0.0245239 -5.40641e-20)
(2.33982 0.218292 -4.10103e-20)
(3.17632 0.641971 3.44824e-19)
(2.4284 0.30738 -3.84457e-20)
(0.240659 -1.48215 -1.0944e-19)
(1.74697 -0.516418 0)
(0.0497449 -0.147267 1.30998e-20)
(2.01043 0.0877179 -1.47777e-19)
(2.63432 -0.137712 0)
(1.99606 0.0445628 1.30016e-19)
(1.17317 -0.566588 -3.10902e-19)
(1.68036 1.18055 1.31757e-19)
(3.20516 -1.15236 0)
(1.43249 -0.680855 1.13215e-19)
(3.70369 -1.34098 0)
(2.02112 0.057491 3.50576e-20)
(2.08044 -0.105272 -6.05667e-20)
(1.0094 0.632628 1.13285e-18)
(1.06463 -0.101502 0)
(1.60042 0.244321 2.07347e-19)
(1.90768 0.0694925 1.37009e-19)
(0.426374 -0.184196 0)
(1.77387 0.0510446 0)
(2.01625 -0.235235 0)
(0.157742 -0.0748563 9.39422e-20)
(0.686605 -0.173615 -3.15996e-20)
(2.33105 -0.20349 0)
(1.95807 -0.0107959 0)
(1.46945 -0.380353 4.04546e-20)
(-0.733504 -0.409814 0)
(2.38032 0.364844 7.80778e-21)
(2.91518 0.932704 1.91013e-19)
(2.02083 0.0532984 1.04181e-20)
(1.84564 0.403247 -5.37531e-21)
(0.953131 0.373964 6.41178e-19)
(2.99659 1.14292 -2.08608e-19)
(2.4295 -0.208854 6.35809e-21)
(2.06423 -0.092296 1.42935e-19)
(1.63684 -0.201554 -2.31173e-19)
(1.94862 0.838373 -3.00305e-21)
(2.04025 0.090665 0)
(1.01715 -0.866566 -2.06414e-19)
(-2.47304 1.23345 0)
(1.16533 -0.593111 -2.41844e-20)
(1.69791 -0.320199 0)
(2.68977 0.47026 0)
(1.32361 -0.633099 -2.54683e-19)
(2.08679 0.0688659 -1.16755e-20)
(-0.290894 0.304799 -1.83211e-18)
(2.08771 -0.0192338 3.58128e-21)
(1.85509 -0.734769 3.457e-19)
(3.05131 0.795614 2.20742e-19)
(-2.1282 2.07244 2.14193e-18)
(2.03618 -0.00198273 3.20492e-20)
(2.12424 -0.849983 1.27805e-19)
(1.88886 0.0324218 -2.37918e-19)
(3.48107 -1.42716 0)
(1.82074 -0.169099 -4.39912e-19)
(1.83373 -0.511217 3.58088e-19)
(2.00786 0.16127 -5.32645e-19)
(0.926139 -0.483972 -5.35533e-20)
(1.6147 1.18888 -1.2779e-19)
(2.90581 1.04345 2.93952e-19)
(2.44186 -0.580903 0)
(1.88669 -0.0603778 0)
(1.56206 0.678265 -7.38562e-19)
(2.07295 -0.0830441 9.07761e-20)
(1.44869 -0.715733 0)
(2.32086 -0.122651 -1.284e-19)
(1.99728 0.0248136 -2.8328e-19)
(1.21481 -0.647222 -3.33807e-20)
(1.53125 -0.744977 1.31779e-19)
(2.41467 0.190436 -3.7322e-21)
(1.60029 -1.36982 1.05456e-20)
(2.42888 -0.357986 -2.68517e-19)
(1.97727 -0.479164 2.49626e-19)
(3.35876 0.604453 7.74672e-19)
(1.57548 -0.653559 3.31728e-19)
(1.99596 0.0381621 -1.54392e-21)
(1.02119 0.226694 4.67092e-19)
(2.12118 2.08376 0)
(1.74954 -0.494676 2.08108e-19)
(1.48871 -0.747507 0)
(-1.96237 0.38203 -2.83126e-18)
(1.92647 -1.28921 0)
(0.620181 -0.283569 -1.78789e-19)
(1.67776 -0.721269 -4.65531e-19)
(2.91904 0.692374 -3.61221e-19)
(2.11158 -0.866651 0)
(1.46189 -0.661966 0)
(2.53878 -0.394975 0)
(1.99299 0.0425052 1.13046e-19)
(3.50965 -1.49253 -2.0443e-18)
(0.0899648 -0.0676542 1.32867e-18)
(1.62259 -0.323688 -7.06897e-21)
(3.4551 0.630605 -8.45935e-19)
(2.16331 0.268696 0)
(1.2742 1.8419 2.26181e-19)
(2.56102 1.1383 1.29357e-19)
(2.44487 -1.16944 -5.98741e-19)
(1.58923 -0.740998 2.85288e-19)
(2.80392 0.350968 -1.44495e-21)
(1.18956 -0.578222 5.20644e-19)
(2.19979 0.354932 0)
(1.95562 -0.20951 5.42616e-20)
(1.55995 -0.597653 -1.34021e-20)
(1.84409 0.0159904 2.61088e-20)
(3.33581 0.30316 -4.56566e-19)
(1.70965 -0.34271 0)
(2.49691 0.625219 0)
(3.04565 -1.50327 0)
(-2.51612 1.65404 0)
(1.96598 -0.00593792 0)
(1.46069 -0.567357 1.42582e-19)
(3.82722 0.368141 6.60901e-19)
(1.5004 -0.634481 3.94502e-19)
(1.94982 0.0673937 2.34578e-19)
(1.456 -0.742463 0)
(2.09653 -0.876394 2.6999e-21)
(-0.510907 -0.4629 0)
(1.43358 -0.771386 -8.28576e-20)
(-0.537609 -0.0444492 7.53779e-19)
(4.01878 0.0910667 -4.15163e-19)
(1.99612 0.140105 2.68878e-19)
(2.0601 0.0855257 -8.39831e-20)
(3.15408 -0.737242 -3.44372e-19)
(2.29054 -0.00670492 0)
(-1.93385 1.30771 1.82197e-18)
(2.03582 -0.025545 0)
(1.56843 0.803677 1.64953e-20)
(2.52231 -0.0187791 0)
(2.10786 0.204029 -1.03275e-19)
(2.06829 -0.0524022 0)
(0.976288 -0.383677 -2.86014e-19)
(0.0385808 -0.410762 3.17487e-19)
(2.00452 -0.0647663 -6.36913e-20)
(1.38037 0.332851 4.19222e-19)
(0.28715 -0.139738 -1.92396e-19)
(1.83855 -0.332816 0)
(1.06404 -0.255871 -1.09523e-18)
(2.00343 0.088062 7.63745e-21)
(3.68431 -0.4344 -1.2039e-18)
(1.88598 0.0350181 3.87894e-21)
(2.34784 -1.0796 6.09462e-19)
(3.97412 0.389122 0)
(1.81412 -0.817318 -7.38786e-20)
(1.49796 -0.682257 0)
(2.63389 -0.100981 1.03545e-20)
(0.519873 -0.170864 7.02153e-20)
(1.26818 -0.814365 0)
(2.3828 0.40115 0)
(1.61526 -0.631508 -6.86716e-20)
(2.43963 0.608028 0)
(1.7813 1.6659 8.41869e-20)
(2.96473 0.642777 -3.45148e-19)
(-2.29461 0.865893 -9.1518e-19)
(1.44 -0.729419 -5.44312e-20)
(1.89749 0.0817241 -4.59747e-21)
(1.15277 -0.668318 -9.80269e-22)
(-0.188219 -0.173286 -2.33972e-19)
(1.89868 -0.0448171 4.70643e-19)
(1.14585 -0.598783 3.79036e-20)
(0.451762 -0.21562 0)
(2.2917 0.00668703 -5.7611e-20)
(1.55048 -0.633243 9.17045e-20)
(0.482472 0.138862 7.61754e-20)
(3.56183 -0.17924 9.25037e-19)
(2.92779 1.4365 0)
(1.82536 -0.544985 -3.59708e-19)
(1.9749 0.249967 1.88638e-21)
(3.56295 0.541454 -9.87323e-20)
(2.47283 -0.0726598 -2.0732e-19)
(1.53308 -0.741459 3.35003e-20)
(1.07983 -1.05839 1.49544e-19)
(1.51326 -0.621475 -9.51775e-20)
(1.52796 -0.750315 1.97304e-21)
(2.38507 -0.203679 -1.86349e-19)
(1.52998 -0.749148 -3.753e-20)
(1.80141 -0.339468 0)
(1.89355 -0.190092 -4.28864e-19)
(0.365724 1.59451 0)
(1.38259 -0.722068 -3.50897e-20)
(1.73571 0.97418 3.17044e-19)
(-1.21071 1.9583 1.29881e-18)
(2.00232 0.0901282 -4.67837e-21)
(0.674271 -0.326999 1.009e-20)
(-0.895974 1.62518 0)
(2.22688 -0.8192 3.36443e-19)
(2.2136 -0.868526 7.8994e-20)
(-0.539147 1.89106 -1.09351e-18)
(1.83918 0.489328 0)
(1.70788 0.442302 0)
(0.271637 0.252679 0)
(1.48449 -0.500215 -3.11475e-20)
(1.93071 -0.0322891 -4.18088e-19)
(1.38758 0.123323 0)
(1.77905 -0.641334 0)
(2.21129 0.108739 -1.14325e-20)
(1.84469 -0.9895 4.38554e-21)
(2.06712 0.267406 -3.11199e-19)
(1.71841 -0.400265 -5.77382e-20)
(1.80606 0.00087801 5.24462e-20)
(1.98769 0.0370757 -6.18522e-21)
(1.99854 0.0834802 -2.74014e-20)
(1.95536 0.453018 -2.39767e-20)
(1.93183 1.1275 0)
(-0.0787233 -0.210455 1.99285e-20)
(-1.25314 1.12558 0)
(1.04864 0.108384 0)
(2.74811 -0.015905 -4.05029e-19)
(1.37452 -0.756169 0)
(2.43448 0.272349 0)
(1.96018 -0.137481 6.58627e-19)
(1.91832 -0.844248 0)
(2.0458 0.334524 3.91476e-19)
(3.36092 0.080192 4.54745e-19)
(3.16848 0.244829 1.49659e-19)
(1.99024 0.0857639 1.89464e-21)
(1.20665 1.22168 2.34211e-19)
(2.24785 -0.860401 3.82621e-21)
(2.0284 -0.806541 -5.65181e-21)
(1.23386 -0.478332 4.13531e-19)
(1.19605 -0.701667 0)
(0.990319 -0.491273 0)
(1.2012 -0.600693 -1.29799e-19)
(0.104509 -0.397702 -4.19057e-19)
(1.4682 -0.689211 0)
(1.17236 -0.665629 6.71301e-20)
(-0.401185 -0.0683545 0)
(-1.87798 1.67147 2.08357e-18)
(1.18434 -0.55187 -5.36087e-19)
(3.26473 -0.0954288 -1.99987e-20)
(3.14462 0.424007 3.64517e-19)
(1.28189 -0.436771 8.36953e-20)
(2.27691 -0.109189 8.85187e-20)
(2.36591 0.877392 0)
(2.4277 0.750097 0)
(1.10659 -0.0120104 0)
(-0.0917379 0.321651 -7.66847e-19)
(1.46194 -0.573533 0)
(2.3113 0.632633 0)
(1.99146 -0.0451595 0)
(2.49908 -0.414892 -5.17275e-20)
(-1.9545 0.51463 5.51986e-19)
(2.06543 -0.79755 -1.86499e-19)
(1.47335 -0.511834 7.5247e-20)
(1.85811 0.278955 0)
(1.21059 -0.914628 0)
(2.01507 -0.607915 -3.32695e-19)
(1.5854 0.480913 6.21454e-19)
(0.876502 -0.480642 -7.17227e-20)
(2.09215 0.131803 -9.67982e-21)
(1.76364 -0.478917 3.81388e-19)
(1.02634 0.410127 -1.0079e-18)
(-0.0203207 -0.511483 0)
(1.26574 1.27562 -5.55401e-19)
(0.45339 0.272715 -6.30814e-19)
(3.14013 0.016364 0)
(2.42235 -0.121259 0)
(1.77162 -0.031732 0)
(2.013 0.031153 -4.19566e-19)
(1.50386 0.217885 -4.28852e-19)
(1.66675 0.127122 0)
(3.68538 1.26803 1.76646e-18)
(1.84869 -0.828462 3.46429e-19)
(2.54656 -0.347584 6.47518e-20)
(1.14277 -0.535327 5.75768e-20)
(2.06453 -0.270644 0)
(2.42375 0.0373211 3.29857e-20)
(1.80339 -0.457226 0)
(1.54211 -0.658683 -8.8916e-20)
(1.78924 -0.812576 0)
(2.17051 -0.782599 4.09708e-19)
(1.59558 -0.331488 -1.4644e-21)
(2.03316 0.0623841 -1.26073e-20)
(2.5243 -0.368911 0)
(1.87093 -0.804744 0)
(1.65339 -0.707626 -4.86586e-19)
(2.27261 0.29777 -8.62348e-21)
(1.46682 -0.755449 4.04266e-20)
(0.910533 -0.436578 4.19759e-19)
(1.92496 -0.102461 0)
(1.6044 0.204304 -6.46891e-19)
(2.23911 -0.00620222 -5.30245e-20)
(1.5178 -0.477547 -3.06493e-20)
(2.02519 0.0535681 -1.69248e-20)
(2.04071 0.0721666 0)
(1.24449 -0.369245 5.87816e-19)
(1.00169 0.152635 -6.42875e-19)
(3.68769 0.265513 1.01445e-20)
(1.81566 0.21558 -7.30672e-19)
(1.1692 -0.548778 5.18208e-20)
(1.40559 0.520832 -1.86749e-18)
(1.73244 -0.285499 1.84283e-20)
(2.06669 -0.0319889 -3.8795e-20)
(2.27093 0.273681 1.47432e-18)
(-0.470651 0.0465925 1.0986e-20)
(1.39719 -0.660366 9.49485e-20)
(1.4506 -0.763206 8.59526e-20)
(1.80851 0.0513738 7.46376e-21)
(2.42299 -0.199362 0)
(3.9459 -1.28213 1.86428e-18)
(1.19023 -0.579709 2.35288e-19)
(1.74607 -0.27078 2.28748e-19)
(-0.79849 -0.110125 0)
(1.68117 -0.416353 -6.12578e-20)
(1.96375 0.0148313 2.0565e-21)
(1.93659 0.0424942 0)
(-0.753819 -0.325158 3.0695e-19)
(1.52281 -0.761144 2.52898e-20)
(1.88175 0.223794 0)
(1.11412 -0.425507 0)
(1.55422 -0.392816 -3.91312e-20)
(1.57472 -0.511367 -9.45364e-21)
(2.68483 -0.0362133 1.46051e-19)
(0.302006 -0.210598 0)
(2.05014 0.0485796 -3.71624e-19)
(1.91844 -0.37891 -4.0231e-20)
(2.23691 -0.756691 2.32366e-20)
(1.28595 -0.500638 5.20299e-19)
(1.43229 -0.713848 -7.53725e-20)
(1.38039 -0.791764 5.25779e-20)
(3.67628 0.132846 -8.78614e-21)
(1.90143 -0.871664 0)
(2.85267 0.676031 -1.37786e-18)
(1.63982 -0.651293 2.43637e-19)
(2.10965 1.87093 1.72633e-19)
(0.88932 0.554089 0)
(1.20392 -0.255941 -5.19527e-19)
(1.28888 -0.550158 -6.31469e-19)
(1.30484 -0.696437 9.04918e-20)
(-2.01769 0.972718 -1.81132e-18)
(2.63302 1.6513 0)
(-0.493701 -0.294769 -8.364e-19)
(2.25784 0.478668 0)
(-0.220837 0.774168 -1.73279e-18)
(0.0975768 0.103159 1.32685e-18)
(0.291587 -1.89277 0)
(1.3404 -0.751894 3.26754e-20)
(1.65561 -0.13951 -9.4288e-20)
(-2.42271 1.01696 5.94782e-19)
(1.73931 -0.689779 4.41383e-19)
(1.08225 -0.562772 -2.13716e-19)
(1.25531 -0.578306 0)
(2.01824 0.0913036 1.31077e-19)
(3.00145 0.319185 0)
(2.20159 0.124667 -3.29443e-21)
(-0.36964 0.586473 -1.64926e-18)
(0.616123 -0.253172 2.73397e-19)
(2.05058 0.102159 0)
(1.94131 -0.785252 -3.30554e-19)
(2.53739 -0.346266 8.87107e-20)
(1.31611 -0.815463 1.3242e-19)
(1.51709 -0.739431 0)
(1.34562 -0.795088 -1.17814e-19)
(3.61605 0.402077 -1.00678e-18)
(1.62511 0.193665 8.28417e-19)
(1.80142 -0.284341 0)
(2.11182 -0.00928658 1.64908e-19)
(0.247046 1.35202 1.02616e-18)
(-1.92194 0.39188 -3.2499e-19)
(2.24467 -0.592281 1.27635e-19)
(1.25373 -0.590548 0)
(1.72332 -0.078403 -1.19427e-20)
(2.0052 0.0521693 7.89075e-22)
(2.5853 -0.346081 1.00265e-19)
(2.23684 0.0500019 0)
(1.18948 -0.972251 7.24967e-20)
(1.7258 -0.476797 -5.68385e-22)
(1.33758 -0.397209 6.45793e-20)
(3.52735 0.270026 0)
(2.09261 -0.813575 -1.45375e-19)
(1.23733 -0.673222 1.54361e-19)
(1.76393 -0.446002 -4.77017e-19)
(0.179014 0.110493 0)
(2.15833 -0.770356 1.50659e-19)
(2.11733 -0.789285 1.19508e-19)
(1.3241 -0.624185 -9.61414e-20)
(1.87483 0.255155 0)
(-2.31011 1.01474 2.04095e-18)
(1.56832 -0.449117 0)
(0.917759 -1.14117 1.64473e-19)
(1.66488 -0.567049 0)
(1.91649 -0.154294 -2.42628e-19)
(2.16985 -0.236233 -2.45999e-19)
(3.26029 1.05535 -8.95479e-19)
(1.44588 -0.323033 0)
(2.05862 -0.880641 -2.24409e-19)
(2.05558 0.0462291 0)
(2.32482 0.332743 0)
(2.15567 -0.885827 6.26799e-20)
(1.1 -0.992168 7.44017e-20)
(0.656804 -0.120746 1.72103e-19)
(2.17248 -0.58588 -7.69664e-20)
(1.67834 0.29081 2.70485e-19)
(1.2648 -0.706783 -1.47271e-20)
(2.02722 0.147866 1.46513e-19)
(-0.264147 -0.572793 -5.34811e-20)
(1.83605 -1.2328 0)
(2.34603 0.104377 0)
(0.263293 -0.524191 0)
(1.49399 -0.72487 1.38213e-19)
(1.2497 -0.437385 -3.65288e-19)
(1.5507 0.0715602 0)
(0.860352 -0.427573 1.6025e-19)
(2.32472 -0.144807 -1.69215e-19)
(1.14577 -0.547881 -5.93951e-20)
(1.44608 -0.54063 -1.18668e-19)
(2.22777 -0.884023 0)
(-2.09279 0.691932 1.5279e-18)
(-0.991068 -0.0813385 -8.78717e-19)
(0.0152231 -1.55474 0)
(-0.585906 -0.108874 -1.14321e-18)
(2.02034 0.0328273 9.50865e-21)
(2.41133 0.266466 8.67047e-20)
(1.96894 0.0358504 2.46989e-19)
(2.82548 0.820829 -3.73545e-19)
(2.36322 0.168111 4.05846e-21)
(1.16877 1.25801 0)
(1.99526 -0.790949 0)
(0.698108 -0.348948 1.58135e-19)
(-1.59887 0.974172 0)
(1.6745 -0.370077 -6.19435e-20)
(2.20991 -0.790705 -2.13735e-19)
(1.04802 -0.492378 4.40285e-19)
(1.97012 -0.0696793 -5.75292e-20)
(1.73319 0.328953 -2.68295e-19)
(1.59734 -0.640197 -2.39663e-19)
(1.68956 -0.670815 -4.44253e-19)
(1.55383 -0.517096 0)
(1.78913 -0.703106 4.20366e-19)
(1.94976 -0.0524709 0)
(2.57722 -0.385746 -6.52535e-21)
(2.05896 1.19062 9.86378e-21)
(1.94229 -0.957277 -1.79923e-19)
(2.27776 -0.373048 -2.09079e-19)
(-1.96623 1.51311 -1.58327e-18)
(-0.230265 -0.28521 0)
(1.60754 -0.714023 -2.70723e-20)
(1.47504 -1.22475 -1.54697e-19)
(2.1146 0.453932 -1.50328e-19)
(1.89225 -0.769814 3.87226e-19)
(2.19495 0.0636952 -4.20053e-21)
(-2.2239 0.817027 7.14466e-19)
(1.88134 -0.78919 -7.08423e-20)
(0.440398 0.0524656 0)
(1.25541 -0.603098 1.74564e-19)
(1.82532 -0.407382 2.52441e-19)
(2.03935 0.0327777 -1.97257e-23)
(1.25963 -0.552867 9.26658e-19)
(-0.478689 1.87403 -1.31894e-20)
(1.7142 0.578552 0)
(1.5203 -0.738743 -5.6243e-20)
(1.22889 -0.892356 -9.14974e-21)
(1.16128 -0.368718 -6.9737e-19)
(1.46644 -0.70856 6.13065e-20)
(3.20166 0.605387 -3.88042e-19)
(2.17274 0.351791 2.59105e-21)
(1.028 -0.424302 3.15986e-19)
(1.86461 -0.418869 0)
(2.42639 0.0507065 -1.07104e-19)
(2.20543 0.0182406 -3.05107e-21)
(3.04733 0.516653 -3.69815e-19)
(2.10447 0.262721 0)
(3.41723 0.491478 3.61359e-20)
(-0.582823 0.769904 1.66506e-18)
(1.68853 -0.732678 9.41927e-19)
(2.17448 0.576316 2.06408e-20)
(3.13826 -1.4253 -1.07061e-18)
(-1.92236 0.486284 2.98744e-18)
(2.04839 -0.778367 3.82677e-19)
(2.09714 0.000216666 -3.73125e-21)
(-0.719874 1.17014 3.38922e-21)
(2.37352 -0.102865 2.35063e-20)
(1.35377 0.234371 0)
(2.0147 0.0455338 0)
(2.33757 0.450258 0)
(1.83451 -0.71703 -3.6463e-19)
(1.68244 -0.617224 6.24994e-20)
(-0.30864 1.66343 0)
(1.29942 -0.395327 -1.51253e-19)
(0.7559 -2.03291 0)
(2.81616 -0.83497 0)
(0.356123 1.67279 0)
(1.923 0.0301306 0)
(-2.23857 0.97203 -6.39847e-19)
(-0.515922 -0.55496 0)
(2.18432 -1.0562 2.61733e-19)
(1.71794 -0.0173652 0)
(1.98933 0.0400948 0)
(1.9436 0.156719 1.29544e-21)
(-0.197517 -0.433205 0)
(1.90235 -0.725427 0)
(-0.433278 1.12983 0)
(2.18855 0.0177409 2.27307e-20)
(2.09432 0.274818 0)
(2.24606 -0.87092 -7.9572e-21)
(1.53244 0.895991 -1.01372e-20)
(-1.66727 0.491139 -3.51634e-19)
(2.00354 0.0448007 5.99149e-19)
(-0.212911 -0.0168802 -4.3452e-20)
(1.11961 0.821959 -5.34834e-19)
(1.50115 0.652351 0)
(2.46408 -0.346095 8.03304e-21)
(1.69977 -0.220462 -2.23327e-19)
(1.65424 1.56021 1.29527e-19)
(1.85876 0.354441 3.71002e-19)
(0.856201 -0.323015 -6.63464e-19)
(1.58626 -0.697464 -3.69881e-19)
(2.00823 -1.17617 3.58121e-20)
(1.55306 -0.75515 0)
(2.47256 -0.500297 -8.26206e-21)
(1.6106 -0.728673 3.19347e-20)
(2.55486 0.205342 -6.36302e-20)
(0.984164 -0.538253 0)
(1.86475 0.0594889 -2.75254e-19)
(3.21926 0.592211 -1.09072e-18)
(1.42734 -0.587462 4.78785e-19)
(1.31361 -0.60171 -5.78598e-19)
(1.73133 -0.799494 0)
(1.83839 -0.811157 0)
(2.047 -0.927015 2.32645e-19)
(2.35458 -0.376817 -1.2836e-19)
(3.11346 -0.179512 -5.00546e-19)
(1.88599 0.0355401 2.203e-21)
(1.27811 -0.363123 -1.40381e-19)
(1.76461 -0.530953 4.02999e-19)
(2.40041 0.196982 0)
(2.3525 0.25096 1.11105e-20)
(-1.42094 -0.10865 -1.6469e-18)
(1.77372 -0.776895 1.64852e-19)
(1.11225 -0.245195 -3.77425e-20)
(-0.605458 1.00021 9.16682e-19)
(3.02068 -0.115161 4.17948e-19)
(2.51988 0.533024 6.95439e-20)
(2.3896 0.47822 0)
(1.49425 -0.739692 0)
(2.29196 -0.866803 -1.21509e-21)
(1.21827 -0.282301 0)
(1.8992 -0.439761 1.68407e-19)
(1.65789 0.244236 4.68251e-19)
(1.72673 0.437238 -1.37271e-19)
(1.66125 -0.675933 9.6292e-19)
(2.01662 0.0448546 -3.91991e-22)
(1.8343 0.0323928 0)
(1.93735 0.0419694 -3.12233e-21)
(0.632628 1.42664 -1.0927e-18)
(2.07995 0.181575 0)
(2.66896 -0.40092 0)
(1.96995 -0.802506 1.4108e-19)
(1.93524 0.490301 2.02878e-19)
(1.13394 -0.200511 0)
(2.08879 -0.575288 2.30252e-22)
(2.28657 -0.11637 1.09731e-19)
(2.28027 0.22694 2.60467e-20)
(1.81071 0.454082 3.98509e-19)
(1.51391 -0.75713 -7.21433e-20)
(1.33383 -0.251214 0)
(-1.69091 1.76257 -3.91697e-18)
(0.567215 -0.2538 9.91781e-19)
(2.08458 -0.023929 1.58785e-20)
(-1.22665 1.38356 -1.77778e-18)
(1.86925 -0.781343 2.74465e-20)
(2.49046 0.210962 1.70152e-19)
(1.80298 -1.13854 0)
(1.93578 0.12937 2.71071e-21)
(1.82868 0.0222197 8.63637e-20)
(2.26757 -0.0264966 -1.48025e-19)
(2.19863 0.353572 -9.97637e-20)
(2.26706 -0.821354 0)
(1.41112 -0.732289 0)
(2.35479 0.0232229 0)
(2.28255 0.348586 -5.32092e-20)
(1.12558 -0.527497 6.90715e-19)
(2.52169 1.59978 -1.07532e-19)
(1.53826 -0.158724 0)
(0.477146 -0.516149 -4.38886e-20)
(1.50741 -0.732032 6.29819e-20)
(0.414999 -1.33394 0)
(1.90674 0.283429 -1.21713e-19)
(1.67582 0.221161 -1.5665e-19)
(2.39947 -0.409042 -4.60721e-20)
(2.02307 0.0585456 -1.24916e-20)
(0.751106 -0.283342 0)
(2.14072 0.221494 -1.54046e-19)
(2.07244 -0.439957 0)
(2.05013 -0.27914 9.5737e-21)
(1.02338 0.0327328 0)
(2.30071 0.793678 5.21664e-20)
(1.7629 -0.711852 -4.29735e-19)
(2.38168 0.711839 0)
(1.88221 -0.129346 -4.21327e-19)
(2.03206 0.0790419 1.77164e-20)
(1.71074 -0.116859 0)
(1.2 -0.573812 0)
(0.609982 0.118624 -8.4555e-20)
(2.55577 -0.111318 -1.10832e-20)
(1.54307 -0.697961 -3.80984e-20)
(0.868901 -0.505843 -1.69328e-20)
(2.24519 -0.12544 3.00095e-21)
(2.35692 0.602563 7.77594e-19)
(1.78683 0.399049 -1.73696e-21)
(2.07983 0.489717 0)
(3.4193 0.355246 4.82214e-19)
(1.78008 -0.812192 0)
(1.57759 -0.722853 -4.04591e-19)
(1.87745 -0.815295 -4.94576e-19)