/*--------------------------------*- C++ -*----------------------------------*\
| =========                 |                                                 |
| \\      /  F ield         | OpenFOAM: The Open Source CFD Toolbox           |
|  \\    /   O peration     | Version:  2306                                  |
|   \\  /    A nd           | Website:  www.openfoam.com                      |
|    \\/     M anipulation  |                                                 |
\*---------------------------------------------------------------------------*/
FoamFile
{
    version     2.0;
    format      ascii;
    arch        "LSB;label=32;scalar=64";
    class       volVectorField;
    location    "4.2";
    object      U;
}
// * * * * * * * * * * * * * * * * * * * * * * * * * * * * * * * * * * * * * //

dimensions      [0 1 -1 0 0 0 0];

internalField   nonuniform List<vector> 
13486
(
(5.2176 -1.28902 7.20026e-21)
(5.38825 -0.0656143 4.21286e-21)
(7.48124 -0.112804 0)
(10.0476 -3.99607 -4.34556e-20)
(8.6522 -0.87361 -4.07747e-21)
(6.65355 0.387054 -1.18446e-21)
(9.73696 0.926198 1.00517e-22)
(7.33614 -2.41234 1.03004e-22)
(6.80492 -1.2955 0)
(5.57153 0.97285 0)
(-0.836491 -1.29407 -4.99897e-21)
(6.47419 0.140022 0)
(4.91558 -1.82533 -6.96936e-21)
(6.31177 1.31494 -1.80088e-21)
(8.45655 0.569779 -2.39493e-21)
(5.51671 0.995442 -4.27098e-21)
(3.25907 -2.41682 1.54973e-21)
(3.41355 7.35575 -1.5349e-20)
(5.968 0.0626319 5.23901e-23)
(5.55617 -0.792666 -7.52479e-21)
(11.151 -2.00276 -2.31404e-20)
(4.95771 -1.85692 8.97858e-21)
(5.42164 -0.0786355 -3.37481e-21)
(3.10671 -1.0018 0)
(5.80762 0.778661 1.51393e-21)
(6.26458 -1.64011 -6.79439e-21)
(5.75172 -2.84103 5.48803e-21)
(9.21309 0.188855 1.83316e-21)
(3.52738 1.08815 0)
(9.5211 0.0557891 -1.47309e-21)
(10.8136 1.75294 -2.2098e-20)
(7.21846 1.55025 5.02642e-22)
(9.0474 2.38189 1.94979e-21)
(9.10061 -0.260133 0)
(7.36618 -2.296 0)
(4.59671 0.066822 -8.7172e-23)
(5.47277 -0.563283 7.95759e-22)
(5.75952 -2.67352 2.49012e-21)
(6.66766 -1.81177 -2.65597e-22)
(6.69428 -0.814028 2.63104e-21)
(10.2859 -2.5297 0)
(4.28791 -2.0757 -8.39425e-21)
(7.28359 0.1348 0)
(5.85076 0.637042 -7.02146e-21)
(5.8665 0.644567 2.87497e-21)
(6.39439 0.142916 2.67362e-21)
(-0.350066 -2.97716 3.32082e-21)
(3.86373 0.59695 6.83945e-23)
(5.44622 -0.533359 -6.03383e-22)
(7.95885 0.475707 -7.41064e-22)
(5.99288 0.00696026 5.46726e-21)
(7.13691 -0.759891 0)
(5.62978 0.538085 -5.46065e-21)
(5.93764 -2.20447 -3.88464e-21)
(1.98514 8.07966 0)
(8.4723 -1.03524 1.94611e-21)
(5.61806 -0.183551 -5.7466e-22)
(7.28199 -1.16585 -1.10614e-21)
(9.12328 2.45828 3.31061e-21)
(5.32096 -0.724108 0)
(-0.623131 -1.9772 -6.42113e-21)
(5.45331 -0.760307 0)
(5.74989 1.49644 5.57708e-22)
(10.8338 -2.12252 -2.66894e-22)
(-7.42105 3.82389 0)
(5.44622 -0.624683 4.15775e-22)
(9.34845 -4.19054 -4.09387e-20)
(5.04878 -0.691765 2.66959e-21)
(6.80852 -1.36692 -1.15902e-21)
(4.75328 0.106449 -1.24302e-22)
(10.1488 -4.50142 4.72709e-20)
(2.49842 8.01723 -9.95657e-22)
(6.48932 -0.514279 2.32483e-21)
(-1.79546 1.62372 -5.22825e-21)
(5.44846 -0.686397 9.3532e-23)
(5.48764 -0.126302 1.27137e-22)
(5.40077 -0.655074 -3.07533e-22)
(8.56821 0.570703 1.01754e-21)
(-0.346032 -2.36391 -1.47465e-21)
(8.85891 -7.482 0)
(4.91294 0.0956162 6.23823e-23)
(5.20909 0.0737924 -2.78482e-22)
(5.26056 1.28789 1.52012e-22)
(7.51513 -0.229839 -6.95867e-22)
(5.21949 -1.3068 -1.39913e-20)
(4.23698 2.26444 0)
(3.7958 -3.65432 1.75102e-22)
(5.99909 0.0349412 -8.68696e-21)
(5.78061 -0.0411294 -3.59324e-21)
(5.11493 1.38007 -5.69783e-21)
(6.21354 1.82643 -8.61202e-22)
(7.80963 -1.83331 6.48019e-22)
(5.43103 -1.51747 1.73328e-21)
(5.50978 -0.475178 2.09215e-22)
(6.66755 -1.99204 4.32841e-22)
(4.32788 0.466261 3.5905e-24)
(6.77963 -3.28652 0)
(9.55271 -4.8033 2.27089e-20)
(6.68679 -0.773802 -5.06874e-21)
(2.65673 -2.46722 -8.84764e-23)
(5.03602 0.0406024 0)
(6.27831 1.3061 -7.27298e-22)
(9.93587 -5.56674 8.53015e-22)
(7.14549 -1.01866 1.27302e-21)
(3.99793 2.02939 0)
(2.2267 -2.58615 5.41813e-23)
(6.02846 -0.111926 -9.28372e-24)
(6.72812 -2.10393 -7.06459e-22)
(-0.637115 -2.451 2.17166e-21)
(7.56085 -3.32223 0)
(6.01357 -2.77228 0)
(8.16697 2.17993 4.59821e-21)
(5.97075 -2.15857 8.14049e-23)
(7.1764 -0.660473 4.67694e-23)
(4.27678 -1.07509 0)
(5.90424 -2.75898 -9.64805e-22)
(5.75251 0.846603 0)
(9.5473 -0.328264 0)
(6.47812 -0.501745 0)
(5.39367 -0.436469 3.95665e-22)
(3.11331 7.93467 5.97178e-21)
(-0.720603 -1.76808 0)
(6.52153 -1.84065 0)
(6.76789 -1.82974 9.27293e-22)
(6.88435 -2.30583 0)
(7.22641 -0.720754 0)
(7.38 -0.375773 2.73456e-23)
(6.21971 0.128617 3.77968e-21)
(9.08647 -0.443237 -3.62236e-22)
(-6.10316 5.52962 -1.18603e-20)
(6.885 -0.580651 -1.16647e-22)
(-0.402231 -2.77757 -7.4674e-22)
(4.1413 1.85259 1.21549e-20)
(-0.788994 0.677264 5.20659e-21)
(5.99871 0.000407787 -8.67364e-22)
(5.64483 0.38311 -4.82447e-21)
(3.13058 0.386377 -2.74936e-21)
(7.45266 -3.17293 0)
(5.36167 -0.412341 -1.21277e-22)
(7.32602 -1.83709 -2.3589e-22)
(8.33185 1.62532 -1.19748e-21)
(5.71091 0.681618 4.71545e-21)
(6.56473 1.01153 0)
(9.89983 -7.55825 0)
(7.89714 0.11619 2.53944e-22)
(2.99143 2.69663 -1.47467e-21)
(4.47117 -1.16844 -1.61624e-21)
(1.79505 1.16866 0)
(7.98672 0.673189 0)
(3.76832 1.29671 0)
(5.99068 0.0133106 1.11836e-22)
(9.01348 0.14711 0)
(4.98379 0.094216 -6.52873e-23)
(5.15819 0.0708727 -2.38236e-21)
(6.13725 0.473089 0)
(7.8613 -0.148359 0)
(7.58033 -3.20442 0)
(1.48458 1.61798 2.04656e-20)
(6.33219 -2.45838 4.14554e-21)
(5.1417 -1.08786 1.41932e-21)
(7.12181 0.217461 -1.19905e-21)
(6.35515 -2.40869 -6.11507e-21)
(6.24414 3.49274 -1.09741e-22)
(3.85199 -1.9337 3.62021e-21)
(7.42103 -0.905776 0)
(6.48853 1.38252 1.67534e-21)
(6.20356 1.15672 4.84769e-21)
(2.9063 -1.28689 -1.06185e-20)
(4.28887 -1.20461 4.09969e-21)
(-0.682595 0.761048 1.42534e-21)
(3.39735 1.40296 1.0598e-21)
(6.1307 0.416107 2.87531e-21)
(6.00518 0.0587333 -7.99395e-21)
(7.41793 0.23139 2.43052e-23)
(4.85413 0.177647 4.04312e-23)
(2.07588 -8.31415 0)
(6.15722 1.87598 -3.50682e-21)
(7.96925 2.0187 1.46018e-21)
(6.0468 -0.126022 -7.81353e-21)
(6.52471 0.894498 0)
(6.90944 -0.871855 4.36393e-21)
(7.26383 -0.632598 7.98196e-23)
(7.25002 0.540422 1.83434e-23)
(5.74933 -3.06203 0)
(6.80195 -0.639023 1.91623e-21)
(8.61041 0.14796 -8.06403e-22)
(7.48251 1.96273 6.3945e-22)
(9.51776 0.0270471 -6.09638e-22)
(10.2878 -2.49438 0)
(5.3954 -2.56743 -1.94624e-21)
(5.38513 -0.480503 0)
(7.80998 -0.0285715 0)
(7.53748 -1.73481 0)
(4.35376 0.835838 -5.60187e-21)
(7.84705 -1.92623 0)
(-0.995106 -1.04898 -1.61835e-21)
(-6.64727 6.7864 2.19738e-20)
(7.24841 0.138681 -5.70302e-22)
(5.05653 -2.47883 -1.34547e-21)
(6.47825 1.2921 1.40496e-21)
(10.291 2.19396 2.52721e-20)
(6.23118 0.167563 -1.19529e-22)
(5.68594 -2.70568 -2.88553e-21)
(8.82582 -3.37718 -2.90581e-21)
(4.93235 -1.00667 -1.71415e-21)
(7.99627 -1.86017 -1.66046e-21)
(4.83514 9.02294 -1.40424e-20)
(6.19241 -0.455111 5.40007e-21)
(7.45862 -1.69871 0)
(6.98971 -0.579585 0)
(9.35528 0.0449865 1.66895e-21)
(0.37401 -2.0574 9.22696e-22)
(5.59531 -0.723178 6.91003e-21)
(5.99095 -0.10284 -9.45671e-24)
(6.68653 0.449332 1.36595e-21)
(12.2155 2.12977 5.44944e-21)
(9.57095 0.100849 0)
(5.1534 1.33399 1.3062e-20)
(5.68426 -1.52457 0)
(7.19314 1.53412 0)
(2.65951 -2.32207 -2.85342e-21)
(7.76166 0.754731 0)
(7.26347 -1.84322 4.3556e-22)
(7.82049 0.284267 0)
(5.0824 0.246944 -1.20323e-21)
(5.01943 -2.35234 2.35284e-21)
(6.7789 0.847194 1.23454e-22)
(7.08751 -1.21435 1.79867e-20)
(12.5042 -2.41254 1.98632e-21)
(4.15509 -3.64528 -4.01463e-22)
(6.91174 -0.827118 -1.42743e-21)
(11.3875 -0.288754 3.19799e-20)
(8.42197 1.7821 1.43861e-21)
(4.27138 -2.07549 2.92049e-21)
(10.7528 -4.41917 0)
(4.68631 -2.27902 2.6361e-22)
(9.53918 -0.126826 1.31656e-21)
(7.71357 -0.0523827 -4.21735e-22)
(4.67419 -2.23707 7.36827e-21)
(7.00757 0.335287 0)
(9.44269 3.22174 0)
(5.99388 0.0609191 1.23425e-20)
(8.19366 -0.15262 0)
(4.47595 -2.21049 2.26639e-21)
(6.12616 -2.11553 -4.3852e-22)
(5.81847 -0.373844 0)
(6.90594 0.141241 -4.90357e-22)
(11.222 -1.90065 7.32303e-21)
(-1.49073 1.11442 9.06139e-21)
(5.81839 0.566428 0)
(6.76421 -5.40938 -6.76392e-21)
(4.20403 -1.01751 1.18245e-21)
(5.51445 -2.67149 8.9154e-22)
(6.84563 -2.15911 0)
(11.473 -4.45366 5.93142e-21)
(1.4716 -8.93142 4.4932e-21)
(7.23573 1.57571 -1.17521e-22)
(12.2684 2.81351 -6.88607e-21)
(6.94495 1.22822 -2.14281e-20)
(9.69514 2.73042 3.9858e-21)
(5.60422 -0.0937089 0)
(6.07311 -2.07707 -2.43733e-23)
(8.45043 0.603872 5.32173e-21)
(1.42129 -7.9975 -5.61057e-21)
(8.53453 -2.21004 4.00228e-21)
(6.02246 -3.27931 0)
(11.3893 -1.8839 -6.47396e-21)
(11.2543 0.74781 -3.12022e-20)
(6.6709 -0.0598988 -2.98127e-21)
(0.635115 3.97646 0)
(4.82714 1.02442 4.56678e-21)
(5.99834 -0.0748597 -2.20843e-21)
(9.53996 0.224589 0)
(6.10038 0.100362 2.81034e-21)
(5.13316 -2.42646 3.12077e-21)
(10.1721 -0.976052 -4.0852e-21)
(10.37 -4.12716 0)
(-1.69983 12.052 0)
(6.92414 -2.4932 -1.14278e-21)
(4.51493 -1.09763 3.31954e-21)
(-1.82418 11.4911 2.6736e-20)
(7.04984 -0.420396 -1.58091e-21)
(5.99816 -0.155172 4.71656e-21)
(0.228074 2.68299 -7.41712e-21)
(0.0527883 -1.76959 8.58563e-21)
(3.82856 -2.80325 6.34841e-21)
(7.90238 1.60485 2.45555e-22)
(8.57806 -0.401302 4.76326e-22)
(5.70439 0.185918 2.20946e-21)
(6.46661 -0.0636641 0)
(11.7099 -4.15221 0)
(5.41638 -1.25133 -4.26245e-22)
(5.82306 -2.71129 1.46866e-21)
(5.99627 0.00677995 -8.43747e-22)
(9.46559 -0.203565 1.31098e-21)
(9.54864 -0.0484888 0)
(7.71312 0.0322118 1.4541e-21)
(6.12337 -0.0113815 -2.55374e-21)
(6.0057 -0.209173 -4.25126e-21)
(10.3554 -0.246977 -9.28027e-21)
(5.94784 3.10169 2.37071e-22)
(4.5841 9.88346 8.93927e-22)
(4.47953 -1.15837 -2.82877e-21)
(7.40504 1.42694 -2.82192e-22)
(5.46166 -0.397888 -1.32478e-22)
(7.49174 -3.56249 0)
(7.79319 -0.0267964 0)
(6.36997 0.0856343 8.81672e-22)
(4.10251 -4.04928 2.45902e-22)
(5.41691 -0.525064 0)
(5.44012 3.6429 -6.18088e-21)
(8.04322 -3.22644 0)
(5.96402 1.77885 2.26376e-21)
(8.06077 2.11532 3.81623e-21)
(-2.64442 -0.738301 0)
(5.64249 0.31409 -3.03801e-21)
(5.55038 -1.18599 6.31899e-22)
(5.74201 -0.0560398 -3.05618e-22)
(6.15362 -0.456254 -6.09322e-21)
(11.3194 -1.5724 0)
(5.42208 -0.604565 -7.50389e-22)
(5.69347 -1.31171 2.59492e-23)
(6.05834 -0.0645996 9.92492e-22)
(5.4653 -0.397299 -4.02566e-21)
(3.39001 0.134233 4.97948e-21)
(6.5169 1.82445 2.12796e-21)
(7.84853 -0.513379 1.72128e-21)
(7.08315 -0.400994 0)
(6.23874 -0.499226 -4.55879e-23)
(7.98057 -0.412873 9.3735e-22)
(5.99657 -0.00331032 1.25503e-20)
(7.92458 -1.82583 0)
(5.9145 2.1471 -4.94019e-22)
(4.87943 -0.00468515 0)
(9.7352 1.14391 1.82728e-20)
(6.87531 -1.79639 -9.0924e-22)
(3.53824 -1.73225 3.7871e-21)
(8.9542 -0.0954057 4.92719e-21)
(5.97683 0.179859 0)
(5.93023 -1.98725 -3.36199e-22)
(11.677 -1.76514 5.85951e-21)
(5.45732 -0.384028 3.80682e-21)
(8.07077 -0.407652 -2.60388e-21)
(7.25871 0.576967 9.22601e-22)
(5.33128 -3.18861 -9.62172e-21)
(4.0428 0.624243 -6.03648e-23)
(7.29241 -0.0984235 0)
(4.23968 -1.72533 8.73618e-21)
(7.17283 1.47077 0)
(5.54556 -1.29532 -2.19218e-23)
(7.07345 0.011537 2.68469e-21)
(6.08971 -0.251634 -3.16373e-21)
(6.04506 0.12491 2.51009e-21)
(6.77518 -3.17858 -7.44746e-21)
(6.02156 -0.183251 5.28531e-21)
(5.12426 0.00565049 0)
(-1.42988 2.05482 -4.93513e-21)
(7.37526 -0.330743 -5.45785e-22)
(4.68637 -3.88706 -6.5361e-22)
(2.91307 -1.43305 -2.89181e-22)
(7.03553 0.0561417 0)
(5.99981 1.77029 2.60866e-21)
(5.70348 -0.230472 8.51828e-21)
(5.99142 -0.0793069 6.72325e-21)
(9.53423 0.25401 0)
(5.04294 0.068942 -1.76038e-23)
(9.50365 -0.0972649 -1.2365e-21)
(0.216164 -3.21717 9.84912e-22)
(5.52306 -0.787792 9.61978e-22)
(7.34484 -0.271654 5.20579e-22)
(7.74086 0.116692 -1.24439e-23)
(7.26667 -0.129378 0)
(4.9295 -0.00544196 -5.25188e-21)
(5.53405 -4.83414 5.09873e-21)
(6.49365 0.793452 -2.63579e-21)
(6.00199 0.00374674 4.55061e-21)
(4.76593 0.00790602 0)
(5.69367 -1.48586 3.53074e-22)
(-2.28925 -0.788534 0)
(7.89788 2.22663 -1.28836e-21)
(6.71587 -0.0861447 0)
(8.01688 -2.21769 -1.97457e-22)
(4.93412 -1.08799 -2.09082e-21)
(4.89216 0.880102 1.0355e-20)
(0.0672793 -3.47729 -2.23059e-21)
(10.7999 -3.33671 0)
(6.46342 0.094921 -3.90801e-21)
(5.97786 0.184247 -3.52689e-21)
(0.288991 -0.909109 -1.23711e-21)
(11.2396 0.630567 3.1417e-21)
(5.66236 -0.753148 -1.03159e-20)
(9.52523 0.25762 9.60611e-22)
(6.03857 0.231832 2.88636e-21)
(5.41173 -1.86055 0)
(4.76103 -0.214205 4.68259e-21)
(5.29872 -0.450013 3.71359e-22)
(8.87559 -3.82284 2.49369e-20)
(6.08763 -5.11578 -1.93768e-20)
(0.843098 -1.51365 -1.54124e-21)
(7.98451 1.66798 0)
(0.190002 -1.21537 0)
(5.41309 1.79656 0)
(6.83603 -0.213269 0)
(8.80134 -1.72532 -1.44309e-20)
(9.25561 1.24873 0)
(2.61874 -1.77214 0)
(5.54982 -0.420966 1.54277e-21)
(8.12306 2.07785 -1.50031e-21)
(7.20342 -0.171854 -1.77009e-21)
(5.41105 0.0302221 1.49145e-20)
(6.00377 0.0359081 -1.77592e-21)
(5.61596 2.97963 0)
(9.4379 0.467042 0)
(5.99242 -0.20845 4.54277e-21)
(5.96864 0.0354639 7.99962e-22)
(4.02293 0.777801 0)
(5.71631 -3.16026 1.18346e-20)
(8.4406 -2.28028 -4.48947e-21)
(2.26046 -0.00487307 0)
(7.02696 0.363327 1.69089e-21)
(6.07334 -0.104162 -5.25243e-21)
(9.10884 5.47091 7.61967e-21)
(4.2195 -1.69988 0)
(5.94618 0.19139 6.28935e-21)
(7.00055 0.664476 0)
(9.50325 -0.00779921 0)
(6.2525 0.297199 -5.58767e-22)
(5.97392 -0.151294 2.51191e-21)
(6.36519 -3.14572 -7.17485e-21)
(6.17763 1.1083 1.57176e-21)
(5.0498 -1.61986 -3.41602e-21)
(6.77956 -0.197016 3.77699e-22)
(6.08308 0.255397 2.32967e-21)
(5.56403 -0.126077 1.40478e-20)
(8.85807 -2.00611 0)
(11.6179 -0.239317 4.50515e-21)
(4.91804 -0.945842 0)
(5.52443 -1.3488 -3.57447e-22)
(7.41098 0.157437 0)
(5.09312 -0.664167 5.73548e-21)
(-1.51481 -3.10363 -4.40034e-21)
(9.52369 0.197215 0)
(-0.436394 0.144679 2.15244e-22)
(9.49795 0.397833 -2.23343e-21)
(4.72305 -2.17799 1.25692e-21)
(6.22062 -1.12352 7.94595e-21)
(4.57274 0.793927 -6.4916e-21)
(5.02623 -1.59927 -9.95888e-21)
(8.00924 2.03995 0)
(5.40207 -0.427307 -3.62411e-22)
(4.96487 -2.93917 -2.16688e-20)
(5.95626 0.184934 0)
(5.73226 -0.041063 3.34837e-22)
(7.42004 0.29858 1.37348e-22)
(6.62107 2.0202 0)
(5.99362 -0.00474982 0)
(7.09434 -4.28979 0)
(1.28514 -8.5278 2.70959e-20)
(-0.877208 0.82274 8.78352e-21)
(4.73072 3.00301 1.9176e-23)
(5.95101 1.67912 0)
(5.9244 -0.970426 6.08596e-21)
(4.84805 0.131901 -8.66014e-23)
(6.19394 1.02304 -3.77429e-21)
(11.2616 -3.2032 4.20567e-20)
(5.85196 -0.0449497 0)
(3.76583 0.67112 0)
(3.63085 -1.25161 -6.31576e-21)
(5.33425 -1.85791 -2.28222e-21)
(6.61776 -0.655589 0)
(6.69965 -3.07183 8.56897e-22)
(5.22465 0.0311795 9.07721e-23)
(4.49733 0.493948 -3.06123e-23)
(3.83603 -1.84846 0)
(7.96574 -1.33666 1.13521e-21)
(5.36156 -0.42159 -3.40873e-22)
(7.00994 0.643492 -1.97298e-21)
(6.85234 -1.88844 0)
(3.49442 -2.81009 -9.55107e-21)
(6.11342 -0.121098 2.78896e-21)
(5.98504 0.0859932 1.22811e-21)
(5.05716 -0.0152131 -1.83031e-22)
(6.58276 1.39038 0)
(5.39604 0.0168096 -3.96573e-21)
(7.05155 1.53656 1.02772e-22)
(1.54512 -1.79928 2.25116e-22)
(5.98252 0.0375736 0)
(10.3688 0.665396 -3.22384e-21)
(2.95998 -1.16015 0)
(6.00289 0.0490587 -4.97114e-21)
(5.98092 0.00441551 1.83101e-21)
(6.01037 -0.319396 -8.79299e-22)
(2.62096 -9.61433 0)
(7.17061 -0.163922 -1.23695e-21)
(4.15095 -0.0460811 1.30409e-20)
(8.79235 -2.09536 0)
(5.51363 -0.465509 4.69173e-21)
(10.1127 -0.500814 1.06893e-20)
(6.4933 0.0158505 0)
(11.2879 0.167036 1.62263e-20)
(8.97512 -7.36039 -1.75074e-20)
(7.80337 0.137029 0)
(1.78953 -2.61697 4.37897e-21)
(5.70801 -0.0731769 0)
(6.53559 -2.90897 9.72911e-22)
(6.15243 -6.22707 1.17105e-20)
(7.58491 2.25114 -6.62587e-22)
(6.73323 0.375402 2.25826e-21)
(4.76977 -0.252016 2.4304e-21)
(6.20581 -1.18892 -2.87203e-21)
(10.0982 -3.21266 -3.15136e-21)
(6.5519 -2.83092 7.58601e-23)
(7.31516 -0.317194 6.16603e-22)
(6.5866 1.38249 -3.02501e-21)
(8.09415 -3.42172 0)
(6.00113 -0.00181835 -4.03643e-21)
(3.05534 0.729463 -6.57508e-21)
(4.98747 -0.959025 0)
(5.22444 -0.578309 1.34225e-22)
(4.72391 0.078377 0)
(4.76682 -1.6789 8.81867e-21)
(7.8669 -2.54381 0)
(4.94289 0.0181845 1.36671e-22)
(7.18302 -0.0135415 -1.56004e-21)
(10.3635 0.155802 3.2776e-20)
(8.53914 -4.80565 2.26123e-20)
(7.00734 0.138004 -2.29206e-23)
(7.14689 -3.32443 -3.29952e-21)
(6.48069 -1.84815 2.15342e-21)
(5.42549 -1.51825 0)
(6.05547 -2.83684 -5.90328e-21)
(8.97121 -1.85244 8.15034e-22)
(6.08716 -2.89457 -6.6088e-21)
(4.21276 0.514016 2.35238e-24)
(5.41683 -2.16569 0)
(6.5385 -0.017295 -4.04137e-23)
(5.86094 -3.28764 0)
(9.84603 -5.41231 1.24068e-21)
(8.54816 5.82299 -1.03061e-20)
(8.99648 3.07863 0)
(7.52932 -1.56172 4.47536e-23)
(-6.13205 5.2472 0)
(6.60667 1.95201 0)
(6.23177 -2.89818 -1.30025e-21)
(4.9444 -0.0945611 3.85042e-21)
(1.27692 -3.55193 0)
(5.68633 -0.175785 -2.39787e-21)
(4.0102 2.31271 6.68969e-22)
(5.07311 -4.35716 2.01002e-20)
(6.62918 2.62493 0)
(6.31037 -0.0408721 0)
(4.54851 -2.67304 -8.70904e-21)
(6.28001 -0.61052 0)
(7.12208 -0.274231 0)
(-1.10686 -2.31709 1.95045e-22)
(7.28022 -1.05641 -1.56611e-21)
(6.294 -1.58587 2.1186e-21)
(10.4759 3.05497 6.59479e-22)
(5.77795 -2.82315 1.27489e-20)
(5.98833 0.000929012 2.07272e-21)
(5.55132 -1.5616 0)
(6.04362 0.704272 -1.3771e-21)
(5.1825 -1.23688 0)
(6.6855 -0.11444 0)
(5.9794 0.109249 0)
(6.24472 0.278287 -4.57629e-22)
(6.14669 -0.480669 2.80039e-21)
(8.33664 -0.0094578 -2.44036e-22)
(5.67571 -1.56923 0)
(5.90042 -2.79728 -5.62291e-21)
(5.43123 1.6928 3.24511e-21)
(6.88548 -2.32175 8.48265e-23)
(8.90301 -0.732819 -8.8376e-22)
(9.92826 -1.10332 1.3847e-21)
(6.23344 0.040985 -2.99403e-21)
(-1.61743 -2.87652 0)
(6.18101 -0.0146606 0)
(4.45078 0.84893 0)
(4.843 -2.20698 -6.07962e-21)
(1.00827 9.22449 -3.88134e-20)
(9.63698 3.02953 0)
(6.06873 0.716888 0)
(5.32252 0.687973 4.44719e-21)
(6.30998 -0.03037 -6.15906e-22)
(5.51522 0.768305 5.68481e-21)
(9.26827 -3.45973 0)
(4.1355 -2.5148 -2.46154e-21)
(6.5404 0.114555 2.3123e-21)
(5.23032 -1.7774 -5.53278e-21)
(6.28113 0.135904 -3.05977e-21)
(6.15673 1.02209 4.76396e-21)
(-6.47276 -3.925 8.30021e-21)
(4.78551 -2.18244 1.05477e-20)
(2.02023 7.54679 7.55763e-21)
(7.7825 -0.50763 1.02688e-22)
(6.00408 -0.00312791 -9.56863e-22)
(6.17351 -2.92633 5.77925e-22)
(9.25224 -6.59882 8.61763e-21)
(4.14347 3.08718 -3.90298e-21)
(6.49314 -2.99804 -1.44857e-22)
(6.24397 -0.570029 0)
(3.57284 -2.77685 -3.87653e-22)
(6.36968 -0.0387315 -5.99591e-21)
(6.93509 1.55463 -2.71436e-22)
(5.13731 -1.68982 -5.17975e-21)
(6.81046 -2.24048 -1.3275e-21)
(6.49211 0.0394182 4.6995e-21)
(8.46934 -0.105291 -2.70077e-21)
(2.58821 0.187006 -4.48766e-21)
(7.87999 1.55712 -1.15659e-22)
(4.51257 -1.25923 -1.26754e-20)
(6.47789 -0.0494163 -5.29892e-21)
(4.50392 -1.42254 0)
(7.8562 -0.835845 -7.4569e-20)
(6.76649 0.0097753 6.75485e-21)
(4.29399 0.0432125 -4.81793e-23)
(-1.57166 1.74588 0)
(7.31347 -3.18911 0)
(5.8427 0.524582 5.20723e-21)
(4.19835 -1.27885 8.00907e-21)
(-6.61326 -1.55905 -3.07591e-20)
(8.07913 -2.1825 1.33483e-21)
(7.91611 -0.487739 -1.03937e-21)
(7.24483 1.50724 0)
(5.82436 0.577341 3.00178e-21)
(4.31101 8.83409 -9.7055e-22)
(6.26001 1.8265 -3.07233e-21)
(6.81369 -0.843076 -2.79879e-21)
(5.98805 -2.96021 -2.05989e-20)
(9.81311 -0.270407 -2.03795e-21)
(11.8265 -0.79757 4.651e-21)
(5.76501 2.01007 0)
(10.5907 -0.429602 -1.59294e-21)
(6.00894 -0.309709 7.76135e-22)
(4.92446 0.1194 5.24092e-23)
(3.9059 -1.94152 1.02367e-20)
(6.75395 -0.889505 4.249e-21)
(5.07162 -0.996809 -6.59122e-22)
(5.36023 -4.69421 -1.23782e-20)
(8.89389 0.0611809 -8.08859e-22)
(6.40426 0.0580257 4.75836e-21)
(0.210215 -1.20127 -1.10151e-21)
(6.11897 1.74062 6.41201e-21)
(2.21063 -2.6419 -4.75803e-21)
(4.78432 -2.31094 -2.848e-21)
(4.98577 0.159925 0)
(5.89666 -0.205455 -6.06941e-22)
(0.964824 -4.16241 -5.20759e-21)
(4.91784 -1.15117 1.1113e-20)
(8.19119 0.884529 0)
(5.76801 3.67516 2.12079e-22)
(4.65778 -2.01201 2.48825e-21)
(5.99448 0.0137066 -8.91463e-21)
(6.67462 -3.90872 -1.20947e-20)
(3.66472 -6.60121 -1.01148e-20)
(7.23822 -0.15686 1.19237e-21)
(6.3978 0.144182 5.92398e-21)
(6.63006 -2.94536 -8.80199e-22)
(8.24539 -0.193102 3.5529e-22)
(-1.00103 7.57241 -1.00801e-19)
(6.36668 -0.0395309 5.62563e-21)
(6.73297 -0.188257 -1.66728e-21)
(6.17218 0.163125 -3.49074e-23)
(7.63837 0.0824836 -3.21905e-21)
(4.56076 -2.07148 -4.80186e-21)
(7.72249 -0.447958 0)
(5.17135 -6.60688 3.22118e-20)
(6.40222 0.0440017 5.78003e-22)
(9.10802 4.7198 9.67998e-21)
(7.02218 0.126364 2.13427e-21)
(7.76828 -0.745768 1.7346e-22)
(6.00079 0.0318211 -7.79529e-21)
(6.02696 0.410928 1.74519e-21)
(5.63627 -3.06859 -1.2164e-20)
(7.2863 -0.278757 0)
(5.79923 -1.54847 -1.62816e-22)
(6.03872 -0.391338 3.24265e-21)
(5.43857 -2.12786 0)
(6.16547 0.115214 3.88948e-21)
(6.13933 -0.596776 4.11121e-21)
(7.24838 -0.238535 3.35018e-25)
(10.5483 -2.92311 8.15841e-21)
(8.2293 -1.79324 0)
(5.48492 0.181974 7.70318e-21)
(5.0769 -0.908792 7.19942e-22)
(6.27918 -2.88187 6.8156e-22)
(6.76989 -0.556094 0)
(4.94532 -0.134433 -1.10612e-20)
(2.67976 6.49745 2.61895e-21)
(6.05971 2.66855 2.61089e-21)
(4.552 -1.29953 1.23556e-20)
(7.98962 0.162404 1.45874e-22)
(8.08665 -4.70592 1.6451e-20)
(6.42285 -0.507585 -3.95559e-21)
(11.3014 0.592011 -5.52841e-21)
(5.70416 -0.22263 -4.91837e-21)
(7.23148 0.174702 0)
(6.00248 -0.00925576 -3.5868e-21)
(0.744175 -0.104382 6.61672e-20)
(-0.70199 1.6342 0)
(2.43112 -2.03894 0)
(4.92316 0.134041 0)
(2.29765 -2.02567 0)
(5.96031 0.360144 0)
(4.37622 -1.25615 0)
(12.0078 2.12453 1.52502e-21)
(4.88148 3.176 -1.83384e-21)
(6.78994 0.901766 0)
(5.45637 0.120054 1.14447e-20)
(0.253487 1.99123 -5.97984e-21)
(6.04982 0.251163 5.66914e-23)
(0.0217737 -3.30223 -2.06385e-21)
(4.31855 -0.768254 3.19581e-23)
(5.82391 -3.37252 1.05539e-20)
(5.61547 0.0704274 -1.42468e-21)
(7.79311 0.492251 -5.88082e-23)
(5.9345 0.322131 -3.51079e-21)
(5.77351 -0.0796262 -7.03481e-21)
(5.3751 1.46185 -5.79916e-21)
(7.79028 2.11868 0)
(10.7052 -1.49962 8.65669e-21)
(4.81412 -1.71941 -9.64705e-21)
(6.0315 0.0208866 -1.07185e-20)
(9.05082 -1.68474 9.24867e-21)
(7.35473 -0.0235798 5.89071e-22)
(10.9419 -0.888039 -1.32461e-20)
(7.33861 -0.632839 -1.63712e-22)
(7.55882 -1.53519 -9.8494e-23)
(5.98569 0.172347 3.6556e-21)
(6.72521 4.09086 0)
(9.48855 -3.07366 -2.44629e-21)
(5.61031 -0.464676 -1.46758e-21)
(9.14415 1.58698 0)
(7.12875 -2.23124 0)
(7.03221 -3.07757 -7.90527e-23)
(7.99296 -4.87729 1.87604e-20)
(10.5849 3.15965 -1.51628e-20)
(6.49412 -0.515194 0)
(6.26161 -0.451078 -5.59096e-21)
(5.65713 -0.0811917 -1.34567e-21)
(7.51177 -5.38218 2.07037e-20)
(6.66946 -0.580802 1.95042e-21)
(6.06545 -3.62339 0)
(10.8021 -1.43309 9.91898e-21)
(6.58161 -0.604333 0)
(10.9182 -0.368655 2.26947e-21)
(5.86497 1.83805 -1.6475e-21)
(6.02441 -0.00198724 1.18094e-24)
(6.20856 1.17622 -8.57849e-21)
(6.59643 2.30683 -2.98333e-22)
(6.29091 -1.82613 4.80787e-21)
(8.4364 4.59101 0)
(-6.04675 8.7643 -3.14264e-20)
(-3.35752 8.76278 0)
(6.87055 0.951824 6.31269e-22)
(9.10959 -5.75779 4.20327e-20)
(1.76306 -3.19142 5.7785e-21)
(5.94858 -1.66457 4.12126e-23)
(0.16732 -7.10411 -2.14998e-20)
(5.7078 -2.63395 -7.87176e-22)
(4.92538 -1.71547 -5.49078e-21)
(5.30696 -0.446398 -1.31015e-22)
(-5.53996 8.10799 2.57123e-20)
(4.59867 -2.08823 3.94846e-21)
(5.08455 -1.76738 5.81044e-21)
(2.67927 7.99705 5.47456e-20)
(-6.61727 6.12718 -8.18631e-21)
(6.71913 -1.98898 1.60815e-21)
(-0.730954 -3.62339 4.16061e-21)
(8.1916 0.0706757 2.93293e-22)
(-0.590812 4.67577 6.17318e-21)
(6.31759 0.769944 -2.16723e-21)
(8.50228 -1.11225 0)
(2.05818 -1.77032 -2.58425e-21)
(6.2304 -0.0322527 -6.49132e-21)
(5.97338 0.0831455 0)
(6.86622 0.910853 0)
(-2.92853 13.3908 -3.25053e-20)
(9.83258 3.56401 -1.21847e-20)
(6.60959 0.511695 -5.26027e-21)
(7.26206 -1.01824 2.03389e-21)
(5.39473 1.44026 4.97049e-21)
(5.12265 -0.0670068 3.07581e-21)
(7.6557 -6.90706 -1.27949e-21)
(5.31334 0.692051 0)
(5.19576 -1.83904 5.40132e-21)
(-1.07634 -0.784635 7.04965e-22)
(0.846034 -8.04567 1.7147e-20)
(6.30567 -2.35388 6.54236e-22)
(7.88872 -3.54535 3.42312e-21)
(5.81405 -0.0247492 1.67932e-21)
(6.53228 -1.80865 2.07778e-22)
(9.61893 0.280387 1.78016e-21)
(7.07987 -7.62732 -2.28456e-20)
(6.59707 0.49098 3.97303e-21)
(6.03627 -0.191896 2.61404e-21)
(4.47095 -1.40121 -5.06638e-21)
(6.29004 -0.550808 3.35325e-21)
(1.64907 0.255204 0)
(6.47852 0.761167 4.60246e-21)
(6.0423 -0.103083 5.88143e-22)
(5.38366 -1.44046 -1.78392e-21)
(4.70781 2.83593 -3.40017e-21)
(6.61389 -1.97502 1.42939e-21)
(6.30461 -0.0216193 1.05498e-21)
(4.83665 -0.527896 -7.93828e-21)
(9.39304 1.21213 0)
(5.95143 -1.47306 1.68943e-22)
(6.28239 0.157135 4.13397e-21)
(9.44296 -1.16487 0)
(4.99003 -0.725764 4.40335e-21)
(6.76366 -0.604816 0)
(4.27243 2.68171 1.29026e-20)
(8.03385 -0.023647 0)
(10.0114 -3.18169 0)
(6.62802 0.0472386 1.23769e-21)
(6.59991 0.369186 3.07314e-21)
(7.46711 1.48849 3.88846e-22)
(5.88628 -0.0552958 -3.25771e-21)
(4.56374 1.44552 -3.40099e-21)
(6.00746 0.0500816 -1.53953e-21)
(5.99736 0.388315 0)
(1.18444 -0.665745 3.16686e-22)
(6.83512 0.412875 -2.53837e-21)
(10.8963 -0.848079 -5.41837e-21)
(8.53249 -1.14524 0)
(7.04317 1.56284 -1.71735e-22)
(5.36632 2.88114 -5.6234e-22)
(8.43141 0.150732 1.03978e-21)
(-5.34897 -5.43638 0)
(-0.855546 -2.26633 5.64127e-21)
(6.03581 0.191706 0)
(9.56348 0.0662816 -9.8227e-22)
(-1.43765 0.950342 0)
(4.21814 0.121336 0)
(0.368572 8.03512 0)
(7.66412 -2.54415 0)
(-1.02302 -0.798031 -9.12318e-22)
(1.20221 -7.97786 -6.6412e-21)
(6.15779 -0.476344 -4.20031e-21)
(10.402 -0.108426 -3.86638e-20)
(4.83873 -2.13459 0)
(6.17601 -0.198627 -3.41298e-20)
(-2.04012 1.03324 -8.98724e-21)
(5.85757 -2.72321 0)
(5.43214 -2.02335 -5.39553e-21)
(5.46371 -0.705241 1.17495e-22)
(6.30845 0.727631 5.71196e-21)
(9.91043 -2.55864 -6.95446e-21)
(5.77116 -0.126104 0)
(8.4152 -2.03584 0)
(6.75905 1.78174 2.75864e-23)
(8.77681 -5.56369 1.22118e-21)
(5.50114 -0.436426 2.6892e-22)
(-2.8339 12.7225 1.00245e-21)
(5.99806 0.00663387 2.66577e-22)
(5.71449 -0.223135 1.79203e-23)
(5.98634 0.172416 5.21374e-21)
(5.69614 -1.31613 -2.03716e-22)
(6.84739 -1.74466 0)
(5.20575 -2.8288 0)
(8.17606 -0.115796 0)
(4.75483 0.0522889 0)
(6.13173 -1.30777 2.14604e-21)
(8.32194 1.04675 0)
(-1.02728 -1.52382 1.07962e-20)
(-8.99879 -0.34502 -6.78408e-22)
(5.01408 -1.81045 -8.81072e-21)
(-0.524917 3.76952 1.7121e-21)
(3.53071 -6.85134 -1.62491e-20)
(-1.41293 -1.21642 -4.54466e-21)
(6.67619 0.0509203 8.35821e-22)
(5.77837 -7.98184 -1.53044e-20)
(5.60493 -1.23456 -4.45414e-22)
(6.72598 -0.00306494 0)
(8.27042 0.107454 0)
(0.148668 -1.30757 0)
(7.78695 -0.832328 -1.98469e-22)
(-8.34317 5.91832 0)
(5.34033 0.684326 0)
(6.00177 0.00933388 0)
(6.33142 -1.57071 2.01338e-21)
(6.07836 0.228651 -5.77286e-21)
(4.737 0.129804 0)
(11.6846 1.7757 -6.24257e-21)
(5.92398 0.139653 -4.41938e-21)
(6.26719 1.72895 6.35844e-21)
(5.91409 -2.69245 2.4271e-21)
(5.46486 0.861343 6.131e-23)
(8.96413 -7.17241 -2.51354e-21)
(6.82463 -2.47774 1.12313e-21)
(12.3735 -3.51045 -1.02184e-20)
(6.55071 0.402978 -4.1693e-21)
(5.45695 -0.402931 6.03307e-22)
(5.8495 -0.309623 -4.54605e-21)
(6.30975 -0.0322991 0)
(8.44323 4.68605 -7.20496e-21)
(5.98901 -0.0909341 4.91361e-21)
(3.06875 7.54447 8.15069e-21)
(7.30393 -0.626624 -5.72131e-22)
(4.26606 -1.32254 -8.71247e-21)
(6.57497 0.331483 7.08239e-22)
(7.18608 1.52253 -1.48675e-22)
(5.9994 0.0624629 0)
(3.01606 -2.12904 -1.51089e-21)
(6.53433 -0.792775 -8.43309e-23)
(11.7673 -3.62044 1.64384e-20)
(10.7667 -2.76586 -4.79935e-20)
(6.30102 -0.0657615 2.23886e-21)
(8.19832 -0.311297 -1.1864e-22)
(8.03795 0.145337 -1.14979e-22)
(8.31578 -0.00407288 0)
(2.30518 3.52536 0)
(5.54188 -2.62505 3.49232e-21)
(6.73586 -4.03998 1.3063e-20)
(5.00545 0.0958097 9.08919e-24)
(6.01428 -0.0972242 9.69891e-21)
(3.1874 -2.27817 4.71135e-21)
(4.92348 -0.213346 0)
(5.77662 -0.325054 0)
(5.76473 -1.48915 -1.08418e-22)
(6.46931 -0.00237682 1.86858e-21)
(5.52457 0.821317 8.17265e-21)
(6.6451 0.839695 0)
(7.02343 -0.0972552 0)
(7.7571 -1.71723 -1.56773e-21)
(6.67485 -0.548604 2.64616e-21)
(0.218173 0.365011 -9.12345e-21)
(8.57979 -0.525799 0)
(3.83779 -0.044984 -4.08212e-22)
(9.2883 1.86368 5.42066e-22)
(1.09139 -4.01213 -6.34854e-21)
(6.42672 -0.216458 -4.46146e-21)
(4.62837 3.44275 0)
(10.4018 4.2797 9.98787e-21)
(-5.1895 -5.01241 -1.54722e-20)
(0.588341 1.01939 0)
(4.96839 -0.0161078 5.49014e-22)
(5.91553 -0.143357 -3.27413e-21)
(5.11545 0.0407786 5.75806e-25)
(6.37634 2.06303 4.13825e-22)
(5.53122 5.07228 2.07822e-21)
(6.46156 0.0480714 0)
(4.27705 -1.77673 -9.22557e-23)
(2.37722 -1.7191 -4.48469e-21)
(-2.88651 -0.808386 -7.61498e-21)
(5.94578 0.330697 4.15733e-21)
(8.16647 4.86714 2.49529e-20)
(6.28433 -0.0012135 -1.03581e-20)
(5.319 -1.13868 3.81956e-22)
(6.26964 -2.17787 4.82693e-22)
(6.2216 -1.4885 0)
(6.39045 -0.0858611 -1.83981e-21)
(4.54285 -2.13926 3.17441e-21)
(7.10526 -0.00119316 -3.12545e-21)
(6.0314 -0.0824349 -4.3706e-21)
(9.59293 0.131585 9.85402e-22)
(5.7938 -0.94932 9.16347e-21)
(7.91075 0.0556016 -3.46622e-22)
(5.75298 -0.291736 2.70296e-21)
(5.24531 -0.576637 4.62155e-22)
(9.69745 3.26584 -6.62421e-21)
(6.13833 1.88235 4.9981e-21)
(-9.38832 -2.58523 2.42728e-20)
(6.27305 0.0222489 0)
(2.14319 -3.94372 0)
(10.9259 -0.0494776 0)
(4.98677 -1.72269 6.88139e-21)
(6.14574 0.0308522 -6.96801e-21)
(5.62593 -0.077631 0)
(5.5026 -1.45883 -5.10438e-21)
(5.61548 -0.136807 0)
(6.13396 -1.19555 -3.54943e-21)
(11.6595 -0.555366 -7.28714e-21)
(6.74059 -1.64113 -1.8906e-21)
(6.54906 0.0492818 0)
(6.06331 -0.207184 0)
(8.99507 -0.953385 1.0354e-21)
(6.81356 0.804247 -1.22819e-22)
(8.23572 0.420801 1.21037e-22)
(5.53541 3.09727 -3.15279e-22)
(6.60997 1.40658 0)
(6.33911 -2.29624 -1.03906e-21)
(-0.963253 1.72761 0)
(3.1049 0.787243 -5.50965e-21)
(6.63559 2.30079 0)
(8.13882 -0.253471 2.33713e-22)
(4.52336 -1.20313 3.30437e-21)
(5.38272 -1.00633 3.11007e-21)
(7.70254 -0.45674 -5.72737e-22)
(-9.35357 0.0560933 -3.25383e-20)
(6.63324 -0.671591 6.62148e-21)
(5.94978 0.365615 -5.80769e-23)
(11.2181 -0.828114 1.6245e-20)
(7.03748 -1.29474 -7.91426e-22)
(-0.5854 1.12655 3.43479e-21)
(6.71378 1.12864 0)
(6.0456 -0.0386924 -5.1222e-24)
(5.59681 -1.6132 0)
(6.34852 -1.98205 -5.42001e-22)
(6.42232 -2.26888 -4.87385e-22)
(5.81986 -0.883549 -2.97447e-21)
(4.98797 0.0562768 1.95437e-23)