/*--------------------------------*- C++ -*----------------------------------*\
| =========                 |                                                 |
| \\      /  F ield         | OpenFOAM: The Open Source CFD Toolbox           |
|  \\    /   O peration     | Version:  2306                                  |
|   \\  /    A nd           | Website:  www.openfoam.com                      |
|    \\/     M anipulation  |                                                 |
\*---------------------------------------------------------------------------*/
FoamFile
{
    version     2.0;
    format      ascii;
    arch        "LSB;label=32;scalar=64";
    class       surfaceScalarField;
    location    "2.8";
    object      phi;
}
// * * * * * * * * * * * * * * * * * * * * * * * * * * * * * * * * * * * * * //

dimensions      [0 3 -1 0 0 0 0];

oriented        oriented;

internalField   nonuniform List<scalar> 
20045
(
1.38178
-1.63328
0.2515
-2.84462
1.25566
1.58896
0.490799
4.86114
-5.35194
0.985664
-1.17717
0.191501
-2.46609
2.28519
0.180906
-1.21803
5.00304
-3.785
-2.86002
0.990869
1.86915
0.16496
1.24194
-1.4069
1.32185
1.18514
-2.507
-1.6284
-0.579304
2.20771
0.502662
-0.690216
0.187554
5.01643
-2.74423
-2.2722
1.10888
-1.07461
-0.0342704
-2.9436
2.27056
0.673034
-0.653105
2.81812
-2.16502
-2.54158
0.913172
0.366812
0.0467009
-0.413513
4.08296
-0.484298
-3.59867
-4.13166
5.85164
-1.71997
-1.91363
-0.142794
2.05642
1.6147
-1.6272
0.0124997
0.411868
0.697015
-0.649545
-2.19508
1.06397
1.67811
-2.74208
2.19222
0.156157
-2.34838
-1.83911
2.90307
-1.22537
1.35558
-0.13021
-2.44516
5.3972
-2.95205
3.44903
-0.308415
-3.14062
-5.09773
4.42946
0.668263
-1.28405
-1.48356
2.76761
3.71729
-3.12653
-0.590764
-1.56767
3.20217
-1.6345
7.77366
-5.06963
-2.70403
-1.59175
1.75671
4.59398
-2.26666
-2.32731
2.88501
1.38624
-4.27125
-0.180302
1.11565
-0.935343
-7.05887
5.36592
1.69295
1.73313
1.37279
-3.10592
0.0997076
1.26028
-1.35998
0.540488
-0.753831
0.213343
6.98083
-6.93159
-0.0492365
3.5013
-1.05398
-2.44732
1.41932
2.08198
2.57738
2.43905
-0.0692539
1.00029
-0.931038
1.79958
1.58889
-3.38847
4.57867
-1.69366
0.3905
4.05948
-4.44998
3.2764
-5.48376
2.20736
7.09138
-3.64446
-3.44692
-1.66549
-2.62759
4.29309
-0.255761
-0.872662
1.12842
0.790996
3.22007
-4.01106
-1.94237
-0.52372
1.06781
2.51587
-3.58368
4.38823
2.75932
-7.14755
2.07358
-3.64125
4.62795
-3.93366
-0.694294
0.983415
-0.399591
-0.583823
1.02639
3.60157
1.42548
-3.88345
2.45797
1.55429
0.0604046
2.77939
-2.7804
0.00101538
3.13014
1.52684
-4.65698
-0.209159
0.987575
-0.778415
-1.73484
0.14336
1.59148
2.38403
-1.06218
3.93845
-4.07303
0.134573
-0.820811
0.611652
-3.96363
4.75463
-0.815159
-2.69602
3.51118
-0.0474789
-0.557404
0.604883
3.57832
0.130622
-3.70894
3.01008
-1.94227
-1.01279
4.5911
1.47043
-2.12353
-0.968827
-0.378399
1.34723
6.893
-2.47944
-4.41356
2.15102
2.45873
-4.60975
2.17802
-2.00649
-0.171535
3.30212
-1.87663
-5.44107
0.605574
4.83549
-0.0684345
1.45021
-0.921084
1.40275
-0.48167
-0.386529
-0.0220953
0.408625
-3.95929
0.115306
3.84398
2.38338
0.722912
-3.1063
-2.13643
1.65769
0.478742
-4.28245
0.462958
3.81949
2.09248
-0.420841
-1.67164
1.11101
-1.71384
0.602831
-0.707266
-1.93351
2.64078
1.67757
-1.78864
0.111064
2.66889
0.98329
-3.65218
-1.15441
-0.0709625
-0.339881
-0.583413
0.923294
3.36469
-1.63156
0.368162
0.350845
-0.719007
3.14948
1.44449
-1.26455
-1.67905
-1.25468
0.914798
-3.08962
7.47785
0.317802
-1.23889
-0.612757
0.980919
0.931741
3.16141
-4.09315
1.28689
-6.61959
5.3327
-1.03808
-1.33706
1.14248
0.19458
-0.841811
1.04488
-0.203069
3.44063
-2.9287
-0.511932
-1.4185
1.16274
3.93619
-5.57624
1.64005
-0.695739
1.01262
-0.316879
0.1549
-1.0107
0.855797
2.65699
-0.464766
6.50778
1.26589
-3.21942
2.40426
2.89464
-4.95664
2.062
-0.0227094
4.10567
0.305804
0.677611
-2.21524
1.80319
0.412048
-5.77198
0.287938
-1.6635
1.37557
3.55691
3.53447
2.95275
-3.92503
0.972283
3.88863
0.399362
-4.28799
-8.0379
6.76396
1.27393
2.71942
-2.28147
-0.437949
7.14085
-3.58394
-0.360137
1.36043
0.56875
-0.761303
0.192554
-0.406481
0.141647
0.264834
2.87542
1.98309
-4.85852
3.11844
-2.69728
-0.421168
-0.660813
0.0500703
0.610742
-0.943827
-0.393232
5.42436
-2.52972
-1.85696
1.95662
-0.0996604
2.61936
-4.64987
2.03051
1.69204
-3.35753
2.00519
1.90899
-3.91418
2.03608
4.85692
6.14638
-0.856535
-5.28984
1.42396
-3.90147
2.47752
3.58623
-2.31735
-1.26888
-0.705082
0.816931
-0.11185
-0.0669758
4.60499
-4.53801
3.07903
0.370005
-4.10514
0.113033
3.99211
-2.77053
2.23829
0.532248
4.16288
-2.01186
0.499877
1.67815
-3.15086
3.6404
-0.489538
-4.01823
4.50902
0.0577217
-1.22231
1.16459
0.841159
-1.43131
0.590153
-0.104056
-1.05499
1.15905
2.66562
1.03742
-3.70304
6.10923
-2.87486
-3.23437
-1.2617
1.15764
3.66302
-4.41826
0.755235
0.669635
-0.129147
-6.73408
-2.31276
2.98172
-0.668953
-2.98871
2.40847
0.580244
-0.066283
-0.298389
0.364672
1.68424
1.90199
-0.41648
0.00999882
0.014179
0.554571
-3.29896
0.148099
-3.74125
4.67006
-0.928815
-3.69861
3.98097
-0.282355
-2.51226
-1.67548
4.18774
-1.8956
-0.265178
2.16078
1.77655
-2.16294
0.38639
3.72269
0.368633
-4.09132
-0.117324
-3.68912
3.80645
-2.4101
4.41528
1.10078
-3.03674
1.93597
-1.98104
5.91723
-4.18029
3.1012
1.07909
0.470365
-0.660993
0.190629
2.27465
-5.02746
2.75281
-4.35803
1.91287
-5.62597
-0.675072
5.48098
-4.43816
-1.04282
-1.60577
1.70548
0.995521
-1.06296
0.0674406
-3.09802
-1.5716
4.66962
-4.54173
6.61144
-2.06971
6.93611
-7.00742
0.0713176
-0.0537119
-0.970431
1.02414
-4.75105
-2.63113
7.38218
0.706091
-0.203429
0.239703
2.47972
-3.1848
-1.00932
4.19412
0.695177
0.162807
-0.857984
0.297414
-2.61018
1.50178
-2.78583
4.09377
-0.205143
-0.939216
0.758914
-1.09599
1.32016
-0.22417
-1.76203
4.42765
-8.11638
3.36533
5.26742
-1.82962
-3.4378
-3.75736
0.899875
2.85749
0.520009
6.4161
5.38981
-3.11516
4.25694
-6.08047
1.82353
0.374207
-1.81692
1.44271
0.405777
-2.3194
-2.57764
3.50938
3.08747
-4.30551
-5.55656
0.718564
4.83799
-5.69162
2.0647
3.62692
-0.470351
-1.66608
0.971796
0.890177
-1.86197
2.95351
-0.770832
-2.18268
0.717657
-3.15197
3.08499
-1.43086
-0.426103
2.92443
3.73524
-3.89812
0.16288
-0.0582343
-0.787879
0.846114
3.11869
0.349809
-3.4685
2.86563
-0.635703
-2.22992
5.27856
0.99721
-6.27577
-0.683712
0.297183
3.1451
-2.04433
-0.737537
1.98606
-1.24852
3.88425
-1.26489
0.714372
-0.0515616
-0.66281
1.63154
-0.255156
-1.37639
-0.792559
0.830398
-0.0378392
6.25458
-5.06541
-1.18918
1.50632
-6.04805
-0.884371
0.0918124
-4.28463
1.0944
3.19023
4.67988
-1.47771
1.15195
-4.8932
8.06545
-3.98257
-4.08288
-0.106033
0.80121
5.45526
-5.2569
-0.198366
-3.03168
0.432406
2.59927
-4.90196
4.79689
0.105072
1.77218
-3.08501
1.31283
-0.147362
-0.145018
0.29238
-2.43217
2.92145
-0.48928
-0.750769
0.176808
0.573961
-0.942494
0.246754
-1.02319
0.181375
-1.25265
-5.36694
7.3818
-5.30504
-2.07676
2.75089
-1.27239
-1.47851
2.73162
0.985679
-2.61331
-2.94325
-0.269494
1.11065
2.64074
2.03914
-2.71926
0.400624
2.31863
4.08484
1.37042
2.25499
0.56313
1.69794
1.05296
-1.59634
-0.165956
1.7623
-0.260566
0.730931
-2.55725
7.83581
-2.39335
2.80456
-0.41121
-4.691
4.48277
0.208233
2.11125
2.2388
-4.35005
-0.680826
-0.866161
1.54699
3.73964
-4.21461
0.474973
-2.6128
-3.07882
5.30285
-3.91449
-1.38836
-0.628638
0.570403
3.46888
-1.69671
0.16271
7.21909
3.52122
-2.23994
-1.28128
7.6141
-5.43433
-2.17978
3.69754
-0.817317
-2.88023
1.59585
1.92538
4.49714
-2.65561
-1.84152
-1.04899
4.10034
-3.05134
2.96228
-3.6865
0.724225
1.01248
-1.05552
0.0430443
1.35135
-0.426486
-0.924864
5.26742
-4.26504
-1.00238
-4.05659
-3.98131
3.38498
0.350257
-4.22906
-0.461941
0.00411045
1.62743
2.72464
-4.47211
1.74747
0.0203526
0.975168
-2.6839
5.55932
1.06301
5.19158
6.32987
-4.94797
-1.3819
-4.58466
3.57534
3.4097
-4.99145
1.58174
-3.07894
-0.419586
3.49853
-1.48585
-0.89137
2.37722
4.05357
-0.39055
3.08974
2.17768
1.3802
-0.695586
-2.43094
-3.02043
4.97433
-1.9539
-1.30576
0.209764
-0.98308
0.245543
0.487946
-5.38991
-1.31387
0.630158
1.48065
-1.38414
1.77466
-0.390511
-0.0591652
1.04483
-2.32416
1.46227
0.861887
2.37162
1.06901
-1.29569
2.88286
-1.58717
2.28661
0.831834
-1.59616
4.3208
2.91799
-0.534604
-1.27393
-2.48343
8.31261
-2.46151
-5.8511
4.51638
-5.10704
3.41227
1.69478
3.89449
-4.38105
0.486561
-2.44305
1.73579
-0.743033
0.0822207
-1.43653
-2.84593
1.69016
-2.99943
1.30926
2.24503
2.2521
2.89875
-4.4366
1.53785
1.39945
-2.98368
1.58424
-4.8442
0.884917
0.098433
1.99405
-3.79674
4.25587
-0.459136
-1.01602
1.64654
-0.630514
-2.53167
-0.328352
-0.722894
-1.26778
1.99067
0.688734
0.00316381
-0.691898
-1.74857
-1.02196
1.67356
2.32013
-3.99369
4.94995
-0.865113
5.75536
-2.24378
-0.199273
2.63593
-1.23648
-3.61614
-0.56415
0.00599375
-0.513722
0.507728
3.25531
-1.45573
-2.6081
4.05956
-1.45147
-0.741592
0.887513
-0.145921
3.20038
-0.246861
-3.29659
-1.17552
-2.75473
4.86542
-2.11068
2.79091
-4.48401
1.6931
1.90798
3.39487
1.16785
-1.1151
-0.0527448
0.656621
-3.73557
2.94244
-4.4903
1.54786
0.689699
-0.737178
-0.498419
3.45117
-1.47845
0.164578
-1.26678
1.64098
0.827512
-4.95918
-4.13571
3.25288
0.882829
3.42524
-0.814305
-2.61094
4.73863
-0.998994
-3.03302
-2.23294
-1.94462
1.26446
-0.539258
-0.489348
1.02861
1.64377
-1.78656
-3.94281
3.44439
5.47108
1.50974
-4.22344
1.61534
3.71306
-0.328078
0.748633
-0.0327275
-0.715905
-0.180032
-2.68545
2.86548
-4.49582
0.808407
3.68741
4.26093
-4.26093
-3.60237
4.84223
-1.23987
1.97243
-3.26812
2.804
-1.78535
-1.01865
-4.84324
5.01705
-0.17381
1.88762
-0.216269
-1.67136
1.51028
-0.462737
-1.04755
0.778239
-1.45906
-0.899394
7.48129
-7.31858
-3.90294
4.65672
-0.753782
-1.53578
3.20934
0.343143
0.0677774
-0.41092
-1.36098
2.09831
-0.737339
-1.91966
2.32543
5.21314
-3.52887
-1.68427
-0.582822
-2.43373
3.01655
-1.38217
1.44871
-0.0665417
0.937306
-1.48776
0.550454
-4.99987
2.51003
2.48985
-0.836447
-0.340718
0.260874
0.487759
0.146154
-0.255229
0.109076
2.35329
2.91413
0.303735
0.039408
-0.569046
-1.0328
1.60184
-2.63423
4.23174
-1.5975
-0.107829
0.939117
-0.831289
2.43592
-1.44505
1.90789
0.537946
-2.44583
0.36474
-2.29825
0.342027
3.38066
2.37235
1.50871
-3.88106
2.52742
-1.93823
-0.58919
-5.05436
0.94922
-1.71875
0.889444
0.829305
1.22129
3.12028
-4.34157
-3.30328
2.8837
0.35813
-4.54691
4.18878
-0.701208
0.647497
0.422913
-0.607578
0.184665
0.159113
-1.75545
0.307632
0.264904
-0.572536
-3.53077
-0.75386
3.04409
2.18032
-0.421915
-1.75841
-0.828919
0.0873273
0.634174
-3.39302
2.75884
0.864183
2.5007
-3.36488
0.533012
-3.48606
4.07567
-0.589618
-3.70363
2.65464
0.681813
0.673767
-1.95469
-1.03403
-1.49473
0.320679
1.17405
-4.56927
1.93504
3.16781
-3.75063
0.673567
3.03949
-1.73137
1.70683
0.0245356
0.695828
-3.45092
2.75509
1.04486
-1.55745
0.512596
1.15411
-4.45069
-3.37307
-0.325542
-1.84769
0.112855
0.0863438
0.720465
-0.806808
2.60034
0.0106612
-0.18726
0.176598
3.96882
-2.74753
-0.717955
3.11391
-2.39595
1.3787
1.11061
-2.48932
-1.63881
0.937598
-1.33658
-0.158141
1.51537
1.28863
-1.83814
-3.1185
0.777337
-0.771343
2.9543
2.32673
0.591258
-3.9303
4.3208
0.193003
-1.79209
1.59909
-0.458527
-4.11596
4.57448
0.0679932
-0.175583
0.10759
0.989394
-2.885
-0.795363
3.75764
4.0039
-2.57994
-1.70569
-0.618476
-0.112764
-2.18849
2.30125
1.63253
-4.14479
-0.240538
-2.33362
2.57416
0.117658
-1.28737
1.16971
-3.13839
0.00806842
3.13032
3.44429
-1.8554
-0.0149068
0.605871
-0.590964
-1.2306
-0.151571
1.05765
1.87541
-2.93306
0.835822
-1.01371
0.177893
2.75346
1.5477
-4.30116
-1.56564
4.23453
0.660615
0.0281198
-2.87399
-4.61462
7.48861
2.34994
3.07442
4.07368
-3.2095
-1.97602
1.25313
0.84865
0.5027
-1.33066
4.74037
0.579207
-3.77719
3.19799
4.13245
-0.560853
-3.5716
-1.79687
3.11067
-1.31381
1.87787
-1.55578
-2.10173
3.65751
-0.082615
-0.102577
0.185192
-1.3696
-2.44226
3.81187
0.560493
-1.92147
0.340313
-0.406596
2.56411
-3.93371
-3.44973
-1.12256
4.57229
-0.0768665
-2.64411
2.72097
1.43276
5.57759
-5.85276
0.275175
1.17681
-0.499101
-0.677708
-0.0133055
-1.71806
1.23052
1.41026
-1.82382
0.337973
-3.91131
4.92118
-1.00987
-0.27333
-2.12002
6.01781
-3.98173
-5.35355
-1.57804
-0.409824
1.14223
-0.732411
2.65661
-0.32988
-1.14979
1.26191
-0.112121
-0.867778
0.117009
-6.84492
1.21895
4.25998
0.743058
-0.405208
1.34251
-1.2059
2.5846
8.66786
-1.18657
-1.17954
0.0297482
-0.625961
-3.31685
1.18485
1.29594
-1.23822
-4.60305
0.107232
0.321811
1.20472
-0.159861
-4.66496
2.39989
2.26507
3.33449
0.603966
1.15199
-0.434076
-0.717916
1.58066
-1.44732
-0.133342
-3.57296
1.30629
-5.41213
2.65739
-2.40417
2.7404
-0.336227
-0.144941
-0.215047
0.359987
5.14067
-0.0967828
-5.04389
1.12749
0.0887044
-1.21619
-0.750425
-1.46481
1.31364
-0.202628
0.845307
-0.91075
0.0654429
2.18293
-0.280169
-1.90276
-0.189297
1.0346
3.1244
-2.14111
-0.156269
-0.82381
0.980079
-5.01648
1.10516
-0.23808
-0.343917
-0.910763
0.0185793
2.16174
0.145623
-0.415117
1.33727
0.913471
-2.25074
0.232722
2.54667
1.74869
-1.55569
1.24407
-1.08917
0.618486
-1.63451
1.43511
-4.24435
2.80924
2.8956
-0.482934
-2.41267
-2.71106
-1.19041
0.628709
-0.876267
0.247559
1.52016
-1.87319
0.353029
5.37511
-0.126437
-5.24868
-0.223443
-0.753466
0.976909
-2.545
3.55735
-1.01235
2.6991
2.47814
-5.17725
-1.33184
0.932251
-1.49089
2.38084
-0.889943
1.24101
0.492615
-1.73362
-4.06134
2.17208
1.88926
-0.860834
-0.0499165
-4.22229
0.772562
1.74136
-0.99943
-0.74193
2.05129
-2.87612
0.824821
-0.606638
-1.02664
0.587646
4.98994
4.11742
-0.777234
-3.34019
-3.96744
0.481386
1.60541
-2.87934
4.2395
-7.03701
2.79751
-0.618827
1.59062
0.0134412
-1.81524
1.2462
-0.886961
1.1749
-0.563504
-6.67013
7.23363
2.49916
0.969724
-3.61994
3.88089
-0.260947
-0.558535
0.644879
-3.08347
-0.860568
-0.687669
0.773283
-0.0856143
3.45146
-2.69347
-0.75799
0.516085
0.503107
-1.01919
-0.623828
2.67512
-2.40534
-1.61647
4.02181
-4.10676
-1.25695
5.36371
2.16188
-1.91985
-0.242032
-1.38708
0.140453
1.24663
-0.847512
-0.44761
1.29512
-4.60397
0.179091
4.42488
0.0990911
1.11032
-1.20942
3.7947
-4.22855
0.433854
-2.19523
3.39387
-1.01212
-2.38175
0.0730673
-0.760736
-0.905743
2.20264
-1.2969
3.98306
-5.9641
-4.72511
4.12249
0.602613
1.0126
-0.176774
2.20802
3.80979
-0.46223
-0.764244
1.22647
-0.0666611
1.01282
-0.946163
-0.910546
3.57598
-2.66544
1.46646
-1.26932
-0.197141
4.99134
-4.78449
-0.206856
3.49141
-1.56588
-1.92553
0.189681
-1.28067
1.09099
-1.60062
-0.0628812
-5.30392
4.63696
0.666959
0.249118
-5.55304
0.360807
2.35905
-2.71985
-2.53531
-1.72972
1.16826
-0.921181
-0.247076
-3.91616
-1.10032
-1.08748
0.775192
0.312285
2.86934
-0.00371045
-4.82707
4.57303
0.25404
-0.8195
-0.661646
0.104242
1.211
-0.083519
-2.78678
0.354606
0.931149
-1.00425
0.0731027
-2.84606
0.574714
2.27135
2.02238
-0.134753
-1.29352
2.69533
0.505043
1.86747
3.38879
1.2205
-4.60929
-0.694699
2.47125
-3.3973
2.14165
1.25565
-0.760809
-0.100025
3.4553
-0.95614
2.47562
-1.77979
-0.735008
-0.968612
1.70362
-1.76289
-5.05087
6.81375
2.97407
-3.05094
4.03912
-1.75502
-2.2841
-0.039459
-2.81424
-0.583066
-2.05376
4.28916
-2.2354
0.595981
-1.03586
5.2928
-5.14315
1.22699
0.342304
0.670173
-0.700669
-1.02258
0.85665
-0.026252
-2.04018
-2.08622
4.38197
-1.37189
1.5993
-0.0737384
-1.52557
0.228033
1.28225
-4.72628
-1.64017
6.36645
3.39468
0.658894
-0.0391781
-0.81993
0.859108
4.08481
-0.252825
-0.331964
0.584788
-3.0391
4.4742
-1.85109
-4.73138
0.828443
-1.2017
0.0660379
1.13566
3.8261
4.23935
4.0621
-2.39717
-1.66493
4.78101
0.210328
3.11907
-4.44164
1.32257
-4.02033
0.0274186
3.99291
-4.22483
5.44423
-1.21939
0.821993
-0.042306
-0.779687
-2.11577
6.09883
-1.11551
2.36806
-1.25254
0.236657
-3.8566
3.29933
-1.18054
-2.11879
-4.44127
5.72794
-1.28667
-1.24625
2.95481
-1.70856
5.80831
-2.56398
-3.24432
0.224235
-3.01291
2.78868
-0.626602
0.0190236
-1.98029
4.67939
1.17999
-4.78236
4.25734
-1.46643
-1.0214
0.865131
-4.15107
0.130736
4.60448
-1.70574
0.203359
-5.64443
1.37325
-0.112973
4.81233
3.60703
-8.41936
2.8268
-0.869289
-1.95751
1.77545
-4.08146
2.30602
-1.00871
0.0570566
0.951649
-1.10757
-2.51458
3.62214
1.8675
-1.24902
-3.39251
4.07984
-0.687324
0.701394
1.02822
-1.72961
0.399492
0.768765
-5.60274
6.65452
-1.05178
0.28184
-0.213847
2.26887
1.18907
-3.45794
1.60177
2.16771
-3.76948
1.04239
2.38285
-0.119775
6.26615
-0.0529299
3.94082
-3.88789
0.0222392
-0.130068
0.153756
0.542585
-0.69634
2.04295
-2.11056
0.0676088
1.83854
2.20058
0.0438111
-0.218521
0.17471
-1.18815
3.8714
-2.68325
-0.0353081
1.01408
-0.97877
-4.09356
0.022552
4.07101
-2.44047
-1.49004
3.93051
3.63849
-0.519799
1.26238
1.56442
2.14502
-4.41675
2.27174
1.55952
-3.99325
-1.53866
1.35048
0.188184
1.03433
-0.20465
-0.829679
-0.228597
-0.398004
-0.288175
4.11783
-3.82966
-0.641814
4.7013
3.67634
-3.16501
-0.511332
3.33116
-2.60825
-2.43673
1.04108
1.39565
0.0818178
-1.86717
-1.60207
1.40368
0.198392
0.392929
0.759063
0.754876
3.63
-4.38488
1.21388
0.969052
0.679946
-4.7867
-2.45877
0.861013
1.59775
-1.78551
-1.25287
3.03838
2.63803
-1.30077
-4.2007
2.66492
1.74698
-1.30308
-0.443905
-6.78808
9.4568
-2.66872
-2.11752
2.48226
-2.67909
3.1014
-0.422316
-1.45666
7.16835
-5.71169
-0.11605
1.15043
-1.03438
0.294192
-0.439133
-3.37499
-3.14425
6.28723
-3.14297
-2.73066
3.63054
2.43956
-2.75667
0.317111
0.809746
-2.12287
1.31312
-4.97123
3.15238
1.81885
-0.206511
0.448762
-0.242252
-0.0477782
2.68649
-3.59704
4.08164
-5.84453
-0.794731
-3.34098
-3.52422
3.47129
2.19776
0.210712
1.4532
0.739494
-2.1927
-1.80124
1.68659
0.114644
3.80489
-3.1267
-0.678186
-2.82508
1.66767
1.1574
-4.43918
-0.245989
4.68517
-3.48656
-0.866571
4.35313
1.93686
-1.12712
1.82282
0.220139
-5.41157
2.12106
3.29051
2.69855
-1.83559
-0.86296
0.0361751
1.07715
-1.32578
0.248633
-2.64993
-1.25722
-1.56786
0.782815
1.11456
-0.924882
3.21574
0.235716
-2.46986
0.188383
0.169688
1.50789
-0.818438
0.572061
0.246378
-3.56857
-2.82608
6.39464
4.16181
-2.01679
-2.47035
-0.217966
2.68832
0.6295
1.05928
-1.68878
-0.0388039
5.50696
-3.52495
-1.98201
0.964055
3.15337
0.151934
0.441328
0.221784
-0.663112
-1.43997
3.36105
-1.92108
-2.7156
-0.970044
3.68564
-2.44734
0.956443
-1.59995
-0.836779
5.80086
-2.52221
-3.27865
-0.58488
-1.24623
1.83111
1.5424
0.556448
-2.09885
-0.96991
1.069
0.915445
-0.656158
-0.259287
1.42617
-0.132745
-1.12895
-0.0669204
3.46547
2.33539
-0.28198
5.6479
-0.22868
4.65814
-1.50325
0.918367
-3.91122
1.19563
3.69557
-3.03895
-0.687985
-3.34343
0.798433
2.63358
-2.27277
3.13592
-3.31595
4.12297
-0.228485
-1.00245
-0.711389
-0.847092
-0.553103
1.4002
-1.61557
-0.17307
3.79689
0.635031
-4.43193
-0.161715
-1.24415
1.40587
-0.243168
3.83187
-5.47876
1.64689
4.03698
-0.242281
-8.26828
8.34781
-0.0795345
1.0512
-0.907839
-4.17915
-0.792081
-1.30932
4.74582
-0.108854
1.87978
5.01449
-2.05769
-2.95681
-2.78544
-0.32444
3.10988
0.620796
2.26297
-2.88376
-3.52878
0.39039
-0.982875
-0.281268
1.26414
-2.40192
2.98112
0.894182
2.31778
-3.21196
-2.36256
1.39288
0.969681
-4.21168
0.379946
3.83173
-3.3539
7.43554
-1.31287
2.27574
1.21567
-0.977816
-0.740933
4.63137
-5.48791
-1.72837
-1.45309
3.18146
-1.42991
0.0980648
3.37169
0.0810579
-3.45275
4.42605
-4.65473
0.0702462
-0.217608
-2.59387
3.51619
-0.92232
1.3961
-2.30184
-0.107203
1.49618
-1.38898
-0.67545
-0.253737
0.929187
2.54159
-1.55219
-1.443
3.04841
0.219324
-2.62349
-0.84572
0.918787
2.66632
-3.30203
-0.197056
0.0520373
-1.05182
1.00225
0.0495756
1.12096
-1.24083
0.119866
-3.02244
3.15306
0.378704
-2.84906
-0.120481
-1.48529
-0.193902
2.90254
-2.70863
1.70616
-1.87212
1.03982
-3.3865
2.34668
-4.11875
4.06272
0.0560319
1.82994
-4.85037
2.03717
-0.113451
-4.61166
1.20102
3.18095
-3.55047
-0.650233
-1.8293
-3.27774
-2.21948
0.951705
1.02941
0.226712
-1.25613
7.25824
-3.43214
3.83151
-0.889076
-1.19136
-0.884228
2.07559
-4.72295
2.04545
2.6775
0.00937271
-0.699589
0.795562
2.59831
0.884814
-0.472946
-2.3055
1.26194
-2.37745
0.0181676
0.258098
-0.276266
-0.608442
4.40534
1.80928
-0.753337
-1.05594
4.56637
-5.72817
2.71544
3.01273
1.03475
1.26597
-2.30071
0.198699
-2.59631
2.39761
-2.77335
1.5271
-2.5407
-0.294825
1.83723
4.41356
-4.87208
2.17924
-0.938232
-1.76987
3.32939
-4.32037
3.06317
1.2572
-3.38321
-0.880248
4.26346
-3.31359
3.67799
-0.364396
1.64342
-2.33812
0.063823
0.771489
1.39039
-4.79618
2.31674
6.36146
-7.45062
-0.767577
8.2182
1.167
-3.95244
3.13619
0.00381939
-3.0355
0.590626
2.87741
5.12564
-1.80694
-3.3187
-4.44793
1.33318
-3.11869
0.895841
-4.40994
4.0855
-3.15687
1.60109
2.26815
-1.81642
1.47249
0.343927
-5.97728
2.68966
3.28761
-6.45341
-1.00902
1.12668
-4.87303
3.48534
1.38769
4.08966
-6.20543
-5.53487
-0.0678689
7.01078
-2.77129
5.28228
-2.473
-2.80928
-0.135502
-0.813473
0.948975
-0.459336
1.92994
2.548
-1.96866
0.152242
0.617505
1.25
0.862037
1.93524
-2.79727
2.0406
-1.15042
-0.267114
-4.73227
4.99938
-1.77009
1.40269
-3.81278
-3.23575
-2.33238
5.56812
1.29324
-1.71409
-3.52731
1.15458
2.37273
-0.0953827
0.524724
-0.429342
7.05786
-7.62137
0.446447
-3.04032
2.87371
-1.05272
-1.82098
0.624284
0.97502
-4.12988
1.24839
2.88149
-3.92412
1.48365
1.95335
-3.39332
1.65512
-3.38348
-0.307059
0.211677
-0.177334
4.30978
-2.84816
3.76326
-0.915099
3.99066
0.0127559
-4.00342
-3.33378
-0.0877619
-1.29638
0.21127
4.04966
0.722708
0.164805
-0.0607723
-0.93634
2.90877
2.48819
1.43881
2.36608
-4.48971
-0.337359
-3.81579
-0.496962
-4.75993
0.960578
0.959413
-1.91999
6.57244
-0.67488
-5.89756
-0.625608
0.583302
-1.76016
-3.65197
-3.69813
-0.682915
-0.640954
5.067
-1.6304
2.41771
-0.787309
-5.26245
1.69388
-1.57728
2.43932
-2.3737
-2.29126
-1.4206
-1.15822
1.54461
-1.27655
-1.56951
5.52545
-0.779631
-0.426338
-1.52679
1.95313
0.566211
1.41985
1.39783
4.82729
-4.46916
-0.279695
-1.12228
1.72511
-2.28487
2.6855
-2.39726
-5.8154
1.11761
0.92016
-2.03777
-4.32889
0.0679649
-0.75062
3.8048
-3.05418
-1.45936
-6.80891
-3.13657
3.48638
5.58461
-2.57425
-3.01036
-0.326182
1.21563
4.07471
-1.63924
-2.43547
1.36176
-1.4945
0.46487
-0.311114
-0.616899
-0.163514
0.780413
-0.682975
2.13618
-2.3387
6.42836
-0.0193184
-0.901863
-1.33428
-0.567004
1.90128
0.0649545
6.99291
-0.911799
1.52704
-0.615242
-1.87097
2.92861
1.79433
2.07707
-1.96896
-0.489805
2.70017
-0.983325
-1.71684
-0.261284
0.180893
0.0803903
0.344043
-3.33018
2.98614
-4.44794
0.749807
1.12253
-5.33935
4.84239
-0.0348235
1.39658
0.807509
-2.43791
-4.03679
2.09217
-4.29717
1.42231
-2.37129
0.451634
-1.70459
-2.94079
4.64538
-4.69009
-0.213831
1.12007
-0.906242
4.05618
-3.45061
3.15967
-2.53887
0.500378
2.63176
-3.13214
0.571539
-1.55441
-2.22361
-2.30687
4.53048
-1.39065
3.66484
-2.2742
-2.74455
3.32181
-0.577264
4.09451
-3.23168
-0.862829
3.28021
0.212148
-3.49236
-2.21435
-3.51382
-1.53143
-0.316264
3.73466
3.4062
-0.0598986
0.573389
-0.51349
-3.22684
-0.90304
3.05663
2.795
-2.578
3.26288
-0.684874
-0.578456
0.246493
0.562815
1.65735
-2.22017
0.928856
0.880423
-0.462338
-4.4107
-5.62133
1.75492
-0.00793808
-2.08129
3.58307
0.418425
3.40254
-3.82097
-2.47241
-0.314371
1.34354
3.60642
0.371635
-1.31546
-0.241426
-0.505765
0.747192
0.336644
-1.83574
1.4991
4.03533
-1.79653
3.01293
4.19458
-1.94954
4.0372
-2.63452
-0.646164
-1.25301
1.89918
3.51834
0.581999
-0.100065
-3.40772
2.30016
6.47615
-6.4112
-1.87377
-2.15463
4.0284
-2.54712
-2.17583
-4.74044
4.70293
0.0375061
1.36863
-1.47966
0.926559
2.78837
1.40621
-0.105116
-2.7267
2.83182
-1.45318
-2.61985
-2.00243
-2.34431
4.34674
4.23087
-0.836193
-1.6809
0.142237
2.81379
-4.57394
1.89837
-1.74222
-2.64067
4.09206
-1.45139
0.710748
2.15968
1.75944
-3.91911
4.54386
-2.71727
-1.8266
-1.84915
-3.11613
4.28722
-1.17109
0.868852
-1.29519
-1.45809
1.42326
2.01227
3.79603
-1.1065
0.970996
0.233669
-0.223008
4.49825
-2.51516
2.95893
4.29931
-2.10606
1.18825
0.917811
1.08798
-1.82299
3.4377
-0.0660104
2.84979
2.43249
-3.05639
-0.289009
3.3454
0.96671
-0.0880271
-0.878682
0.923061
0.253748
0.672125
-4.89696
-1.42442
1.58353
3.1551
-2.94559
-0.209515
0.819419
1.88075
-0.813315
0.379239
1.30067
1.15995
-2.46062
-1.85521
3.92879
1.27674
-1.88587
4.65505
-2.76918
-0.962307
1.6637
-1.52526
-0.837305
5.03856
-2.54264
-1.68643
2.02885
-1.83015
1.5203
-1.64078
-0.923348
0.807298
-1.4502
-0.778564
-0.050355
2.51386
-0.864039
3.81281
-2.94878
-0.0497483
0.195902
-1.36364
0.599395
-1.73921
0.207785
-7.67231
4.79832
1.20994
1.17089
-0.818029
-2.23497
3.053
0.777589
0.625166
3.58817
2.32309
-5.91127
-0.624926
-0.0693905
0.694317
1.49612
-2.21408
3.82669
1.75793
3.66609
-3.24767
-4.44679
0.553894
0.203586
-3.41522
2.0813
1.08375
2.20815
-3.2919
1.91985
-0.213691
-0.106627
-1.52591
-0.580147
-3.30405
-1.9486
2.03042
2.78187
0.332041
2.60346
-2.43563
-0.167831
0.971998
0.030249
-0.360465
1.27985
-0.158895
3.71517
0.922443
-4.63761
-0.797173
0.81534
-1.16968
0.726983
0.442697
-1.72675
-0.00613408
1.73289
1.52629
2.01763
-3.54392
1.12621
1.51182
3.13726
-0.0790381
-1.33947
2.33966
-3.276
-0.872538
1.3249
-0.452362
-5.26668
4.59161
3.9404
-3.07149
-0.868903
0.0807854
-0.780168
0.699383
4.00857
-4.29674
3.28909
0.94178
1.20923
1.95044
-0.752185
-0.0263796
-0.554709
-0.0362311
0.59094
-2.29658
-0.67717
4.98969
-2.55435
-2.43533
3.04068
-2.15217
-0.888519
2.08753
-3.49699
1.40945
0.151128
2.56384
0.072091
2.03287
-1.15316
-0.879708
-0.501116
-0.0535938
-4.06804
-1.71994
0.966602
4.15485
0.0333664
-4.18822
-3.36066
-0.65128
-0.167158
-0.114222
-0.104299
1.98615
1.53005
-1.39628
1.91237
0.0485054
0.437681
-0.347669
0.665471
-1.95089
2.45127
0.0702892
1.22565
-0.730774
-0.935508
3.66712
0.0337077
2.56975
-0.857402
-0.684825
-1.152
2.45267
-0.724262
3.53743
-2.81316
-3.6501
-0.572193
1.47616
1.82524
-3.3014
-1.05892
-0.661021
1.54756
-0.305627
-0.0940576
-1.18734
1.2814
-3.83718
1.29455
0.740267
-0.755174
1.95788
-6.68416
3.45649
-8.07111
-0.612584
2.29069
-1.87508
2.52146
-1.36152
0.0602135
-2.73717
3.08122
-0.002297
-0.785582
0.300499
-2.22035
-0.649478
-2.69093
3.34041
2.46707
-1.91073
7.00249
-4.49118
-2.51131
-1.10187
0.433848
1.15518
0.103756
-1.25894
-3.71847
0.870313
1.04461
-0.0102845
-0.0261042
-0.698872
0.724976
4.0684
-2.59224
0.434708
2.03434
0.37817
-2.41251
-3.96317
3.23891
0.7577
0.182843
-0.940543
3.25661
-6.40086
-0.762852
0.010827
0.752025
0.984392
-0.226692
0.0527508
3.39603
-2.35363
2.68851
2.4505
-1.32429
-4.73798
1.50223
-2.93318
2.59299
0.340191
2.14769
-4.02147
-2.38562
-1.46047
3.84609
0.213968
2.02432
-1.44744
1.23117
4.62581
-0.586727
-4.03908
0.012563
-4.50228
3.00978
0.270435
2.54263
1.53208
-0.826876
0.00694569
0.796645
-1.2912
-1.70823
0.268788
-0.431998
0.163211
0.0915087
-3.80862
3.71711
-0.307924
1.5054
-1.19748
4.23342
-9.34036
5.10694
-0.157999
-2.53928
-0.120275
0.0815281
2.94495
-1.63204
-0.95267
2.5847
-1.88091
-1.64986
2.17308
-1.25292
0.232104
-1.24683
1.01473
-3.35914
2.54111
-4.22603
-0.48897
-0.439135
0.928105
0.917388
1.23303
-2.15042
0.508442
-2.89984
2.3914
0.443448
-2.63852
0.683277
-5.12455
-2.46398
-2.16197
4.62595
-4.22767
0.175686
4.05198
-4.96934
-3.57938
0.265781
-1.38316
1.41176
-0.0285909
-5.07911
-1.52241
5.23758
1.84442
-0.930953
0.444279
-1.59628
-0.783956
2.29578
0.767002
0.581738
-1.91602
0.0883551
-0.808611
0.720255
-0.677399
-0.027683
-0.55481
0.635595
-1.43046
2.46521
-6.59803
3.09004
3.508
-1.52605
4.61579
2.25965
1.05439
-0.0876841
-3.18496
3.07984
-2.21694
-1.31038
-2.6098
0.920646
1.68916
0.480707
-0.0389339
-0.441773
-2.04631
2.38295
-0.556385
3.41387
1.09907
-2.01087
2.2128
-4.09371
2.04622
-2.3587
0.312477
0.654409
-0.0485385
-1.15558
0.0404761
-4.6458
2.94121
2.11394
0.92674
0.0660859
-0.975083
0.908997
-6.30131
2.28308
-1.69324
1.43808
-0.932853
-0.0782813
-1.07756
1.15584
-2.68323
1.05119
-4.6338
4.17147
1.85104
1.02266
-1.22843
1.12043
0.108002
0.606417
0.535818
-0.788956
-4.4463
2.28985
2.15645
-0.775558
0.706167
-0.464061
1.7216
-1.25754
3.71701
-0.427916
0.255413
-0.0674239
-0.187989
-1.29169
1.36198
0.125548
0.564151
3.46114
-6.89099
4.47965
0.301363
0.466981
-0.489076
4.14003
-0.205173
-3.93485
-0.35501
1.49973
-1.14472
2.01943
-4.05961
-0.476461
-0.0219793
0.49844
-0.00917164
-0.276012
0.285184
-3.99369
4.16704
-0.173352
-1.52921
2.56903
1.11225
0.354207
7.26937
-3.65792
-3.61145
-0.119477
-1.0719
1.19137
-0.749718
-1.51437
-0.0862543
-1.46819
-0.0461817
0.438697
-1.51122
1.07253
-0.424111
4.18332
-3.75921
-3.96757
1.14375
2.82382
1.29386
3.84681
0.117292
0.378844
-0.496136
2.59765
1.2176
-3.81524
0.0433757
0.986037
-1.34585
3.65448
-2.30863
-3.36815
0.311757
2.81395
1.30907
-3.69469
-0.0149538
-0.599428
0.614382
3.87554
-0.923868
-2.95168
1.34023
1.05637
-4.29727
2.21105
4.15932
-4.42643
-2.2181
0.25433
1.96377
-0.228412
-0.639367
0.772378
-0.133011
-1.08717
0.56092
0.526249
-0.0417976
0.677589
-0.635791
-0.915119
0.84468
0.0704396
-2.63805
5.45183
-1.49337
1.3806
0.788432
-1.25249
1.69851
-2.61279
0.914282
-2.27615
-2.04422
-1.23597
0.388459
1.00515
0.0595431
-1.06469
4.25038
-2.46797
-1.78241
0.27378
2.88132
-1.17322
-0.628019
-2.75907
0.570582
1.57289
1.92165
-3.49454
-0.00834475
-0.115926
0.12427
-0.0983324
1.67899
-0.499272
1.17976
-0.680491
3.56317
-3.05545
-0.507713
-6.9977
0.327568
0.478516
0.799883
0.727687
-1.52757
-1.86645
0.388005
0.904291
-1.24821
-1.05856
-0.0970162
-1.88466
2.67647
-0.79181
0.77179
0.113024
-1.00182
-0.625381
-1.15436
1.13504
-0.873265
0.119798
5.08045
-1.64887
-3.43158
3.23124
-2.21436
-1.01688
1.58974
2.4456
1.20813
0.240582
-1.13195
0.928882
-0.434808
-1.57168
0.0367851
-1.3061
0.513453
1.51942
-1.35774
0.910134
0.673252
0.31114
0.11601
-0.125181
3.76265
-3.87597
0.113318
5.01186
-2.18163
1.16792
1.01371
0.574211
-1.69649
-3.3577
-3.99877
-1.18182
1.09379
-0.839045
-1.28721
2.12626
-3.67542
0.944761
1.14116
1.13977
-2.28093
0.947647
-2.3383
-0.866369
-1.51587
3.68359
4.05956
-6.23933
1.18495
-2.48469
1.29973
-1.24123
1.61287
-2.70212
-3.59919
0.283379
-0.95883
2.80015
-3.92723
1.6374
2.28983
-0.0907236
-1.50102
0.116708
-1.66572
1.54902
-3.61471
-2.46576
-0.80901
0.819837
3.2834
2.10641
0.633674
2.62164
-3.12483
-1.35918
3.98978
-0.251729
-3.73805
-1.17931
-1.29054
4.08691
-2.08514
-2.00177
1.44153
0.958079
-2.39961
-1.82215
3.05432
-1.23217
-6.47231
3.30477
3.16754
0.0483005
1.17554
3.56567
-2.4882
-2.91122
5.39942
1.12048
-2.98693
-3.14661
-0.382172
2.36764
-0.798723
2.41165
-1.61292
1.16965
2.89875
-6.32127
0.150542
-2.77794
2.6274
1.96798
-3.32135
1.35337
3.05123
-1.842
-0.449615
-0.130249
0.579863
-1.15172