/*--------------------------------*- C++ -*----------------------------------*\
| =========                 |                                                 |
| \\      /  F ield         | OpenFOAM: The Open Source CFD Toolbox           |
|  \\    /   O peration     | Version:  2306                                  |
|   \\  /    A nd           | Website:  www.openfoam.com                      |
|    \\/     M anipulation  |                                                 |
\*---------------------------------------------------------------------------*/
FoamFile
{
    version     2.0;
    format      ascii;
    arch        "LSB;label=32;scalar=64";
    class       surfaceScalarField;
    location    "1.3";
    object      phi;
}
// * * * * * * * * * * * * * * * * * * * * * * * * * * * * * * * * * * * * * //

dimensions      [0 3 -1 0 0 0 0];

oriented        oriented;

internalField   nonuniform List<scalar> 
20045
(
0.987271
-1.05081
0.0635396
-2.15303
0.760736
1.39229
0.726529
3.66538
-4.39191
0.344058
-0.436384
0.0923262
-1.62829
1.60438
0.023905
-1.20909
4.43269
-3.2236
-1.99805
0.895483
1.10256
0.123158
0.842637
-0.965795
0.930613
0.821115
-1.75173
-1.66668
-0.191498
1.85818
1.14715
-1.20546
0.0583171
4.5059
-2.15672
-2.34918
0.698816
-0.717285
0.018469
-2.58957
2.18866
0.400912
-0.668267
2.09487
-1.4266
-2.16613
0.499453
0.545532
0.240621
-0.786153
1.59373
-1.19141
-0.402318
-3.40055
5.04121
-1.64066
-1.51846
0.12776
1.3907
0.577567
-0.574195
-0.00337259
0.228244
0.470571
-0.2651
-1.88793
1.00157
2.14299
-3.14457
1.65077
0.425087
-2.07586
-2.23908
3.24065
-1.55077
1.65897
-0.108209
-2.41227
4.61184
-2.19957
3.44098
0.48439
-3.92537
-4.39243
2.4068
1.98564
-0.336469
-0.476752
0.813221
2.84272
-1.97111
-0.871611
-1.69036
3.22705
-1.53668
4.61264
-2.57084
-2.0418
-1.0852
1.20835
4.36564
-2.15869
-2.20696
2.88525
0.352159
-3.23741
-0.124931
0.761029
-0.636098
-3.69628
1.48891
2.20737
1.18055
1.02157
-2.20212
0.118126
0.794066
-0.912192
0.334398
-0.452409
0.118011
4.35778
-4.34152
-0.0162579
2.97885
-1.10953
-1.86932
1.37741
1.60143
2.04679
2.4591
-0.625853
1.95892
-1.33307
2.50195
1.09752
-3.59946
3.57189
-0.686639
0.371674
3.67506
-4.04674
2.58176
-4.37818
1.79642
3.50463
-2.57159
-0.933039
-2.44901
-1.66767
4.11668
-0.185209
-0.581052
0.76626
1.61682
-0.409944
-1.20687
-1.35702
-0.27127
-0.0162546
3.07335
-3.05709
3.12307
0.191663
-3.31473
1.85891
-3.54927
4.12327
-2.65678
-1.46648
1.37905
-0.779282
-0.599766
1.77987
2.3434
1.06446
-3.91248
2.84802
0.547562
0.030005
1.6396
0.0449325
-1.68454
3.28179
0.345182
-3.62698
-0.0977521
0.38713
-0.289378
-1.35597
0.372224
0.983743
1.65726
-0.726643
3.63331
-3.69975
0.0664415
-0.289704
0.191952
-0.24541
1.86223
-0.481994
-2.06446
2.54646
-0.222242
-0.257711
0.479953
3.62578
-0.741711
-2.88407
2.70984
-2.7261
0.00623357
3.61955
0.821935
-1.4902
-0.845604
-1.02429
1.86989
0.773354
-2.32203
1.54868
2.03593
2.38378
-4.41971
1.79118
-1.37884
-0.412344
3.36503
-2.30057
-4.86
0.917686
3.94232
0.0570635
0.930207
-1.16633
1.32595
-0.15962
0.494246
-2.27203
1.77778
-3.18193
0.126375
3.05556
2.03911
0.29549
-2.3346
-1.68746
1.57188
0.115576
-2.84207
-0.471619
3.31369
1.40798
-0.249306
-1.15868
0.796765
-1.1229
0.326135
-0.32645
-1.58576
1.91221
1.1493
-1.23107
0.0817664
2.97133
0.761784
-3.73312
-1.33509
-0.215671
-0.139662
-0.202006
0.341668
2.39225
-1.2117
0.482567
0.591465
-1.07403
2.99582
1.36983
-0.952005
-1.63756
-0.449904
0.310243
-0.576487
3.69955
-0.11472
-1.05161
-0.915265
1.39783
0.874924
2.40942
-3.28434
2.19435
-3.36709
1.17274
-1.47146
-0.922423
0.796868
0.125555
-0.547646
0.680891
-0.133246
2.44827
-1.76187
-0.6864
-0.966519
0.78131
2.57987
-4.30852
1.72865
-0.322683
0.634327
-0.311643
0.103306
-0.65697
0.553664
2.31495
-0.664176
3.34699
1.26565
-2.28834
1.80635
2.74757
-3.88906
1.14149
1.0401
0.553626
0.291405
1.08764
-1.52277
1.22805
0.294719
-1.50193
0.19798
-1.14211
0.944128
2.50915
0.99548
2.2108
-2.80224
0.591447
3.17712
0.376025
-3.55314
-4.18712
3.19072
0.9964
-0.493249
-1.5758
2.06905
3.6957
-1.18655
0.0374219
1.9215
0.0668987
-0.315822
0.248923
-0.318147
0.108352
0.209795
2.29518
1.60383
-3.89901
2.36582
-2.29911
-0.0667068
-0.788633
0.334883
0.45375
-0.647867
-0.274556
4.36836
-1.62079
-1.26202
1.34394
-0.0819283
2.53721
-4.38928
1.85208
0.647169
-3.09618
2.28657
0.844519
-3.13109
2.55001
-1.77665
4.02014
-0.516834
-3.50331
1.53092
-4.23237
2.70145
4.94383
-3.11964
-1.82419
-0.289399
0.864739
-0.575341
-0.0847107
4.15249
-4.06778
4.23023
-0.789243
-3.30512
0.10022
3.2049
-1.84921
1.638
0.211212
3.97867
-1.94274
0.671412
1.11977
-2.50525
3.078
-0.572743
-2.99176
3.71829
0.0525115
-0.78568
0.733169
0.36184
-0.462923
0.101083
-0.0730728
-0.720473
0.793546
3.96702
-0.860948
-3.10607
5.29452
-2.58134
-2.71317
-0.86257
0.789497
1.31863
-2.67541
1.35677
0.410303
-0.0759048
-3.14808
-1.93196
2.7345
-0.802536
-2.7136
1.98421
0.729388
-0.0733341
-0.0759418
0.149276
2.12258
2.82125
-0.353184
0.0350376
0.167722
-0.100824
-2.81748
0.312231
-2.95131
3.73763
-0.786326
-2.578
3.00529
-0.427289
-2.36672
-1.68158
4.0483
-1.05306
0.0471161
1.00594
1.7652
-1.87144
0.106236
3.57
0.328534
-3.89854
0.0255064
-2.95599
2.93049
-1.38475
3.67133
0.748428
-2.12212
1.37369
-1.68965
4.26952
-3.26454
2.11233
1.15221
0.509301
-0.71651
0.207209
1.72526
-4.80148
3.07622
-3.73701
1.32474
-2.41805
-1.62841
4.09906
-2.47346
-1.6256
-1.02619
1.14432
0.649407
-0.692307
0.0429003
-3.04933
-0.648323
3.69766
-3.29948
4.5999
-1.30041
3.52815
-2.51517
-1.01299
0.389789
-1.06159
0.671801
-0.969371
-1.83003
2.7994
1.10476
0.0423849
-1.772
1.27875
-2.78648
-0.922611
3.7091
0.456465
0.112356
-0.56882
0.504822
-2.43678
0.431592
-0.768061
3.42961
-0.252495
-0.632556
0.507625
-0.687708
0.816129
-0.128421
0.0894464
3.87758
-3.00982
2.04045
1.12667
-0.0397086
-1.08696
-2.7086
0.502513
2.20609
1.19369
2.33447
5.00348
-3.27822
2.8837
-4.80993
1.92624
0.680129
-2.92158
2.24145
0.0932856
-1.61175
-1.91828
2.79321
2.60321
-3.8123
1.22731
-2.83124
1.60394
-4.77026
2.73038
2.03989
-0.0524929
-1.63496
0.712788
0.522411
-1.2352
2.88998
-0.934994
-1.95499
1.137
-2.88528
2.80057
-0.982422
-0.279593
2.50803
4.42523
-3.52429
-0.900937
-0.0360818
-0.524154
0.560236
2.65383
0.456654
-3.11048
0.774896
0.0294111
-0.804307
-0.558172
2.55247
-1.9943
-1.71268
2.20693
2.20178
-1.45335
-0.310553
0.808443
-0.49789
3.68926
-1.15206
0.432679
-0.0446738
-0.388005
0.571948
-0.0870233
-0.484925
-0.527089
0.550696
-0.0236068
4.04079
-2.54281
-1.49798
0.946775
-4.24626
-0.585485
0.0583956
-3.47225
1.14395
2.3283
4.56827
-1.34122
0.995706
-3.94701
5.09922
-2.31724
-2.78198
-0.069518
0.525983
3.12099
-1.34711
-1.77388
-2.42801
0.545639
1.88237
-3.92148
3.96123
-0.0397536
1.05023
-3.27489
2.22465
-0.239126
-0.186639
0.425765
-1.87352
2.5281
-0.65458
-0.487668
0.298726
0.188942
-0.57747
0.254787
-0.659028
0.111383
-2.23923
-1.12786
1.61591
-2.98824
1.37233
1.56021
-0.586502
-0.973709
1.58384
1.25888
2.53116
-1.30385
0.0888027
0.273037
2.7686
1.79967
-1.91449
0.0155824
1.8989
0.963139
2.15785
1.4761
0.61877
0.811424
0.748787
-1.10549
-0.0697885
1.17528
-0.264687
0.773988
-2.69486
2.13669
-0.7109
0.853543
-0.142643
-3.56169
3.41569
0.146
-1.3829
2.2804
-0.8975
-0.851607
-0.393419
1.24503
3.03619
-3.32793
0.291739
-2.91998
-1.85028
5.16366
-3.28437
-1.87928
-0.414676
0.378594
3.6397
-2.58947
-1.47754
3.09345
-0.476951
-0.88847
1.36542
3.12287
-0.571213
-2.55165
5.01671
-1.37703
-3.63968
-1.50005
1.0231
3.26357
-1.90886
-1.3547
-0.651131
3.11731
-2.46618
2.9471
-3.63029
0.683188
1.32088
-1.32597
0.00508994
1.7064
-0.423923
-1.28247
4.97602
-4.04595
-0.93007
-2.31614
-1.87098
2.93003
1.4952
-3.25577
-0.305922
-0.00161279
0.573561
0.401818
-2.82616
2.42434
0.0147536
0.634653
-2.13957
4.43476
1.5885
2.45229
4.44693
-2.70285
-1.74408
-4.0713
3.14868
2.93477
-4.82097
1.8862
-2.4932
-0.154409
2.64761
-0.881248
-0.707318
1.58857
2.24196
-0.923324
0.192114
0.934556
1.89707
-0.0766747
-1.89443
-2.78734
3.81724
-1.0299
-0.808529
0.120821
-0.273731
-0.0368218
0.528881
-4.45036
0.944707
-2.65739
0.522558
-1.00327
1.31882
-0.31555
-0.0271348
0.371193
-2.00829
1.46372
0.544567
1.34024
1.10803
-1.7935
2.75563
-0.962124
1.94978
0.416039
-2.51436
2.91617
2.26069
-0.221583
-0.787511
-1.92109
3.81304
-2.88371
-0.929333
3.63395
-3.2821
0.926433
2.35567
3.13044
-3.41733
0.286882
-1.7013
1.37485
-0.473651
-0.314982
-0.432511
-2.40956
1.0963
-2.11881
1.0225
1.66173
1.60183
2.92891
-4.53567
1.60676
0.864572
-2.08783
1.22325
-3.87945
0.697514
0.0376874
1.3703
-2.24725
3.47723
-1.22998
-1.01626
1.22615
-0.209894
-1.55043
-0.447616
-0.49096
-0.870946
1.36191
0.368864
0.0065511
-0.375415
-1.29674
-0.552472
1.52174
1.77421
-3.29595
2.92683
-1.96369
1.11818
-1.75367
0.0523642
1.79787
-0.933297
-2.5978
-0.666746
0.0958717
-0.609538
0.513666
3.85027
-1.34832
-1.77469
2.94477
-1.17007
-0.455075
0.517943
-0.0628677
2.91089
-0.0209058
-0.627827
-2.19833
-1.9543
3.62192
-1.66763
2.58438
-4.56122
1.97684
2.34986
2.8138
1.41001
-1.22569
-0.184315
0.354671
-2.84787
2.68755
-4.06668
1.37912
0.529621
-0.751864
-0.26959
2.48039
-1.20909
2.15379
-2.24815
2.92828
0.890642
-4.29119
-3.53064
1.87917
1.65147
2.53355
-0.418986
-2.11457
3.72676
-0.690572
-1.66206
-2.10584
-1.88293
1.90411
-1.53742
-0.22647
1.76389
1.27355
-1.14579
-2.77717
2.50758
3.43604
0.921744
-3.08017
1.30548
4.37266
-1.44263
0.36136
0.214516
-0.575876
0.0466735
-2.46425
2.41757
-3.6077
0.675596
2.9321
3.34824
-3.34824
-0.829691
3.01964
-2.18995
1.47956
-3.27306
2.59747
-1.52451
-1.07296
-3.67456
3.77842
-0.103859
1.30241
-0.176986
-1.12542
1.03655
-0.456784
-0.579768
0.406942
-1.25855
-1.5
1.7514
-3.22893
-3.34092
3.90072
-0.559796
-1.12107
2.64281
0.285536
0.107098
-0.392634
-0.429513
0.670477
-0.240964
-1.5044
1.59769
4.2636
-3.49594
-0.767663
-0.301577
-2.10898
2.41056
-0.899801
0.987267
-0.0874665
0.473698
-1.10475
0.631048
-4.06559
1.62204
2.44354
-0.311227
-0.125157
-0.0251725
0.386532
0.241655
-0.147078
-0.0945771
2.20627
2.76975
0.224334
0.0612017
-0.207347
-1.15385
1.36119
-1.95576
3.11428
-1.15852
-0.126552
0.46282
-0.336269
1.6928
-0.797321
3.17439
-1.2338
-1.94059
0.0355222
-1.62128
0.314758
3.25525
1.65826
1.18487
-2.84313
1.83991
-1.62164
-0.218267
-4.05526
0.750141
-1.69287
0.717968
0.974903
1.77983
2.17917
-3.95899
-2.47067
2.31626
0.246516
-3.60663
3.36011
-0.478416
0.868204
0.473292
-0.661124
0.187831
0.0733389
-1.17883
0.762806
-0.795927
0.0331205
-2.66046
-0.811782
2.43492
0.601844
0.0767331
-0.678577
-0.461114
0.00603865
0.674305
-2.80888
2.13458
0.867745
2.15437
-3.02212
1.39621
-2.83094
3.46981
-0.638864
-2.85651
2.20538
0.744708
0.914267
-1.59631
-1.1173
-1.0093
0.275966
0.733333
-3.37423
1.41847
2.67425
-2.97583
1.7549
2.61776
-1.14325
1.1726
-0.0293435
1.5641
-3.66409
2.09998
0.543436
-1.04228
0.498849
2.1243
-2.75212
-2.52611
-0.0518896
-1.21395
-0.142015
0.0910332
1.21437
-1.30541
1.34362
0.0293536
0.0826827
-0.112036
3.70768
-1.92785
-1.41784
1.50995
-0.0921112
1.04042
0.682124
-1.72254
-1.41919
0.940775
-0.82597
-0.183328
1.55252
1.04494
-0.919432
-2.96963
0.847279
-0.751408
2.44851
1.61563
0.645061
-3.45668
3.82835
0.414743
-1.81825
1.40351
-0.358419
-3.30002
3.65844
-0.0938628
0.0531113
0.0407514
0.418885
-1.47194
-0.771975
3.71907
4.25944
-2.72852
-1.69347
-0.314821
0.0657625
-1.6367
1.57093
1.59443
-3.96115
-0.480824
-1.8905
2.37132
0.0723141
-0.513981
0.441667
-2.59974
0.188805
2.41093
3.77212
-2.6746
-0.0945265
0.331489
-0.236963
-0.842377
-0.0574233
0.680221
1.41049
-2.09071
0.537431
-0.659536
0.122105
2.60917
1.45782
-4.06699
-1.54715
4.51848
0.367456
0.00140721
-1.02422
-2.1269
3.15112
1.47721
2.89115
3.64582
-2.77808
-1.35246
0.861505
1.20565
0.500749
-1.75261
4.68738
0.563851
-3.07503
2.51118
3.62286
-0.557162
-3.0657
-1.83967
2.81599
-0.976317
1.57481
-1.69288
-1.75821
3.45109
-0.43277
0.0857074
0.347063
-1.15459
-1.931
3.08559
0.205295
-0.634808
0.0964718
-0.169806
2.03085
-3.18545
-2.81527
-0.841441
3.65671
-0.263082
-1.89643
2.15951
0.85854
5.01875
-5.12952
0.110774
0.832749
-0.622993
-0.209757
0.0449148
-1.18817
1.00431
0.907907
-1.22344
0.342188
-3.13068
3.97055
-0.839869
-0.0584361
-0.652464
1.22419
1.32582
-3.3967
-0.944823
-0.474397
1.54669
-1.07229
2.10171
-0.48608
-0.790142
0.867179
-0.0770373
-0.332926
-0.154742
-4.61102
2.19297
3.64886
0.783829
-0.519658
0.993356
-0.766308
1.80673
3.17767
-1.42628
-0.810322
0.0201797
-0.373774
-2.40339
0.894822
0.899593
-0.847081
-3.66259
0.0548872
0.930529
0.819692
-0.276256
-3.88907
2.52692
1.36215
3.07521
0.558099
0.721534
-0.225086
-0.496448
1.06521
-0.995655
-0.0695596
-3.44708
1.28839
-4.02869
2.07439
-0.742179
0.773217
-0.0310373
-0.0999515
0.00624446
0.093707
4.32054
-0.00504232
-4.31549
0.728307
0.0478329
-0.776139
-0.528131
-0.994643
0.862476
-0.0657105
0.860556
-0.944748
0.0841922
1.4913
-0.247528
-1.24377
-0.22445
1.08501
3.32504
-2.56325
-0.125216
-0.531996
0.657212
-4.03445
0.903769
-0.243218
-0.159767
-0.290137
-0.381068
0.982912
-0.0135276
0.10233
0.943839
0.600588
-1.54443
1.61706
0.0225466
1.73118
-1.31643
0.838961
-0.735655
0.258674
-1.27493
2.4349
-0.121709
-2.31319
2.14176
-0.155342
-1.98642
-3.00665
-1.22572
0.209572
-0.637243
0.427671
1.57771
-1.74433
0.16662
4.28525
-0.0810086
-4.20425
-0.273985
-0.775863
1.04985
-1.93033
2.55632
-0.625984
2.04328
2.52675
-4.57003
-1.5916
0.812313
-1.02221
1.65923
-0.637021
0.81026
0.376145
-1.1864
-4.04008
1.95082
2.08926
-0.906304
-0.0384433
-3.35744
0.542169
1.15247
-0.72423
-0.428237
1.95353
-2.45301
0.499478
-0.298782
-0.752028
0.747347
4.2714
3.25205
-0.495023
-2.75702
-3.38733
0.556391
1.31545
-2.10296
2.73055
-4.33785
1.6073
-0.365923
1.07871
0.0749144
-1.53523
1.32788
-0.607441
0.805421
-0.530282
-2.99224
3.52252
1.49264
2.14706
-2.85608
3.03077
-0.174691
-0.945311
1.03634
-2.47111
-1.01225
-0.448659
0.493748
-0.045089
0.859159
-1.21515
0.355989
0.248648
-0.222625
-0.0260234
-0.245291
2.19882
-3.25014
-0.337084
3.58722
-3.0552
-0.927242
3.98245
1.89326
-1.40963
-0.483629
-0.863704
0.103088
0.760616
-0.818721
-0.764999
1.58372
-3.92915
0.19625
3.7329
0.112134
0.7135
-0.825634
3.14232
-3.56322
0.420893
-2.07713
2.56195
0.0302987
-2.59225
0.0235184
-0.472178
-0.711432
-1.73247
2.4439
2.41946
-4.10912
-3.78805
3.29128
0.496773
0.647165
-0.109734
2.58382
-1.35963
-0.201431
-1.08063
1.28206
-0.0404485
0.657146
-0.616697
-1.00419
3.70412
-2.69993
2.80588
-0.804621
-2.00126
3.99858
-3.83383
-0.164745
3.13507
-1.2213
-1.91377
0.182881
-0.870858
0.687978
-1.09688
-0.0452269
-3.80572
3.35617
0.449547
0.211114
-4.01683
-1.37187
2.10732
-0.735448
-2.34299
-1.70296
0.714316
-0.634215
-0.0801008
-3.17043
-0.864024
-0.680789
0.438185
0.242604
0.862071
-0.0871752
-3.62647
3.45985
0.166618
-0.837909
-0.41046
0.152749
0.776119
-0.0478123
-2.42127
0.547755
0.481191
-0.607468
0.126277
-1.99521
1.26447
0.730733
1.36224
-0.0598344
-0.991523
2.69069
0.220192
1.41857
0.27747
0.974547
-1.25202
-0.410282
2.17549
-2.37625
1.52482
0.851425
-0.798095
-0.108209
3.5706
-2.07795
3.11629
-1.55219
-0.929973
-0.647945
1.57792
1.4593
-3.16073
1.70142
2.17462
-2.4377
3.8875
-1.70844
-2.17906
-0.0197301
-2.00499
-0.371254
-3.36832
3.82005
-0.451729
0.424088
-1.17572
4.05942
-4.13103
0.960608
0.40482
0.916062
-0.407719
-1.38966
0.567984
-0.0172879
-1.94615
-2.03383
4.69194
-1.9821
1.07374
0.229589
-1.30332
0.268909
0.767642
-2.61287
-1.4755
4.08836
0.878533
1.36342
0.00194425
-0.525393
0.523449
3.25736
-0.298334
-0.316805
0.615139
2.38416
0.0507378
-1.42191
-3.97753
0.636611
-0.825904
0.0449715
0.780932
2.23529
2.86394
1.15572
-0.0322436
-1.12348
3.84354
0.155036
2.3369
-3.27248
0.935585
-3.26971
-0.0668921
3.3366
-3.10943
3.99188
-0.882452
0.493109
-0.00435998
-0.488749
-1.61635
4.03581
-0.532579
0.971232
-0.438654
0.184326
-3.0404
0.837366
-0.187202
-0.650164
-3.73405
4.88905
-1.155
-0.947185
2.08132
-1.13413
4.64725
-2.04739
-2.59987
-0.0344639
-2.34675
2.38121
-0.651182
-0.00994143
-1.98976
4.03304
2.04901
-2.8787
4.45066
-1.86628
-0.683993
0.558777
-3.46279
0.193082
4.79959
-1.87068
-0.12885
-4.73115
0.894248
-0.100182
1.13216
2.03154
-3.1637
2.17124
-0.478665
-1.69258
2.9106
-3.83959
0.928985
-0.659107
0.0400945
0.619012
-0.753955
-1.85567
2.60963
1.38207
-1.12339
-1.67404
0.662467
1.01157
0.512328
1.12303
-1.63536
0.31084
0.403476
-3.4821
4.06815
-0.586044
0.036465
-0.130328
1.75932
0.760663
-2.51998
2.19169
1.60761
-3.7993
0.618767
1.91478
-0.0772731
4.09741
-0.0074529
3.12564
-3.11819
-0.135941
0.00938909
-0.198655
0.615259
-0.416604
2.9429
-2.89943
-0.0434641
1.75937
2.12813
0.296587
-0.580157
0.28357
-1.15444
3.21168
-2.05725
0.0674311
0.567227
-0.634658
1.64589
-2.97316
1.32728
-2.56
-1.51091
4.07091
3.27008
-0.616246
1.18145
0.989788
-1.76611
-0.528506
2.29462
1.11096
-3.21994
-1.35416
0.902771
0.451393
0.724481
-0.337802
-0.386679
-0.214313
-0.436869
-0.344917
3.36259
-3.01767
-0.576433
4.2515
3.08277
-2.47961
-0.603167
2.48358
-2.18809
-2.08824
0.628855
1.45939
0.341078
-1.86558
-0.575535
0.497659
0.0778764
0.210077
0.511457
0.597408
2.92128
-3.51868
0.776593
0.714708
0.495262
-3.55047
-1.65078
0.705607
0.945171
-1.21365
-0.940856
2.15451
1.81398
-0.870144
-3.36837
2.2473
1.32457
-0.980464
-0.344109
-1.79096
3.07765
-1.28669
-1.6948
1.73032
-1.63701
2.15089
-0.513879
-2.30314
3.3946
-1.09145
-0.0842091
0.796069
-0.71186
0.0248655
-0.124817
-1.18536
-2.39625
3.61554
-1.21929
-2.14417
2.64668
1.95871
-1.98865
0.0299312
0.297318
-0.817639
0.520321
-4.75498
3.35591
1.39907
-0.182613
0.484259
-0.301646
-0.0279731
2.58557
-3.58976
2.9356
-1.4763
-1.47636
-2.05428
-2.79623
2.78878
2.00673
-0.0225182
1.50279
0.529327
-2.03211
-1.23674
1.13931
0.097438
1.01234
-0.899566
-0.112774
0.143771
-1.4954
1.35163
-0.818439
2.0061
-1.18766
-2.98536
-0.939443
3.9248
0.695372
-0.398054
2.56418
0.378714
-3.18865
2.49131
0.69734
1.5984
-1.229
-0.369408
0.0217846
0.644809
-0.854515
0.209706
-2.58838
-1.59351
1.73729
0.495053
0.750262
-0.567382
1.13944
-0.280285
0.408519
-1.98432
0.11153
1.03777
-1.56028
1.43361
0.126672
-2.33963
-1.81072
4.15034
-0.204374
-1.56174
-2.01663
-0.369717
2.38635
0.515117
0.653548
-1.16867
-0.136183
4.39661
-2.80268
-1.59393
0.663485
2.58856
0.284718
1.56227
-1.57483
0.0125551
-1.27453
3.44978
-2.17525
-2.21586
-1.0144
3.23025
-1.71803
0.695816
-1.65852
-0.429717
4.51014
-1.87728
-2.63286
-0.156817
-0.54082
0.697636
1.5607
0.201645
-1.76235
-0.61096
0.723094
0.654754
-0.905391
0.250637
1.0119
-0.095571
-0.766999
-0.0475752
2.68009
1.83005
-1.67923
3.16814
-1.42631
3.8331
-0.568157
0.41134
-3.36886
1.153
2.79506
-2.44039
-0.369949
-2.39435
0.464015
0.765616
-2.13749
2.82548
-2.77881
3.22392
-0.0934756
-0.733407
-0.389494
-1.05075
-0.357188
1.40794
-1.10383
-0.12724
2.88389
0.550253
-3.43414
0.143867
-0.983164
0.839297
0.0557945
1.08218
-3.30655
2.22437
3.43673
-0.294402
-3.5259
3.7142
-0.188292
0.841697
-0.469473
-4.24278
-0.512202
-1.25218
3.49631
-0.140134
1.38671
4.42482
-1.59743
-2.82739
-2.48007
-0.179238
2.65931
0.719225
2.03513
-2.75436
-2.72847
0.128736
-0.655898
-0.551134
1.20703
-1.87586
2.43972
0.505683
2.04383
-2.54951
-2.3183
1.72768
0.59062
-3.74099
0.438468
3.30253
1.05257
1.88303
-0.841901
2.19424
0.940829
-1.1518
-0.541072
2.94153
-3.45837
-0.970504
-1.28475
2.25526
-1.26373
-0.327866
2.61879
0.214099
-2.83289
2.46815
-3.89446
0.117926
-0.357052
-2.62536
3.08247
-0.457116
-2.38396
1.67253
-0.0576947
1.01414
-0.956445
-0.61287
-0.763361
1.37623
1.18633
-0.767448
-0.940936
2.25639
0.0393237
-0.781503
-0.55184
0.575358
0.988758
-0.959347
-0.381189
0.194549
-0.714811
0.683731
0.0310803
0.724645
-0.834373
0.109728
-2.75471
2.013
0.525231
-2.54186
-0.0237509
-1.00244
0.107123
2.15464
-2.26176
1.1863
-1.25609
0.724782
-3.24252
2.51773
-1.13994
2.612
-1.47205
0.85055
-3.63789
0.0622165
-0.0979152
-3.69014
1.94347
2.74848
-2.9621
-0.406265
-2.4493
-0.8328
-1.52005
0.649104
1.15046
0.415714
-1.56617
4.53785
-2.30257
3.52251
-0.834952
-0.889386
-0.539076
1.42846
-4.35597
1.79897
2.557
0.0417384
-1.2472
-0.00318608
2.56514
0.581637
-0.353393
-1.91141
0.531292
-1.06387
-0.864221
0.307252
0.556969
-0.47665
3.36054
0.791691
-0.188839
-0.602852
3.05073
-5.05283
2.27419
2.77864
0.917578
0.709957
-1.62753
2.4056
-1.06595
-1.33965
-1.94613
0.998943
-1.72707
0.0373131
1.52339
3.52857
-3.88699
1.48712
-0.676862
-1.57565
2.68661
-3.78001
2.71739
1.06261
1.79999
-3.10588
1.30589
-2.75709
2.89777
-0.140681
1.61422
-2.0245
0.0462181
0.917754
0.975509
0.320302
-2.64233
0.883635
-3.52884
1.75886
1.76998
0.91616
-3.39623
2.89781
-0.176736
-2.25127
0.451421
0.914099
4.00563
-1.3361
-2.66954
-1.43682
0.997952
-2.21161
0.548622
-3.76761
3.58837
-3.05446
1.36158
1.86177
-3.3243
1.14275
2.18156
-3.34723
2.26382
1.08341
-0.976371
-0.35641
0.428724
-3.77193
2.65347
1.11846
2.39806
-4.01441
-3.41746
-0.0646441
4.32503
-1.59448
1.25382
0.329115
-1.58293
-0.0881994
-0.550226
0.638426
-0.480947
1.87282
2.08735
-1.70826
-1.61604
0.674797
0.707271
0.877121
1.37601
-2.25313
1.35351
-0.831099
-0.177745
-4.24139
4.41914
-1.24838
1.66173
-3.04649
-2.49211
-1.6323
4.12441
0.907464
-1.15677
-2.53024
0.770061
1.76018
-0.0299415
0.0851706
-0.0552291
3.28034
-3.81062
-0.229495
-2.39586
1.70753
1.36072
-3.06825
0.213547
0.860188
-3.07312
0.862387
2.21074
-4.05256
1.49256
2.21976
-3.49429
1.56815
-2.53865
0.0157909
-0.0457324
-0.132807
3.75567
-2.34609
2.89807
-0.551981
3.7448
-0.0237673
-3.72103
-2.71887
-0.0730783
-0.930191
0.176339
3.1719
0.402721
0.115222
1.46613
-1.31024
2.78979
1.92833
0.251336
0.761005
-3.41263
-0.213836
-3.27887
1.40419
-2.7513
0.605678
0.702742
-1.30842
3.22442
0.163445
-3.38787
-0.367338
0.362978
-1.24415
-2.78454
-2.97621
-0.441114
-1.49755
3.9657
-1.2692
1.69278
-0.423579
-3.4356
1.09597
-1.05034
1.92747
-1.43674
-2.45233
-1.27148
-1.19232
1.29856
-1.61239
-0.382812
4.0304
-0.534096
2.2299
-0.93045
-1.29945
0.443473
0.364969
0.920775
3.85716
-3.61064
0.0442295
-0.810891
1.13703
-1.8939
1.90948
-1.65569
-1.83114
0.773825
0.623892
-1.39772
-3.40881
0.0605665
-0.451942
2.90137
-2.44943
-0.285813
-3.24009
-2.67792
3.13457
5.02957
-2.21171
-2.81785
-0.491198
1.20917
3.11414
-1.7109
-1.40325
0.926736
-1.02231
0.483765
-0.68242
-0.690651
0.0953943
0.595256
-0.486969
1.98975
-1.69147
4.08954
-0.139811
-0.494404
-1.00586
-0.234899
1.24075
-0.092886
3.37323
0.233758
1.07469
-1.30845
-1.40508
2.0853
1.63202
1.57966
-1.23419
-0.416589
1.87484
-0.6801
-1.19474
-0.0350742
0.0959668
-0.0608926
0.509484
-3.03412
2.52463
-3.48555
0.509334
0.786543
-1.4228
2.82699
-0.029887
0.956623
0.407144
-1.67635
-3.85842
1.97549
-3.84085
1.25951
-1.63597
0.131568
-1.60386
-2.11586
3.71972
-3.61795
-0.421075
1.36286
-0.941783
3.6006
-2.68292
2.97518
-2.25596
0.603034
2.01122
-2.61425
0.837934
-1.49383
-2.72629
-0.721309
3.44759
-0.341776
0.979416
-0.63764
-1.53785
3.50999
-1.97215
3.06374
-1.90325
-1.16049
3.07391
0.0936511
-3.16756
-2.12039
-2.93245
-1.21751
0.00355873
1.3289
2.3668
-0.0693071
0.306025
-0.236718
-2.47937
-0.59375
2.79207
2.24913
-1.96142
2.32515
-0.363732
-0.610358
0.293553
0.504958
1.27949
-1.78445
0.522523
0.269168
-0.401062
-3.37087
-3.10203
1.23661
0.0879609
-0.531884
0.963476
0.251415
2.78653
-3.03794
-1.89919
-0.522084
2.13271
0.794119
0.259347
-0.907214
-1.24345
-0.259246
1.5027
0.37515
-1.33583
0.960681
1.19987
1.08054
0.570333
3.03792
-1.37618
3.35164
-1.68991
-0.362219
-0.909849
1.27207
2.80005
0.317261
0.113063
-2.44114
1.68719
2.56974
-2.66263
-2.02778
-1.8756
3.90337
-2.38696
-1.96901
-4.01629
4.18409
-0.167799
-0.0594246
-1.46536
1.10817
2.05955
0.978367
0.0364126
-0.785134
0.748722
-1.20465
-2.4951
-0.392827
-2.82696
3.21979
1.79289
-0.914354
-1.1737
-0.180463
2.17712
-3.42128
1.75967
-1.33458
-0.994883
4.00948
-3.0146
2.03275
1.89651
1.05142
-2.94793
4.1293
-2.43889
-1.6904
-1.4724
-2.66885
4.40457
-1.73572
0.970554
1.25935
-1.00298
0.973096
1.60285
3.0444
-0.7516
0.6634
0.244358
-0.215004
3.60919
-2.00537
1.68769
2.85017
-1.42719
0.718138
0.709052
0.833061
-1.76303
2.83679
-0.217996
2.02382
-0.77001
-2.54886
-0.446655
2.99552
0.658088
-0.142652
-0.515436
0.464173
0.368576
0.5033
-3.61273
-0.985329
1.05867
2.63784
-2.30599
-0.331854
0.560587
1.31425
-0.502748
0.277662
0.838659
0.861618
-1.70028
-1.93371
3.79262
1.13236
-2.13558
4.4088
-2.27322
-1.07216
1.58449
-1.93878
-0.379518
4.0335
-2.00928
-1.24649
1.0514
1.3542
1.04949
-1.07324
-0.627665
0.543456
-1.03733
-0.46656
0.00544579
2.74853
-0.541129
3.01525
-2.47412
-0.193759
0.435415
-1.46792
0.387291
-1.14947
-0.0680383
-3.32579
2.30157
0.818761
0.840472
0.0971082
-1.04192
0.944812
1.03098
0.294971
3.13429
1.67735
-4.81164
-0.296833
-0.0935139
0.390347
-0.226904
-1.19093
3.32381
1.70576
2.90731
-2.65589
-4.42146
0.573294
0.448691
-0.633938
1.72278
3.38039
0.0764283
-3.45682
1.27674
-0.0904389
-0.137526
-1.15834
-0.268846
-1.87766
-1.70472
2.0458
-0.381971
1.89192
2.10093
-2.182
0.0810743
0.660833
0.0228979
-0.258871
0.861555
-0.136909
2.88096
0.755329
-3.63629
-0.891991
0.0277697
-0.771851
0.453021
0.31883
-1.18807
0.00464781
1.18342
1.23603
2.16255
-3.39858
0.81396
1.00002
2.59071
-0.0698348
-0.896684
2.0212
-3.33143
-0.286845
0.419244
-0.132399
-3.63975
2.01134
3.10105
-2.48553
-0.615523
0.0597515
-0.488978
0.429227
3.18575
-3.53066
2.11108
-0.318192
1.24457
1.73061
-0.399433
-0.0671264
-0.611815
0.486098
0.125717
-2.18301
-0.412012
3.99111
-2.03555
-1.95556
2.09077
-0.180855
-1.90992
1.43495
-2.48635
1.0514
0.0759038
1.83708
-0.039207
-0.891523
2.3539
-1.46237
-0.0802782
-0.531537
-1.05595
-0.797458
0.60862
3.51088
0.0114699
-3.52235
-1.17317
-1.22714
-0.333143
-0.432446
-0.147711
2.08032
1.00215
-0.567414
0.816062
0.0772559
0.273553
-0.583265
0.468545
-1.38359
1.98663
0.0612732
0.83832
-1.46992
-1.17771
2.76155
-0.184715
2.28564
-0.619905
-0.36614
-0.851953
1.69061
-0.705049
3.23925
-2.5342
-2.9603
-0.397137
-1.91322
3.1431
-1.22988
-0.687913
-0.109546
1.05806
-0.215423
-0.0696844
-0.812573
0.882257
-2.97291
0.963632
0.323927
-0.418453
1.78275
-4.39562
1.25466
-3.38157
-0.772208
2.9152
-1.44557
1.74995
-0.888332
0.0412754
-2.30114
2.81063
-0.011397
-0.512757
0.531252
-1.94089
-0.352668
-2.15822
2.51089
0.714781
1.44388
4.64633
-3.05619
-1.59014
-0.746226
0.267925
0.780282
0.071888
-0.85217
-2.88136
0.535276
0.595437
0.129044
-0.0342504
-0.399228
0.433479
1.42051
-3.33373
0.297059
1.58913
0.0900568
-1.67919
-3.57606
2.87101
0.507726
0.124515
-0.632241
1.14894
-3.5452
-0.442334
-0.0213883
0.463722
0.660818
-0.153092
-0.0284345
2.58109
-1.96232
2.13771
1.6985
-0.884538
-3.56386
1.07175
-2.39928
1.91806
0.48122
1.82145
-3.84923
-1.71815
-1.06808
2.78623
0.309266
1.32873
-0.998361
0.821374
4.04194
-0.616552
-3.42539
-0.00298805
-3.40965
2.80232
0.271588
1.44512
1.66903
-0.497033
-0.0283608
0.480989
-0.997177
-1.12163
0.17331
-0.475292
0.301982
0.0641087
-3.77491
3.7108
-0.13049
0.941888
-0.811399
1.24206
-3.24239
2.00033
-0.392392
-1.90672
-0.128878
0.255993
2.34312
-1.14218
-0.670102
1.81228
-1.21513
-1.44533
1.49322
-0.869332
0.47381
-0.947225
0.473415
-1.09393
1.19104
-3.11911
-0.48718
-0.0560816
0.543261
0.373832
1.09034
-1.46418
2.62883
-2.0384
-0.590433
0.0316297
-1.91956
0.645405
-4.37946
-1.66934
-2.43911
4.10845
-3.43069
0.179678
3.25101
-4.60669
-2.83345
0.0763649
-0.920923
0.963083
-0.0421595
-3.971
-1.22532
4.10628
1.25367
-0.653078
0.260912
-1.11287
-0.574159
1.57418
0.487126
0.251595
-1.25745
0.0608904
-0.526521
0.465631
-0.579411
0.290012
-0.340277
0.400028
-0.849518
1.7671
-3.52034
2.25136
1.26898
-1.13134
1.32345
2.10704
0.642367
0.0157212
-0.851852
0.888265
-1.66081
-0.869429
-1.8408
0.667558
1.17324
0.450099
0.0912585
-0.541357
-1.32595
1.7011
-0.234432
2.44052
2.33005
-2.0963
1.95048
-3.16561
1.5279
-2.05101
0.523115
0.310867
0.0206225
-1.32705
0.101358
-3.69045
2.08659
0.278601
1.81217
0.04675
-0.664373
0.617623
-5.12771
2.13595
-0.576217
0.489194
-0.644438
-0.0774832
-0.703577
0.78106
-1.88001
0.737838
-3.68364
3.28258
3.39222
-1.68469
-0.774076
0.694475
0.0796013
0.904429
0.642256
-0.476584
-3.81326
1.38054
2.43272
-0.446669
0.353155
-0.314449
1.08419
-0.769739
1.36634
0.744737
-0.0727349
0.222963
-0.150228
-0.868287
0.92956
-0.257285
0.786906
2.00087
-2.87436
3.58429
0.25925
-2.07916
-0.192869
3.36323
-0.0948576
-3.26838
-0.14083
0.532842
-0.392013
1.96616
-3.91231
0.68381
1.01213
-1.69594
0.28243
-0.361897
0.079467
-3.12267
3.08683
0.0358374
-1.63125
2.35603
3.00926
-0.203384
3.3056
-1.14659
-2.159
-0.0507299
-0.387476
0.438206
-1.03457
-1.04169
-0.0551908
-1.00568
-0.0360095
0.0374063
-1.13838
1.10098
-0.304331
3.33237
-3.02804
-3.07722
1.21847
1.85874
1.00736
3.31318
0.146562
0.0367371
-0.183299
1.94194
0.814428
-2.75636
-0.132163
1.28262
-1.4109
3.53477
-2.12387
-3.02691
0.478054
2.35664
0.966329
-2.68448
-0.00979232
-0.394223
0.404015
3.6628
-0.943762
-2.71904
1.3198
0.726385
-4.14315
2.10932
3.9389
-4.11664
-1.80695
0.443021
1.36393
-0.0266005
-0.566082
0.824197
-0.258115
-1.5387
0.744111
0.794592
-0.0348715
0.394262
-0.359391
-0.333634
0.312084
0.0215504
-1.91798
4.0951
-0.963995
1.02976
0.422701
-0.73715
1.23106
-1.82953
0.598466
-2.18111
-1.5989
-1.3864
0.567679
1.04325
0.0945579
-1.13781
3.89179
-0.870889
-3.0209
0.392528
2.24531
-0.787428
-0.449315
-1.90022
0.263527
1.75078
1.71979
-3.47057
0.0501987
-0.207916
0.157718
-0.0843094
1.14952
-0.0920367
1.40191
-1.30987
3.54161
-1.51296
-2.02865
-3.58178
0.589544
1.25941
-2.39251
0.595941
1.79656
1.11641
-2.3255
0.306335
-0.466102
-1.12553
-0.201525
-2.35979
3.05424
-0.694447
0.475063
0.106574
-0.351542
-0.222653
-0.783659
0.643848
-0.98135
0.205487
-1.78822
2.5503
-0.762084
2.43768
-1.3636
-1.07408
2.53627
-1.3364
0.786724
0.200543
-0.761923
0.628677
-0.0884783
-1.29036
2.28857
-3.09319
-2.35911
1.46759
-1.69283
0.927829
0.45468
0.206138
0.190047
0.0923838
3.06322
-3.08321
0.0199968
3.13118
-1.67114
0.646427
1.02472
0.293232
-1.10412
-0.815234
-3.13339
-0.804801
0.662149
-0.550876
-0.904791
1.45567
-2.72177
0.577595
0.952914
1.23311
-2.18602
0.281006
-0.622782
-0.964882
-2.12144
3.72905
-0.42564
-2.12601
0.901089
-1.7201
0.819012
-0.845742
1.10509
-1.92807
-3.19964
0.698024
-1.31089
2.30443
-3.67067
2.68331
0.987367
-0.0526913
-1.0325
0.0585083
-1.12655
1.06804
-3.20123
-1.6087
-0.508159
0.48677
3.4716
1.53189
0.950387
2.89988
-2.79239
-1.76883
3.17386
-0.16191