/*--------------------------------*- C++ -*----------------------------------*\
| =========                 |                                                 |
| \\      /  F ield         | OpenFOAM: The Open Source CFD Toolbox           |
|  \\    /   O peration     | Version:  2306                                  |
|   \\  /    A nd           | Website:  www.openfoam.com                      |
|    \\/     M anipulation  |                                                 |
\*---------------------------------------------------------------------------*/
FoamFile
{
    version     2.0;
    format      ascii;
    arch        "LSB;label=32;scalar=64";
    class       volVectorField;
    location    "1.6";
    object      U;
}
// * * * * * * * * * * * * * * * * * * * * * * * * * * * * * * * * * * * * * //

dimensions      [0 1 -1 0 0 0 0];

internalField   nonuniform List<vector> 
13486
(
(1.53628 -0.297068 5.43115e-19)
(1.70975 0.18034 2.55464e-19)
(2.07087 0.0465729 0)
(1.04435 -0.575622 -2.04599e-19)
(2.46571 -0.523326 1.62112e-19)
(2.28753 0.0452301 -2.08351e-21)
(2.76269 -0.357769 4.87218e-21)
(2.09889 -0.763328 -2.81185e-19)
(2.00686 -0.422748 0)
(2.04912 0.554633 0)
(1.69244 -0.870543 -1.45262e-19)
(2.28064 0.0941804 0)
(1.41206 -0.502628 -5.37371e-19)
(2.44975 0.430365 2.86215e-20)
(2.58558 -0.266286 8.27574e-20)
(2.01232 0.5559 -1.52796e-19)
(-0.0672509 -0.436166 1.99288e-19)
(0.828476 0.848705 -3.51426e-19)
(2.27602 -0.0441264 2.91676e-21)
(1.67521 -0.120079 -5.50663e-19)
(1.41608 -0.855962 -7.6551e-20)
(1.42914 -0.515009 6.94006e-19)
(1.72803 0.183207 -2.0413e-19)
(1.99413 -0.390581 0)
(2.08481 0.434639 5.04543e-20)
(1.97739 -0.356473 -3.68833e-20)
(0.911225 -0.445709 1.2776e-19)
(2.06532 -0.0587149 1.22518e-19)
(2.04375 0.0266786 0)
(1.98214 -0.13222 -6.3665e-20)
(1.29301 -0.761531 -5.33684e-20)
(2.61631 0.0283731 -1.014e-19)
(2.22154 -0.29787 1.2791e-19)
(2.0069 -0.0251226 0)
(2.10742 -0.736189 0)
(1.95538 -0.000330893 -1.05055e-20)
(1.99276 0.0248389 3.66302e-20)
(1.62453 -0.762747 2.74774e-19)
(1.93247 0.0328445 6.35717e-21)
(1.99869 -0.256426 2.77278e-19)
(2.62461 -0.874629 0)
(0.974403 -0.486935 -6.23096e-19)
(2.03086 -0.04636 0)
(2.07201 0.367222 -2.43762e-19)
(2.08873 0.364045 1.00674e-19)
(2.28731 0.0735147 1.01382e-19)
(2.2162 -2.05504 1.06294e-18)
(2.01498 0.00343742 1.01044e-21)
(2.00372 0.019421 -2.79219e-20)
(2.30794 -0.0735813 7.84657e-20)
(1.98136 0.0675354 3.19741e-19)
(1.94442 0.00388584 0)
(2.28888 0.208168 -1.52553e-19)
(1.74408 -0.659077 -4.01544e-19)
(0.977685 0.369439 0)
(2.43522 -0.528799 -1.11832e-19)
(2.00481 0.0597934 -2.23039e-20)
(1.95767 0.0335628 1.75274e-20)
(2.22882 -0.291213 1.47972e-19)
(1.99426 0.0629865 0)
(1.71606 -0.824144 -1.49068e-19)
(1.9789 0.0232409 0)
(2.64926 -0.700008 -2.53779e-19)
(1.39845 -0.853502 -9.60111e-22)
(1.64909 -0.397646 0)
(2.02491 0.0290412 1.6196e-20)
(1.06244 -0.56442 -1.8971e-19)
(1.5153 -0.0593353 1.83726e-19)
(2.00881 -0.442905 -1.58947e-19)
(1.98195 0.00242742 -7.35536e-21)
(0.873887 -0.450052 2.17651e-19)
(0.944494 0.498752 -4.84656e-21)
(1.97122 -0.135331 2.0628e-19)
(0.542252 1.28452 -1.21574e-18)
(2.00098 0.00591954 4.00882e-21)
(2.03089 0.0321894 4.32691e-21)
(2.04036 0.0192651 -1.17392e-20)
(2.59816 -0.295012 -3.40217e-20)
(1.83335 -1.84672 -3.46989e-19)
(1.8329 0.0609714 0)
(2.00277 -0.00162628 7.10534e-22)
(1.68198 0.275194 -1.62395e-20)
(2.60157 -0.836524 -2.81143e-20)
(2.11469 0.0418079 -1.7792e-20)
(1.53028 -0.310643 -1.06375e-18)
(1.49482 1.43063 0)
(1.93997 0.156499 4.20285e-20)
(1.98425 0.0386368 -4.77468e-19)
(1.88905 0.177105 -2.08208e-19)
(1.94211 0.790304 -1.64971e-19)
(2.55625 0.243724 -5.22909e-20)
(2.22422 -0.647373 -1.46117e-19)
(1.59655 -0.395672 1.40181e-19)
(1.70439 0.00530148 1.42958e-20)
(1.94049 -0.625028 6.42959e-20)
(2.01293 -0.00361191 1.27766e-21)
(1.0448 -0.4998 0)
(1.45768 -0.768421 8.7888e-20)
(2.01219 -0.263008 -5.29516e-19)
(0.246938 -0.769312 2.23049e-20)
(2.10598 -0.00882582 0)
(2.40814 0.440312 6.94825e-21)
(1.49544 -0.77757 -1.64628e-21)
(1.95954 0.0218055 -2.04804e-20)
(1.45331 1.36885 0)
(0.320939 -0.926555 2.62989e-20)
(1.98239 0.0570571 8.74054e-22)
(1.93365 0.0344496 1.49777e-20)
(2.00648 -1.94489 5.66168e-19)
(1.97421 -0.895071 0)
(1.42673 -0.682209 0)
(2.80412 -0.101029 -5.1744e-20)
(1.75149 -0.641393 2.95673e-21)
(2.06641 0.0254362 1.65637e-21)
(1.20093 -0.169118 0)
(1.36258 -0.67205 -2.40018e-19)
(2.08174 0.441041 0)
(2.00028 -0.00379957 0)
(1.98275 -0.15374 0)
(1.99991 0.0228032 1.77272e-20)
(1.0551 0.92281 6.31883e-20)
(1.70353 -0.825964 0)
(1.90522 -0.567533 0)
(1.97682 0.0577361 -1.83964e-20)
(1.99109 -0.717399 0)
(1.96372 0.0273986 0)
(2.26591 -0.251494 6.0104e-21)
(2.15343 0.0632624 1.07319e-19)
(1.99052 0.0297594 -7.55173e-21)
(1.64186 -0.328475 -2.07575e-20)
(1.96344 0.0233283 2.19714e-21)
(2.28836 -2.07792 -2.61964e-19)
(3.65312 -0.227909 1.67924e-18)
(-0.165514 0.202559 1.31431e-18)
(1.97767 0.033242 -5.33275e-20)
(1.93864 0.326343 -2.30717e-19)
(0.818478 0.57504 -1.58505e-19)
(1.98895 -0.88667 0)
(2.00265 0.0159059 -5.40744e-21)
(2.11528 -0.616712 -1.01302e-19)
(2.3157 -0.186218 -1.50082e-19)
(2.3008 0.204441 1.29112e-19)
(2.42404 0.108787 0)
(1.84456 0.0490324 0)
(2.09097 0.0066199 6.26364e-21)
(2.24129 -0.719843 -2.65114e-19)
(2.07697 0.143489 -3.26241e-20)
(0.436027 1.37757 0)
(2.28025 -0.0634164 0)
(1.99882 0.0212231 0)
(2.00044 0.0108039 5.04994e-21)
(2.60931 -0.394869 0)
(1.9822 0.00433019 -7.45849e-22)
(1.66145 0.26925 -1.38054e-19)
(2.16591 0.214849 0)
(2.09515 -0.000130446 0)
(1.79611 -0.821334 0)
(0.87471 -0.694057 1.52042e-20)
(1.84946 -0.74903 5.72019e-19)
(2.04249 0.0616826 5.00304e-20)
(2.30495 -0.0142917 4.14264e-20)
(1.85573 -0.728383 -8.68984e-19)
(2.89686 0.482255 -2.83037e-20)
(0.867921 -0.417822 2.73957e-19)
(1.96361 0.0197933 0)
(2.52523 0.371162 -6.89007e-20)
(2.34299 0.398146 3.08985e-21)
(0.617488 -0.240368 -6.72783e-19)
(2.0729 0.152538 8.3955e-20)
(-0.228663 0.331179 3.63207e-19)
(3.99814 -0.392217 8.81012e-20)
(2.17675 0.197293 8.16836e-20)
(1.99667 0.110553 -3.92413e-19)
(2.376 -0.132423 9.0368e-21)
(2.00383 -0.00392334 2.51749e-21)
(1.60266 -0.704504 0)
(2.52366 0.707076 1.09181e-19)
(2.33412 -0.264635 2.14802e-19)
(1.97242 0.0375268 -5.25568e-19)
(2.41187 0.112154 0)
(2.07111 -0.318588 5.58662e-19)
(2.04263 0.00420276 2.77191e-21)
(2.42344 -0.0528904 -2.87636e-21)
(0.781703 -0.387775 0)
(2.12386 0.0451797 5.06666e-20)
(2.13171 -0.0489704 -5.56928e-20)
(2.01845 0.000521479 -8.85642e-22)
(1.99002 -0.0657893 -2.06077e-20)
(2.63558 -0.845683 0)
(1.22064 -0.589314 -3.0853e-19)
(2.00767 0.0366989 0)
(2.03985 0.0023912 0)
(1.91443 0.0404975 0)
(1.42461 0.661488 -2.92425e-19)
(1.90816 0.0257019 0)
(1.67556 -0.869195 -3.90712e-20)
(1.63457 -0.347683 4.70255e-20)
(2.26816 -0.0457621 2.44699e-20)
(1.21901 -0.601621 -1.19311e-19)
(2.48248 0.343128 -2.97885e-20)
(1.30668 -0.725587 5.40937e-20)
(2.18931 0.0700152 -3.11254e-21)
(1.51053 -0.728158 -3.17748e-19)
(1.90391 -0.82476 3.75811e-20)
(2.03454 0.0537027 -6.12245e-20)
(1.93401 0.0214858 8.60667e-21)
(0.357238 -0.233279 -1.96629e-19)
(1.91218 -0.0923087 4.20888e-19)
(1.91254 0.0263384 0)
(2.11145 0.0576994 0)
(2.01687 -0.053314 7.46383e-20)
(1.85993 -0.334294 5.23902e-20)
(1.6952 -0.104425 5.03956e-19)
(1.94439 0.0495687 1.82216e-21)
(2.2922 0.0699531 2.40116e-21)
(1.82163 -0.0645694 1.50227e-21)
(2.00553 -0.131031 0)
(1.94519 0.784986 4.27764e-19)
(1.67962 -0.41319 0)
(2.91823 -0.0536873 0)
(-0.0480637 -0.520809 -4.10779e-19)
(2.31036 -0.0831346 0)
(2.09748 -0.611628 2.35199e-19)
(2.23825 -0.0241127 0)
(2.22679 0.245929 -2.74831e-20)
(1.39511 -0.658121 1.93526e-19)
(2.41199 0.109985 -2.87444e-21)
(1.44902 -0.656709 2.4782e-20)
(1.86865 -0.0116373 1.77674e-21)
(1.96123 0.143504 -1.98374e-21)
(2.07876 -0.299117 -1.79266e-19)
(1.4689 -0.300619 1.32563e-19)
(2.30033 -0.217065 1.89445e-19)
(1.00723 -0.493358 2.13319e-19)
(1.48618 -0.789263 0)
(1.183 -0.575153 2.29578e-20)
(1.98749 -0.0526745 3.21203e-20)
(2.04734 0.00914016 -1.05787e-20)
(1.03621 -0.501506 6.19711e-19)
(2.36303 -0.0223188 0)
(2.19323 -0.321412 0)
(2.01251 0.0770806 5.99501e-19)
(2.035 0.00288377 0)
(1.04114 -0.518643 2.07542e-19)
(1.95556 0.0693094 1.75739e-20)
(1.84522 0.0213493 0)
(2.29842 0.00652842 -3.93399e-20)
(1.95851 -0.260078 1.19736e-19)
(-1.62195 1.6514 2.67842e-18)
(2.05962 0.3466 0)
(1.58082 -0.782774 -3.84612e-20)
(1.16785 -0.141637 7.87532e-20)
(1.15578 -0.565684 3.03492e-19)
(1.95116 0.0476702 0)
(1.87603 0.0151799 -3.23907e-21)
(1.6361 -0.712633 1.91555e-20)
(2.60264 0.045471 8.03476e-20)
(1.7857 -0.0506533 -1.89888e-21)
(0.772488 -0.635932 -1.60464e-20)
(2.17534 -0.313528 8.85247e-20)
(1.82056 0.170846 0)
(1.95305 0.0656828 -6.59513e-22)
(2.59116 -0.272473 -1.96304e-19)
(1.63108 -0.712874 -2.39e-20)
(2.36169 -0.764308 -1.68736e-19)
(0.944109 -0.462355 0)
(1.88682 -0.0175557 -3.65452e-21)
(1.34853 -0.768263 -7.78769e-20)
(2.03759 -0.0148597 -2.41071e-19)
(1.81584 0.53 0)
(1.64332 0.729145 2.03723e-19)
(1.97321 0.0813974 -1.41599e-19)
(2.00851 -0.133038 0)
(2.23273 0.133587 8.81523e-20)
(1.32232 -0.636266 2.56746e-19)
(1.9734 -0.243297 -6.65673e-20)
(1.86406 0.0128425 0)
(1.37225 -0.0899635 0)
(1.94172 0.0511519 1.31111e-20)
(2.09 0.159919 6.21906e-20)
(1.40927 -0.0990464 5.94511e-21)
(2.15633 -0.194567 -2.03304e-19)
(1.94523 0.0662989 3.07699e-19)
(2.02761 -0.545648 -8.43434e-20)
(1.69175 -0.816798 1.76623e-19)
(1.04595 -0.789051 2.26078e-19)
(2.34694 -0.202132 1.81569e-19)
(1.94157 -0.00196151 9.90441e-21)
(2.21511 0.234309 4.32092e-20)
(2.02044 -0.014613 0)
(1.47558 -0.801788 0)
(2.00706 0.0450985 -2.42711e-20)
(1.39703 -0.672516 2.35953e-19)
(1.98611 0.0198569 -5.18915e-20)
(1.94829 -0.00874727 2.95927e-20)
(1.99367 -0.053074 0)
(2.1706 -0.0412476 -5.60864e-20)
(2.21707 0.112259 -7.32789e-20)
(1.89763 0.0476734 -2.85452e-19)
(2.73955 -0.54973 3.49333e-20)
(2.85006 0.606805 3.48245e-20)
(0.405179 -0.0169639 -2.78574e-20)
(2.08936 0.151173 -5.34767e-20)
(2.59839 0.00208189 9.6799e-20)
(2.00118 0.0253385 -6.56071e-21)
(1.57246 -0.721398 0)
(0.400372 -0.130623 0)
(2.27986 -0.00120404 8.07726e-20)
(1.95647 0.149126 -3.33102e-20)
(2.00323 0.0317652 0)
(2.70298 1.58338 -2.15462e-18)
(0.910035 -0.491321 0)
(2.42397 0.721277 -1.96219e-20)
(2.7902 -0.0837531 -5.14789e-20)
(1.89476 -0.809194 0)
(1.93087 0.306413 -1.41322e-19)
(1.96749 0.0619971 3.48949e-20)
(1.87514 0.166127 -1.77992e-20)
(1.91176 -0.0842484 -4.6362e-19)
(1.86669 -0.0289874 0)
(2.00983 0.0329794 -3.09014e-20)
(1.98464 0.0557771 1.19874e-21)
(1.97879 0.0480157 6.59289e-20)
(1.68845 0.0406337 -2.6733e-19)
(0.905989 0.542776 2.90904e-19)
(2.57442 0.207331 1.00399e-19)
(2.33446 -0.355573 -5.5576e-19)
(2.1526 -0.185152 0)
(2.17648 0.108178 2.16065e-22)
(2.37856 -0.356569 -9.86037e-20)
(2.00206 0.00264034 6.94893e-19)
(2.25577 -0.649944 0)
(2.5876 0.31904 -1.61881e-20)
(1.53287 0.255733 0)
(2.78161 -0.382386 -9.95153e-20)
(2.00258 -0.582441 -1.75413e-19)
(0.804579 -0.385938 2.54332e-19)
(2.58386 -0.421589 -1.34365e-19)
(2.05814 0.217098 0)
(1.96448 0.0685306 3.00851e-20)
(1.87844 -0.0318812 6.94636e-21)
(1.69976 0.0500607 2.52451e-19)
(2.39902 -0.359843 3.90329e-19)
(2.43049 -0.0673094 1.83166e-19)
(1.60936 -0.781909 -1.25821e-19)
(2.00396 0.0062714 9.96909e-23)
(2.2587 -0.160821 0)
(1.17354 -0.448851 6.15211e-19)
(2.89342 -0.0839456 0)
(1.96627 0.0527319 1.80159e-22)
(2.2546 -0.0851305 3.341e-19)
(2.18092 0.107141 -8.11506e-20)
(2.25771 0.127874 7.0638e-20)
(0.997202 -0.47371 -1.54949e-19)
(1.91155 0.0519101 3.55478e-19)
(1.97003 -0.00981418 0)
(0.973717 1.10976 -1.00808e-18)
(2.25955 -0.253454 -1.18316e-19)
(1.95158 0.136656 1.7753e-20)
(1.88965 -0.312698 4.93062e-20)
(2.24487 -0.0372696 0)
(2.49032 0.292115 7.84693e-20)
(1.82441 0.101403 5.38724e-19)
(1.95875 0.0647076 4.29674e-19)
(1.98787 -0.12817 0)
(2.02372 0.00291478 -7.02833e-22)
(1.98526 -0.0775048 -3.01678e-20)
(2.63807 -2.14252 2.21804e-19)
(1.66894 -0.12611 6.9929e-20)
(2.24975 -0.211883 1.12466e-19)
(2.07875 0.0273481 -2.81751e-22)
(2.25088 -0.154999 0)
(2.20045 0.240782 -1.02061e-19)
(1.59708 -0.782096 3.75231e-20)
(2.33681 0.187548 6.29604e-21)
(1.99322 0.0521892 2.69679e-19)
(1.45778 -0.00193823 0)
(1.97507 0.0426392 4.01217e-20)
(1.91762 -0.785113 0)
(3.51534 0.21306 -3.33652e-19)
(2.07649 -0.0805382 0)
(2.25195 -0.746227 -5.95182e-21)
(1.43146 -0.204458 -1.4972e-19)
(1.63356 0.664628 4.88452e-19)
(2.58779 -2.13598 -7.48292e-19)
(1.86466 0.00991706 0)
(2.23466 0.0340495 -7.09512e-20)
(2.04831 0.209767 -1.55238e-19)
(-1.89102 0.48509 -7.16462e-19)
(1.24163 -0.844564 1.05885e-20)
(1.70647 -0.108074 -7.60577e-19)
(2.04304 -0.130288 3.64748e-20)
(2.09469 0.157062 1.06862e-19)
(1.58051 -0.523938 0)
(1.4733 0.197856 2.8846e-19)
(2.00767 0.0147007 1.57574e-20)
(0.979274 -0.526267 1.17607e-19)
(1.58684 -0.780351 -1.30507e-19)
(-1.35489 0.0537171 -8.20835e-19)
(2.34121 -0.203235 0)
(-1.73641 0.371542 0)
(2.13633 0.910112 0)
(2.07775 -0.113591 0)
(0.766358 -0.23473 -7.96793e-20)
(2.7581 -0.333208 0)
(2.00854 0.217768 0)
(1.71765 0.0246425 1.04104e-19)
(2.31118 -0.26596 -2.21914e-19)
(2.22726 -0.164516 -2.71345e-19)
(1.76566 0.226155 8.65036e-19)
(2.01391 0.0108698 -8.04047e-20)
(2.56003 1.3966 0)
(2.08536 -0.136005 0)
(1.93583 0.0416014 3.02638e-19)
(1.97809 0.0457853 5.35326e-20)
(1.44469 0.704089 0)
(0.759535 -0.387322 1.29761e-19)
(2.34138 -0.781253 1.8999e-19)
(3.70688 -0.757806 0)
(2.33787 -0.0183023 1.84981e-19)
(1.9841 0.0403437 -3.49676e-19)
(2.38766 -0.860911 2.02359e-19)
(1.16641 -0.433827 0)
(1.99749 0.182046 2.85926e-19)
(2.34 0.0114855 0)
(1.9978 -0.0899893 0)
(2.18486 0.126819 -1.39392e-20)
(1.93948 0.0744437 1.60782e-19)
(1.01085 -0.495972 -1.6507e-19)
(2.31075 0.400203 1.44246e-20)
(1.46191 -0.424625 -2.66159e-19)
(2.06443 -0.0888232 3.56047e-20)
(2.10027 0.163393 8.33573e-20)
(2.19825 0.220244 2.69987e-19)
(2.44457 -0.759836 0)
(2.02296 -0.256878 6.90653e-20)
(1.4263 -0.145079 0)
(1.99749 0.0687525 -2.29869e-20)
(2.35728 -0.134705 0)
(1.5337 -0.0400655 3.88549e-19)
(1.2486 -2.39914 -1.38079e-18)
(2.01579 -0.124178 0)
(-0.432844 -0.117027 5.55374e-20)
(2.06858 -0.144794 -8.54866e-20)
(2.00894 0.123697 4.90778e-20)
(1.8502 -0.317861 7.27323e-19)
(1.53882 0.64374 -3.13693e-19)
(1.45166 -0.413196 -7.56216e-19)
(3.46601 0.156085 0)
(1.99761 0.0139516 -1.5863e-20)
(1.63555 -0.792983 -2.96178e-19)
(2.03225 0.210533 0)
(1.8791 0.165825 1.93778e-20)
(2.28035 -0.022615 -1.59619e-20)
(2.81988 0.617127 0)
(1.99114 0.0223366 0)
(0.756176 -0.382749 0)
(1.60811 -0.690738 8.0166e-20)
(1.99472 -0.563311 1.00912e-19)
(2.23043 -0.667397 6.36613e-21)
(2.37744 0.691572 0)
(1.77756 -0.233882 4.94012e-19)
(2.04383 0.0138275 -5.16042e-21)
(2.31606 0.378643 -2.6276e-20)
(1.40005 -0.831513 1.78096e-19)
(1.93312 0.141735 0)
(2.0233 0.0431438 0)
(0.911299 -0.233167 -4.20779e-19)
(1.55583 -0.517499 -1.86039e-19)
(1.99703 -0.210656 0)
(1.48084 -0.716584 -2.24417e-19)
(2.08561 -0.011247 1.40351e-21)
(2.01565 0.016487 -1.42531e-21)
(0.906405 -0.433176 0)
(1.89449 0.00542135 1.89242e-21)
(2.00526 0.0216398 -1.55777e-20)
(2.34122 0.00792926 5.23596e-20)
(1.98886 -0.604745 0)
(1.0145 -0.844042 -3.46533e-19)
(2.22368 0.0966279 7.99447e-20)
(1.98929 0.0470107 6.25296e-20)
(2.0311 0.000943771 -9.12244e-21)
(2.55552 0.329236 0)
(1.74956 0.222595 -2.30337e-19)
(2.66984 -0.179686 -1.50061e-19)
(-0.918741 -0.155384 9.47155e-20)
(2.03884 0.0251316 0)
(1.2919 -0.83616 -1.076e-20)
(0.670959 -0.214436 0)
(2.02733 0.0315419 -2.41533e-19)
(1.93059 0.063319 1.06516e-19)
(1.92051 -0.0208813 -5.84528e-20)
(1.61736 -0.711387 0)
(2.07897 -0.022977 -3.32969e-20)
(1.2313 0.320187 7.974e-19)
(2.41445 -0.753307 0)
(1.69683 0.00746035 3.24977e-19)
(2.70751 -0.562127 -3.9682e-20)
(2.10847 0.0285482 0)
(1.36748 -0.752237 3.4361e-20)
(1.85137 0.0538577 1.79862e-20)
(1.99252 -0.0356346 0)
(0.714171 -1.19004 3.28813e-19)
(1.87812 0.150185 0)
(1.85499 -0.84497 2.32267e-19)
(1.59033 -0.779428 7.32108e-20)
(2.0349 0.00833897 7.79338e-22)
(2.29433 0.0976 -1.09812e-20)
(1.46934 0.181753 1.53033e-19)
(1.84495 -0.342406 -2.68385e-19)
(1.88103 0.0127405 1.62929e-21)
(1.88445 -0.846968 2.49605e-21)
(2.23397 -0.220813 1.09568e-19)
(2.54815 0.332696 1.43548e-19)
(2.05197 -0.911741 0)
(1.99592 0.012387 -2.39124e-19)
(3.61045 -0.582316 -8.27478e-19)
(1.45465 -0.152624 0)
(2.00934 0.0210741 5.61579e-21)
(1.97481 -0.0324712 0)
(1.36474 -0.444397 6.52808e-19)
(2.22015 -0.81586 0)
(2.03116 0.0167067 1.79111e-20)
(2.2512 -0.0504906 -1.89272e-19)
(1.37768 -0.701501 5.81136e-20)
(0.867027 -0.439196 1.33725e-19)
(2.24334 0.0329325 -1.72748e-21)
(1.51637 -0.720734 1.94077e-19)
(1.89161 -0.562027 2.57603e-19)
(1.59261 -0.404562 0)
(0.752992 -0.373773 -8.74618e-20)
(2.47113 -0.69233 -3.98739e-20)
(0.831428 -0.393589 -1.03222e-19)
(2.00028 0.00434351 -1.9524e-21)
(1.58171 -0.634333 0)
(2.11785 0.0239339 -1.30228e-21)
(0.859037 -0.41479 0)
(1.51749 -0.785557 -2.06364e-21)
(2.33698 -1.00915 -2.22266e-19)
(0.498237 -0.434662 0)
(2.17606 -0.565318 7.49626e-20)
(1.63029 -0.38928 0)
(2.80858 0.545791 0)
(1.64777 -0.776951 -3.06359e-19)
(1.55618 0.226892 2.32602e-19)
(1.78436 0.105792 0)
(1.83247 0.11928 -1.47007e-19)
(2.27596 -0.726985 3.07941e-19)
(1.61764 -0.787253 1.68903e-19)
(2.95447 0.928264 0)
(2.11736 -0.0428995 0)
(1.65269 -0.799844 -1.29107e-19)
(1.90912 -0.148213 0)
(2.15826 0.037551 0)
(1.71789 -0.811365 -1.33658e-21)
(2.14294 -0.404866 -3.61364e-19)
(1.8424 -0.472817 2.22651e-19)
(2.14352 -0.321482 1.23623e-20)
(0.681592 -0.329286 1.86995e-19)
(1.93364 0.0636203 1.2107e-19)
(1.63009 -0.431027 0)
(2.19331 0.307879 -3.78044e-20)
(1.52132 -0.278237 0)
(2.13596 0.0261946 0)
(2.011 0.0650539 0)
(2.19404 0.137636 -1.18048e-20)
(1.89535 -0.0810151 2.15195e-19)
(2.02837 0.00310196 -9.03448e-21)
(1.67376 -0.431792 0)
(0.868663 -0.416575 -1.24394e-19)
(2.15915 0.856795 4.1063e-20)
(1.99003 -0.730865 2.43832e-20)
(1.98735 0.0200363 -1.50234e-20)
(1.95277 -0.228075 1.07573e-19)
(2.03201 0.0272926 -2.0234e-19)
(1.29803 -2.26557 0)
(2.22249 0.132248 0)
(1.5586 0.673973 0)
(1.36208 -0.626094 -4.69576e-19)
(1.39175 -0.475088 -3.76817e-20)
(0.736153 -0.221216 0)
(2.20435 0.314848 0)
(2.25346 0.269953 9.73865e-20)
(2.06743 -0.0136879 -5.68316e-20)
(1.9573 0.464407 2.29174e-19)
(1.89958 -0.815823 0)
(1.62276 -0.800312 -5.16512e-20)
(2.25006 0.036695 2.92641e-20)
(1.52374 -0.484998 -4.45195e-19)
(2.18295 0.0696677 -6.93487e-20)
(2.28682 0.358405 6.06983e-20)
(1.82428 -0.468269 4.63192e-20)
(1.36088 -0.630004 8.19676e-19)
(1.72423 -0.141754 1.67767e-20)
(2.03418 0.0211839 3.67534e-21)
(1.98797 0.0264182 -6.07467e-20)
(1.34654 -0.632325 -7.07062e-20)
(1.84326 0.0548563 -9.56807e-21)
(1.77602 1.83431 6.4858e-21)
(1.49488 -0.714039 1.15823e-19)
(2.13968 0.0938351 0)
(1.98611 0.177655 -1.08738e-20)
(2.09878 0.0310401 -2.21795e-19)
(2.80313 0.165844 1.07069e-19)
(1.49272 -0.452948 -4.05788e-19)
(1.97257 -0.703773 -2.65508e-19)
(2.09645 0.035416 5.23453e-19)
(2.31668 -0.0598645 -2.98737e-19)
(2.07228 0.329821 -6.72395e-20)
(2.34441 -0.197524 -9.24718e-20)
(1.28621 -0.257754 -8.86817e-19)
(2.03455 0.00751145 -1.7705e-19)
(1.27453 -0.314742 0)
(1.43612 -0.665446 -1.08256e-19)
(1.99644 -0.00196717 5.06976e-19)
(1.92908 0.0110267 -8.30364e-22)
(0.604443 1.18751 0)
(1.7602 -0.808347 0)
(2.07488 0.318488 2.0127e-19)
(1.15813 -0.257355 5.52021e-19)
(1.66295 -0.497326 -6.48848e-20)
(2.27553 -0.738592 -1.26046e-19)
(2.3549 -0.368857 3.02784e-19)
(2.90426 -0.122645 0)
(2.08748 0.346228 1.07353e-19)
(0.434266 0.512089 5.17707e-20)
(2.57272 0.682767 1.22237e-19)
(2.03789 -0.286812 -3.18994e-19)
(0.85496 -0.418169 -3.02918e-19)
(1.96156 -0.205844 -1.05418e-19)
(2.00713 -0.268765 3.75269e-20)
(2.38662 0.912576 0)
(1.91819 -0.0591244 -9.05014e-21)
(1.92664 -0.00536611 5.4018e-20)
(2.00683 0.00191366 1.67181e-21)
(0.904181 -0.441564 7.51187e-19)
(2.01805 -0.281748 4.7758e-19)
(2.00752 0.0622027 -2.53654e-20)
(1.60058 -0.781376 -1.01769e-19)
(1.99598 -0.0232972 -3.70131e-20)
(2.10969 -0.0581456 1.5768e-19)
(1.68738 -0.82326 -2.29166e-20)
(2.47944 0.674465 -1.14058e-19)
(0.585859 -1.00338 -3.56865e-19)
(1.07368 -0.524446 -2.49811e-19)
(2.01933 -0.00444858 0)
(2.01486 0.0373047 -2.26908e-20)
(1.68156 -0.7659 -5.67253e-20)
(1.42632 -0.23231 8.06291e-19)
(2.02557 0.00693271 0)
(2.73879 0.637897 -2.87446e-20)
(1.32865 -0.574517 1.85719e-19)
(2.02009 0.0296295 -5.21424e-19)
(1.26122 -0.630148 -1.23153e-19)
(1.79008 0.127255 8.14776e-21)
(2.25359 -0.163844 1.84124e-19)
(2.24087 0.0350221 1.04365e-19)
(1.87922 -0.856014 -3.21457e-19)
(2.03372 0.00741795 1.26724e-20)
(1.4543 -0.485932 -9.35587e-20)
(2.07764 -0.0342097 2.08207e-19)
(2.06292 -0.105928 -1.5313e-19)
(2.13723 0.0676375 -5.26894e-21)
(2.18166 -0.0184845 -3.31303e-19)
(1.27032 -0.580516 -3.58782e-19)
(2.04007 0.0243077 0)
(1.55104 -0.705606 6.65776e-20)
(2.05635 -0.00439157 3.8613e-20)
(2.36873 -0.493362 1.45088e-19)
(2.26864 0.0256772 3.10552e-21)
(2.29963 -0.39554 -1.87126e-19)
(1.98174 0.0216912 -4.08498e-19)
(2.11154 0.239168 6.0718e-20)
(0.680589 -0.342645 -1.33271e-19)
(2.06385 -3.33965e-05 0)
(1.98432 0.0569362 -2.03104e-20)
(2.17007 0.130583 8.30735e-20)
(1.58803 -0.619682 0)
(2.13285 0.0838837 1.19234e-19)
(2.15024 0.108715 1.02446e-19)
(2.1254 0.0163777 9.05882e-24)
(2.67022 -0.871075 1.96147e-20)
(1.94071 0.0151839 0)
(1.83852 0.265824 4.14627e-19)
(2.02546 0.0518419 2.65858e-20)
(1.46214 -0.703959 2.57642e-19)
(2.05661 -0.198821 0)
(1.55811 0.192963 -6.72983e-19)
(1.43647 1.05554 3.384e-20)
(2.71346 1.1339 -3.45165e-19)
(1.29718 -0.276977 8.60984e-19)
(1.99498 0.0098112 1.94813e-20)
(0.907672 -0.461705 1.05332e-19)
(1.95744 -0.133179 -3.3581e-19)
(2.06604 -0.251752 -1.02505e-19)
(1.81539 0.0951781 -3.10733e-19)
(2.01452 0.0127761 0)
(1.98203 0.0365327 -2.29698e-19)
(0.0877258 -0.156891 3.74147e-19)
(0.0704671 1.24934 0)
(1.91505 -0.356966 0)
(2.00865 -0.00753518 0)
(-0.546888 -0.252961 0)
(2.06931 0.22667 0)
(1.2274 -0.252282 0)
(1.84737 -0.0666896 -2.03086e-21)
(2.18483 -0.615068 -1.34246e-19)
(2.42954 0.11367 0)
(1.82405 0.266776 6.26678e-19)
(1.74009 0.444753 8.29898e-20)
(2.08383 0.168531 4.89814e-21)
(1.69605 -0.775887 -3.13494e-20)
(1.23201 -0.0292722 -2.04243e-21)
(0.852626 -0.428522 1.12265e-19)
(2.11534 0.00767628 -1.26417e-19)
(2.28109 -0.059493 1.06631e-20)
(2.04477 0.246874 -1.42192e-19)
(1.8929 0.153217 -4.17073e-19)
(2.08074 0.798538 -1.38541e-19)
(3.38144 0.240603 0)
(1.36359 -0.878456 3.36265e-20)
(1.38318 -0.458053 -7.15659e-19)
(2.02119 0.0134525 -7.03258e-19)
(2.48542 -0.700365 -2.11027e-19)
(2.08901 -0.01854 5.41514e-20)
(2.86803 -0.662008 -2.74514e-20)
(2.21002 -0.31187 -4.11272e-20)
(2.18631 -0.550922 -2.59291e-19)
(2.02287 0.16498 1.61614e-19)
(3.34271 1.47535 0)
(1.90903 0.0142198 1.26315e-21)
(1.74371 0.00937324 -9.57032e-20)
(2.7934 -0.285161 0)
(1.9571 0.0392476 0)
(1.95038 -0.888584 -3.47522e-21)
(1.14467 -0.581414 1.1141e-19)
(1.80916 -0.0785604 -1.37394e-20)
(1.97626 0.0212141 0)
(1.91046 -0.0891162 -4.403e-19)
(1.85577 0.141586 -8.05993e-20)
(1.51553 -0.714514 4.16025e-20)
(2.13743 0.0650247 5.07944e-20)
(0.847135 -0.422581 0)
(1.38069 -0.880729 3.76382e-20)
(2.17802 0.093912 0)
(1.90467 -0.0614379 8.89266e-21)
(2.50398 0.294151 -6.08519e-20)
(1.96793 0.0374786 -9.52482e-22)
(2.36165 0.410103 -3.69456e-21)
(2.87459 0.801078 -4.00693e-20)
(1.84466 -0.541616 5.352e-19)
(1.13263 -0.775423 0)
(1.58616 -0.309368 -3.91427e-20)
(1.55726 0.178712 0)
(2.44922 0.0606943 -3.1466e-20)
(1.51537 -0.729106 9.18777e-20)
(1.90252 -0.344414 6.59251e-20)
(1.97357 0.0478684 1.8678e-20)
(1.65678 -0.718006 -1.22474e-19)
(1.25988 -0.616559 -2.97643e-19)
(1.41999 -0.463428 -4.14185e-19)
(1.99582 0.0205792 -5.72091e-21)
(1.59289 -0.292424 3.22482e-20)
(1.31168 -0.595839 2.95184e-19)
(1.47686 -0.48505 4.55446e-19)
(1.38198 -0.484365 5.67154e-20)
(1.67949 -0.323824 -2.26331e-20)
(1.95754 -0.626169 2.65194e-19)
(2.53529 -2.45305 1.08716e-18)
(1.99707 0.0164434 8.32578e-21)
(1.6994 0.424828 -7.21687e-20)
(2.27675 0.226376 -2.93276e-20)
(2.4051 -0.557297 0)
(-0.878454 0.0961219 -1.00708e-18)
(2.06086 -0.0114323 -2.61233e-19)
(2.00648 0.0915144 0)
(2.43755 0.0743039 0)
(1.4316 -0.177262 -1.58386e-20)
(2.08852 -0.359026 -1.09009e-19)
(2.31042 0.0941261 -1.05364e-20)
(2.13847 -0.396459 4.73657e-19)
(2.05267 0.76229 1.29722e-19)
(1.74894 -0.0522791 3.40231e-19)
(1.5375 -0.726036 1.1097e-21)
(1.86378 0.486401 0)
(1.50906 -0.512947 4.36479e-19)
(1.70687 -1.17129 5.92871e-20)
(1.65123 -0.716842 9.29731e-20)
(1.84543 -0.712752 8.82067e-20)
(1.68055 -0.756614 -4.40938e-20)
(2.12459 0.019787 1.69035e-19)
(1.95001 0.0257577 -7.8866e-21)
(1.97482 -0.112875 6.75397e-20)
(1.55078 -0.731124 -6.11143e-20)
(2.32183 0.0915742 9.43475e-21)
(1.96093 0.0198755 1.76655e-19)
(1.26872 -0.305526 -3.53978e-19)
(1.91115 -0.126495 2.74144e-19)
(2.04207 0.338466 0)
(2.32724 0.168671 1.19237e-21)
(1.98632 0.048041 3.96931e-20)
(1.58026 -0.372824 -1.39711e-19)
(2.02889 1.60258 5.74444e-20)
(1.92672 -0.613205 1.97661e-19)
(1.9795 -0.00945935 7.61195e-20)
(1.47107 0.0328281 -5.25983e-19)
(2.75647 -0.297024 0)
(1.9751 0.0404587 3.5724e-20)
(2.19236 0.0730593 9.44674e-20)
(1.90947 -0.015846 0)
(1.49247 -0.0677827 3.00593e-19)
(2.12543 0.0778403 0)
(1.90456 1.6336 5.81933e-20)
(2.25939 -0.0187922 0)
(1.89708 0.0239069 0)
(2.24854 0.0608012 5.13791e-20)
(2.26482 0.0661716 2.1085e-20)
(2.47653 -0.164049 -1.94367e-19)
(1.9451 0.12908 -1.90016e-19)
(1.69317 0.991309 -1.2483e-19)
(2.01395 0.0273187 -7.42294e-20)
(2.06718 0.255783 0)
(2.24047 -1.21462 -6.81289e-20)
(2.31429 0.0242936 2.13505e-20)
(1.89665 -0.0454142 -1.78843e-20)
(2.40577 -0.550832 0)
(2.82255 0.152368 1.62244e-19)
(2.378 1.43698 1.93815e-20)
(2.00834 -0.0103272 2.93797e-20)
(1.7466 -0.632983 0)
(1.73119 -0.803772 1.15815e-19)
(2.05033 0.165856 0)
(1.98856 -0.107325 -3.46985e-20)
(-1.10018 1.35706 0)
(2.50339 -1.019 0)
(1.71297 -0.151497 0)
(2.17348 -0.810908 0)
(1.64289 -0.885046 -2.5988e-20)
(1.5951 -0.681958 -1.77039e-20)
(1.90486 -0.081285 -3.22641e-19)
(1.3982 -0.711789 -6.97639e-20)
(1.3882 -0.6191 0)
(1.44125 -0.63361 -4.00569e-20)
(-1.36571 1.69247 -2.63671e-18)
(1.64643 -0.772688 0)
(1.58732 -0.583354 -4.66043e-19)
(2.04492 0.0475331 4.80471e-21)
(2.26744 0.23104 6.815e-20)
(2.60165 -0.858612 3.30702e-20)
(1.87877 0.128244 0)
(2.35538 -0.734412 0)
(2.64118 -0.439996 1.0281e-19)
(1.87324 0.0492634 -2.18958e-21)
(2.00227 0.0245938 1.24588e-20)
(1.42343 -0.161337 3.69232e-21)
(2.0044 0.00930571 1.70746e-20)
(1.98907 0.0562904 3.66061e-21)
(2.03808 0.157921 2.28623e-19)
(1.98562 0.0424345 -1.94377e-20)
(1.99829 -0.56013 0)
(1.30645 -0.663084 0)
(2.03418 0.0108909 0)
(2.01098 -0.018511 0)
(1.81628 -0.360888 1.97378e-19)
(2.2698 -0.12718 0)
(1.69543 -0.855919 2.73615e-19)
(1.78322 -0.476247 -3.43008e-21)
(1.44777 -0.50367 -6.84299e-19)
(1.74037 0.503 -3.82811e-20)
(1.55607 -0.685892 -3.75359e-20)
(1.72458 -0.920693 -1.49695e-19)
(1.93105 0.0404925 6.07885e-20)
(1.58377 -0.742064 -5.81594e-20)
(1.98415 0.0396371 -3.22378e-20)
(2.23142 0.0721411 0)
(2.49835 -0.304685 0)
(1.88746 0.274589 0)
(2.29875 -0.416988 9.86575e-20)
(1.65419 -0.361788 0)
(1.89048 0.486824 0)
(1.9839 0.00986693 0)
(1.86239 -0.473371 2.07615e-19)
(2.07382 0.173574 -2.13669e-19)
(2.01276 -0.00620103 0)
(1.85291 -0.091759 -1.94346e-20)
(1.98833 0.199976 -2.22684e-19)
(2.55421 0.596978 -2.53427e-19)
(1.67985 -0.782748 2.77616e-19)
(1.95841 0.529372 3.57741e-22)
(1.83136 0.05562 1.521e-21)
(1.94473 0.0552896 -1.29428e-20)
(1.85563 -0.0118648 2.42042e-21)
(2.26624 0.0900817 -2.62116e-20)
(2.00447 0.0201314 2.62743e-20)
(1.84417 0.0350595 -3.03741e-19)
(2.0855 -0.00324977 0)
(2.52055 -0.541651 -1.05625e-19)
(1.9538 0.0722941 3.16717e-19)
(0.765903 0.6274 1.33092e-19)
(2.2032 -0.292284 -1.20041e-19)
(1.18696 -0.273833 -6.02316e-19)
(2.2939 0.0833546 3.88935e-21)
(2.70415 -0.16816 2.1606e-19)
(2.01093 0.0420193 0)
(2.00015 0.201882 -3.01047e-20)
(1.9683 0.0386693 6.89997e-21)
(1.86945 -0.00427363 1.96108e-21)
(1.4215 -0.852863 -2.04225e-19)
(1.96009 -0.00599878 1.66409e-19)
(2.04033 0.0183221 -3.88766e-21)
(1.96527 0.0230277 -1.71393e-20)
(2.02481 0.00294277 0)
(1.94467 0.846155 0)
(1.50235 -0.719616 3.395e-19)
(1.13421 -0.56734 1.32008e-19)
(1.99922 0.0142585 -2.13308e-22)
(1.95143 0.0635051 6.34642e-19)
(2.01479 0.201391 9.00321e-20)
(1.5293 0.183342 0)
(1.82633 0.0500873 0)
(1.69979 -0.414523 -2.98072e-21)
(2.21747 0.0270198 8.16004e-20)
(2.00179 0.500118 3.02187e-19)
(2.4146 0.0691547 0)
(2.02346 0.0255904 0)
(2.22334 -0.625709 3.52919e-19)
(2.02467 -0.186152 2.57336e-19)
(0.393127 -0.233781 -5.58376e-20)
(1.98975 -0.00933402 0)
(2.55147 -1.08545 1.21659e-19)
(1.87307 -0.178623 -1.19429e-20)
(1.67694 -0.7637 -7.86251e-20)
(1.98759 -0.0553755 -3.54705e-19)
(2.22015 -0.582913 0)
(2.09906 -0.389709 8.60529e-20)
(1.75917 -0.611388 -9.02693e-20)
(0.193735 -0.0595703 0)
(2.02892 0.0321597 2.79499e-20)
(1.93214 0.109319 -2.04792e-19)
(2.00889 -0.00950609 2.52477e-23)
(2.61017 0.267584 2.35186e-20)
(2.43183 1.84362 6.92232e-19)
(1.94584 0.0142998 0)
(1.18876 -0.468888 -4.13897e-21)
(2.03882 0.208304 -8.2189e-20)
(1.90529 -0.759429 -1.86502e-19)
(2.06435 0.22679 1.68767e-19)
(1.0595 -0.836799 1.14204e-19)
(2.01042 -0.0251647 -7.73572e-19)
(2.00693 0.063593 1.4002e-20)
(1.95944 0.0624016 -1.93285e-20)
(1.82187 -0.438619 0)
(1.94455 -0.00033933 1.35785e-20)
(1.23925 -0.582795 2.35685e-19)
(2.24279 -0.0637623 -3.66168e-19)
(1.99686 0.0621979 -2.86768e-19)
(2.00469 -0.0740627 3.32335e-20)
(1.73751 -0.224608 7.23366e-19)
(2.02771 0.0128087 -9.32807e-21)
(1.8082 0.0473117 1.77061e-19)
(2.00712 0.023709 2.02546e-20)
(2.15855 -0.329857 -1.43982e-19)
(2.53298 0.71234 -1.9126e-19)
(1.68737 -0.500973 5.08109e-20)
(2.0766 0.00299587 0)
(1.91518 0.211414 0)
(1.28617 -0.304301 0)
(1.44258 -0.468731 5.29367e-19)
(2.03072 0.0680356 -4.66484e-19)
(1.8308 0.173177 0)
(1.61912 -0.38797 -4.15055e-19)
(1.82039 0.146363 0)
(1.82467 -0.334574 -3.24232e-19)
(1.90225 -0.0350496 -1.50927e-20)
(1.96881 -0.528795 -2.91838e-19)
(1.98581 0.00761005 0)
(1.96622 0.0146803 0)
(1.91761 -0.000753398 8.9603e-21)
(2.38802 0.0830986 2.86691e-21)
(2.21063 -0.0656189 7.06921e-20)
(2.60314 1.52842 -1.26538e-20)