/*--------------------------------*- C++ -*----------------------------------*\
| =========                 |                                                 |
| \\      /  F ield         | OpenFOAM: The Open Source CFD Toolbox           |
|  \\    /   O peration     | Version:  2306                                  |
|   \\  /    A nd           | Website:  www.openfoam.com                      |
|    \\/     M anipulation  |                                                 |
\*---------------------------------------------------------------------------*/
FoamFile
{
    version     2.0;
    format      ascii;
    arch        "LSB;label=32;scalar=64";
    class       surfaceScalarField;
    location    "1.7";
    object      phi;
}
// * * * * * * * * * * * * * * * * * * * * * * * * * * * * * * * * * * * * * //

dimensions      [0 3 -1 0 0 0 0];

oriented        oriented;

internalField   nonuniform List<scalar> 
7520
(
-0.978321
0.687213
0.291108
-1.40705
-0.135918
1.54297
-0.0390009
-1.64186
1.68086
0.257814
-0.0348801
-0.222934
-0.18491
1.40108
-1.21617
-0.102811
0.110607
-0.00779643
-0.239182
2.0671
-1.82792
-0.0511496
-1.53122
1.58237
-1.22761
1.18861
0.940416
0.230481
-1.1709
-0.227206
-0.119314
0.346521
-0.151882
-1.82583
1.97771
0.744229
-0.064691
-0.679538
-0.114295
0.157402
-0.0431068
-1.76764
0.988649
0.778991
0.168024
1.58995
-1.75797
-0.178502
-0.0429377
0.221439
-0.0312191
0.304336
-0.273117
0.0547514
0.0564522
-0.111204
0.0746065
-0.253108
-0.503539
-0.207612
0.711151
-1.06122
1.22924
-0.0358854
-0.337346
0.373231
0.183028
-0.169145
-0.0138828
-0.0282401
0.0971165
-0.0688763
0.277061
-0.273085
-0.00397611
0.850016
1.13355
-1.98357
-0.0390112
0.34239
-0.303379
0.0280289
0.0267225
0.232494
-0.0370829
-0.195411
-1.05681
1.7683
-0.711494
-0.0558582
-0.0214296
0.0772878
-1.73844
1.94756
-0.20912
-0.336574
0.399324
-0.0627498
-0.14602
-1.25532
1.40134
-0.656612
0.853188
-0.196575
0.299377
-0.589516
0.290139
0.901103
-1.59579
0.694688
0.0944049
-0.352824
0.258419
-0.0523752
-0.11927
0.171645
-0.0307312
0.288545
0.548576
-0.0453889
-0.503187
0.316667
-0.0396051
1.86429
-1.15652
-0.707768
-0.397402
-0.72064
1.11804
-1.50828
1.66989
-0.161615
0.0327641
0.134555
-0.167319
0.308476
-0.0958131
-0.212662
-1.36122
0.304413
0.300166
-0.0817434
-0.218422
1.76732
0.147154
-1.91448
-0.705979
0.209143
0.496836
-0.0796494
0.082772
-0.00312258
1.00537
0.473325
-1.4787
0.0163401
-0.119151
-0.776619
0.0725923
0.704027
0.33761
-1.23515
0.897535
-0.0451211
-0.13456
0.179681
-0.137604
0.0817459
-2.33202
1.0992
1.23282
1.76008
-1.17448
-0.5856
-0.020947
-0.0549554
0.0759024
-1.12031
0.974291
0.9275
-0.18327
0.0152986
-0.094948
0.00452276
-0.118818
1.09362
-2.14068
1.04706
0.223127
1.5442
-1.27738
1.00555
0.271834
0.342441
-0.258185
-0.0842557
-0.529198
0.866808
0.729808
-1.00689
0.277079
0.366592
-0.101002
-0.26559
0.28519
-0.493829
0.208638
0.854743
-1.67646
0.821722
0.146343
-0.127899
-0.0184438
2.32906
-0.905162
-1.4239
0.471093
-0.804881
0.333788
1.55173
-1.35786
-0.193868
-0.884583
0.107964
-1.52298
-0.809038
0.691954
0.0568777
-0.748831
0.268966
-0.66692
0.397954
-0.0162451
-0.320329
0.318061
-0.34928
0.252721
-0.0202267
0.0315294
-0.0439827
0.0124534
1.27461
1.05445
-1.52361
1.74038
-0.216775
1.1684
0.591681
-1.01284
1.15225
-0.139417
-0.0667401
0.114033
-0.0472928
1.38407
-1.53595
0.265285
0.218168
-0.123764
1.00487
-0.38929
-0.615584
0.00792506
0.097953
-0.105878
-0.574646
0.368745
0.205901
1.57043
-0.715685
-0.770679
0.666366
0.104313
0.833502
-0.782143
-0.0513593
-0.100684
0.126848
-0.0261641
0.0729315
-0.130092
0.05716
2.12537
-1.3568
-0.768569
0.543685
-0.508153
-0.470168
-1.37266
0.843465
-1.80171
1.56253
0.196082
-0.0891249
-0.106957
-0.317406
0.0901996
-0.182372
0.181017
0.00135491
-0.394839
0.468914
-0.0740752
1.9181
-1.01699
-0.0591666
0.0572418
0.00192477
-0.807988
0.304449
0.107611
0.131088
-0.238699
0.0136075
0.678346
-0.742631
0.373523
0.369108
1.17607
-2.05694
0.880874
0.0633278
0.1197
-0.148696
-0.557283
-0.313183
0.022388
0.290795
1.50958
-0.569166
-0.133502
0.418187
-0.284685
0.144998
-0.0706344
-0.074364
0.12238
-0.117141
-0.00523884
0.688765
-1.78404
1.09527
0.412899
-0.448785
-0.357685
-0.0837988
0.441484
-0.104191
0.0450245
0.107203
0.283603
-0.390805
0.168385
0.0355021
-0.203887
-0.0701637
0.238549
-0.629492
-0.113139
0.254054
-0.668464
0.41441
-0.682215
1.37322
-0.691002
0.334844
-0.37887
0.0440259
-1.14718
-0.225488
-0.0385765
-0.0572907
0.0958672
1.4039
-0.398529
-0.629297
0.469923
0.159374
-0.00409574
0.15152
-0.147425
0.320935
-0.0839706
-0.236964
0.202284
-1.84415
0.305667
-1.81394
-2.08577
0.901564
1.1842
-0.873922
-0.403458
-1.21962
0.792086
0.427534
1.594
0.207274
-1.80127
0.205295
-0.257671
0.200181
0.489466
-0.689648
-0.414772
-0.743293
1.15807
-0.134782
-1.08484
-1.75428
0.0158431
0.0239542
0.00757512
0.0758341
-0.150207
0.0743724
0.310258
-0.355379
0.663505
0.169998
-0.17356
0.142829
0.0132535
-0.01954
0.00628654
0.808653
-0.459549
-0.349105
-0.56721
-1.20043
0.281993
-0.696765
0.0781139
-0.622096
0.543982
-0.175966
-0.0940327
0.269999
-1.54868
0.785316
0.763359
0.402866
-0.587776
-0.070798
0.490262
-0.419464
0.144396
-0.172636
0.552842
-0.253594
-0.299248
1.06039
-0.0555125
0.260125
-0.341869
0.978492
0.173302
-1.15179
0.322108
-0.361119
-0.353717
-1.31665
1.67037
1.2722
0.672248
0.735138
-0.466172
-1.06958
0.412972
-0.690225
0.949349
-0.259124
-0.0150568
-0.0267845
0.0418413
0.271281
-0.331886
0.0606043
-0.80832
0.821928
-0.295153
-0.157488
0.452641
-0.243481
0.0675149
-0.843114
0.921227
0.386492
-0.971221
0.584729
-0.494899
-0.0797464
0.722851
-0.423473
0.158732
-0.0123892
0.336129
-0.14596
-0.19017
-0.0118656
-0.382974
-0.558604
-0.27438
0.832984
0.141039
0.225553
-0.786138
-0.890326
-0.870449
-0.678226
-0.0627502
-0.00410725
0.0668574
0.980846
-0.501489
-0.479357
-0.865407
0.183191
-1.15326
2.09411
-0.940847
0.386061
0.166781
0.309166
-0.264282
-0.0448848
-0.730267
0.581572
0.649999
-1.0474
1.77132
-0.0586029
-1.71272
-1.62528
2.18754
-0.562258
-0.0306357
0.10647
0.442336
1.16805
-1.61038
0.0381458
-0.189685
0.151539
-0.110398
1.7943
-1.6839
0.0011714
0.128815
-0.129986
-0.913615
1.27891
-0.365295
-0.062585
-0.667682
0.056805
-0.615409
0.26284
-0.217547
-1.6444
1.86195
-0.16995
0.226402
-1.74706
0.960923
0.337558
-0.024463
-0.313095
-0.0109324
0.155931
0.18422
1.53982
-1.72404
-0.542241
-0.615032
1.15727
-0.538121
0.440807
0.0973142
2.27345
-1.4597
-0.813758
0.504217
-1.04646
0.0445217
-0.059211
0.0146893
0.136531
0.730734
-0.867264
0.068817
-0.0712255
0.00240857
0.856943
0.768428
-1.62537
-0.244313
-0.526365
-0.0704302
0.198912
-0.128482
-0.939086
0.673534
0.265552
-0.0960707
0.0492305
0.0468401
0.821877
0.158969
1.09473
-2.01035
0.915621
-2.47812
1.12762
1.3505
-1.01953
-1.45859
-0.383873
0.43596
-0.0520864
-0.330244
0.339735
-0.00949083
0.430473
-1.14363
0.713159
-0.00756921
1.11869
-1.11112
-0.508612
0.56549
1.0894
-0.110911
0.971428
0.98553
-1.95696
-0.218315
0.112262
0.106053
-0.0196339
-0.919452
1.82017
-0.430946
-1.38922
0.15422
-0.116075
0.0201518
-0.272452
0.229514
0.997136
0.823033
0.277243
0.580274
-0.857517
0.387782
-0.0453917
0.0280292
-0.237357
0.209328
-0.285835
0.332696
-0.046861
-1.8384
0.893328
0.945074
-0.129734
-0.20051
0.843967
-0.589913
0.876778
-0.0548002
-0.821978
0.152512
0.155964
-1.92656
1.92181
0.00474966
1.08334
-0.696847
-0.0126237
-0.081153
0.0937767
0.00796357
0.0719795
-0.0799431
0.130451
-0.231453
1.72525
-0.631631
0.0583628
-0.19227
0.133907
0.00253545
0.010718
-0.42684
0.307525
0.543887
-0.933177
-0.711132
0.703563
0.302134
0.0339953
2.0671
-0.010225
0.00462828
0.00559668
-0.701504
1.24539
-0.235395
0.155224
0.080171
0.176031
-0.1031
0.0409049
0.507671
0.851542
-0.651361
0.450757
-0.39412
-0.0566366
0.333156
-1.24677
-0.125669
0.232871
-1.62795
1.41041
0.0823933
-0.0378716
-1.6791
0.262353
-0.266448
-0.137921
-0.0812063
0.219127
-0.638982
-1.19942
1.17985
0.945524
1.66906
-0.883745
-1.82583
0.354416
-0.487918
-0.141955
-0.20275
0.344705
0.18616
-0.286932
0.100772
-1.25199
0.531346
-0.206859
-0.281109
0.487968
1.18032
-0.949839
-0.174502
-1.7577
1.9322
0.89785
0.266859
-1.5438
1.27694
0.929357
1.0182
-0.905917
1.39221
-0.94987
-0.0462018
0.414412
-0.368211
-0.879932
0.791064
0.0888681
0.10656
-0.0481971
-0.0893311
0.351197
-0.261866
-0.31611
-0.192844
0.508954
-0.509977
1.78217
-0.287383
-0.403056
0.690439
0.243681
-0.210917
0.230119
-1.24295
-0.171983
0.200013
0.00992346
-1.93589
1.055
0.880894
0.433294
-0.497985
0.00889742
-0.0684242
0.403269
0.974771
1.29868
1.59491
-0.506389
-1.08852
0.143163
-0.0500399
-0.0931229
0.952791
0.598935
-0.242261
0.100306
0.564248
-1.62408
1.05983
0.0978659
-0.165054
0.0671881
0.661308
0.909119
-0.249926
-0.102898
0.758565
-0.481322
-0.552787
1.4028
0.185154
0.0109283
1.91687
-0.740804
0.163742
-0.155817
1.75038
-0.155472
0.115644
0.430191
0.0205654
0.0196255
0.322815
-1.65455
-0.920506
1.01726
-0.0967553
0.00667887
-0.134578
1.82581
-0.0198078
-1.806
-0.763798
0.476414
0.247933
0.0730024
-0.333528
0.0753428
-0.208819
-1.14904
1.55323
-1.54089
-0.012334
0.0768862
-0.402543
0.325657
-0.955813
1.61712
-0.885494
1.57426
0.145717
-0.0688308
0.767128
-0.393605
1.95393
-0.569861
0.00512727
0.143172
-0.148299
-0.134645
-0.0491993
0.183844
0.140774
0.00238911
0.183498
-0.836689
0.148591
0.122363
-0.270954
0.538059
0.835158
-1.76618
1.41247
0.145134
-0.502819
-0.380941
1.11075
-1.12123
1.30959
-0.188359
0.56434
-1.98168
1.87128
2.15302
-0.878415
0.906632
0.957658
-0.0828834
0.260838
1.29239
-1.30681
0.238358
1.06845
0.280168
-0.31725
-0.377448
0.247714
-0.245172
0.175008
0.196406
-1.35293
0.73983
-1.11324
0.37341
-1.74535
0.868651
0.876697
-0.521007
-0.48588
0.103794
-0.124741
0.0909079
-0.0900482
0.480694
-0.390646
-0.582778
0.51198
1.1997
0.953328
-1.62528
0.0542392
0.0681411
1.63332
-1.42769
-0.205634
-0.43791
1.60596
-1.24451
2.08877
-0.844262
-0.822665
0.976978
-0.154313
0.240734
-1.36105
0.101183
0.238552
-0.282892
0.454658
-0.171766
-0.110596
-0.0194958
1.40041
0.50212
-1.22354
0.721419
-0.0716459
-1.55141
1.62305
-0.0600876
-0.122284
0.0587731
-0.480004
0.421231
-0.763418
1.06269
-0.299276
0.223194
-0.155523
-0.0676703
-0.0927962
0.774632
-0.681836
-1.88371
1.74779
1.8202
-0.533025
-1.28718
0.674835
-0.633046
-0.041789
-0.0150715
0.201231
0.153189
-0.648088
-0.817598
1.67454
0.155195
-0.0475835
1.77132
-0.964407
1.10094
-0.0314879
0.0314879
-0.364428
0.230085
-1.75369
2.25716
-0.949385
-1.30777
-0.463952
0.850893
-0.38694
0.00917041
0.171443
-0.180613
1.06374
-1.10029
0.0365466
-0.469102
-0.34511
0.814212
0.942125
-1.98759
1.04547
-0.0382003
-0.841731
-0.255015
0.120371
-0.298026
-0.491171
0.789197
0.706881
0.514922
-1.2218
-1.31071
-0.402845
0.706208
-0.303363
-0.504018
1.34934
-0.845318
1.49052
-1.3063
-0.0984838
0.247075
-0.0776725
-0.202653
0.487843
-1.1305
0.722625
0.407879
-1.47571
1.67098
-0.195272
-0.0195254
0.152144
-0.132619
-1.34874
-0.791935
-0.0105323
0.0385612
-1.6992
0.545945
-0.395472
0.306141
-0.37587
-0.446795
-0.122264
0.220129
-0.669479
1.64091
0.0485256
-0.385872
-1.51453
0.134075
1.38046
0.441645
-0.789541
0.347897
-0.880735
0.19051
0.22546
-0.599198
0.373738
1.59837
-0.205552
-1.39282
-0.0151211
-0.121189
0.13631
-0.3251
0.564622
0.428813
-0.993435
-0.390025
1.37867
0.298964
0.682185
0.721715
-0.0287708
1.51202
0.238366
-1.43956
1.36791
-0.206318
-0.0402393
0.246558
-0.257409
-0.0541369
0.311545
-1.72416
0.479652
-0.334112
0.288723
-0.626957
-0.293549
0.263302
0.915352
-0.456702
-0.45865
0.210822
0.105844
-1.05272
1.88168
-0.828962
0.202783
-0.251983
-0.0936184
0.3649
0.277316
-0.560208
-0.0771822
-0.242372
0.319554
-0.120974
0.0523737
0.0686
0.585875
-0.674214
0.0883387
0.00829827
0.0572395
-0.0655377
-0.313948
0.349082
-0.0351343
0.299264
-0.690986
0.391722
0.341957
-0.0617896
0.0419533
0.380061
-0.422015
0.994721
-1.00937
-0.974201
-0.581711
-0.0227091
0.60442
0.180084
0.0463181
-0.31102
-0.227101
1.02079
-0.105442
0.0298964
-1.24668
1.21678
-0.321046
0.00786374
-0.116304
-0.513188
-0.405439
0.312643
0.192032
-0.190861
-1.27931
-0.0408048
-0.0922827
0.133087
1.19873
-1.02543
1.03954
0.78066
0.684829
0.191949
-0.226633
-1.64634
1.87297
0.401446
0.683641
-1.08509
-0.338418
-0.984149
0.499195
0.484954
0.823929
-0.382284
-0.0873569
-0.0687809
0.156138
2.22425
-1.23726
-0.986988
0.146172
-0.335762
0.18959
0.404331
0.667722
-1.07205
0.079663
0.110265
-0.189928
1.62863
0.0454573
-1.67409
0.284926
0.0194101
-0.2753
0.323825
0.0656947
0.0654964
-0.131191
0.387302
-0.0692407
0.0300723
0.0455089
-0.0755812
-0.762986
-0.412805
1.17579
1.20263
0.395733
1.06016
-1.03027
0.206477
-0.969895
-1.86866
1.69416
-0.185771
0.115136
0.32962
-0.610795
0.281175
0.845096
0.823965
1.15692
-1.33269
0.175768
1.24703
-0.56485
-0.161198
0.111158
-0.0563419
0.195871
-0.139529
-1.44364
-0.244815
1.68846
-0.374311
0.464658
-0.0903471
-0.00219909
-0.0292888
0.529012
0.872072
-0.156335
-0.0619797
1.14914
-2.10986
0.960717
-0.96961
0.103224
0.866386
1.72789
-0.633159
0.0135568
0.42349
-1.16678
-0.287912
0.00555542
0.282356
0.0232108
-0.218622
-0.656113
1.15823
0.0214323
0.0473846
0.251308
0.089619
-0.340927
0.132094
0.931647
-0.118915
-0.549549
-0.334151
-0.425118
0.447506
0.552589
-0.92846
0.0224245
0.0348174
-0.0484818
0.277996
-1.90091
0.891539
0.0219252
0.205119
-0.227044
0.137795
-0.101831
-0.0359645
0.262079
0.856607
-0.0643632
0.00940783
-0.0307588
-1.55674
1.5875
-0.146989
-0.446366
0.593356
-0.053528
0.0782617
-0.0247336
-0.324986
1.06482
-0.219382
-0.303044
0.522426
-0.297907
0.523367
-0.769515
1.71849
-0.948974
-0.888271
0.537257
0.351014
1.68654
-0.0925359
-0.292384
-0.061569
0.353953
0.36114
-0.0775371
-0.193422
-0.286179
0.999313
0.741068
0.491682
-1.29961
0.807924
-0.803638
-0.194985
0.998623
0.0720739
-0.341129
0.269056
0.12086
0.266848
-0.387708
0.580104
0.0909394
-0.671044
0.0149383
-0.186922
-0.907799
0.0987737
-0.00165724
0.10555
0.094463
-0.136462
0.419754
-0.283292
-0.254278
0.294861
-0.0405825
-0.019586
-0.049172
0.068758
0.77143
-0.420154
-0.0343993
-0.0095834
-0.372749
-0.383212
0.75596
1.21944
-0.957361
-0.0355048
-0.351156
0.386661
-0.308761
-0.473382
-1.29093
1.51405
0.660431
-0.170964
-1.24588
0.785244
0.460635
0.271679
-0.115276
-0.156403
1.78588
-1.78588
-1.67132
0.148341
-0.910165
-0.140937
-0.701799
0.842736
0.53704
-0.564028
0.0269881
0.0814535
0.182117
-0.209858
0.027741
-0.0441051
0.245859
-0.201754
-0.570568
1.17236
-0.601789
-0.267332
-0.0608661
0.328198
0.787807
-0.547073
-1.09237
0.288734
-0.0446585
-0.240483
0.285142
0.0418186
-1.34863
-0.711795
-1.10485
0.393057
0.864153
-0.0496665
0.237631
-0.187965
-0.293857
0.359344
-0.0654877
-0.262108
0.191678
-0.0899477
-0.229404
0.0914829
0.0413274
-0.0434475
-0.133394
0.176842
0.163571
0.0322997
-0.312895
0.354848
0.172277
-0.223596
0.0513188
0.0433662
0.0413308
-0.084697
-0.00204282
0.176269
-0.174226
-0.0721842
0.192874
-0.12069
-0.773433
1.14684
0.718852
-1.03478
0.315924
-0.177964
-0.0833013
0.261265
-0.0162242
-1.91662
1.93284
0.84333
-0.621292
-0.222038
0.335177
-0.0873363
-0.199595
0.252008
-0.120921
-0.0631677
0.20934
0.356389
-0.902034
0.545645
-0.48463
-1.44193
-0.281276
0.938402
-0.657126
0.00941611
-0.113607
0.433063
-0.292014
-0.141049
0.139204
-0.511952
-0.576945
-0.326005
0.379762
-0.0537569
-0.557278
0.350419
-0.0950497
0.564973
0.141566
-0.133602
-1.37803
0.021229
-0.294266
0.571582
-0.0297749
-0.225241
-0.21917
0.0796417
0.267028
-0.316695
-0.0879274
-1.12565
0.352218
1.9171
-0.122794
-1.6444
2.1755
-1.05111
-1.12439
-0.1429
0.511645
-0.139721
-0.744862
0.524745
-0.536611
-0.267772
-0.02014
-0.573553
-0.49575
1.0693
-0.0599423
-0.113035
0.172977
0.0334624
-0.907384
-1.78846
-0.344163
-0.340841
0.685003
0.281204
-0.428194
-0.267421
-0.0415119
0.308933
0.501384
-0.0884849
0.199576
0.072103
1.9625
-1.02037
-0.98786
0.414307
-0.269529
-0.0539899
0.323519
-0.0486623
-0.000752913
-1.09953
-0.31012
-0.0721752
0.382295
-0.0983385
-0.0392656
0.913005
-1.21385
0.300844
-0.651692
-0.042033
1.82792
0.329002
-0.712214
1.15322
-2.03276
0.879541
-1.96399
1.21313
0.750868
0.178534
0.111948
-0.290482
0.158678
1.08797
0.0616137
0.827906
-0.88952
-0.0344167
-0.157853
0.12704
0.547795
-0.0446103
-0.343155
0.387765
1.2217
-1.44833
0.479348
-0.184942
0.228867
-0.0439248
-1.51923
-0.152095
-0.654338
-0.854276
0.272564
0.125768
0.00376944
-0.129537
-0.670057
0.347668
0.322389
-0.416619
0.370417
-1.10816
-0.598845
1.707
-0.125654
-0.1256
0.13477
0.469025
-0.528484
0.0594594
-0.84356
1.71221
-0.184938
-0.881521
0.417568
0.567708
0.276259
0.71586
-1.28643
0.0918774
-0.167342
0.0754647
1.30205
-0.178046
-1.03813
-0.364923
-0.0839948
0.448917
-0.0560451
0.231054
-0.055081
0.275107
-0.220026
-0.282941
-0.0663391
0.162233
0.689309
-0.392022
0.330745
-0.0706196
-0.419141
0.350717
-0.176611
0.0268494
0.149762
0.277473
-0.105271
-0.172201
-0.166365
-0.0431968
0.209562
-0.208976
-0.0328718
0.241848
0.0859821
-0.160346
-0.27115
-0.131393
0.111814
1.19797
0.358041
-0.152094
-0.205947
0.351052
-0.0615045
-0.289548
-0.182422
0.419467
-0.237045
-0.361364
0.291757
-0.694601
-0.0177257
0.388514
-0.0782559
0.199266
-0.0548698
-0.149767
-0.0399176
1.7877
-1.01927
0.751743
-0.951773
0.20003
-1.56405
0.273119
-0.0670859
-0.148105
0.215191
-0.0499997
-0.0460709
-0.821925
-1.14207
0.385231
-0.0631236
-0.762821
-0.861257
0.343807
-0.092499
0.0203041
0.448721
1.09121
-0.791413
-0.835205
1.32689
-1.59708
0.153434
0.395621
-0.145825
-0.249796
-0.119049
-0.200967
-0.410434
0.611402
0.166343
-0.0324359
-0.689682
-0.636731
1.32641
-0.920663
-0.981672
1.90233
0.588608
0.471923
-1.06053
-0.0145602
-0.2878
-0.0382049
-0.271133
-0.289075
-0.199912
-0.106249
0.306162
0.824733
0.333332
0.292783
0.14028
-0.252423
-0.638428
0.0473526
-0.0575776
-0.381331
1.28485
-0.903515
-0.156002
-0.244884
-1.61308
-0.0268652
0.022758
-0.552518
-0.127711
-0.263095
-0.81559
0.225677
-0.179367
-0.953881
-0.317308
1.27119
-0.28681
0.811555
0.514767
0.336126
-0.319958
-0.994187
-0.906719
-1.27922
1.31577
0.0876791
0.0733396
0.0334486
-0.0959708
0.0625222
-0.670165
0.607588
0.0625771
0.740803
-0.803388
0.298178
-0.276253
-1.13182
-0.114056
0.161949
-0.192884
0.0309346
0.603713
-0.0178377
-1.40917
-0.0125615
1.42173
0.0477677
0.115803
0.0531622
0.327748
-0.38091
-0.267912
0.438246
0.10544
0.0971434
0.0360949
-0.133238
-1.27774
0.846792
0.15646
0.0098831
-0.197993
-0.13777
-0.355646
-0.00189972
0.0243242
-0.138224
-0.328381
-0.0818589
-0.0493322
0.429132
1.49267
-0.731366
1.638
0.994339
0.491481
-0.836592
-0.0559682
-1.3532
0.652178
-0.348973
0.409877
-0.0609043
-0.0930751
-0.0240663
-0.00365346
0.0241875
-0.0631641
0.14491
-0.105258
1.51835
-1.41309
0.163974
-0.831657
-0.131047
-0.282083
-0.073296
-0.144506
-0.304258
0.383689
-0.0794313
0.0160202
-1.48567
1.46965
0.646224
0.198127
0.338912
-1.08284
-0.582102
1.00821
-0.426105
0.113093
0.0572213
-0.159052
-0.595267
0.525437
0.0698302
0.386088
-0.509876
0.123788
-0.200685
-0.553033
0.753718
-0.297207
-0.0639116
-1.94231
0.0953982
0.209007
-0.203879
0.0514772
0.186989
-0.030529
0.3729
-0.713741
2.16303
-0.927486
-1.23554
-0.00464761
0.465922
0.343445
-0.290282
0.246682
0.13308
-0.203602
-0.00906058
-0.395232
0.378987
-0.496548
0.785056
-0.985741
0.164402
-0.108342
-0.0560603
-0.390897
-1.73993
0.877007
0.862922
-1.71099
1.69477
-1.09367
0.5145
0.579166
-0.834346
0.00394871
0.830398
0.366236
0.654559
0.148183
0.214523
0.842682
0.751923
0.050474
-0.278557
-0.0134571
0.995044
1.16799
-0.252731
0.0153744
1.34114
-1.13387
-0.0533558
-1.40046
1.45382
1.11989
0.0780827
-0.313302
-0.0821702
-0.152085
0.0563776
-0.283214
-0.164669
-0.212778
0.177474
-1.06804
0.890568
-0.272371
2.23734
-1.40741
-0.829925
0.00795211
0.158501
0.0129421
0.694965
0.126962
1.61359
-1.46525
0.997053
-1.91772
-1.22459
-0.00196603
1.22655
-0.844163
0.261752
0.582411
0.237724
-0.143261
1.95057
0.0343448
-1.98492
-1.08069
1.61716
-0.536467
0.0531018
0.241759
-1.23191
0.727891
0.00405153
0.0783418
-1.35476
0.233528
0.00906763
-0.0304259
0.0213583
-0.155539
0.220116
-0.0645763
0.0714159
-0.448492
0.377076
0.604389
0.412872
-0.525245
-0.144812
0.0108419
0.870011
-0.908211
-0.0778839
-0.0723226
-0.276114
0.0576923
0.0896108
0.707485
-0.797096
0.0495023
0.528558
-0.578061
0.0729768
-0.483498
0.410521
-0.545765
-1.41645
0.57376
0.84269
-0.0310704
0.838354
0.285608
-1.12396
-0.629526
0.247273
-0.272146
0.0248732
0.190485
-0.0389454
-0.272326
0.00490543
-0.311041
-0.784576
0.133216
-0.442155
0.84834
-0.406184
-0.805722
-0.263862
1.89021
-0.835207
-0.10468
0.201064
-1.26789
-0.0327323
-1.28043
1.31316
0.116292
-0.0141139
-0.102178
0.768714
-0.506942
-0.261772
0.175949
-0.0244282
0.170638
-1.18431
0.378589
-0.686581
1.18578
-0.0690076
-0.357832
0.318762
0.25217
0.0253027
0.859135
-0.382721
0.0611208
0.679682
-0.94182
0.384537
-1.89716
0.915486
1.49133
-1.47531
-1.61713
1.51187
0.123249
-1.4345
0.229114
1.20538
0.593272
0.345129
0.0362587
-0.901
0.760063
-0.149578
-0.12806
0.277638
-1.13648
0.349871
0.786609
0.343394
0.572083
-0.915476
-0.035384
-1.24384
0.777846
0.0494409
-0.827286
0.263064
0.624052
-1.00499
0.0540056
-0.0158385
0.065069
1.59486
-1.5494
-0.146485
-0.996075
-0.420375
0.644618
-0.0138257
-1.21076
1.14899
-0.310634
-1.87128
0.0454498
-0.173278
-0.978515
0.354266
0.237757
1.86866
0.198434
0.0600821
-1.15962
0.156662
-0.12116
0.135954
-0.452064
0.332264
-0.602013
0.269749
-0.148851
0.00905107
0.1398
0.309767
-0.371336
-0.0312905
-0.254544
-1.13073
1.18159
-0.0508656
-0.730292
0.797125
-1.37359
0.576461
-0.834375
-0.0688842
0.115724
-1.49188
0.118888
1.37299
-0.39192
0.95626
-0.677627
0.711089
0.158523
0.936663
0.64695
-0.981101
-0.827531
-0.199425
1.02696
-0.819634
-1.2407
0.551017
-0.138768
0.142537
-0.00376932
0.0796539
-0.104388
0.7848
-1.44091
0.0398441
-0.548863
0.509018
-0.327124
0.247074
0.0800495
-1.01649
0.463452
0.0411614
0.0279353
-0.250869
0.435662
1.8238
0.126772
-0.780814
0.842428
-0.295459
0.0974659
-0.821377
1.46506
-0.643682
-0.0868251
0.0717444
0.086988
0.394485
-0.0212534
0.885797
1.20831
0.531292
-0.924897
0.337258
-1.79696
-0.187827
0.147022
0.0374049
-1.06283
-0.269701
-0.944148
-0.232685
0.0591247
0.820538
-0.384876
-0.68193
-0.0572808
0.746589
0.20475
-1.76427
0.362555
1.40172
-0.0543502
0.492596
0.36902
-1.35352
-0.271762
0.78504
-0.350513
-0.434528
0.915816
-0.313364
-0.602452
-0.198666
0.0431426
0.686368
-0.666457
-0.0199108
-1.70029
0.772598
0.927693
0.959015
0.759474
0.00081976
0.124948
0.814588
-0.522831
-1.47685
0.585185
0.891669
-1.86195
1.61713
0.54753
0.79488
-1.34241
0.854669
-0.746705
1.70851
-0.759098
-0.949413
-1.09723
0.203996
-0.0928379
0.0658716
-0.105437
0.217699
-0.052878
0.145028
-0.09215
-0.28712
-0.206708
-1.30342
-0.227799
0.0764292
-0.12104
-0.0384197
-0.0328058
1.04702
-0.370402
-0.676618
0.823524
-0.475856
-0.155381
0.14031
-0.0849557
1.24188
0.129934
-0.0136414
-0.24975
-0.766736
-1.49971
0.545828
-0.0593476
-0.109797
0.13132
0.0615362
0.13301
-0.0995615
-0.517211
-1.02139
0.121762
-0.0940931
-0.027669
0.20522
-0.605716
-0.912135
1.51785
0.16845
0.0185387
0.00833592
1.02562
0.978732
-2.00435
-0.503537
1.09215
0.237732
-0.0949028
0.417494
-1.04371
-0.623568
1.66728
-0.951549
-1.03642
0.540672
0.297916
-0.113984
-0.183932
0.276727
-0.778217
-0.206386
1.21544
-0.418316
-0.200477
0.116507
-0.271075
-0.763701
0.0315939
1.89804
-1.69416
-0.203883
-0.89461
-0.605099
0.19445
0.187857
0.0703876
-1.0338
-0.26134
1.29514
0.275291
0.453315
-0.0672273
-1.61271
-2.0112
0.794662
1.21654
-0.184454
-0.00561775
0.190071
0.986541
-0.588679
-0.397862
0.123716
-0.186881
0.0868262
0.0941908
0.90602
-2.01418
0.80556
0.110256
-0.390674
-0.597186
-0.144189
0.0311543
0.169644
0.748366
-1.35408
0.0199094
0.394503
-0.457717
0.255065
-0.136035
-0.0350213
0.171056
0.7221
0.986411
0.537221
0.051653
0.279136
-0.459668
0.180531
1.98168
-1.61912
0.231182
-0.565281
0.161858
0.0286262
0.142376
0.0239328
0.152909
0.00424074
-0.143008
0.611778
0.0499736
-1.69659
-0.0230738
-0.16138
-0.0829133
-0.0130575
1.05635
-0.541584
0.891415
-0.583712
-0.307703
0.00453103
0.122317
0.00289462
0.00617301
0.401036
-0.0714498
0.14005
-0.374436
-0.299778
-2.00051
0.898163
1.10234
0.110688
0.00334534
-0.034383
0.1162
0.136521
-0.281948
-0.317251
0.422166
-1.46588
-0.115686
-0.954215
1.97983
0.625654
-0.153737
-0.471916
-0.788927
-0.423724
-0.140304
0.10227
-1.13269
0.431008
-0.723504
0.292496
-0.326734
0.281273
0.0454613
-0.0636704
1.12218
0.966592
-1.63893
1.61912
-1.44963
0.845918
0.603707
1.02346
-1.97768
2.05333
-1.07856
-1.00675
-0.954219
-0.145092
0.625787
-0.128168
-0.351836
-1.52691
0.0924192
-0.0244265
-1.30826
1.24268
-2.02199
0.779312
-0.0582617
0.263557
-0.541076
0.659691
-0.308678
0.880015
1.35732
-1.48865
0.667271
-0.108395
-0.843154
-1.35115
0.304388
-0.0231155
1.71099
-1.80353
-0.0880754
-1.3249
0.0425538
0.811883
-0.24726
-1.46927
1.65015
-0.180878
0.30411
1.62873
0.462155
-0.0626168
-0.399538
1.90072
-0.903666
0.253411
0.150069
0.633789
-0.750093
0.109072
0.143098
0.0883061
0.861565
-0.949871
-0.732595
-0.432032
1.05495
-1.05927
0.00432697
-0.381658
0.309482
-1.63416
0.871075
0.763083
0.624268
0.144446
-0.741275
0.128846
0.856226
-0.579967
0.314272
-0.585405
0.182922
-0.237792
-0.667414
0.466447
-0.994445
-0.91512
1.90956
0.271745
-0.304617
0.300244
-0.369485
1.03332
-0.615752
0.0793788
0.990295
-1.72166
0.114858
0.254797
0.251873
-1.20923
-0.00600933
0.693222
0.0952064
0.116879
-0.60805
-1.37493
0.539725
0.139884
-0.495591
0.355708
0.0736383
-0.335504
1.07307
1.10243
1.28837
-0.987523
-0.0452741
0.159087
0.173609
0.477398
0.303412
-0.369751
-0.727777
-0.952989
1.97645
0.166757
-0.197827
-0.812879
-1.05375
1.86663
-1.57934
0.498654
-0.0772901
-0.434716
0.197671
-1.4167
-0.0978364
-0.223014
0.654022
-1.06401
-0.936495
1.89804
0.68304
-1.36127
1.07029
-0.657419
-0.270178
-0.387945
0.349741
-0.275159
0.239654
-1.66007
0.251335
-0.833437
1.02436
-1.97735
-0.812132
0.29819
-0.375727
-0.0283606
-1.44091
0.848402
-0.622725
1.37675
0.920941
-1.68908
0.768142
1.73009
-0.95749
1.97771
-0.949923
-0.986633
1.93656
0.431461
1.29215
-1.01686
-0.791476
-1.21972
-0.908862
-0.540763
0.471433
-0.72639
1.67314
-0.946751
-0.133351
1.37278
-1.23942
-1.00772
-0.954892
1.96261
0.894084
0.160863
0.289343
0.394143
-1.00272
0.158904
0.843816
0.0534896
-0.305472
0.497794
-1.3924
-0.832093
-0.408354
-0.261812
0.268195
-0.395906
-0.840341
1.11742
-1.96063
0.955584
1.00504
-0.0554426
-1.62974
1.68519
0.112466
-0.285924
0.0841702
0.565765
-1.84564
1.84564
-0.0606727
-0.00501073
0.0656834
-0.590092
1.10501
0.298379
0.00600956
-0.822706
-0.678406
1.01174
-1.63893
-0.0571267
-1.28729
0.322883
1.2711
-1.22928
-1.21009
0.176287
0.282236
-0.367268
0.0850323
0.166068
0.5203
-0.162773
0.0139225
-0.954135
-1.16076
0.136328
1.02443
-1.39946
-0.067484
-0.370064
-1.00352
-0.0454762
0.14262
0.177644
-0.146401
0.393083
-0.137431
0.0555718
0.384625
-0.3006
-0.366814
-0.748642
1.57066
-0.822016
0.357352
0.214942
-0.214234
0.425525
-0.211292
-0.39707
0.204226
0.44388
-0.578229
0.134349
-0.900393
1.49229
-0.944757
-1.46433
-1.65835
0.172677
-1.08691
0.0574449
0.98269
1.24156
0.0372068
-1.01572
1.11396
-0.391338
-0.39085
0.321843
0.650089
0.613176
0.241493
1.97189
-0.947531
-1.00137
-0.905884
1.90725
1.15148
-0.0215084
-1.12997
-0.210213
0.148709
-0.215773
0.196248
0.13573
1.34124
-1.47697
-1.48351
1.47531
0.00819999
1.48351
-1.51187
0.23046
-0.288722
-0.492543
1.1166
0.0956536
-0.187586
0.0272401
-1.67085
0.12705
1.73347
-0.812528
-0.436978
-0.10903
0.135879
-0.455395
1.06519
0.277077
-0.0874874
0.701635
-0.631805
0.193177
-0.260847
-0.601015
-0.0659055
0.220045
-2.04942
0.498011
-0.0745174
0.457307
-0.38279
-1.07173
-0.950258
0.0922067
0.458235
0.625104
-0.889471
0.108658
-0.118321
-0.365177
0.111192
-1.99383
0.98708
0.103904
-0.0833506
-0.233344
-0.0360538
-0.10217
0.068574
-1.38593
0.851021
-1.55894
0.707924
0.0656384
0.266949
-0.332587
-0.656127
0.453377
-1.01552
1.33841
0.559054
0.533091
1.35717
-1.35352
0.202136
0.0457964
1.66829
-1.87433
0.206037
-0.31823
-0.210254
-0.842626
0.0153399
0.391689
-0.475684
-0.196082
0.275724
-0.903463
-0.193429
-0.0196285
0.213058
-1.48668
0.238491
1.24819
-0.222228
0.269996
-0.0414916
-0.176771
0.218263
1.17295
-1.18677
0.22462
-0.215569
0.652959
0.189777
0.23423
-0.203295
-0.191846
0.0782389
0.240625
0.632412
-0.873037
-0.457241
0.0087492
-0.955747
-1.03773
1.99347
0.192611
-0.734826
0.934856
-0.789062
1.69477
-0.20628
0.0872314
0.0671441
0.0547975
0.0267947
1.9901
-0.995056
-1.23082
0.825524
-0.574189
-0.52444
1.41611
-0.192201
0.120751
0.0929052
-0.0951043
-0.569768
0.36382
-0.319311
0.213061
-0.152431
-0.453443
0.307042
1.04925
0.168921
-0.204975
0.264813
-0.0271822
0.0434017
-0.446582
0.233803
0.507352
-0.807952
0.226724
-0.260728
0.0340046
0.171054
-0.185168
0.353291
0.757873
-1.11116
-0.274501
0.146441
0.36696
-0.653771
1.31049
-0.772426
0.988697
0.872715
0.0503684
0.566051
-1.01509
0.368773
-0.457258
-0.249201
1.02356
0.93894
-1.6107
1.6107
1.59318
-0.883924
1.11404
-0.0314561
1.5104
-1.47895
0.912247
1.0322
0.926683
-1.92113
0.0902434
-1.07598
-1.35095
-0.21131
-1.48396
1.69528
-0.427306
-0.129972
0.0847134
0.729466
0.192931
-0.298203
-0.967207
1.79978
-0.832569
-0.186802
0.295874
-0.00325939
0.312332
0.511597
2.18063
-0.814494
-1.36614
1.58767
-1.46878
1.10461
0.204975
0.152177
-0.00645959
-0.0114659
1.55129
0.560436
1.02171
0.859974
0.0240843
0.213616
-0.2377
-0.3768
0.23903
0.197249
-0.211485
0.0142362
0.176089
-0.238432
0.062343
0.459061
-0.448219
0.352696
-0.508697
-0.143376
0.497792
0.038917
0.0938656
-0.0124122
-0.375915
0.473962
-0.098047
0.114585
-0.108029
-0.0065555
1.80353
-1.46014
-0.436609
0.197703
0.238906
-1.59486
-0.361859
0.283603
-0.989553
1.9018
0.276913
-0.350209
1.93343
-1.00675
0.264189
-0.334809
-0.174612
-0.668868
-1.31581
-0.122005
1.54816
1.30481
-1.05294
-0.109353
0.17268
-0.0540159
-1.48688
-0.314604
0.310628
0.262357
-0.393403
-0.386125
0.306694
-0.104682
-1.35211
1.29876
-1.47835
1.46602
-1.18376
-0.505679
0.449042
0.688237
0.406327
-0.419784
-0.0776688
0.069143
0.368574
-0.437717
-0.426594
1.42373
-0.98982
-0.971233
-1.93549
-0.0968639
0.0928475
0.0040164
-0.00984478
1.43696
-1.42711
0.842173
-0.708957
0.340874
-0.401779
1.639
-0.909534
0.867361
0.855645