/*--------------------------------*- C++ -*----------------------------------*\
| =========                 |                                                 |
| \\      /  F ield         | OpenFOAM: The Open Source CFD Toolbox           |
|  \\    /   O peration     | Version:  2306                                  |
|   \\  /    A nd           | Website:  www.openfoam.com                      |
|    \\/     M anipulation  |                                                 |
\*---------------------------------------------------------------------------*/
FoamFile
{
    version     2.0;
    format      ascii;
    arch        "LSB;label=32;scalar=64";
    class       volVectorField;
    location    "1.7";
    object      U;
}
// * * * * * * * * * * * * * * * * * * * * * * * * * * * * * * * * * * * * * //

dimensions      [0 1 -1 0 0 0 0];

internalField   nonuniform List<vector> 
5098
(
(2.59085 0.596333 0)
(2.18093 0.2473 -2.5297e-20)
(2.10902 0.0126801 -2.60878e-21)
(1.67753 -0.751199 6.39373e-19)
(1.8636 -0.265949 0)
(1.02112 -0.494715 0)
(2.30996 0.0218808 -2.71898e-20)
(2.12751 -0.127946 7.46248e-22)
(2.11012 -0.00220506 -5.44569e-20)
(3.14348 0.42215 -1.66278e-19)
(1.49453 -0.76259 0)
(2.29868 0.0713351 1.35142e-19)
(2.74107 -0.316103 -1.41334e-21)
(1.07023 -0.525072 0)
(1.88538 -0.0366708 4.40809e-20)
(2.00547 0.0582345 -9.70126e-22)
(1.39087 -0.766752 -1.17943e-19)
(1.60308 -0.778516 0)
(-0.658231 0.285271 6.15852e-19)
(1.3288 -0.718931 1.33104e-19)
(1.90299 0.369119 -6.02285e-20)
(1.99251 -0.033512 6.03579e-22)
(2.25815 -0.854793 0)
(0.949836 -0.0649882 2.5848e-20)
(0.895087 -0.43792 0)
(1.61437 -0.664306 0)
(1.98596 0.0978408 9.39873e-20)
(1.99213 -0.838535 1.61477e-19)
(-0.284845 0.0625325 -1.86754e-18)
(1.98176 -0.863061 0)
(2.4183 0.0187837 -8.09608e-20)
(0.840206 -0.413618 0)
(1.96728 -0.0933195 -1.13681e-19)
(1.35084 -0.81981 0)
(2.31445 0.041387 -4.69322e-20)
(2.70673 -0.518375 8.76617e-19)
(2.00424 -0.487171 1.20212e-19)
(2.13332 -0.0611334 -7.56331e-21)
(1.48771 -0.521038 4.74667e-19)
(1.6162 -0.74472 0)
(1.69738 -0.769141 -2.99983e-19)
(1.73935 -0.781287 -1.86336e-19)
(1.62927 -0.669386 0)
(2.24144 0.261076 6.0224e-20)
(2.38052 0.328472 5.50922e-20)
(2.16641 0.134623 4.26944e-21)
(1.45179 -0.782761 4.1474e-20)
(1.24232 -0.452963 0)
(2.45941 -0.055949 0)
(1.67433 -0.716143 6.81716e-20)
(2.22302 0.0910793 2.17526e-20)
(1.64755 0.311493 -3.77966e-19)
(0.866211 -0.434098 1.45909e-21)
(1.9813 -0.126047 1.41795e-19)
(1.08564 -0.541812 -2.87782e-19)
(1.65587 -0.0302287 0)
(1.79133 0.269926 -1.96898e-19)
(1.77712 -0.729924 0)
(0.993526 -0.493911 0)
(2.02633 -0.00744979 -9.39338e-21)
(1.93054 0.242662 -1.58584e-20)
(0.857793 -0.440214 -1.34087e-19)
(2.36306 0.183851 0)
(2.73827 -0.297162 0)
(0.912334 -0.454502 3.00379e-19)
(0.931052 -0.469346 3.63664e-19)
(1.96795 -0.0193759 6.82893e-21)
(2.07283 -0.0419193 7.56755e-22)
(2.15488 -0.244034 1.46631e-19)
(1.81452 -0.758617 1.9742e-19)
(1.85968 0.128698 1.70081e-20)
(1.47013 0.332941 -5.415e-21)
(2.07469 -0.855049 0)
(1.05373 -0.98271 0)
(1.97313 0.0648208 9.46161e-21)
(1.28294 -0.626118 -3.27284e-19)
(1.93534 0.0521487 0)
(1.63746 0.100084 3.60393e-19)
(2.46779 0.259869 2.87024e-20)
(1.7223 0.0884653 0)
(1.80426 0.0586434 0)
(2.07154 -0.777908 1.52284e-19)
(1.78057 -0.350998 4.33313e-19)
(1.34047 -0.752596 -2.05165e-20)
(1.60603 -0.759398 6.78625e-20)
(1.7887 -0.783044 8.76723e-20)
(0.21712 0.147465 -2.43493e-19)
(1.96822 0.112058 5.26368e-21)
(2.1809 -0.0534553 1.78121e-20)
(1.89136 0.0927262 -1.8258e-20)
(2.33592 -0.221015 -5.92386e-21)
(-0.859133 -0.0660609 5.19853e-19)
(2.13821 0.0407282 -1.56933e-19)
(1.69223 -0.733834 -3.40848e-19)
(1.47375 -0.550426 8.38573e-20)
(1.35441 0.750153 6.66921e-20)
(1.21247 -0.603583 -2.707e-19)
(1.56426 0.151778 2.64765e-19)
(2.00675 -0.0203384 6.30192e-21)
(2.1594 -0.505395 -9.51175e-20)
(1.66651 -0.458913 -4.02791e-20)
(1.15018 -0.565128 -3.41065e-19)
(0.353715 -0.525675 -8.97455e-20)
(2.0372 0.059088 -1.5524e-20)
(1.58281 0.0820373 -4.096e-19)
(2.4394 0.832042 0)
(1.94622 0.218822 2.07076e-19)
(2.24509 -0.0106161 -1.33902e-20)
(1.1967 -0.503951 6.58518e-20)
(1.52577 -0.785368 0)
(1.20485 -0.578343 -7.30115e-19)
(2.62861 0.674606 8.97276e-19)
(1.91718 -0.0763432 -2.07481e-19)
(-0.107148 -0.556713 5.67243e-20)
(1.87591 0.470548 8.42256e-20)
(-1.63288 1.48908 0)
(2.02616 -0.763613 2.6933e-19)
(2.7645 1.03647 0)
(2.00876 0.0583612 7.49448e-21)
(0.980805 -0.105094 -3.96057e-19)
(1.70511 0.340576 3.10388e-19)
(1.67548 1.66374 -8.80467e-20)
(2.95543 0.400964 1.03398e-19)
(1.6713 -0.929016 -1.47293e-19)
(-0.675058 -0.681839 -9.02825e-19)
(0.855034 -0.449081 1.54011e-20)
(2.13583 -0.034136 1.13493e-19)
(2.24163 -0.818141 -1.69169e-19)
(1.47973 -0.220922 -9.94337e-20)
(-0.108646 -0.666176 -1.41948e-19)
(1.65115 -0.777536 -1.37708e-19)
(1.28549 -0.584594 -4.81763e-19)
(1.30831 -0.582783 4.02925e-19)
(2.68201 1.12492 -1.43402e-19)
(1.55655 -0.420123 -1.26731e-19)
(2.01758 -0.338375 1.37971e-19)
(2.12731 2.16888 5.16076e-19)
(1.98887 0.246894 1.33871e-19)
(0.995541 -0.488663 0)
(2.04392 -0.0695991 -4.61576e-19)
(1.64734 0.395916 -2.53206e-19)
(1.6244 -0.37842 9.36497e-20)
(1.94763 -0.88029 3.0208e-19)
(2.25299 -0.00445266 -1.17965e-20)
(2.08679 -0.0226845 -2.75275e-20)
(2.07107 0.0531773 0)
(2.13561 -0.280767 1.52228e-19)
(1.72728 -0.197029 0)
(2.13882 -0.0312831 1.63491e-19)
(1.87714 -0.856255 1.07579e-19)
(1.82418 -0.684931 -9.62751e-20)
(3.86393 -0.442195 0)
(1.80315 -0.260458 4.14119e-20)
(2.03487 0.0927503 0)
(0.209799 0.0629443 -3.02672e-19)
(0.983892 -0.403035 -1.63399e-19)
(1.77404 -0.71963 -3.54849e-19)
(1.66985 -0.415687 -2.93431e-20)
(1.66627 -0.773719 -2.46034e-19)
(-0.119914 -0.145643 2.06039e-18)
(2.07465 -0.461054 -3.28175e-19)
(1.90486 -0.0353601 -6.37621e-20)
(3.98404 -0.183682 -7.01255e-19)
(1.86754 -0.229132 -2.68009e-19)
(1.58393 -0.776986 -6.874e-20)
(2.4225 0.0540972 -7.62365e-20)
(1.75121 -0.261414 -1.28878e-19)
(2.53682 -0.572332 0)
(1.17781 -0.577144 9.35234e-20)
(1.81517 -0.609034 -3.88157e-19)
(1.45583 0.626921 -4.83349e-20)
(1.68003 -0.691176 -2.32346e-19)
(2.2307 0.338773 4.93655e-20)
(1.98952 -0.809566 2.86694e-19)
(2.26648 0.069146 0)
(2.02916 -0.0231449 0)
(1.79257 -0.326827 -1.67033e-19)
(2.69408 -0.471819 -3.86712e-20)
(1.81535 -0.201718 3.68919e-19)
(0.411299 -0.00628121 0)
(2.07465 2.38614 0)
(2.06818 -0.671623 -2.35015e-19)
(1.87521 -0.586414 4.73674e-19)
(1.56926 -0.777682 0)
(1.83578 -0.250517 0)
(2.64481 0.457018 5.39431e-19)
(1.55761 0.191055 0)
(2.01763 -0.497011 4.11851e-19)
(1.12693 -0.550002 6.34459e-19)
(1.22687 -1.54284 -1.05364e-19)
(3.14092 0.832383 0)
(2.1329 -0.384023 -9.28096e-20)
(2.09456 -0.869489 0)
(1.97201 0.119288 1.54411e-20)
(2.42596 0.0698231 8.19718e-21)
(-0.428529 -0.268437 -3.64712e-19)
(2.25976 -0.758093 1.76809e-19)
(1.9901 -0.354502 0)
(2.01598 -0.0191691 -7.17205e-21)
(1.83161 -0.586055 -7.01726e-20)
(1.674 -0.771603 -2.51303e-19)
(1.67049 0.314235 4.72514e-21)
(2.39688 0.437918 9.63752e-21)
(2.13011 0.00360657 3.52712e-21)
(1.86021 -0.0426347 1.72803e-19)
(0.950006 -0.406762 -1.16753e-19)
(2.11305 -0.0476422 -1.29926e-20)
(1.34331 -0.62522 0)
(2.39379 -0.060811 0)
(1.47794 -0.712576 -3.0347e-19)
(2.01431 -0.121688 -1.34569e-19)
(1.69324 0.252925 2.4903e-19)
(2.61527 -0.188846 8.84015e-20)
(2.09761 0.11594 -9.84459e-20)
(2.05638 0.0360733 -1.06595e-19)
(1.64745 0.268805 -4.80276e-19)
(1.8901 -0.00717786 0)
(1.54342 -0.77902 -1.33642e-19)
(-0.844088 -0.492564 1.26143e-19)
(2.01621 -0.0219836 8.91967e-20)
(2.36388 -0.173873 -2.13392e-20)
(1.67411 -0.394803 0)
(1.95424 -0.0699821 1.18659e-20)
(2.3752 -0.256679 1.12557e-19)
(0.274034 -0.356502 4.53474e-20)
(2.11178 -0.196345 0)
(0.535685 -0.167072 0)
(2.03366 -0.0424431 0)
(2.12127 -0.519631 0)
(2.01686 -0.787921 -2.803e-21)
(1.82573 0.339387 0)
(0.746306 -0.329813 -4.31495e-19)
(2.17828 -0.712344 -1.81952e-19)
(1.94627 0.00673535 3.26577e-21)
(2.30179 0.0105532 -5.96087e-20)
(2.1278 0.0173665 0)
(1.57596 1.26236 -1.36276e-19)
(1.48799 -0.963929 -3.49197e-19)
(2.29597 -0.361151 0)
(1.84488 -0.0393403 2.67528e-19)
(1.99372 -0.86858 -4.98835e-19)
(2.21451 0.353287 0)
(1.98289 0.0726505 0)
(1.182 -0.322429 7.11765e-19)
(1.85026 0.343976 -3.07104e-19)
(2.28659 -0.0422727 -1.42598e-19)
(1.19938 -0.575298 7.73437e-20)
(1.53545 -0.772843 -1.03269e-19)
(1.48506 -0.817417 0)
(2.26485 -0.0869003 4.35667e-20)
(2.20476 0.561726 -2.20393e-20)
(2.00648 -0.839306 2.93267e-19)
(-1.70534 1.4923 1.20806e-18)
(1.56777 -0.840183 1.49759e-19)
(1.97354 0.0433787 -1.8645e-19)
(1.45174 -1.03803 3.27396e-19)
(1.54439 -0.342223 1.0965e-19)
(2.3569 -1.05537 5.44792e-19)
(1.27144 -0.470937 -2.9693e-19)
(1.98494 -0.0772096 1.19703e-21)
(2.57062 0.340989 7.44894e-20)
(0.884683 -0.498887 1.40707e-19)
(0.828109 -0.390862 1.46309e-19)
(2.03685 -0.87446 0)
(2.13706 0.0464722 -2.39452e-21)
(1.26571 -0.6437 4.73257e-20)
(0.0401805 -0.124802 -2.43736e-18)
(1.51345 -0.737928 0)
(1.59656 1.03723 0)
(1.87572 -0.0686068 -2.45846e-20)
(1.21835 -1.38894 1.31187e-19)
(1.96276 0.0270902 2.6346e-20)
(0.106943 -0.139246 -1.08112e-18)
(1.85066 0.921057 0)
(1.28903 -0.535946 2.44054e-21)
(0.713919 -0.661323 -5.48267e-20)
(1.74113 -0.758724 -1.75023e-19)
(1.84962 -0.610272 0)
(2.42336 -0.744312 0)
(2.00085 -0.182656 0)
(1.67979 -0.769607 -8.5349e-20)
(2.11717 -0.113019 7.90779e-20)
(0.500405 -0.524396 -1.86153e-19)
(2.09959 0.0400553 -8.78749e-20)
(2.42341 -0.625261 -8.79651e-20)
(1.26412 -0.937541 0)
(1.97758 -0.00677002 0)
(2.0266 0.0656092 -3.87273e-20)
(2.41158 0.054767 6.15987e-20)
(2.01976 0.0113753 -2.07185e-19)
(1.7239 -0.927466 0)
(1.18806 -1.71969 1.07515e-18)
(1.22271 -0.137891 -2.07604e-19)
(2.39197 0.281625 4.41057e-20)
(2.09049 -0.660831 3.06459e-19)
(3.25818 0.22653 2.31561e-19)
(2.52445 -0.0534577 0)
(2.46561 -0.0826171 -6.75226e-20)
(2.03272 0.00509725 0)
(1.96752 -0.0321689 -1.12281e-19)
(2.07331 0.0657485 3.03949e-20)
(2.40018 -0.0204836 8.24895e-20)
(1.70237 -0.482155 4.56506e-19)
(1.92797 0.346978 1.67786e-19)
(1.12139 -0.575787 -7.52659e-20)
(1.91696 -0.778513 -1.85139e-19)
(2.70792 1.6214 -1.666e-19)
(2.07417 -0.0259194 0)
(1.93678 -0.483678 0)
(1.49125 -0.797728 0)
(2.29374 -0.165137 2.90223e-20)
(-1.14838 0.940478 1.31785e-19)
(0.939463 -0.465429 3.77458e-19)
(1.9762 0.0257912 -1.5733e-20)
(2.77357 -0.298349 -5.30833e-22)
(0.282725 -0.0133342 5.95128e-19)
(1.98391 2.12242 -5.86613e-20)
(1.987 -0.0232053 -9.64557e-21)
(2.1268 -0.113181 4.06926e-19)
(1.03193 -0.453147 0)
(2.44157 0.278368 -4.3368e-20)
(0.809304 -0.993733 -2.63196e-18)
(2.38081 -0.163027 -2.70482e-19)
(-1.87946 0.401165 5.35382e-20)
(1.91084 0.13845 7.82265e-22)
(1.46511 -0.493236 3.20822e-19)
(2.17367 0.547463 0)
(1.93853 0.0749341 -6.94873e-20)
(1.20384 -0.507683 -6.9545e-19)
(2.01708 0.0247154 -7.06395e-21)
(1.45119 -0.697681 0)
(2.2602 -0.0603547 -1.18635e-19)
(1.16055 -0.561891 2.15133e-19)
(2.46577 -0.741705 -5.51749e-20)
(1.84101 -0.766132 -2.66158e-19)
(2.11045 0.0877886 -2.59831e-20)
(2.53512 -0.220497 8.93485e-21)
(1.07881 -0.532985 4.14127e-19)
(2.28835 0.0150113 1.82063e-19)
(1.97064 -0.439889 0)
(1.96029 -0.886426 -2.85798e-19)
(1.79626 -0.761504 -8.07076e-19)
(2.52221 0.217678 1.18729e-20)
(1.95235 0.100527 3.04301e-20)
(3.22681 1.53927 0)
(1.94551 -0.0452429 0)
(2.11102 0.0127564 -1.40649e-19)
(1.51854 0.700511 4.93157e-19)
(2.81403 0.949303 0)
(2.47242 -0.0192119 1.10732e-19)
(1.79831 -0.794575 -3.87076e-21)
(1.08991 0.214428 -5.19021e-19)
(1.01824 -0.451907 -3.75593e-19)
(1.68787 -0.775939 9.16597e-20)
(1.85711 0.0740799 1.18167e-20)
(1.68921 -0.779387 3.18391e-19)
(1.97121 -0.363185 -1.116e-19)
(2.32649 -0.072122 0)
(1.51743 -0.19732 -8.54499e-20)
(1.57879 0.245575 0)
(1.88408 0.156299 -3.33725e-19)
(2.14028 -0.455404 0)
(2.24078 -0.104949 -1.1818e-19)
(1.97047 0.0583034 -1.1006e-20)
(2.25276 0.208749 -5.02014e-20)
(1.2644 -0.511813 3.917e-19)
(1.94508 0.134024 -2.778e-19)
(2.17141 0.599165 -3.08451e-19)
(2.23102 -0.948548 0)
(1.47202 -1.08017 0)
(1.33547 -0.551889 -3.84581e-19)
(2.22278 0.272349 0)
(3.1193 -0.222833 -7.43207e-19)
(1.93339 0.18476 0)
(1.4222 0.277021 7.2537e-21)
(1.04515 -0.535604 1.18467e-19)
(1.85846 -0.612785 5.64574e-19)
(1.5024 -0.629335 5.03143e-20)
(2.50483 -0.538274 0)
(1.9868 0.0941353 5.93928e-21)
(1.92112 0.00992714 -1.85805e-19)
(0.920694 -0.489691 -1.74586e-20)
(1.96092 0.0627407 -1.62168e-19)
(2.4377 -0.111572 -4.89762e-20)
(2.21176 0.0978686 -3.59196e-20)
(3.19283 0.364315 3.65394e-19)
(2.31379 0.0724002 -8.23394e-20)
(1.48372 -0.940285 -6.751e-20)
(1.79921 -0.564167 0)
(0.490274 -0.599716 8.16408e-20)
(1.99864 0.0417001 -1.21737e-19)
(2.56119 0.111973 0)
(2.04249 0.0338521 1.0238e-19)
(1.28505 -0.618152 -2.74292e-19)
(1.73437 1.05016 1.13832e-19)
(2.45321 -0.918721 0)
(1.52763 -0.722545 1.0102e-19)
(2.62875 -1.6031 0)
(2.08033 -0.00508456 2.23472e-20)
(1.89826 -0.0235775 -5.94589e-20)
(3.24299 -0.154761 1.96605e-18)
(1.18823 -0.169042 0)
(1.64239 0.20584 1.81455e-19)
(1.89276 0.031779 1.05728e-19)
(-1.23822 1.28381 0)
(1.88239 0.018696 0)
(2.08441 -0.22529 0)
(0.209596 -0.101564 1.57018e-19)
(1.52191 -0.298994 3.12533e-20)
(2.20618 -0.113666 0)
(1.96935 0.0609746 0)
(1.49395 -0.0495825 3.73827e-20)
(1.20928 -0.80741 0)
(2.25886 0.229697 -9.75224e-21)
(2.94697 0.764782 2.02569e-19)
(2.0263 0.0207912 6.89377e-21)
(1.94138 0.318634 -3.56558e-21)
(1.09743 0.280899 5.9663e-19)
(3.05549 0.955771 -2.20895e-19)
(2.46171 -0.0897591 4.75997e-21)
(2.03138 0.0253487 1.23293e-19)
(1.67337 -0.239085 -2.05063e-19)
(1.99419 0.314736 2.61742e-21)
(2.05439 -0.013318 0)
(1.68293 -0.776142 -3.1034e-19)
(-0.813028 -0.145711 0)
(0.732075 -0.852541 -3.49749e-19)
(1.71537 -0.12877 0)
(2.18296 0.341725 0)
(1.46516 -0.699858 -2.17437e-19)
(1.97561 -0.0602165 -6.91566e-21)
(-0.271629 -0.186777 -2.13284e-18)
(2.08056 -0.00838999 9.19589e-21)
(1.92103 -0.750394 2.99338e-19)
(3.06231 0.617902 2.28857e-19)
(-1.60914 0.168847 1.89193e-18)
(2.14713 0.0685356 1.80434e-20)
(2.21941 -0.873374 9.64039e-20)
(1.98821 0.049944 -1.77244e-19)
(2.3996 -1.09427 0)
(1.81229 -0.157192 -3.83561e-19)
(1.91215 -0.508507 3.11737e-19)
(2.0172 0.059781 -4.22123e-19)
(1.2006 -0.677273 -1.03184e-19)
(1.65944 1.06104 -1.1672e-19)
(2.92984 0.861737 3.13737e-19)
(2.19326 -0.460909 0)
(1.91502 -0.0300145 0)
(2.34491 0.584977 -7.98466e-19)
(2.05491 -0.109154 7.60104e-20)
(1.48818 -0.794144 0)
(2.21047 -0.0179017 -1.01619e-19)
(2.0046 -0.0846251 -2.21099e-19)
(1.38182 -0.79805 -6.24812e-20)
(1.4942 -0.793839 2.30058e-19)
(2.17391 0.115656 2.97009e-22)
(1.734 -0.787828 2.72144e-21)
(2.52058 -0.254553 -1.85349e-19)
(2.05443 -0.497849 2.1301e-19)
(3.34704 0.369286 7.96795e-19)
(1.64191 -0.685814 2.95034e-19)
(2.00276 0.0450083 -6.64441e-22)
(1.16191 0.135233 4.28301e-19)
(2.14446 2.10338 0)
(1.80825 -0.538099 1.8389e-19)
(1.56937 -0.772843 0)
(0.311285 -0.722336 -6.35474e-19)
(1.80029 -0.782341 0)
(0.815124 -0.40048 -2.9558e-19)
(1.74119 -0.743615 -4.10701e-19)
(3.49463 0.562937 -3.81567e-19)
(2.2679 -0.923384 0)
(1.18739 -0.637303 0)
(2.18008 -0.330314 0)
(1.99851 0.1789 7.66476e-20)
(2.51647 -1.30926 -8.43569e-19)
(1.0358 0.14298 1.4333e-18)
(1.63472 -0.383925 -6.95164e-21)
(3.44668 0.223835 -8.90199e-19)
(1.99357 0.228296 0)
(1.29473 1.68146 2.27319e-19)
(2.52004 0.994568 1.44966e-19)
(2.46714 -1.86331 -2.49544e-19)
(1.75648 -0.814322 2.31813e-19)
(2.25463 0.29504 3.61715e-21)
(1.31918 -0.637569 4.55049e-19)
(2.25198 0.27946 0)
(1.9405 -0.0406585 6.11446e-20)
(2.21481 -0.644211 -7.22629e-19)
(2.02772 -0.185189 2.38874e-20)
(3.22628 -0.0449388 -4.21692e-19)
(1.70041 -0.209581 0)
(2.5358 0.438366 0)
(2.29762 -1.04222 0)
(-1.21249 0.189533 0)
(1.98262 -0.00633961 0)
(1.54254 -0.601047 1.28069e-19)
(3.63652 -0.00930246 6.86184e-19)
(1.57373 -0.663796 3.52613e-19)
(2.08308 -0.00874274 1.82981e-19)
(1.59949 -0.770271 0)
(2.20861 -0.912548 2.68636e-21)
(-0.580266 0.732067 0)
(1.59568 -0.748877 -1.27219e-19)
(-0.325582 0.354889 8.92832e-19)
(3.49744 -0.69906 -3.54728e-19)
(1.97566 0.215466 2.06909e-19)
(2.14206 0.123161 -7.55952e-20)
(2.53666 -0.717788 -2.20493e-19)
(2.3645 0.0254707 0)
(-0.437372 -1.01981 8.46219e-19)
(2.02144 0.0310198 0)
(1.63399 0.668817 1.83044e-20)
(2.38989 0.0658366 0)
(2.02429 0.199238 -7.93678e-20)
(2.15056 -0.0683014 0)
(1.0689 -0.428231 -2.64652e-19)
(1.33573 -0.622388 2.65909e-19)
(1.98385 -0.014241 -6.35205e-20)
(1.42397 0.256923 3.71069e-19)
(0.372801 -0.186925 -3.2217e-19)
(1.8312 -0.170103 0)
(1.15752 -0.295713 -1.00731e-18)
(2.00395 0.0645986 3.87301e-21)
(3.08229 -0.702728 -9.21662e-19)
(2.12815 -0.0721204 -4.03785e-21)
(2.13974 -0.717268 4.15632e-19)
(4.15528 0.147942 0)
(1.92214 -0.860125 -6.30811e-20)
(1.67747 -0.761772 0)
(2.42326 0.14042 8.0697e-21)
(0.595642 -0.201078 6.66361e-20)
(1.64569 -0.772008 0)
(2.24968 0.0234877 0)
(1.54998 -0.444799 -8.16821e-20)
(2.4046 0.419172 0)
(1.83324 1.53632 7.52109e-20)
(2.93833 0.380102 -3.62305e-19)
(-0.0543071 -0.423482 -2.2713e-19)
(1.46964 -0.810939 -9.83727e-20)
(2.00666 0.00996927 -7.22987e-21)
(1.27689 -0.919468 -2.18659e-20)
(0.987604 -0.465894 -1.65608e-19)
(1.94671 -0.0978066 4.03407e-19)
(1.36027 -0.763919 7.09364e-20)
(0.634424 -0.319738 0)
(2.39951 0.0930706 -9.72359e-20)
(1.47066 -0.459304 1.20364e-19)
(0.525386 0.128579 7.24425e-20)
(3.13959 -0.519897 7.82921e-19)
(2.95058 1.30429 0)
(1.90936 -0.544088 -3.13123e-19)
(1.98447 0.1155 5.21989e-22)
(4.05421 0.449234 -1.17121e-19)
(2.02685 -0.0277359 -1.78513e-19)
(1.44633 -0.756935 5.6921e-20)
(1.66135 -0.769217 1.83471e-19)
(1.58831 -0.652964 -8.50953e-20)
(1.50933 -0.803252 1.58939e-21)
(2.13855 -0.135334 -1.33963e-19)
(1.49776 -0.778907 -6.37758e-20)
(1.7727 -0.114759 0)
(1.9438 -0.176467 -3.69729e-19)
(1.40192 -0.835338 0)
(1.37027 -0.795659 -1.09786e-19)
(2.92808 -1.09167 4.36776e-19)
(-1.03743 0.654098 1.9768e-18)
(1.98846 0.0406574 -1.7655e-21)
(0.754185 -0.366488 1.82759e-20)
(-0.763983 1.02793 0)
(2.33209 -0.838338 2.38183e-19)
(2.36984 -0.919534 4.16904e-20)
(0.238717 0.0642392 -1.74181e-18)
(1.82398 0.466071 0)
(1.70726 0.407201 0)
(0.307747 0.235735 0)
(1.41265 -0.148576 -3.52264e-20)
(1.87882 -0.0609105 -3.62031e-19)
(1.44527 0.0788165 0)
(1.68661 -0.466605 0)
(2.23459 0.137428 -8.79716e-22)
(1.7855 -0.684311 -5.98123e-22)
(2.01815 0.333322 -2.36055e-19)
(1.9598 -0.415486 -1.23938e-19)
(1.923 0.0755592 1.3565e-20)
(1.96503 -0.0524491 -2.54728e-20)
(1.96797 0.0641336 -1.24742e-20)
(2.11931 0.363888 -1.90607e-20)
(1.96589 0.982318 0)
(0.979124 -0.446631 5.99499e-22)
(0.0470804 -1.54041 0)
(1.17878 0.0388353 0)
(2.60151 -0.0716796 -3.5028e-19)
(1.62166 -0.780402 0)
(2.36736 0.174152 0)
(1.93167 -0.152114 5.68242e-19)
(2.06377 -0.901698 0)
(2.13048 0.33462 3.0534e-19)
(3.06958 -0.28745 4.1761e-19)
(3.01145 -0.0883638 1.31119e-19)
(2.00783 0.031884 8.68999e-22)
(1.258 1.0411 2.16657e-19)
(2.37059 -0.892802 2.26099e-21)
(2.25083 -0.884015 -3.30187e-22)
(1.31208 -0.530966 3.76568e-19)
(1.33373 -0.919896 0)
(1.06516 -0.528754 0)
(1.40336 -0.693106 -2.30677e-19)
(1.3299 -0.625854 -3.50858e-19)
(1.11637 -0.692446 0)
(1.35679 -0.878142 1.50017e-19)
(0.867544 -0.41737 0)
(-0.840172 -0.716909 1.47002e-18)
(1.26346 -0.597088 -4.85853e-19)
(2.92813 -0.349815 -1.62815e-20)
(3.1039 0.176197 3.62177e-19)
(1.35627 -0.490251 7.59587e-20)
(2.13651 -0.0322547 8.81389e-20)
(2.34548 0.753974 0)
(2.41804 0.557793 0)
(1.21669 -0.0765853 0)
(-1.25543 1.54311 -1.10511e-18)
(1.54148 -0.606466 0)
(2.27451 0.426233 0)
(2.00053 0.112988 0)
(2.83762 -0.303261 -4.86256e-21)
(-0.0125591 -0.938328 1.7087e-19)
(2.15257 -0.816523 -1.49365e-19)
(1.35345 -0.200517 8.37981e-20)
(1.91499 0.151158 0)
(1.66038 -0.757164 0)
(2.09149 -0.623969 -2.79496e-19)
(1.63263 0.385349 5.4232e-19)
(1.11859 -0.540881 -1.28313e-19)
(2.01465 0.0398866 -7.10334e-21)
(1.8153 -0.509683 3.35585e-19)
(1.16768 0.294703 -9.32153e-19)
(1.48537 -0.719599 0)
(1.30183 1.14437 -5.24211e-19)
(0.487411 0.244503 -6.00338e-19)
(2.86809 -0.220524 0)
(2.1773 -0.0782182 0)
(1.8078 -0.0378652 0)
(2.05823 0.079917 -3.34255e-19)
(1.5048 0.177021 -3.79113e-19)
(1.68854 0.0779649 0)
(3.9824 1.07821 1.89335e-18)
(1.93816 -0.861919 2.96404e-19)
(2.63066 -0.160901 3.57563e-20)
(1.26907 -0.641732 9.65629e-20)
(2.15473 -0.302262 0)
(2.04247 0.0491627 5.19623e-20)
(1.8812 -0.470496 0)
(1.46687 -0.524868 -1.15147e-19)
(1.88059 -0.848786 0)
(2.27116 -0.796469 3.1246e-19)
(1.8584 -0.369203 2.34345e-21)
(2.01917 0.0319329 -7.75199e-21)
(2.68543 -0.215303 0)
(1.93881 -0.826353 0)
(1.71604 -0.731958 -4.30699e-19)
(2.26279 0.27644 1.07676e-20)
(1.56854 -0.736863 6.05217e-20)
(0.992329 -0.482599 3.84247e-19)
(1.91016 -0.0858147 0)
(1.63768 0.136932 -5.62416e-19)
(2.24145 -0.0102446 -1.37146e-20)
(1.50437 -0.199774 -3.36262e-20)
(2.03191 0.0345168 -9.41288e-21)
(2.031 0.0411676 0)
(1.32299 -0.418382 5.34514e-19)
(1.14483 0.0736824 -5.95471e-19)
(3.3987 -0.319325 9.43227e-21)
(1.8613 0.140308 -6.15367e-19)
(1.29619 -0.660679 8.62548e-20)
(3.33852 -0.50528 -3.00859e-18)
(2.09579 -0.401851 1.01531e-19)
(2.07872 -0.0234818 -3.26116e-20)
(2.65684 0.362534 1.58654e-18)
(-0.266885 0.0345367 -1.62137e-20)
(1.4925 -0.748191 1.58001e-19)
(1.57527 -0.751792 1.30329e-19)
(1.88053 -0.0123386 3.07397e-20)
(2.39435 -0.0893283 0)
(2.6221 -1.24618 8.61973e-19)
(1.32114 -0.642095 2.04998e-19)
(1.80185 -0.305855 2.01817e-19)
(-0.442816 0.633251 0)
(1.73433 -0.431402 -5.43995e-20)
(2.00012 -0.0062497 -6.71899e-22)
(1.90439 0.0239408 0)
(1.20009 -0.719093 1.12465e-19)
(1.55981 -0.634638 3.48271e-20)
(2.04577 0.0559435 0)
(1.19845 -0.473426 0)
(1.55625 -0.112863 -3.61575e-20)
(1.53953 -0.310314 -1.06067e-20)
(2.57335 -0.00436937 1.27928e-19)
(-1.07825 1.12635 0)
(2.06481 -0.0393654 -3.24476e-19)
(1.94598 -0.230536 -3.93387e-20)
(2.34635 -0.767292 1.61437e-20)
(1.36028 -0.55308 4.7193e-19)
(1.58653 -0.780964 -1.24869e-19)
(1.62395 -0.754215 7.74459e-20)
(3.3973 -0.303173 -8.16737e-21)
(1.80738 -0.586195 0)
(3.1686 0.499074 -1.42967e-18)
(1.70528 -0.680868 2.16176e-19)
(2.16112 1.73926 1.77866e-19)
(0.966863 0.446235 0)
(1.28806 -0.312802 -4.74519e-19)
(1.36593 -0.598741 -5.72194e-19)
(1.59026 -0.780123 1.54551e-19)
(-0.316118 -0.985908 -6.38249e-19)
(2.80907 1.6825 0)
(0.5346 0.240479 -8.95456e-19)
(2.25689 0.24459 0)
(0.873535 -1.97499 -1.01797e-18)
(1.86059 0.517638 2.11422e-18)
(1.40647 -1.40329 0)
(1.63189 -0.785629 5.4039e-20)
(1.69752 -0.19046 -8.31475e-20)
(-0.377081 -0.400588 1.35655e-19)
(1.79976 -0.709048 3.88426e-19)
(1.30966 -0.645797 -3.8392e-19)
(1.33355 -0.619227 0)
(2.08697 -0.0169701 1.056e-19)
(4.00038 -1.00203 0)
(2.2343 0.0572437 -1.44557e-21)
(-0.680784 1.50768 -2.32916e-18)
(0.698655 -0.288668 2.57624e-19)
(2.01794 0.0498281 0)
(2.02193 -0.803704 -2.80994e-19)
(2.28644 -0.227068 7.52257e-20)
(1.63989 -0.76469 2.00861e-19)
(1.51755 -0.624985 0)
(1.62878 -0.767219 -1.78773e-19)
(3.68842 -0.434528 -1.04324e-18)
(1.69854 0.107943 7.2025e-19)
(1.85776 -0.134666 0)
(1.989 -0.0242063 1.61363e-19)
(1.99749 0.431644 1.97984e-18)
(0.279763 -0.878896 -8.58638e-20)
(2.33754 -0.571745 9.78664e-20)
(1.37435 -0.704227 0)
(1.80951 0.00149735 -1.68793e-20)
(1.99741 0.0198331 2.47097e-22)
(2.76239 -0.202551 1.75344e-20)
(2.16135 -0.0410962 0)
(1.65843 -0.762093 9.02014e-20)
(1.7656 -0.500973 -1.24926e-22)
(1.41053 -0.452899 5.84471e-20)
(4.24672 -0.33367 0)
(2.18095 -0.832541 -1.12622e-19)
(1.55422 -0.758929 2.6838e-19)
(1.80774 -0.478025 -4.2012e-19)
(0.62768 -0.0314627 0)
(2.29205 0.814888 6.29105e-20)
(2.2104 -0.804526 9.44023e-20)
(1.44803 -0.727791 -1.60795e-19)
(1.95599 0.172676 0)
(-0.391094 -0.066539 5.7189e-19)
(1.54073 -0.178461 0)
(1.64332 -0.78308 1.76535e-19)
(1.60515 -0.381952 0)
(1.96781 -0.148514 -2.09463e-19)
(2.21309 -0.162198 -2.01374e-19)
(3.50983 0.800396 -9.66644e-19)
(1.54037 0.0153086 0)
(2.17882 -0.922722 -1.7119e-19)
(1.85471 -0.0100267 0)
(2.31067 0.202001 0)
(2.33503 -0.948887 3.08569e-20)
(1.6662 -0.76664 9.88042e-20)
(0.723693 -0.130932 1.62745e-19)
(2.25244 -0.579604 -6.12447e-20)
(1.77637 0.208262 2.28431e-19)
(1.29435 -0.865376 -7.55608e-20)
(1.98709 0.166771 1.10977e-19)
(1.47773 -0.782255 -2.67009e-20)
(1.77299 -0.771873 0)
(2.34153 0.0499393 0)
(1.42262 -0.651828 0)
(1.41803 -0.734203 2.48518e-19)
(1.32462 -0.488178 -3.32513e-19)
(1.52874 -0.0024312 0)
(1.11314 -0.583973 2.69805e-19)
(2.27921 -0.0977752 -1.39219e-19)
(1.30962 -0.676884 -9.76517e-20)
(1.52679 -0.576661 -1.06515e-19)
(2.35552 -0.919826 0)
(-0.00788541 -0.399347 3.87682e-19)
(1.00833 -0.650066 -2.59095e-19)
(1.36657 -1.54916 0)
(-0.280475 0.874334 -1.34415e-18)
(2.00012 0.0139807 -1.30923e-21)
(2.21636 0.164408 8.80215e-20)
(1.92664 -0.0180319 2.0771e-19)
(2.85134 0.5975 -3.97534e-19)
(2.24047 0.0826649 1.10073e-20)
(2.8998 -1.44304 0)
(2.07961 -0.810888 0)
(0.96806 -0.512323 2.74848e-19)
(-0.295465 -1.16009 0)
(1.69894 -0.392094 -5.48694e-20)
(2.31016 -0.805785 -1.52898e-19)
(1.13498 -0.541774 4.01863e-19)
(1.96092 -0.0756583 -5.90516e-20)
(1.75742 0.286685 -2.28623e-19)
(1.66342 -0.673586 -2.13165e-19)
(1.75243 -0.697728 -3.92693e-19)
(1.45483 -0.255602 0)
(1.8509 -0.71675 3.68282e-19)
(1.95036 0.0283499 0)
(2.74418 -0.24463 -9.17549e-21)
(2.11695 1.04675 4.73125e-21)
(2.14718 1.08753 -7.50535e-20)
(2.35824 -0.341975 -1.61075e-19)
(-1.15864 -0.389289 -9.67736e-19)
(1.21233 -0.584888 0)
(1.60244 -0.540036 -3.12557e-20)
(1.69341 -0.751636 -1.48751e-19)
(2.07926 0.390718 -1.16323e-19)
(1.9657 -0.78762 3.32319e-19)
(1.98182 0.0420761 -3.27056e-21)
(-0.405473 -0.663768 2.85955e-19)
(2.09338 -0.869961 -2.0415e-20)
(0.483741 0.0407154 0)
(1.38163 -0.721109 2.87571e-19)
(1.90414 -0.420053 2.2208e-19)
(2.02828 -0.0633578 -3.24668e-22)
(1.34111 -0.602932 8.40048e-19)
(-0.118448 0.238475 5.92963e-20)
(1.77346 0.500487 0)
(1.39432 -0.755968 -1.04582e-19)
(1.64786 -0.759378 -1.35165e-20)
(1.23851 -0.414647 -6.38126e-19)
(1.34275 -0.748193 1.23303e-19)
(3.77785 0.349494 -4.16299e-19)
(2.02509 0.304018 5.31518e-21)
(1.12096 -0.475122 2.9106e-19)
(1.90062 -0.40664 0)
(2.28762 0.00928974 -1.18614e-19)
(2.09684 -0.049862 -2.36893e-21)
(2.92323 0.277587 -3.67297e-19)
(3.4416 -1.99401 0)
(3.36058 0.210735 5.7981e-20)
(0.659931 -1.77449 9.59876e-19)
(1.75224 -0.755039 8.31645e-19)
(3.8161 -1.52876 1.94073e-20)
(2.3911 -1.59311 -3.55389e-19)
(0.281147 -0.625884 6.61834e-19)
(2.13488 -0.797538 3.12918e-19)
(2.02253 0.012357 -5.65535e-21)
(-1.93253 1.2611 -8.17432e-20)
(2.38518 -0.0563818 1.80249e-20)
(3.16155 -0.0457934 0)
(2.01116 0.0365725 0)
(2.2602 0.248731 0)
(1.89908 -0.730045 -3.16996e-19)
(1.64712 -0.428551 6.80352e-20)
(0.223182 0.763502 0)
(1.37503 -0.449742 -1.37319e-19)
(1.47902 -1.16954 0)
(2.38922 -0.741737 0)
(1.9058 -0.272943 0)
(2.01806 0.0676945 0)
(-0.194215 -0.19407 -1.69722e-19)
(1.36118 -0.836067 0)
(1.99243 -0.644476 1.91894e-19)
(1.90511 0.0807875 0)
(1.98391 0.0359497 0)
(2.00616 0.212422 6.14438e-21)
(1.37027 -0.694305 0)
(1.83844 -0.496316 0)
(-0.845164 1.47511 0)
(1.97831 0.0847593 2.5046e-20)
(2.04919 0.159635 0)
(2.42722 -0.92687 -3.2848e-21)
(1.94804 0.326732 1.54731e-21)
(0.49985 -0.417987 -8.13431e-20)
(2.0058 -0.00917495 4.74026e-19)
(-0.284516 0.0832906 -1.03962e-19)
(1.17036 0.655187 -4.97552e-19)
(1.61198 0.509657 0)
(2.55024 -0.225765 9.73715e-21)
(1.76494 -0.239384 -1.97044e-19)
(1.71493 1.42584 1.19118e-19)
(1.84534 0.333635 3.10269e-19)
(0.944591 -0.362201 -6.19885e-19)
(1.65193 -0.726176 -3.2886e-19)
(1.89295 -0.747063 2.53364e-20)
(1.57552 -0.583606 0)
(2.76491 -0.54325 -3.48892e-20)
(1.63588 -0.560707 3.68751e-20)
(2.44358 0.0439228 -6.57005e-20)
(1.2526 -0.610097 0)
(1.85625 0.0105886 -2.38289e-19)
(3.78451 -0.0252703 -1.25431e-18)
(1.50365 -0.618494 4.30719e-19)
(1.39201 -0.636274 -5.22125e-19)
(1.83669 -0.84325 0)
(1.90934 -0.835894 0)
(1.89165 -0.611647 1.8043e-19)
(2.44776 -0.365869 -9.48599e-20)
(2.75117 -0.371515 -4.01722e-19)
(1.89406 -0.0330615 6.36225e-21)
(1.35524 -0.416414 -1.27832e-19)
(1.81709 -0.568139 3.55119e-19)
(2.32417 0.0938046 0)
(2.26566 0.154438 3.1481e-20)
(0.772215 -0.764319 -3.78099e-19)
(1.7042 -0.556371 1.68954e-19)
(1.3329 -0.273562 -9.08998e-20)
(-0.667439 1.36985 1.46261e-18)
(2.70426 -0.288744 3.35371e-19)
(2.44641 0.352199 9.57755e-20)
(2.31692 0.368558 0)
(1.53255 -0.733885 0)
(2.4224 -0.898713 1.49368e-21)
(1.29865 -0.334397 0)
(1.9329 -0.414648 1.4511e-19)
(1.727 0.165275 4.07686e-19)
(1.68737 0.395254 -1.18079e-19)
(1.72579 -0.703201 8.51732e-19)
(2.0066 0.0427592 -1.74465e-22)
(1.9111 -0.0308512 0)
(1.97701 -0.0729122 -3.45359e-21)
(1.92006 -0.253273 -1.7101e-18)
(2.11908 0.14484 0)
(2.84161 -0.14587 0)
(2.05116 -0.82284 1.17649e-19)
(1.94217 0.39761 1.59523e-19)
(1.23479 -0.264775 0)
(1.91878 -0.401273 7.66608e-21)
(1.92495 0.0933782 1.01121e-19)
(2.3372 0.221066 -4.43517e-21)
(1.73467 0.387051 3.39699e-19)
(1.47917 -0.811054 -1.26659e-19)
(1.53633 0.138654 0)
(-1.51455 -0.238234 -3.48974e-18)
(0.649868 -0.294273 9.33339e-19)
(2.1425 0.0353189 1.21364e-20)
(-0.418773 -1.09706 -1.23949e-18)
(1.93581 -0.799632 2.37105e-20)
(2.42881 0.0859645 1.86459e-19)
(1.74989 -0.731704 0)
(1.90267 0.170058 4.56173e-21)
(1.87132 -0.0179475 7.40269e-20)
(2.32 -0.00832524 -1.23356e-19)
(2.21382 0.304922 -5.47142e-20)
(2.37364 -0.83945 0)
(1.46961 -0.838977 0)
(2.28517 0.0400669 0)
(2.27974 0.253208 -1.0718e-20)
(1.21268 -0.577263 6.28478e-19)
(2.57832 1.49945 -1.19632e-19)
(1.60531 -0.189153 0)
(1.33501 -0.611095 -6.30141e-20)
(1.46858 -0.729848 1.03434e-19)
(1.52827 -0.870778 0)
(1.92911 0.285682 -9.41252e-20)
(1.73068 0.132408 -1.36598e-19)
(2.18134 -0.241037 -3.44159e-20)
(2.01592 0.0430392 -6.54986e-21)
(0.837964 -0.319554 0)
(2.18332 0.208802 -8.4897e-20)
(2.15542 -0.44059 0)
(2.11789 -0.248733 8.73689e-21)
(1.15835 -0.0341661 0)
(2.2484 0.65917 2.46078e-20)
(1.82145 -0.72933 -3.76679e-19)
(2.46114 0.555402 0)
(1.83109 -0.153729 -3.66455e-19)
(2.01669 0.0474455 1.0476e-20)
(1.80274 -0.0254315 0)
(1.28722 -0.611702 0)
(0.672423 0.10515 -8.04098e-20)
(2.42035 0.0922004 -7.72404e-21)
(1.51553 -0.569553 -4.68501e-20)
(1.12506 -0.78495 4.442e-20)
(2.2331 -0.0779865 2.8681e-21)
(3.97901 -0.954624 1.15606e-18)
(1.74832 0.348761 -1.4646e-21)
(1.92219 0.397669 0)
(3.21549 -0.0554761 4.90742e-19)
(1.88463 -0.855317 0)