/*--------------------------------*- C++ -*----------------------------------*\
| =========                 |                                                 |
| \\      /  F ield         | OpenFOAM: The Open Source CFD Toolbox           |
|  \\    /   O peration     | Version:  2306                                  |
|   \\  /    A nd           | Website:  www.openfoam.com                      |
|    \\/     M anipulation  |                                                 |
\*---------------------------------------------------------------------------*/
FoamFile
{
    version     2.0;
    format      ascii;
    arch        "LSB;label=32;scalar=64";
    class       volScalarField;
    location    "6";
    object      p;
}
// * * * * * * * * * * * * * * * * * * * * * * * * * * * * * * * * * * * * * //

dimensions      [0 2 -2 0 0 0 0];

internalField   nonuniform List<scalar> 
13486
(
6.18501
6.70863
1.06474
-32.0842
-5.09699
2.35621
-8.17659
-1.34223
1.76637
5.84152
-10.7262
1.60541
6.34383
3.52276
-3.82262
6.00869
-7.43462
-4.10598
1.29841
5.85472
-37.0378
6.18812
6.60305
2.45318
5.35924
2.00634
-10.1115
-1.31764
-0.32361
-2.95169
-41.9228
-0.874864
-2.06129
-2.34624
-1.24187
0.00835158
0.0452486
2.86535
-0.725792
2.61309
-14.5299
6.72498
-0.107751
5.17063
5.12907
1.64959
-14.2954
-0.271917
0.0355884
0.00371966
5.09719
-1.23828
2.08891
3.17888
-8.26438
-4.4014
0.114868
-1.18931
-1.88228
0.167388
-10.3284
0.115744
-12.0415
-36.9828
-12.2932
0.0667198
-32.7587
7.13046
1.58924
-0.129178
-31.8982
-6.45461
3.3077
-2.16627
0.0855174
0.0327443
0.0749598
-4.2395
-14.9721
-14.8049
0.00302004
7.04548
-13.9276
1.23251
6.16847
8.33206
0.853551
5.0606
5.66051
6.87786
0.75672
-2.35397
5.50031
6.21853
1.38354
-0.0832766
-10.1626
-35.7408
2.50435
-8.06427
0.0468738
3.66874
-37.3955
-1.13906
8.71083
-8.33334
4.96183
-0.867142
-14.1023
-4.26855
0.0104135
-3.41078
3.20702
0.02572
8.40074
0.577005
5.47589
-2.44353
3.36086
0.00647781
-3.15891
-10.1528
2.0096
-0.839002
0.274189
-1.07242
0.0502923
3.69739
-2.20567
-12.2421
-1.04175
-15.2675
-0.79828
-1.8208
5.09605
5.87621
10.6639
-3.84465
-0.00787217
-0.643403
-1.61652
2.09647
0.863904
-13.1296
0.0195696
-11.3656
1.70657
10.8565
-0.199663
-0.245957
4.65664
-5.75544
0.00917536
7.21627
4.11625
1.05478
-6.10552
-23.987
1.73095
0.581281
0.752632
1.73755
0.099711
6.62802
-1.26863
2.86909
3.80705
10.3179
1.65387
-1.96238
-1.53074
4.12099
4.94296
-0.259791
-0.0183313
-34.881
4.00458
-2.24531
4.90003
0.954597
1.73753
-0.00232693
0.0136106
-11.5404
1.49212
-1.26977
-0.136414
-2.38789
-13.4579
1.14085
0.0247824
0.664752
-1.69647
8.8107
-2.38476
-10.6149
-12.5986
0.501224
4.11127
2.94518
-43.5677
3.65016
2.87254
-8.83414
0.54308
-2.49954
-10.3563
4.31833
-1.44553
1.46785
-1.89722
2.00295
5.81728
4.98975
2.39453
-24.4322
-2.55959
6.73937
4.81368
-1.08041
-7.55785
-0.24578
-0.332067
0.512461
2.63394
5.20849
1.91479
-64.3249
-10.684
0.715559
1.71581
-26.2921
-1.76106
7.02864
-47.1192
4.60112
-2.84971
0.736491
4.7345
0.691509
-1.89978
4.8977
0.0879122
4.0121
-0.336718
5.51498
1.02673
-0.579452
-2.30459
5.31251
-21.323
8.58943
0.102403
-1.03205
-9.24242
-26.0919
-0.478532
-29.2213
-22.3995
-1.56791
6.05405
-0.224033
-3.46175
-28.0167
-5.37935
-11.3884
-9.06008
-44.6477
3.56045
0.0438421
7.85554
5.06619
-2.33593
1.99277
5.22467
-1.1281
-8.17947
-20.7169
-1.43313
1.84056
-22.3507
1.37466
5.09535
-0.827588
-9.74695
-9.60823
-1.3822
-2.15723
2.59404
3.67452
-45.0037
0.304922
0.942577
5.09659
-3.00211
-2.65956
0.612568
1.96154
5.0133
-11.6505
0.208065
-8.90601
1.72987
-1.068
0.00621181
-8.54493
-29.1225
1.06313
0.334193
0.0323083
-0.512277
-30.8262
4.49347
-2.88861
-11.4567
6.00401
0.334084
5.73038
4.45638
-9.12133
0.055956
0.178171
4.91658
6.34808
10.4142
0.539941
-1.48804
1.22193
1.93831
-2.10349
5.06856
-2.97144
0.863
7.72717
-8.95195
0.96872
8.31656
-5.59402
4.87781
-0.117407
-8.28827
6.38473
-2.55348
-0.157143
-10.5178
-0.159764
0.350316
7.82507
-1.49249
0.30218
0.89517
2.0412
2.01732
-10.2245
4.99088
-0.0503193
-1.94532
0.0761778
0.171865
1.02452
1.21762
1.48007
5.8068
5.08195
-2.70361
0.0049312
-2.89678
-14.8488
5.9562
0.259614
-0.0951575
0.515609
2.64687
-17.5546
2.88149
5.1047
4.98935
0.173369
-11.19
-0.352872
3.30219
-3.38318
7.07262
7.92676
-14.4994
-7.83832
3.09645
4.83195
-4.3063
-29.4072
5.66074
-1.82284
4.39599
5.10518
7.91607
-0.0352848
-32.5262
-17.9957
-5.30902
-1.63946
-4.62041
6.06612
2.39898
-28.6924
-7.32474
2.09956
6.14484
-2.08048
0.822221
6.54091
4.69126
4.56779
-1.43941
5.06027
4.97123
8.72306
-11.849
-5.2237
-3.51129
0.598532
4.92462
-8.30433
7.91427
4.9663
1.34706
-2.57982
3.74142
5.15574
-10.0356
4.01146
6.19116
2.49479
4.36195
2.59117
-6.96328
-0.536607
7.23141
0.271722
-0.110473
7.04322
-8.88981
-2.13937
-1.75644
-1.41468
0.953535
3.78931
8.47999
6.32911
-0.578298
0.0145518
-10.1976
4.92377
5.80336
0.0176456
2.2728
5.08219
-18.8845
-35.7057
-0.577211
-9.7789
4.62322
4.68257
-0.0184366
3.97642
-34.3278
5.47719
-0.333498
9.48131
5.33577
2.92484
-2.03784
-0.00120274
-0.0403724
8.20486
-3.76845
-0.0183804
1.37942
1.00248
-9.58943
2.0157
4.97474
-0.0305702
2.35447
6.64293
-2.06616
-6.01997
4.80595
-31.4439
10.3007
4.83586
5.13279
5.02927
-31.5981
1.43625
9.12963
-6.18989
6.19708
-10.7914
3.83688
-48.4966
-11.1281
-0.146706
-9.16674
5.83328
0.348722
-22.2316
-0.297
2.18901
7.8551
3.72479
-7.07158
0.574358
0.520791
2.56605
-5.80422
5.10029
-2.62164
7.02397
-0.0721636
-0.10969
6.84714
-3.46045
-0.0204598
1.02555
-54.4721
-21.9576
1.07154
-4.73313
2.20989
5.45214
-10.7735
-6.99609
-10.6978
-0.0927264
4.70862
3.83027
-11.7422
-37.6986
-7.92847
-21.3724
-1.01657
-15.0183
2.2528
0.576477
7.5841
-22.046
5.83897
-12.7665
-15.2632
2.43617
4.25736
-9.71542
3.96184
1.4214
-10.3554
0.232742
3.11777
-1.28005
-10.8554
5.12936
5.12123
4.53802
6.34784
1.41082
4.94913
3.77857
4.59126
-0.0508136
4.77143
-10.1769
5.90695
0.182925
-2.61751
-1.47171
4.80725
-8.06172
1.95199
8.24255
6.02166
-41.5008
-19.6058
4.404
2.40544
2.76136
6.19242
-10.1487
-10.4781
2.9116
5.68626
3.44776
4.0801
3.558
6.12917
-28.2888
0.0520081
5.07911
-2.33047
-10.1493
7.3342
-1.42033
1.82171
1.37958
4.20027
0.607595
5.94638
0.593125
1.2173
1.34939
2.8237
-1.3198
7.74685
3.91405
7.64566
-63.62
3.90997
0.00656051
-2.22154
-5.14033
5.26213
8.36913
-12.4094
-3.76466
-1.87521
-2.13743
5.26906
-6.20831
3.60287
2.13314
-10.8132
-1.84689
-0.149176
4.803
-6.92598
4.95811
-0.0070058
6.90599
2.3507
0.499645
-16.0369
-1.90302
3.99566
-9.85129
4.17428
-8.80736
4.50076
0.000991743
0.0766512
-11.8613
7.00282
-0.129617
0.572634
6.65628
5.10758
-12.4474
-19.7761
0.654334
3.18081
-0.0965927
0.051529
-41.905
4.17538
2.72592
3.91859
1.99054
6.85424
0.0623973
-51.416
4.81658
-8.24652
2.08309
-1.36779
4.98869
4.62979
-12.1019
1.41099
0.10664
2.07556
4.70225
3.95406
1.94708
1.296
-16.5491
-2.81894
6.33715
0.387723
-0.357194
2.39034
7.52117
-1.33455
3.81715
7.63026
-0.123233
-20.1611
3.67315
-0.819766
5.83273
-0.0203467
5.06455
-30.4462
-2.21326
3.18721
-0.00472837
-6.65556
4.9014
8.06597
-19.0944
-7.56288
1.73897
6.44636
-2.26029
4.44373
-10.9509
8.56379
-12.3113
1.10274
-0.184251
5.01306
5.6435
6.21948
-0.197057
-33.5599
6.63493
5.10166
-7.249
2.81821
-15.8209
0.204319
-1.0405
4.798
-1.18264
-5.81779
5.99236
-7.19079
-1.49665
-1.63829
-22.6484
-22.7218
-0.509037
4.22916
5.94008
-59.6646
1.57227
-12.9876
-34.7052
1.79637
-7.72717
1.28492
5.06579
3.7769
2.4817
2.74103
-25.7506
-18.673
-18.7686
1.31558
-57.3038
2.41562
-0.0329754
-20.9491
-0.182993
6.37156
-0.021219
-17.5654
6.6806
5.97413
-42.8077
-9.93029
1.20293
-11.6232
0.191854
-3.415
3.50921
-4.19848
-6.21704
4.42054
4.96427
1.5161
-23.179
-0.570763
2.50991
0.370304
6.2296
1.18086
-52.1164
6.64763
5.72748
-13.8624
-22.6802
1.88668
-9.61441
1.45267
-0.599682
-2.98875
-48.5227
2.60036
4.94057
7.69598
4.02797
2.73913
2.84316
4.92095
5.72194
6.71272
1.58219
4.30592
7.58431
-7.03645
-0.00273524
3.40303
-3.45004
7.2181
1.64314
7.26125
1.1529
-6.50016
1.58976
2.59755
-1.29666
5.43713
7.92478
4.96634
4.73523
-21.6264
1.88459
-7.99614
-4.0307
0.303543
5.16278
0.0403165
-10.0369
-10.5734
4.67628
-2.71683
-2.28331
-19.1909
-26.94
-2.69643
-10.7188
-39.8641
4.63324
-56.4205
6.10777
-62.5224
-2.27792
2.43578
4.8275
0.0904415
3.55468
-12.1066
5.65064
-5.06489
-5.81924
-7.36005
0.0153841
-22.9881
5.08061
0.109033
4.80398
0.164769
1.15571
-10.1
0.0187754
-0.0526497
3.81459
-0.956244
-10.5996
2.42095
6.09093
-0.989419
-52.6056
-11.8933
4.26053
-36.5167
0.220163
1.59447
-3.00619
-0.537087
-1.49517
-11.1646
6.61095
5.07859
2.92543
4.48875
-0.248485
-14.7494
5.19686
3.59889
2.65576
6.18876
-17.1248
-1.10255
-9.9138
2.7098
0.00481031
5.4643
4.23759
-7.25934
5.03732
-5.574
0.403563
8.19313
2.59205
-2.08033
4.95211
1.85909
-0.414442
-11.0415
-36.5172
4.18964
0.0775293
-0.121788
-0.0886417
1.15624
3.42449
-12.9471
0.00784897
5.02301
1.90103
7.61502
5.64666
4.62498
1.53681
6.04653
0.887346
0.849041
-1.9966
2.71134
-30.3344
-2.24189
-19.8734
-7.9257
-12.1379
3.76434
-7.1188
-0.743583
-8.23915
-30.096
-0.035414
5.30227
-0.0276152
0.632578
-1.07617
4.95628
7.7011
2.0523
-9.8216
4.97443
-24.7156
3.99823
0.538937
-0.462118
3.4581
-1.66048
6.87546
1.12129
4.94221
-2.61608
5.09914
0.208379
5.73241
-0.0526163
-1.47092
4.15198
-8.94283
1.13669
-0.111662
-25.4803
6.21814
4.96865
6.03119
5.36259
5.99262
3.88195
-8.9716
1.58942
5.01453
4.84185
-3.54415
1.86666
-0.711649
4.28075
0.550688
1.91155
-2.04222
10.2295
2.32471
0.0705766
7.81568
6.07702
-2.21919
0.774058
2.85627
4.86918
-16.495
0.937661
-1.80493
1.94239
4.94167
4.90899
-0.470326
1.74594
5.09225
0.0113189
0.901335
5.617
0.877927
0.0232307
-10.4156
1.22097
-1.15288
5.48115
7.69696
0.153645
-29.1439
-2.61081
0.068025
-0.483049
1.58372
7.08565
-0.90332
9.00079
3.85029
1.38484
4.37349
-12.2731
0.274828
-37.223
4.24492
-0.588781
-1.02511
-40.9474
4.51369
5.28878
-0.0501497
-3.43114
-13.2745
-3.20565
0.460961
0.205885
1.18422
0.963629
4.29161
5.0607
5.91372
2.43152
-1.97944
-1.40471
-0.890533
1.35019
-44.0428
6.5929
1.04611
-52.2294
-0.176995
0.197125
0.644162
-11.2891
1.2167
5.26522
0.700289
-2.25419
-0.0540773
-0.0300294
-0.570629
2.14704
0.317813
1.77248
4.98772
3.45006
-1.6431
5.09723
-0.0214362
5.66858
5.06109
4.68456
1.15292
2.65106
6.96727
9.32313
2.12808
-5.64925
5.0731
0.666177
6.98634
-2.33775
-1.6574
-11.1448
1.82718
3.62345
-21.5283
4.93608
3.77181
0.0157186
-11.1177
-1.64289
2.63532
8.0943
-8.92409
5.28379
-5.48587
7.82408
6.97978
-3.85017
0.037813
-36.869
8.13768
1.15819
8.789
1.07264
-0.832502
4.54706
2.08463
-10.0053
-1.9539
-2.1157
5.85951
0.894477
-5.26108
6.03841
5.78813
-2.74663
-0.122827
0.93627
4.02827
2.30757
3.4346
4.67042
1.27614
-12.0612
5.20868
-0.238724
-4.31627
-1.40887
5.69251
3.41534
-8.90936
-30.3516
-0.183204
5.14771
6.41066
1.08446
1.04981
-1.18897
8.20295
-12.9851
-1.54141
7.0279
5.09646
2.34242
0.626004
-33.3669
-2.75677
-15.8951
-12.4802
-0.0847271
-32.9777
2.98666
-17.4808
-10.0657
-6.8224
-19.6562
-17.238
-4.92232
-19.5127
9.20376
5.49554
-6.22594
-13.3602
-0.45024
4.0051
-2.04662
8.95032
-2.80948
-0.492364
5.12421
-9.17772
-31.8319
-1.67672
-1.90365
3.78561
9.33556
-0.231833
-3.71695
3.06273
1.54444
-2.17764
0.118903
1.89498
5.32592
6.05966
5.11272
-50.7059
-8.37233
0.329881
1.44108
4.89601
1.17792
5.27015
8.60113
7.40217
-7.76897
5.1197
5.66597
-0.40748
4.44117
-0.496761
7.26485
4.32449
3.00747
5.76809
4.79919
-1.33781
0.80084
5.9109
-1.3681
1.5951
-5.32229
-3.56289
2.27703
4.09781
-0.425025
0.766497
6.78116
6.71007
-1.31674
-1.83343
1.53255
-16.9689
-3.96027
5.79309
5.47926
-1.81083
4.89345
1.27878
0.570516
1.49929
-14.4324
-34.2352
0.169511
9.41527
-4.36298
0.970844
6.41989
2.23697
0.0862091
4.50765
1.86369
5.18077
-8.59254
-2.41629
1.16628
-1.26379
-3.02686
-1.80297
7.88705
6.06037
3.03343
10.7285
6.40569
-2.77752
-0.665805
-9.3367
2.22176
6.86046
-51.3499
2.87259
0.770922
-12.6521
-2.93427
4.29789
1.53254
0.635785
5.82974
9.4054
-10.2417
0.827836
2.29793
1.99968
1.07046
-50.695
6.52225
4.3493
1.47961
4.23549
-8.00949
-7.35527
-9.16939
7.3911
-0.109842
8.71336
-21.6979
1.43884
-3.63439
-6.10683
-1.9651
1.19698
-1.63004
4.11977
0.75581
4.06818
-47.9897
0.000279267
-23.4032
-1.73668
-1.22228
-6.51799
1.3624
-2.60524
-30.8976
-9.86488
0.857571
1.10607
8.28985
5.03333
0.126507
1.09873
10.7822
2.76349
-10.1026
-0.0275984
2.74688
5.24662
1.73428
5.34285
-1.0557
-1.14036
-1.93822
-0.000229959
1.52128
6.65049
-1.98802
-10.9904
-8.60666
7.52307
-32.6232
1.18751
4.7732
-23.9108
-0.2594
-0.334838
-10.5137
-10.4255
0.464105
5.06315
2.94247
4.7263
-7.39802
-1.53959
-4.0546
-14.7321
-3.53076
-2.75464
1.08729
-20.3506
-0.20519
-40.2518
-10.2962
1.10673
5.98431
-39.2436
7.66969
-9.52412
-43.85
-0.902571
-0.316607
4.93738
0.0626635
6.9204
1.58488
-15.1862
-10.4297
4.229
-1.79674
5.00487
0.0683126
7.46167
5.40572
-0.0522039
4.29392
6.87134
2.18946
4.24298
0.0964416
-29.3313
-0.00537449
-0.973834
-1.63691
-3.08074
-3.37646
1.10773
-10.5016
1.60102
0.319836
-0.910394
-2.63768
-1.73953
7.24429
1.42245
-0.0731878
2.06219
5.05079
-9.89948
-0.583385
2.51415
1.90082
0.930897
2.00609
0.950291
5.03873
5.08643
-0.265646
5.41379
5.57898
3.00356
-7.79718
0.0949352
4.13492
1.15691
-1.0601
-5.60301
-57.2467
-1.8582
-34.4886
0.0807374
-1.22418
0.0674712
-1.57689
-0.189815
-11.2793
0.351775
-16.7517
4.25193
-10.4894
5.17497
10.4885
4.54945
-23.425
4.67832
3.71672
1.53516
-0.103641
-4.22694
-8.79926
1.45341
4.39956
-0.680774
6.54786
-0.0638098
5.07456
-0.729356
0.205288
-4.99098
-5.63572
9.21891
-30.2294
5.09126
5.08338
5.29986
1.43018
4.32201
1.19715
-3.08829
1.99025
-10.2932
-11.3395
4.41749
5.098
-5.1248
4.87376
5.71558
-15.2211
-6.67511
0.0433825
-0.0203054
5.8025
4.60087
5.83391
0.0441789
2.05292
-0.797091
-1.15384
-10.8491
5.8731
8.58159
-3.18408
-14.3966
-4.87545
0.333392
1.37845
1.40277
-7.31701
-9.5622
-0.318271
-27.0847
-2.10521
10.0244
4.36475
-2.77597
-41.9612
-26.6801
-0.0915511
-5.98504
0.781704
-10.9199
6.40863
4.60599
-1.34752
8.87384
-0.0371789
-10.3325
-23.602
-11.545
2.36543
-0.837518
4.11892
1.61549
0.694595
-6.75282
-22.2073
-10.2101
-61.5574
5.89635
-11.0726
-0.31378
-8.63723
5.09491
4.36308
-32.8898
4.91043
3.62381
5.87933
6.96616
2.25765
1.91588
9.57477
-9.17639
0.815597
-10.6065
-5.1424
6.56833
-58.5105
7.70296
4.55413
-1.59749
-11.2026
-16.3222
5.62905
-57.1651
-14.8407
1.57302
3.57606
-3.65094
4.8502
3.50275
-1.03806
7.51959
-2.29085
1.50634
6.22416
0.787315
5.70353
0.0218
10.3768
-0.49222
0.29954
5.93846
0.0546152
5.08355
2.05496
3.37308
2.15284
-1.68687
-2.6627
2.50809
1.58746
-27.1319
-0.0356769
1.74973
4.40533
4.52457
-30.2882
1.04903
-6.70176
4.77202
1.65752
1.51606
5.39777
-31.4764
5.09639
5.2533
-7.12291
6.22896
0.639808
9.16987
2.62214
-12.2531
-0.343214
0.0717315
6.44121
5.6164
-16.3077
4.63488
5.49327
-5.9149
-0.120753
1.58181
3.27449
-5.94193
-7.67037
-3.29495
-59.0925
5.07259
-5.61688
-20.9967
-13.2819
5.90516
4.86128
6.76416
-6.39412
4.60337
-4.31806
1.33966
4.6316
-29.3394
-29.5846
7.46234
2.06052
-16.6609
-1.25355
-11.3795
-25.8502
5.11131
-7.34995
-5.83071
5.66627
-1.32016
4.70122
-17.6906
0.76072
8.35001
-1.37284
5.87951
-0.115578
-24.1981
4.08639
1.56031
6.24796
8.30588
3.10188
1.76958
8.92637
4.34696
6.24799
-14.412
-6.42176
-4.59266
-1.71079
-22.7339
-9.56658
-0.463695
-8.48288
0.429756
1.14548
-2.95105
-1.49304
-24.6167
-2.54306
6.3032
-12.9588
0.801078
4.86711
5.009
-4.77959
-0.0366933
-34.0547
-6.30635
-20.81
-4.72837
6.3372
-6.53719
5.76886
-12.7044
5.07575
-4.37246
0.212606
-10.976
3.40419
4.88959
3.69788
1.18765
5.00365
-6.59685
5.05094
7.31955
0.770904
-5.23193
-18.601
5.41986
3.25071
-7.90644
-6.61417
2.89669
-3.84477
0.891393
1.70384
-1.59921
1.70828
4.91746
3.17785
-0.270212
-8.05773
6.57428
-26.8222
4.1006
-0.249811
5.16464
3.63685
4.75608
1.55246
-17.0804
-51.5617
0.284339
-0.717355
-54.5419
0.972077
0.139976
-29.6072
5.35766
2.73588
5.0564
-25.3263
-10.9517
-3.13839
-0.422217
3.57994
-10.379
2.65894
1.54789
-6.8001
-20.4312
-27.5412
1.24141
5.19826
-0.20904
1.84952
0.241137
2.2508
-21.6137
-0.29341
-10.7991
4.9128
0.864963
-0.132023
4.54451
2.20625
3.99789
7.63425
7.29169
-1.1189
0.421937
-22.8626
-0.110817
4.81363
1.50415
-13.9307
3.59758
-13.1427
-2.35195
0.870134
-14.8055
9.55064
-0.0916641
3.32191
0.861743
-14.6047
-0.952464
0.748305
-6.04665
3.39809
2.01897
5.37213
0.277831
4.95377
-3.66669
-8.59743
-29.4423
-3.56241
2.97171
3.03205
8.14678
4.78312
-5.43688
-12.0243
5.82278
-10.03
-23.1265
0.31348
-3.96558
2.84158
-11.8039
2.69662
-1.41999
1.18024
0.316418
-13.2395
1.51191
5.34865
-0.502062
-4.03596
5.57456
-0.778747
-10.0598
-0.148286
1.92095
-0.869419
9.13582
0.411002
0.731184
-0.28283
0.517644
-0.466636
1.92795
-3.044
-0.139902
1.69059
-1.01584
0.725258
-8.36512
5.79251
1.84822
3.63357
-19.6315
-2.5117
8.34288
-30.282
3.30021
3.03845
4.51056
-1.46977
0.877335
-5.59897
8.22922
5.35083
5.22246
2.71293
-46.4928
5.51725
3.44495
7.01882
-7.6561
5.45028
5.52875
5.34848
1.97767
-12.2224
4.03253
-10.7786
-1.37653
4.61066
4.04437
3.18175
5.86871
1.91112
6.53356
0.0758367
3.42146
2.69642
0.940401
-12.991
5.07735
0.120868
4.83569
9.09291
5.26673
1.5795
-1.09709
0.831646
5.07519
-0.443716
-5.56541
1.35448
0.842871
5.24408
-30.5461
6.0746
3.87225
10.9498
7.45298
-2.7732
-4.40155
-12.6832
3.08022
7.3627
1.63694
2.7068
-4.34373
10.0826
5.09609
0.983545
9.91798
0.275113
4.3571
-5.3862
3.07623
0.109925
1.98779
3.35097
4.37623
-0.864783
-16.5443
1.45739
-23.8244
-0.193766
-13.5964
1.00962
7.68311
5.752
-2.60718
-8.57407
-2.1373
3.64051
1.75395
1.53579
4.7943
-23.7871
-1.4003
-43.6825
5.26266
-3.03054
-25.6531
6.92884
-1.0868
0.831186
-0.895318
8.49656
-29.3187
5.77925
-10.0675
9.34445
-4.81288
-1.78004
0.196369
0.263166
2.01453
5.0075
2.99966
-20.5096
-0.358437
-27.9914
5.0268
2.5576
2.87184
-30.1606
-14.0796
-9.95207
3.03361
-5.21996
0.459386
-0.0780744
5.074
8.66977
-24.2121
0.693001
1.30292
-22.5701
4.52893
0.0553789
-3.14991
-16.1915
-12.4486
6.09474
-34.2188
-29.6424
1.75733
-7.77406
-8.27674
3.66166
5.01715
3.82233
5.09806
8.08769
-10.7289
9.81318
0.226449
8.9252
-16.4651
-0.266032
7.62659
4.49091
-31.822
0.36749
-1.05739
1.56202
-28.9671
-8.2197
1.86885
-1.70275
-1.23997
-0.0221502
-10.2469
4.30633
3.02486
-9.84218
4.37675
-3.78178
0.321879
-29.9209
-0.371937
-0.961471
-28.2346
-2.04813
8.69623
-0.173137
8.6604
1.16674
-10.3148
4.60001
1.18309
0.201411
5.08799
4.54211
9.30209
5.14967
5.84472
-4.97722
-2.32431
9.06908
8.72405
5.57921
0.880904
-44.2936
-11.0152
1.69253
-2.40177
-0.772894
7.27319
-43.7731
-0.224182
-13.2704
8.89326
1.94372
3.28988
-53.2066
0.62654
7.40946
10.1434
9.52926
2.28349
5.30952
-4.82528
-0.839617
5.3534
9.6962
-19.0914
0.179304
-1.62512
-0.061071
1.88987
2.19842
1.66594
1.5652
2.43981
1.12161
-0.0806018
4.189
5.2402
-10.5128
3.85081
-58.9762
1.39728
7.14104
-3.87448
-1.62211
-10.5146
4.60092
5.4188
-29.0441
-12.2487
0.492173
1.84858
10.4816
-4.41831
-11.6479
4.06716
2.78954
-20.1995
-10.7699
-30.9466
-7.39042
-0.13897
-10.9725
1.28975
-1.06644
5.25338
0.859241
3.1835
10.0781
3.6121
1.44959
-33.955
3.59121
-1.89591
-4.94931
7.27462
4.35066
1.44754
-12.0774
3.40781
4.27324
-22.3935
-11.9063
0.338878
7.3796
-0.901151
5.08186
2.98362
6.25884
2.39381
-62.269
2.16391
4.89267
-1.61137
5.32476
0.296381
9.06343
-35.9865
1.90424
-10.8174
5.42386
-35.3648
-0.694421
-38.9778
1.78181
-7.69501
-44.0609
-30.1131
-2.3296
1.50446
-0.0611939
1.1202
1.80384
-11.3592
0.981971
-42.5859
4.85242
8.72892
0.318594
-1.94316
1.24661
1.45669
-1.17515
-2.85852
1.26643
-9.04609
1.23836
-9.79604
-7.78308
3.14259
3.71391
-22.5767
-11.761
1.10458
4.99944
4.3967
-29.2787
2.04339
-0.0487049
-13.9152
-0.836179
0.767278
-30.6318
6.27038
-26.6273
-5.52314
-1.60373
-13.5464
-10.3695
-10.8903
11.0066
-0.961534
-1.14556
5.95284
8.79399
7.15565
-63.1662
-4.84055
4.96404
-0.220095
1.31552
8.78362
0.624195
-1.08078
10.8163
2.81156
-9.90633
3.49603
6.97424
5.08489
1.22371
7.54019
4.98007
-0.22408
0.553666
4.50856
1.68605
-5.24931
8.08326
5.63813
2.73901
-0.0894393
-0.758395
-0.797119
-56.653
-5.90573
1.56441
2.03186
5.45471
2.18147
-9.85768
7.52135
7.7401
-11.2583
0.915497
-20.9394
-15.4886
-2.12605
4.9571
-27.1022
-0.451763
6.76792
8.79548
-10.2798
2.96948
4.18905
3.84544
-1.81887
1.46797
-16.2055
-0.520736
-5.27313
-1.1039
-13.3034
-3.86298
0.991049
-35.7027
4.42308
-48.8195
0.0650605
4.04966
-1.81065
-53.1511
-7.56321
2.53963
-4.51035
0.611618
4.43598
4.61159
-0.365419
-14.2884
-17.9662
4.62715
-10.4595
8.85249
-0.0799535
9.83904
-0.00249317
0.400438
1.52472
5.14384
0.779451
-6.46625
-5.30613
3.11701
1.49727
-0.917945
11.0694
3.89745
-4.09087
-0.867145
-2.35948
-5.15825
2.15211
-14.3815
5.00333
-48.6202
-46.3019
-1.3638
-9.03537
-0.306364
-1.59935
4.85117
0.809888
7.2421
9.1116
-6.20397
-9.08386
3.02091
0.0947344
7.49591
-16.3745
3.30428
4.36823
4.99901
-53.9247
-22.786
2.45387
-0.960162
-0.378319
-46.8106
-9.2841
1.94182
0.36339
-5.35414
2.55072
-4.20402
-4.48937
2.34399
-60.1382
-61.7655
-13.4924
-5.00408
9.09394
-2.91511
5.11793
-24.7834
-0.47818
2.68282
-2.89484
4.0407
-33.3328
-8.06054
7.40437
4.53635
3.01839
-2.87095
9.69987
-46.6186
-4.01217
-45.3617
-4.26256
-35.3261
-55.6079
6.6631
2.90084
1.0148
4.30647
-34.5057
-9.10335
1.26405
1.09897
-4.53025
3.08013
4.42079
2.60233
-27.0378
-1.58107
-15.0109
-5.74312
-0.206511
-0.470128
9.32425
4.98866
-13.9402
-4.86718
3.77636
6.95024
-1.98794
-7.42736
-3.30836
5.91722
1.3561
-1.64422
5.35395
-19.5518
7.2905
-0.381672
5.58184
-10.1541
-1.8757
-0.0562103
-51.7399
-4.5611
4.17774
-6.60797
-32.2561
3.48628
-25.7552
2.52399
5.8956
5.03866
5.7287
5.08602
-1.09414
-1.35263
3.13345
1.72453
-0.0670742
3.48419
-2.17999
7.49884
-34.9983
5.55501
-6.57635
8.68873
-33.0786
0.564824
8.1585
-37.9137
-2.64254
-10.3616
5.55923
8.15813
4.83274
0.110711
5.01773
4.41873
-0.989321
5.10622
-65.489
5.01363
-41.4725
-30.0003
-9.25384
-9.60263
4.35201
-6.15501
-12.7652
-0.198466
7.96941
3.03036
3.23142
-10.1518
-0.532986
-1.68183
-27.6418
5.07857
1.99401
-14.1691
9.51873
-1.5263
7.21588
4.72945
0.588981
-0.0511386
0.386392
-3.73237
-20.0649
-0.322792
-0.786076
2.17263
1.86278
-38.9381
9.66788
5.70401
-0.812033
-17.5057
1.63337
-38.3077
5.36897
4.00669
1.56807
-0.133779
4.04814
2.41074
-0.271661
-2.1373
-2.2558
2.67548
7.35194
-2.82677
8.07598
10.2553
8.51092
-18.2359
4.30588
-9.8045
4.88947
4.05667
5.94108
2.73364
5.41076
10.0432
5.38296
-3.8079
-14.7706
-8.38266
10.0083
0.135893
-24.4454
-29.724
6.1211
7.61943
3.42592
-0.844969
-3.96644
6.77065
-10.0419
1.81712
-30.8929
4.41952
-0.264485
-9.97758
0.476092
-11.5063
-12.051
-28.5794
-5.87402
-17.3665
4.22751
2.91189
1.97559
2.10648
-11.8089
-4.73387
-0.0440255
-10.2294
-10.4227
-5.36606
5.17547
6.83936
-45.8978
7.63429
5.37253
7.94091
-1.42746
-12.6489
2.74321
-4.53668
5.87811
-8.21822
5.71117
5.37787
3.52932
5.77916
1.21226
4.5553
-0.549417
4.50645
-1.55658
-1.84231
-14.5647
-4.41786
4.45214
-2.08088
-59.865
1.22849
8.48548
4.14477
4.74674
-0.611554
6.45915
-4.53793
1.88552
-1.92491
-1.10811
2.01988
-64.0818
-10.1973
-0.261961
-6.88802
-4.99617
-13.2939
-1.98374
-12.0178
-2.30752
0.806068
8.02127
8.98502
7.18799
-6.16205
1.87153
-9.90566
2.2012
7.40738
3.83673
4.41854
3.4465
-0.137196
-1.48633
2.71749
5.04372
2.29652
2.73507
-9.99975
2.37203
-7.99862
4.94074
2.81886
4.98715
-10.4946
2.1348
-30.0703
-11.854
-10.871
-0.633151
7.55966
-6.40456
-25.0876
-32.7338
3.80802
5.08707
-1.38412
4.79107
-10.5067
6.6216
8.36905
-58.2844
2.44863
5.60292
-64.4051
-10.7896
3.03731
5.52978
5.92873
-10.4517
-2.9061
3.46015
7.94573
-14.1119
-3.02239
2.57602
6.6652
2.96231
-1.68858
-28.2943
4.46186
5.04614
4.87635
2.47601
-5.32128
2.83397
9.78283
-1.53959
-0.82059
2.85569
-15.9571
2.98996
0.22339
-24.7533
-3.25005
-33.4653
4.85929
-43.0135
-0.951397
4.36111
5.40896
2.23262
-3.10477
-0.271391
2.15985
-10.2998
-5.96042
-0.739012
-0.109165
-14.0311
6.33169
2.40459
2.92759
1.41135
7.08247
-25.3833
-1.57913
4.80586
-9.74049
5.0918
1.31552
-0.59558
-7.7477
5.19679
-0.490077
0.043864
-2.60274
1.14223
4.56325
-7.11417
-0.623412
-59.2164
-30.7706
4.79415
-11.1066
8.40352
-10.3506
-9.56022
-21.6425
5.75317
2.46027
3.97866
-11.5663
6.4964
-2.8016
-2.20454
2.25866
-14.6081
5.3097
0.231863
-1.80475
-1.01742
-5.31039
5.04362
-6.88649
-63.2811
0.0248508
-6.51517
-9.49145
-0.0815847
7.17388
1.26259
-9.70984
4.11394
-7.5353
5.79186
-7.35344
3.0974
6.38165
5.24014
-0.0239582
-32.1409
-14.3257
2.81442
4.2201
4.63156
-14.6219
-37.5392
0.183208
-5.1781
4.77491
10.3142
1.96329
4.75985
5.65324
3.94624
5.29691
4.37822
-16.4488
-52.8071
4.93624
9.90499
2.31643
0.436573
4.76859
-0.323788
0.10405
0.608246
2.98789
0.758067
8.37587
-20.8821
-1.04569
9.59502
4.8677
0.994699
2.90937
4.26114
1.19458
-30.2276
-31.4611
2.84013
-1.64383
-1.9431
4.35536
-44.0686
-18.2158
-8.76976
1.57477
1.80844
2.54817
3.5303
4.14038
4.26149
-1.73348
2.82295
2.16875
8.14998
6.34481
-3.83115
-0.301463
-1.52551
5.34795
2.49236
-1.02561
-0.138936
3.4208
0.136923
7.13584
3.22468
-0.0882453
-10.4188
2.27566
3.31826
-2.17718
5.33306
-0.25385
1.74046
-30.6593
1.77737
-19.5521
2.12385
-3.02158
-26.3502
-2.28079
-10.5161
5.92994
-24.4199
-1.16469
-20.9339
7.4483
-28.596
0.840598
4.13693
-10.8208
6.32545
5.13103
-2.96467
5.15105
1.68352
2.99366
-8.445
-11.6265
-0.108991
6.33823
-0.617573
-10.2055
-14.8741
-17.5796
-2.66834
-24.6755
-11.5823
-3.58781
4.24835
5.00503
3.58205
-22.1874
-10.13
5.31923
4.15492
-10.7129
4.2427
-9.20165
-1.49124
2.34744
0.825882
5.08093
-23.9726
-28.7799
-30.656
4.307
-2.12313
-7.69205
1.3861
-7.37034
-6.1529
-11.7382
-14.8838
1.30761
-11.554
-0.00506677
-10.4745
5.23822
5.14459
-3.34163
5.89258
-14.4084
6.95651
-1.79991
3.17146
0.260859
2.99861
0.878781
-1.72924
-14.4219
5.30129
6.33793
7.47336
-9.69858
-5.41256
-18.7075
-4.22936
-0.511956
-10.3495
-7.60495
-9.41597
0.890224
-9.90467
-2.56832
-13.0214
-2.29571
6.59496
1.33951
3.48181
-0.0979865
-2.32278
-4.10813
7.41334
8.87991
-0.0896318
2.84797
3.205
-0.0402427
-29.0022
5.69695
6.23785
-13.401
-25.7631
-48.8946
-14.8957
0.78815
-10.268
1.70141
5.71204
-12.9442
5.72574
-10.318
-12.3035
5.29769
1.26018
-9.55954
3.48168
6.18298
-10.0516
1.66534
-13.5067
-10.3724
-9.23762
7.63322
-14.7703
2.50954
-9.50736
4.08515
-9.24271
-15.8749
-8.6145
-11.2095
-1.46377
3.08117
-0.13902
-10.2223
2.12392
0.0413204
-2.35332
-13.3393
-10.6083
-2.04139
0.0042593
4.82895
-17.3759
5.45429
-12.5976
-0.224437
0.631618
-0.72795
-26.8835
-10.4554
3.2191
1.06891
4.31041
0.349147
2.79081
-1.72351
1.04494
-10.8989
5.16894
-10.2582
4.80972
-6.56425
-30.1076
-3.55511
11.2003
-25.6104
-10.6932
-18.8084
-1.20136
4.97608
0.344721
-1.43849
0.0408038
-16.7882
-10.021
-2.3665
-9.97928
1.42632
-13.3962
3.36078
-15.0107
2.66961
2.18624
0.526003
-5.35898
1.11131
3.84869
-7.0148
4.08554
4.58422
-0.934357
-8.02647
2.60016
-10.2962
-1.45095
2.03754
4.21757
-60.1937
4.81256
-4.76712
-8.42117
-12.8142
-14
-3.49984
-4.75504
-25.0352
4.59047
4.83333
-7.26675
8.85392
-21.1468
6.09951
5.34948
-11.0275
4.30454
3.9897
5.07298
-2.01965
5.08354
-2.48767
-4.02735
4.89359
4.0111
-1.06971
-14.343
-3.27596
6.30192
2.89194
-7.36986
3.41101
4.63584
-1.06552
-1.28919
0.0455846
5.09149
4.88681
-6.2659
5.54568
5.56475
-0.0138098
-0.23507
3.98972
4.7675
3.08649
-0.555881
-8.90387
1.66843
-6.67645
2.69481
6.12054
1.34993
-3.8181
-0.858987
-5.43004
-23.4727
2.27614
-4.08208
-2.80405
3.99713
4.72161
-32.8186
4.17433
-0.138297
1.61916
2.31696
3.20412
2.61802
-0.0122446
5.2106
5.77536
4.76563
-11.6836
5.19443
4.13642
5.09003
5.45348
2.20145
-1.32897
0.416716
-1.16801
4.1279
8.2233
-15.9458
9.80921
4.29293
-1.38902
2.75914
4.10881
-6.60905
2.55754
-5.5695
-4.30403
3.08469
-56.8913
-7.11732
2.78239
1.67019
9.47336
3.18356
-19.7289
-48.9124
1.87891
4.57458
-31.3273
2.28631
-2.28353
-0.510136
-2.29277
-1.7983
5.06771
-2.00752
4.55037
-0.691614
-0.917998
-9.62339
-0.202275
1.15478
-3.95553
6.75339
-2.05443
-7.04942
8.20693
-11.0575
0.746445
4.71755
-2.45581
-18.5781
5.61583
-0.82018
4.77375
-1.54669
4.60765
1.85402
6.42426
4.83388
5.01461
2.48292
-0.963841
-4.53884
-0.21558
0.107664
-42.2004
-10.1419
9.70164
1.14805
-22.4684
5.38305
-28.503
2.2686
-29.2559
-11.5027
-11.7168
-9.00751
-0.761037
0.704084
-40.6973
4.79731
0.209488
-35.4614
-0.851764
-37.0811
1.83854
5.20689
-35.0247
-50.2982
-1.0995
0.384131
-1.45589
4.46233
5.65579
-7.5019
4.55782
-1.72371
4.9749
7.40419
-21.9884
5.0513
0.89642
4.42207
4.907
3.80929
-4.35976
-35.2368
4.01716
5.64513
-58.1078
-12.5117
-0.114455
-1.14424
4.77274
3.1978
-5.71411
-6.13474
4.75193
-4.12171
1.55386
-0.155271
5.29451
1.78255
-3.13705
1.75155
-0.284462
-25.9216
6.5413
8.20598
4.1872
9.92875
5.98539
10.2122
1.826
0.240889
6.89052
2.24978
2.82518
2.326
-2.31475
6.07202
-2.41295
-1.65837
8.2559
3.20215
-12.42
4.69006
4.42705
5.58666
-20.9848
5.34542
8.56777
-25.2091
-1.67878
-3.36819
1.1378
-10.3012
3.64173
2.457
5.95634
4.91747
-43.7229
3.71047
0.148718
-6.14496
-4.331
-40.1078
2.85215
-1.06479
5.09441
-1.2213
-10.2833
1.56849
-12.4297
2.91863
-1.54706
-12.9061
3.5299
3.69195
-8.87905
2.36714
5.61209
1.47624
-11.754
4.96311
0.210721
4.62362
-9.67107
5.7161
4.00102
-4.98817
-3.1354
3.16018
0.934296
4.19836
-7.3685
9.4218
-0.678633
-12.5411
3.30253
1.90488
-9.84049
-1.36944
-12.6794
-2.80472
-2.06977
-1.18359
2.4883
1.91226
10.1284
-0.512365
-34.4411
1.50319
-1.62767
-2.65077
-6.4291
2.27195
5.71317
-10.492
1.02602
-4.86077
-2.30453
1.07206
1.79297
5.13331
-0.534598
-0.0528474
-2.27058
4.55489
-2.13951
1.25213
-10.3792
2.81904
0.925823
5.97013
-11.5269
-0.842991
-16.7245
2.66317
-10.4314
2.41091
4.52868
3.91154
6.01175
-17.9844
-9.35106
4.65188
-20.7364
5.29512
4.68315
1.56419
4.33833
0.121111
4.09874
1.95499
-2.46783
0.942445
5.53209
-26.6879
4.89445
1.46047
10.1357
2.80305
3.91856
4.33214
3.34205
1.48008
4.46068
-0.444951
0.454284
-0.794853
-0.479411
2.57043
0.581741
-3.58239
-6.23324
-22.9077
-13.5675
-10.1656
-2.05511
5.13792
0.581066
5.07072
3.49156
8.5758
8.06147
4.41393
0.154496
4.34807
-8.61454
6.09733
1.33027
3.45746
0.31108
4.77106
3.04945
-1.73528
0.584685
-3.32392
0.774474
-2.46457
2.04351
4.73823
-13.4605
0.368903
-9.47932
2.93871
4.55799
-1.51016
4.45583
3.59861
-3.02358
2.12545
3.8162
1.81879
-12.6645
5.68596
2.54952
6.32533
-13.3376
5.25846
3.08806
-10.6181
-0.268632
-0.0794704
-2.63236