/*--------------------------------*- C++ -*----------------------------------*\
| =========                 |                                                 |
| \\      /  F ield         | OpenFOAM: The Open Source CFD Toolbox           |
|  \\    /   O peration     | Version:  2306                                  |
|   \\  /    A nd           | Website:  www.openfoam.com                      |
|    \\/     M anipulation  |                                                 |
\*---------------------------------------------------------------------------*/
FoamFile
{
    version     2.0;
    format      ascii;
    arch        "LSB;label=32;scalar=64";
    class       surfaceScalarField;
    location    "6";
    object      phi;
}
// * * * * * * * * * * * * * * * * * * * * * * * * * * * * * * * * * * * * * //

dimensions      [0 3 -1 0 0 0 0];

oriented        oriented;

internalField   nonuniform List<scalar> 
20045
(
0.581242
-0.695964
0.114722
-1.17337
0.539041
0.634327
0.283399
1.98366
-2.26706
0.558704
-0.881303
0.322599
-1.12552
0.933412
0.192113
-0.554
2.07028
-1.51628
-1.10807
0.122197
0.985874
0.0511164
0.566135
-0.617251
0.584232
0.476277
-1.06051
-0.600758
-0.23105
0.831809
0.361238
-0.446054
0.0848161
1.93687
-0.987393
-0.949475
0.479419
-0.465287
-0.0141325
-1.10385
0.902316
0.201533
-0.0739762
1.00835
-0.934369
-0.962042
0.361283
-0.0562022
-0.0198111
0.0760133
0.195084
0.851636
-1.04672
-1.54187
2.2244
-0.682537
-0.794303
-0.0709179
0.865221
1.1594
-0.798736
-0.360665
0.176768
0.302651
-0.301211
-0.872157
1.24285
0.106656
-1.3495
0.841562
0.0552416
-0.896803
-0.163728
1.40658
0.24306
-0.258137
0.0150767
-1.22724
2.68377
-1.45653
0.834568
0.59102
-1.42559
-3.04933
2.19953
0.849802
0.977284
-1.06407
0.0867831
1.2385
-1.20859
-0.029915
-0.381968
1.36715
-0.985182
3.33292
-1.85757
-1.47535
-0.714239
0.765355
1.80056
-0.881969
-0.918591
1.14491
0.468078
-1.61299
-0.0789905
0.487614
-0.408624
-2.58634
1.49641
1.08993
0.682701
0.602615
-1.28532
-0.0302772
0.672493
-0.642216
0.208747
-0.29404
0.0852927
2.49793
-2.49062
-0.0073091
1.34764
-0.397611
-0.950033
0.545531
0.802113
0.910142
1.02673
-0.484231
0.234326
0.249905
1.16115
0.0522443
-1.2134
1.73323
-0.58832
0.271183
1.75561
-2.0268
1.33306
-2.19925
0.866194
2.33131
-1.55355
-0.777764
-0.739007
-0.773401
1.51241
-0.113462
-0.377659
0.491121
-1.04328
1.12439
-0.0811061
-0.808158
-0.317367
0.27039
1.19807
-1.46846
1.87215
0.48268
-2.35483
1.28713
-1.6691
1.85972
-1.50079
-0.358927
0.356997
-0.354586
-0.002411
0.491546
1.36817
0.232811
-1.54589
1.31308
0.557973
0.601428
-1.29469
0.3588
0.935891
1.25168
0.519507
-1.77119
-0.307925
0.834504
-0.526579
-0.709448
0.0337516
0.675697
1.01354
-0.429306
1.50303
-1.53776
0.0347324
-0.688499
0.380575
-1.08038
0.0371052
-0.307649
-1.14284
1.45049
0.186819
-0.125498
-0.0613215
1.43437
0.0198255
-1.45419
1.36002
-1.08963
-0.348596
1.78296
0.765548
-0.839525
0.658408
-0.459537
-0.19887
-0.567619
-1.73496
2.30258
0.905859
0.977323
-1.88318
0.863451
-0.826419
-0.0370321
1.15589
-0.923083
-2.40082
0.324721
2.0761
-0.0370096
0.618252
-0.262751
0.451564
-0.188812
-0.0917763
-0.969544
1.06132
-1.58219
0.0330436
1.54915
0.934489
0.333856
-1.26834
-0.81054
0.608404
0.202136
-1.40866
0.271423
1.13724
0.939521
-0.233929
-0.705592
0.473946
-0.73109
0.257144
-0.312581
-0.784276
1.09686
0.716486
-0.776477
0.0599913
1.33592
0.0541161
-1.39003
0.237773
0.00528725
0.0140912
-0.715818
0.701727
1.40046
-0.717757
-0.0798876
0.0381122
0.0417753
1.23178
0.568784
-0.439751
-0.664098
-0.879203
0.893294
-0.640848
2.513
0.150691
-0.413443
-0.0956704
0.0157828
0.359589
1.29081
-1.6504
1.09231
-2.41134
1.31902
0.174177
-0.607256
0.514985
0.0922713
-0.324798
0.413916
-0.0891177
1.13036
-1.22059
0.0902387
-0.616227
0.502765
1.73801
-2.51367
0.775657
-0.314467
0.432455
-0.117988
0.0635416
-0.395344
0.331802
1.01232
-0.170755
2.36691
0.96601
-1.32074
1.01309
1.10741
-1.86252
0.75511
-0.729188
0.924272
0.0020929
0.354904
-0.952691
0.767214
0.185477
-1.49402
0.143577
-0.736133
0.592556
1.48876
0.84255
1.14105
-1.61677
0.475722
1.55886
0.154544
-1.7134
-2.94764
2.05754
0.890099
-0.533201
1.36822
-0.835014
2.35992
-0.871158
0.428855
-0.194529
0.203672
0.0534331
-0.257106
0.0539377
-0.0571733
0.00323551
1.1579
0.785071
-1.94297
1.24222
-1.03813
-0.204083
-0.252061
-0.00676692
0.258828
-0.436928
-0.170328
2.04895
-0.941546
-0.822935
0.834455
-0.0115202
1.0083
-2.10739
1.09909
0.404101
-1.14311
0.663621
0.683983
-1.3476
2.14929
-2.71691
2.26732
-0.283162
-1.98416
0.686397
-1.47521
0.788813
1.50288
-0.774337
-0.728538
-0.291523
0.260241
0.031282
-0.184882
2.11612
-1.93124
1.69
-0.855433
-1.63997
0.0383639
1.60161
-1.22159
0.831857
0.38973
1.70492
-0.799059
0.161086
0.702365
-1.23888
1.43864
-0.199759
-1.70428
1.98768
0.0191316
-0.52339
0.504259
-0.0676955
-0.377688
0.445384
-0.0513244
-0.459242
0.510566
1.14714
0.341209
-1.48835
2.63776
-1.31773
-1.32003
-0.554832
0.503508
1.25413
-1.16906
-0.0850741
0.251753
-0.0430057
-2.19439
-0.821215
1.15561
-0.334393
-1.15168
0.893161
0.258518
-0.0101741
-0.161076
0.17125
0.904958
0.597918
0.00760671
0.046331
-0.199954
0.403627
-1.30246
0.0635798
-1.50091
1.84858
-0.347672
-1.51551
1.52782
-0.0123165
-0.92154
-0.763327
1.68487
-0.913092
0.319984
0.593108
0.68618
-0.776468
0.0902881
1.88385
-0.0772016
-1.80665
-0.0670865
-1.49091
1.55799
-0.881634
1.54525
0.419576
-1.25565
0.836074
-0.848525
2.58654
-1.54652
1.22943
0.317089
-0.223028
0.242989
-0.019961
1.03707
-2.24608
1.20901
-2.1136
0.886358
-0.698926
-1.57686
2.82162
-1.96255
-0.859068
-0.801239
0.770962
0.391437
-0.417193
0.0257559
-1.21298
-0.554243
1.76723
-1.89901
2.71332
-0.814305
2.45616
-2.06765
-0.388508
-0.0956659
-0.315299
0.410965
-1.17114
-1.04955
2.2207
0.364085
-0.0028472
0.918841
-1.45204
-1.4239
-0.436284
1.86018
0.273292
0.0696982
-0.342991
0.205631
-1.02685
0.901353
0.075932
1.64168
-0.0828237
-0.395307
0.316316
-0.461944
0.580554
-0.11861
-0.616929
1.76407
-2.43587
1.26472
0.908099
-1.10379
0.195687
-1.55839
0.368302
1.19008
0.550902
1.90525
2.38651
-1.34944
1.96237
-3.007
1.04463
1.6444
-1.48287
-0.161524
0.18015
-0.974452
-1.06376
1.42335
1.21062
-1.76462
1.11286
-3.2798
2.16694
-3.18934
1.38983
1.79951
-0.190142
-0.620398
0.413198
0.379601
-0.792799
1.25531
-0.491173
-0.764137
-0.01809
-1.46873
1.28385
-0.607337
-0.215598
1.21386
1.46262
-1.23354
-0.229075
-0.0282289
-0.339461
0.36769
1.19918
0.230271
-1.42945
-0.334367
0.419678
-0.0853107
-0.924382
2.89919
-1.97481
-1.39706
1.30528
1.30082
-0.881243
-0.309389
1.08708
-0.777694
1.78104
-0.77274
0.281034
-0.0208754
-0.260158
0.622698
0.359998
-0.982696
-0.31673
0.328857
-0.0121266
2.92262
-1.96451
-0.958114
0.562382
-2.4614
-0.349723
0.0329928
-1.61674
0.373995
1.24275
2.31338
-0.946228
0.447023
-1.94793
3.34061
-1.63469
-1.70592
-0.039653
0.312945
2.15668
-1.5218
-0.634883
-1.23065
0.155032
1.07562
-1.86436
1.81324
0.0511248
1.57826
-2.10783
0.529566
-0.0633825
0.029174
0.0342085
-0.954712
1.13266
-0.177946
-0.269117
-0.361327
0.630444
-0.401732
0.087265
-0.389884
0.0650862
-1.17301
-1.23832
0.98623
-2.99042
2.00419
0.973375
-0.0878613
-0.885514
1.06477
0.173732
3.04483
-1.93197
-0.84075
0.773054
1.03322
1.28016
-1.11437
0.199245
0.915129
1.23439
0.922289
0.961462
0.0468833
0.363573
0.609802
-0.686296
-0.123957
0.810252
0.0213945
-0.244422
-2.79551
1.87113
0.037741
0.727193
-0.764934
-1.94388
1.87614
0.0677443
0.380907
-0.0304473
-0.350459
-0.200485
-0.347486
0.547971
1.49028
-1.70634
0.216053
-1.53587
-1.65347
2.05698
-1.36803
-0.68895
-0.266751
0.238522
2.25005
-0.671786
-1.88702
2.87325
1.72604
-0.366436
-1.35961
2.42455
-0.9864
-1.43815
1.70031
-0.663565
-1.03675
1.4001
0.325942
1.83755
-1.12688
-0.710668
-0.455266
1.67314
-1.21788
0.607746
-1.15492
0.547177
0.288137
-0.296428
0.00829048
-0.0650091
0.0623964
0.00261266
2.30708
-2.02198
-0.285098
-1.69876
-1.24889
0.990122
0.472494
-1.77559
-0.168293
-0.373289
0.995986
0.86457
-1.72879
0.864224
0.00642084
0.385016
-1.06281
2.22071
1.0404
1.88222
3.13359
-2.097
-1.03659
-1.79488
1.35859
1.17048
-1.95883
0.788349
-1.23978
-0.194716
1.43449
-0.81742
-0.277413
1.09483
0.966707
0.287426
1.36026
-0.452165
0.925976
-0.407717
-0.800871
-1.16889
1.85926
-0.690368
-0.554806
0.092862
-0.661412
0.352023
0.179199
-2.04356
0.0613555
-1.45841
0.520251
-0.379336
0.487239
-0.107903
-0.113145
0.671849
-0.842521
0.560711
0.28181
1.0012
0.129154
-0.612397
0.138678
0.473718
0.885508
0.356708
-0.82015
1.68472
1.17866
-0.244167
-0.530097
-1.02829
3.75151
-2.844
-0.907506
1.71976
-1.9688
1.08886
0.879945
1.57206
-1.78241
0.210351
-1.01259
0.700004
-0.322098
0.0700366
-0.557721
-0.850938
0.783176
-1.24128
0.458106
0.877582
0.959969
1.03264
-1.86941
0.836773
0.687623
-1.24344
0.555817
-1.95087
0.368676
0.0857212
0.8538
-1.2221
1.21446
0.00763088
-0.386142
0.67214
-0.285998
-1.22403
0.115964
-0.286602
-0.569615
0.856217
0.282243
0.000496801
-0.28274
-0.634103
-0.587484
0.642312
0.932278
-1.57459
1.96595
-0.73156
0.955998
-0.904022
-0.108563
1.13156
-0.443939
-1.41478
-0.13174
-0.234449
0.279379
-0.0449303
1.46935
-0.308197
-1.12234
1.63698
-0.514636
-0.316574
0.3838
-0.067226
1.16517
0.0901439
-1.04765
-0.681148
-1.15585
1.9515
-0.795642
0.954567
-1.82906
0.874495
0.918982
1.138
-0.250276
0.238694
0.0115829
0.287579
-1.52736
1.13682
-1.73272
0.595903
0.071363
0.115456
-0.269834
1.41088
-1.30617
1.36753
0.101797
1.5426
0.339372
-1.88124
-1.22207
0.970043
0.25203
1.40989
-0.364995
-1.04489
1.92056
-0.430276
-1.65951
-0.92963
-0.782735
1.16908
-0.377927
0.297159
0.0807677
0.682766
-0.753683
-1.644
1.37417
1.93336
0.564572
-1.70649
0.58415
1.4552
-0.465077
0.624941
-0.445047
-0.179894
-0.00525396
-1.10057
1.10582
-1.79165
0.309905
1.48175
1.61387
-1.61387
-1.14213
1.88674
-0.744606
-0.303121
-0.309275
0.961303
-0.487293
-0.474011
-2.00683
2.09766
-0.0908305
0.818298
-0.0569304
-0.761368
0.63559
-0.181905
-0.453685
0.322743
-0.523228
0.0509283
1.18742
-3.07443
-1.57408
1.86794
-0.293864
-0.623679
1.26599
-0.0807129
-0.00116479
0.0818776
0.33916
0.455408
-0.794568
-0.792458
0.972607
2.80584
-1.90814
-0.897698
-0.249686
-0.958705
1.20839
-0.59177
0.620849
-0.0290784
0.411903
-0.608149
0.196245
-1.89168
0.950746
0.940933
-0.536821
-0.344482
0.567953
0.0569877
-0.0396789
0.0658442
-0.0261653
1.22438
1.0827
-0.0540283
-0.0266845
-0.20753
-0.37296
0.58049
-1.10959
1.74353
-0.633937
0.0568558
0.457914
-0.51477
0.927421
-0.805225
1.02903
-0.59091
-0.438123
0.170358
-0.954634
0.424964
1.45888
1.0196
0.551299
-1.5709
1.0462
-0.763137
-0.283062
-2.02912
0.389145
-0.596141
0.29538
0.300761
0.601353
1.6225
-2.22386
-1.35174
1.15703
0.133663
-1.83162
1.69795
-0.34997
0.254304
-0.239562
0.256712
-0.0171504
0.114113
-0.800409
-0.0950449
0.421363
-0.326318
-1.37378
-0.242958
1.22372
1.35027
-0.779605
-0.57066
-0.362833
0.0462589
0.223843
-1.33496
1.11112
0.478152
0.959932
-1.43808
0.724617
-1.37481
1.61436
-0.239551
-1.50799
1.05272
-0.114405
-0.143732
-0.727891
-0.423788
-0.639639
0.135106
0.504533
-1.88305
0.77346
1.24649
-1.49617
0.629113
0.826086
-0.806772
0.740885
0.0658869
-0.0743178
-1.79416
1.86848
0.451864
-0.654185
0.202321
0.675186
-1.72283
-1.30466
-0.210848
-0.776729
0.0672812
0.398118
-0.0600601
-0.338057
1.26997
0.103786
-0.103608
-0.000178474
2.08186
-1.48051
-0.749412
1.70467
-0.95526
0.587183
0.456558
-1.04374
-0.661202
0.311232
-0.577184
-0.0624551
0.695601
0.265702
-0.659018
-1.2035
-0.213267
-0.0211815
1.15612
0.966388
0.212267
-1.71515
1.98633
0.164085
-0.705769
0.541684
-0.187
-1.64595
1.83295
0.443231
-0.505523
0.0622916
-0.301517
-0.611574
-0.305344
0.91309
1.54889
-0.862489
-0.64364
-0.198881
-0.0471127
-0.911784
0.958897
0.720719
-1.64226
-0.131536
-0.877286
1.00882
0.47106
-1.00583
0.53477
-1.24126
-0.036661
1.27792
1.25058
-1.19834
0.0185136
0.248729
-0.267243
-0.526715
-0.0650554
0.410666
0.808002
-1.21867
0.335343
-0.407775
0.0724323
1.06847
0.599424
-1.66789
-0.433214
1.76913
0.265659
0.0165841
-1.03235
-1.41515
2.4475
0.881976
1.16698
1.7425
-1.26435
-0.843556
0.556954
0.0118373
-0.0768464
-0.716559
1.88704
0.205244
-1.49083
1.28559
1.5781
-0.219098
-1.359
-0.786661
1.19494
-0.408278
0.744988
-0.859094
-0.654671
1.51377
0.00757916
0.0410297
-0.0486088
-0.535727
-0.989723
1.52545
0.837076
-0.497916
0.174305
-0.184479
1.03025
-1.56598
-1.36825
-0.469095
1.83735
-0.0128107
-1.08772
1.10053
0.683556
2.30391
-2.39409
0.0901796
0.459208
-0.159245
-0.299964
-0.0664147
-0.740357
0.49432
0.602538
-0.812998
-0.00442129
-1.60155
2.00389
-0.402337
0.865595
-0.827854
-0.01482
2.16411
-1.91507
-0.575546
0.11479
0.0553687
-0.170159
1.06022
-0.0938286
-0.510577
0.555941
-0.0453645
-0.699262
0.430146
-2.53095
1.83203
1.72014
0.350137
-0.13972
0.551624
-0.494438
1.08162
2.89551
-1.70809
-0.519054
0.00847747
-0.315063
-1.32894
0.368947
0.596705
-0.577573
-1.84633
0.0546736
-0.294999
0.507216
-0.0553518
-1.77251
0.899075
0.873437
1.26453
0.238496
0.500627
-0.188284
-0.312344
0.717328
-0.63455
-0.0827782
-1.37791
0.495936
-2.18915
1.0333
-0.738577
-0.088045
0.826622
-0.0126011
-0.505348
0.517949
1.9302
-0.0295225
-1.90067
0.475863
0.0335443
-0.509407
-0.332027
-0.620664
0.559686
-0.0857403
-0.206543
0.225287
-0.0187436
0.962488
-0.0530769
-0.909411
0.0439526
-0.250496
1.1532
-1.09908
-0.0651086
-0.359385
0.424493
-2.02223
0.420675
0.00342694
0.0618847
-0.941088
0.724751
0.625514
-0.0395012
-0.801248
0.534281
0.435837
-0.970118
-1.06992
-0.224776
0.683453
-0.519368
0.533357
-0.469816
0.279377
-0.665519
0.448284
0.92245
-1.37073
1.18487
-0.231737
-0.953135
-1.01283
-0.462377
0.537544
-0.231991
-0.305553
0.579196
-0.647005
0.0678086
2.18322
-0.0656083
-2.11761
0.196921
-0.0526857
-0.144236
-1.05081
1.46096
-0.410152
1.15199
1.10323
-2.25523
-0.445675
0.091089
-0.678641
1.00627
-0.327631
0.519705
0.223358
-0.743064
-1.9257
1.35325
0.572449
0.217084
0.00820259
-1.7015
0.333241
0.741452
-0.425484
-0.315968
0.801655
-1.11669
0.315031
-0.267745
-0.428219
0.270209
2.0337
1.66111
-0.33738
-1.32373
-1.5745
0.199686
0.664869
-1.19497
1.78066
-2.89379
1.11314
-0.264776
0.677974
-0.0125038
-0.673132
0.465602
-0.376983
0.52056
-0.591243
-2.13099
2.72223
1.79985
0.450194
-1.4908
1.58927
-0.0984657
0.0898059
0.308312
-1.03985
-0.33846
-0.295802
0.332553
-0.0367515
-1.64347
1.07713
0.566336
-0.249497
1.18406
-0.934566
-0.2321
1.03376
-0.947006
-0.291652
1.23866
-1.65961
-0.510609
2.17022
0.819903
-0.748025
-0.0718783
-0.597575
0.0293071
0.568268
0.100742
-0.0861218
-0.0146202
-1.85964
0.0796364
1.78001
0.0421913
0.476778
-0.518969
1.52358
-1.69535
0.171775
-0.859427
-0.309168
0.271102
0.0380659
0.0329555
-0.328757
-1.66068
0.56438
1.0963
1.70194
-2.55047
-1.89257
1.65622
0.236358
0.397826
-0.0624832
2.19987
-2.21469
-0.168962
-0.216014
0.384976
-0.0313631
0.411374
-0.380011
-0.186828
1.44086
-1.25404
1.15731
-0.214091
-0.943221
2.02829
-1.9296
-0.0986943
1.26819
-0.443051
-0.825135
0.0813568
-0.54947
0.468114
-0.692959
-0.0431737
-2.06707
1.79343
0.27364
0.0882208
-2.15529
-0.389842
0.669038
-0.279197
-1.00675
-1.01523
0.508371
-0.396127
-0.112244
-1.56895
-0.453277
-0.472366
0.343127
0.129239
0.0460427
-0.38041
-1.96115
1.88242
0.0787262
-0.309436
0.0214809
-0.146979
0.524389
-0.0485265
-1.07831
0.123602
0.410647
-0.428517
0.0178705
0.713121
-0.886343
0.173223
0.922679
-0.104381
-0.460263
1.2082
-0.0430382
0.735047
1.16449
-0.719516
-0.444977
-0.194102
0.880282
-1.38727
0.913502
0.473769
0.2054
0.0116847
2.37446
-0.574601
1.26943
-1.34375
-0.285735
-0.334943
0.620678
1.12497
-2.77399
1.64901
1.22649
-1.2393
1.64378
-0.753743
-0.890036
-0.0130064
-1.17509
-0.212182
-0.935257
1.73905
-0.803798
0.0924972
-0.604616
2.56699
-2.08271
0.513762
0.10336
0.184777
-0.215757
0.0191198
0.338892
-0.0100354
-0.883452
-0.823252
2.17695
-0.816932
0.435933
0.054272
-0.490205
0.0855978
0.549992
-1.35328
-1.25557
2.60886
1.04307
-0.076367
-0.0158929
-0.356571
0.372464
1.64296
0.33131
-0.0609825
-0.270328
1.53657
-1.08829
-0.686897
-1.90279
0.32871
-0.535761
0.0345116
0.501249
1.5644
1.7762
-1.52622
0.603306
0.922912
1.92763
0.100663
1.30584
-1.83115
0.525307
-1.61565
0.0192282
1.59642
-1.70981
2.18116
-0.471356
0.354859
-0.0178785
-0.33698
-0.882222
2.58416
-0.518576
0.676482
-0.157906
0.077432
-1.56823
1.51021
-0.926438
-0.583769
-1.8042
2.34156
-0.537362
-0.45051
1.23053
-0.780025
2.32485
-1.029
-1.29585
0.102844
-1.19329
1.09045
0.212461
0.044251
-0.885098
2.03709
0.719112
-1.86124
1.78709
-0.832526
-0.442315
0.377206
-1.65924
0.0435939
1.9486
-0.915961
0.0497948
-2.45062
0.676132
-0.00363903
1.30746
1.26411
-2.57157
1.09986
-0.369684
-0.730176
0.784401
-1.61771
0.833305
-0.398678
0.0201934
0.378484
-0.428771
-1.06617
1.49494
0.772092
-0.492715
-0.185389
0.754003
-0.568614
0.21912
0.385067
-0.604186
0.166706
0.341664
-2.1078
2.48177
-0.37397
0.515789
-0.0725579
0.951204
0.482886
-1.43409
0.451971
1.49675
-1.94872
0.455742
0.954145
-0.0676066
2.33493
-0.0347072
1.5892
-1.5545
0.126401
-0.0695456
-0.00371629
0.0263849
-0.0226686
1.68345
-0.858732
-0.824714
0.787365
0.856414
0.00812463
0.0462749
-0.0543995
-0.448035
1.51205
-1.06401
-0.025652
0.442928
-0.417276
1.23802
-3.25141
2.01339
-0.816462
-0.745538
1.562
1.50392
-0.304747
0.462731
0.637129
0.487648
-0.206258
-0.281391
0.637281
-1.59599
-0.461006
0.274369
0.186637
0.427532
-0.058021
-0.369511
-0.0466491
0.25911
-0.102146
1.23558
-1.13344
-0.381114
2.13673
1.43612
-1.25702
-0.179099
1.3606
-1.02674
-0.903274
0.386785
0.516489
0.235894
-0.723187
-0.993285
0.377406
0.615879
0.170159
0.330468
0.298902
1.45651
-1.75541
0.593673
0.368815
0.246211
-1.90582
-1.12668
0.22319
0.903486
-0.794089
-0.46533
1.25942
1.13312
-0.598842
-1.67105
1.04737
0.480084
-0.379115
-0.100969
-1.12354
2.6988
-1.57526
-0.863678
1.03404
-1.27691
1.15656
0.120354
-1.16901
2.42411
-1.2551
-0.0447873
0.513468
-0.468681
0.581743
-0.594344
-2.04179
-1.30014
2.15789
-0.857753
-1.13169
1.5
0.966229
-1.13021
0.163978
0.0852477
-0.528732
0.443485
-2.22043
1.35599
0.864436
-0.0475769
-0.229736
0.277313
-0.435312
1.24646
-1.43328
2.6763
-1.55133
-0.16327
-1.0588
-1.41433
1.37963
0.849056
0.0441048
0.566512
0.206022
-0.772534
-0.775418
0.717223
0.0581948
0.577965
0.192763
-0.770728
0.850031
0.645492
-1.49552
-0.183415
-0.839158
1.02257
-1.32148
-0.475825
1.79731
0.671929
-0.586681
0.409771
1.27368
-2.10356
1.09512
1.00844
0.741762
-0.865024
0.123262
0.0152383
0.467308
-0.573027
0.105719
-1.0097
1.63131
-0.781275
0.338966
0.478419
-0.397062
-1.13051
-0.51295
0.769137
0.599078
0.0539964
0.662489
-0.042735
0.449583
-0.406848
-1.48995
-1.13133
2.62128
0.198643
0.289005
-0.951636
-0.123675
1.07531
0.184313
0.535959
-0.720272
0.0157038
2.22165
-1.43738
-0.784275
0.412637
1.24848
0.182439
-0.212427
1.45734
-1.24492
-1.05331
1.54307
-0.489759
-1.04839
-0.443864
1.49225
-1.03569
0.357049
-0.583875
-0.319399
1.88548
-0.922389
-0.963094
-0.308072
-0.424479
0.732551
0.576146
0.237581
-0.813728
-0.416137
0.458328
-0.33072
-0.176333
0.507053
0.653901
-0.0673191
-0.487513
-0.0170214
1.02183
0.863656
-0.645906
2.14232
-0.544953
2.74448
-0.6416
0.333528
-1.57098
0.522587
1.52201
-1.23443
-0.30566
-1.38006
0.329247
0.166044
-0.555886
1.2786
-1.28386
1.68395
-0.111888
-0.426748
-0.304342
-0.282013
-0.193905
0.475917
-0.689421
-0.0870559
1.55227
0.282223
-1.8345
-0.0955888
-0.503554
0.599142
-0.349488
1.21174
-2.10119
0.889445
1.62634
-0.102767
-2.65077
3.11996
-0.469191
0.428632
-0.39488
-1.79667
-0.423759
-0.450975
1.82621
-0.0327775
1.77196
1.9686
-0.746592
-1.22201
-1.15173
-0.090303
1.24203
0.482148
0.839525
-1.32167
-1.4369
0.19564
-0.389075
-0.0746523
0.463727
-0.960844
1.16609
0.370824
0.903358
-1.27418
-0.0561634
0.073711
-0.0175475
-1.76156
0.214163
1.5474
0.901748
1.77455
-0.623845
0.940952
0.327234
-0.347478
-0.248663
1.92671
-2.20987
-0.724585
0.587596
0.136988
-0.0962326
-0.349442
1.35034
0.0148588
-1.3652
2.09693
-2.64188
-0.00424152
-0.059141
-0.846185
0.973373
-0.127188
-0.525359
-1.13532
-0.0719531
0.679174
-0.607221
-0.112403
-0.256728
0.369131
0.488883
-0.7904
-0.595764
1.26063
-0.630887
-0.10769
-0.367287
0.400243
-0.13366
0.553338
0.00251214
0.0266619
-0.459448
0.436625
0.0228231
0.483326
-0.534498
0.0511725
-1.22349
1.24331
0.184455
-1.13609
-0.125061
-0.676178
-0.119145
1.18658
-1.06744
0.737343
-0.861299
0.134198
-1.40977
1.27557
-0.109733
2.20646
-2.09672
0.636888
-1.80578
1.18767
-0.0430189
-1.84956
0.718395
1.45856
-1.39448
-0.276576
-0.939718
-1.02909
-0.953185
0.38357
-0.110031
-0.0190792
0.12911
3.00876
-1.44435
1.4821
-0.345281
-0.509519
-0.36752
0.877039
-2.16982
1.07315
1.09668
-0.102109
-0.343946
0.0840186
-0.393187
0.38212
-0.205352
0.174649
-0.0589444
-0.459632
-0.372349
-0.113262
0.485611
-0.246613
1.79889
0.846953
-0.393657
-0.453296
1.76404
-2.27007
1.01931
1.25076
0.272554
0.648096
-0.92065
0.307231
0.327436
-0.634667
-1.16204
0.711529
1.27764
-0.131774
0.70792
1.7611
-1.9481
0.928367
-0.408662
-0.690354
1.32764
-1.61462
1.15349
0.461129
1.05899
-3.22923
2.17024
-1.30339
1.48378
-0.180386
0.64951
-0.843612
0.0281663
0.281347
0.538556
1.30066
-3.03562
1.25154
-3.56849
2.25788
1.31061
0.439873
-1.5916
1.20024
0.0216426
-1.25229
0.25362
0.730602
2.08009
-0.755428
-1.32466
-0.228748
0.497726
-1.29181
0.384995
-1.76851
1.67821
-1.36849
0.509394
0.887738
-1.05337
0.302274
0.751095
-2.08964
1.17141
0.918236
-0.669301
-0.311507
0.782567
-2.01557
1.43468
0.580884
1.70214
-2.58437
-2.11169
0.00388958
2.90863
-1.12797
0.752454
-0.497754
-0.2547
-0.0559288
-0.345407
0.401336
0.283733
0.775289
1.01633
-0.358375
-0.694994
0.223541
0.548551
0.326208
0.803966
-1.13017
0.8702
-0.490599
-0.0567244
-1.88304
1.93976
-0.680694
0.475827
-1.35746
-1.28053
-0.902505
2.18303
0.526337
-0.760266
-1.4563
0.447539
1.00876
-0.0699229
0.0336052
0.0363177
1.97314
-2.56438
-0.0645776
-0.781607
2.81149
-0.260553
-2.55093
0.165374
0.270559
-1.70063
0.498865
1.20176
-1.68809
0.871627
0.50964
-1.56295
-0.594118
-0.130467
-0.0444555
-0.0254673
-0.0694759
1.64758
-1.13066
1.53576
-0.405108
1.52381
0.00493023
-1.52874
-0.950673
-0.0169792
-0.362357
0.0967524
1.51712
0.315803
0.0679967
0.670658
-0.593445
0.290323
0.988087
0.954745
-0.37678
-1.83658
-0.124576
-1.55219
0.378574
-1.90037
0.397241
0.415791
-0.813032
1.71569
0.110725
-1.82642
-0.266559
0.24868
-0.74738
-1.44177
-1.48878
-0.293636
-0.695541
2.79247
-0.67415
1.00899
-0.334839
-2.10112
0.611167
-0.666073
0.992281
-0.90168
-0.870832
-0.89248
-0.444303
0.534591
0.929532
-0.216411
2.10511
-0.278897
0.813779
0.291817
-1.1056
0.158299
0.928784
0.602414
1.97646
-1.8428
-0.148145
-0.477978
0.735122
-0.898289
1.09753
-1.00396
-1.94225
0.498584
0.373976
-0.87256
-1.65474
0.0408645
-0.322173
1.55835
-1.23618
0.0432696
-2.69404
-1.21394
1.44421
2.62344
-1.25987
-1.36357
-0.130417
0.425797
1.36281
-0.470308
-0.892499
0.588094
-0.655413
0.0715113
-0.0752276
-0.227016
-0.098858
0.325874
-0.193754
0.760267
-0.976547
2.67869
0.00663726
-0.402764
-0.556286
-0.248762
0.805048
-0.242948
2.21609
0.133286
-0.311769
0.178483
-0.804731
1.2154
0.687276
0.824772
-1.02841
-0.0982613
1.1599
-0.447749
-0.712147
0.0339002
-0.146045
0.112145
0.241824
-1.35347
1.11165
-1.80501
0.316235
0.476676
-1.51676
1.89533
-0.0255869
0.61368
0.34067
-1.01482
-1.61909
0.836352
-1.88761
0.569875
-0.987954
0.195496
-0.629603
-1.15051
1.78012
-1.75774
-0.0684972
-0.0503315
0.118829
1.79886
-1.47414
1.40226
-0.92011
0.157535
1.08253
-1.24007
0.187592
-0.576667
-1.01285
-0.765105
1.77796
-1.094
0.427475
0.666529
-1.88541
2.46559
-0.580185
1.3738
-1.22039
-0.153416
1.20356
0.0531529
-1.25671
-0.927023
-1.34304
-0.61916
-0.15757
0.985012
1.37491
-0.0121874
0.244173
-0.231986
-1.34021
-0.360424
1.17562
1.04879
-1.07183
1.35354
-0.28171
0.292478
-0.35346
-0.00287728
0.344844
-0.341966
0.361902
0.485051
-0.198246
-1.81732
-2.16266
0.457508
0.0225764
0.780916
0.120436
0.181329
1.34509
-1.52642
-0.974788
-0.103526
0.847651
1.1183
0.151229
-0.588158
-0.410635
0.168056
0.242579
0.0109064
-0.715269
0.704363
0.122274
-0.152721
0.947018
1.72624
-0.848654
1.44265
-0.966824
-0.270568
-0.535741
0.80631
1.40998
0.263169
-0.0699901
-1.40918
0.980411
1.07591
-1.31886
-0.660267
-1.31085
1.97112
-1.04669
-1.12313
-1.99542
2.00904
-0.013619
-0.449089
-0.512943
0.319038
1.11408
0.612153
0.959775
-0.474633
-0.485143
-0.537084
-1.00068
-0.634744
-1.04396
1.6787
0.981303
0.061771
-0.226864
-0.234142
1.11171
-1.85909
0.732474
-0.677233
-1.00059
1.54277
-0.542172
0.489047
0.736636
0.770045
-1.50668
1.97206
-1.08045
-0.891611
-1.34219
-1.03143
1.72561
-0.694178
-0.164755
0.978534
-0.639697
0.61411
0.818833
1.50601
-0.481788
0.425859
0.0666674
0.0371186
1.79577
-1.0107
1.19059
1.81817
-0.883309
0.501148
0.382161
0.384141
-0.669876
1.35775
-0.0074151
0.310551
0.441903
-1.18439
-0.178526
1.36292
0.417646
-0.0320884
-0.385557
0.385242
0.0739656
0.242054
-1.95186
-0.625096
0.739209
1.22762
-1.17444
-0.0531803
0.377102
0.782795
-0.353335
0.165051
0.630955
0.428121
-1.05908
-0.590433
1.87756
0.328641
-0.861569
1.83673
-0.975163
-0.358478
0.577598
-0.0501523
-0.00601109
2.07322
-1.08402
-0.691574
-0.318832
0.626063
0.674255
-0.799316
-0.400079
0.355292
-0.577208
-0.33265
-0.0301825
0.803348
-0.37847
1.54776
-1.16929
-0.136121
0.0964421
-0.414397
0.198383
-0.728579
0.109419
-2.40961
1.37726
0.563602
0.44267
1.09569
0.167777
-1.26346
0.246212
0.205352
1.38842
0.882377
-2.2708
-0.278978
-0.0149868
0.293965
0.659517
-1.40893
1.84764
0.775802
1.46757
-1.28624
-1.74799
-0.0163461
0.105412
-0.914578
0.819876
0.571983
0.829807
-1.40179
0.894982
-0.157639
-0.0449377
-0.631364
-0.251945
-1.12841
-0.59053
0.826424
1.15907
0.545605
1.0043
-0.962107
-0.042188
0.424341
0.0122837
-0.130695
0.550569
-0.0672431
1.41363
0.326432
-1.74006
0.0798305
-0.452179
-0.50661
0.315009
0.191602
-0.736078
-0.031546
0.767624
0.371567
1.11148
-1.48305
0.431937
0.701186
1.24145
-0.0357302
-0.580497
-0.154365
-0.439079
-0.163987
0.319513
-0.155526
-2.3826
0.805741
1.58562
-1.20914
-0.376481
0.0352336
-0.326958
0.291724
1.52211
-1.62426
0.614481
0.366822
0.732488
0.66977
-0.331718
-0.000931994
-0.130943
0.435462
-0.304519
-0.883006
-0.287434
1.99874
-1.0272
-0.97154
0.433348
0.0562997
-0.489647
0.910406
-1.43641
0.526006
0.297683
1.01525
0.116315
1.04248
0.719913
-1.7624
0.279686
-0.410629
-1.25591
-0.82003
0.426373
1.49292
0.00832365
-1.50124
-2.19242
-0.395057
0.352322
0.044881
0.0013939
0.666524
0.306848
-1.30122
1.05172
0.0118159
0.206627
-0.0846314
0.235323
-0.816674
0.974209
0.00845331
0.588251
-0.113476
-0.139898
1.20467
-0.0105811
1.01488
-0.506839
-0.291165
-0.420571
1.05153
-0.194512
1.53987
-1.34536
-1.45245
-0.24905
-0.80246
3.06216
-2.2597
-0.510594
-0.309436
0.68502
-0.118886
-0.033477
-0.53568
0.569157
-1.61138
0.527362
0.332234
-0.31372
1.50079
-2.85408
1.28041
-2.69556
-1.01453
1.12119
-0.890088
1.07408
-0.645957
0.0201806
-1.03095
1.27277
0.00182002
-0.341281
0.0967626
-0.844787
-0.285561
-1.07971
1.36527
0.77755
2.09013
2.86094
-1.87939
-0.981553
-0.454601
0.193043
0.49703
0.0438298
-0.54086
-1.51379
0.383128
0.451356
-0.023824
-0.00949532
-0.298634
0.308129
2.07204
-2.8745
0.190515
0.836493
0.169019
-1.00551
-1.73501
1.5405
0.323643
0.082082
-0.405725
0.899569
-2.19971
-0.328975
0.00502363
0.323951
0.417312
-0.0936688
0.00829624
1.39936
-0.943615
1.0581
1.04953
-0.617589
-1.81267
0.532144
-1.17821
1.0713
0.106913
1.2717
-1.93197
-1.01853
-0.559821
1.57835
-0.0687621
0.900619
-0.641193
0.584262
1.91579
-0.274526
-1.64126
-0.0122916
-1.82428
1.11267
0.0908913
0.901636
0.461171
-0.358339
0.00176796
0.333973
-0.461586
-0.779697
-0.0275928
-0.0630471
0.0906398
0.0145335
-1.24004
1.22551
-0.255235
0.779091
-0.523856
1.37558
-2.72744
1.35187
-0.024951
-1.01318
-0.0499373
-0.1312
1.19984
-0.72093
-0.37177
1.0927
-0.77825
-0.595532
0.928304
-0.554328
0.0191003
-0.453374
0.434273
1.75871
-0.663021
-1.6476
-0.169844
-0.20775
0.377594
0.590451
0.267001
-0.857452
0.502115
-1.46121
0.959096
0.221632
-1.09379
0.303041
-2.10724
-1.04683
-1.20021
2.24705
-1.68306
0.0605542
1.6225
-1.90142
-1.44177
0.13838
-0.659855
0.641749
0.0181062
-2.65809
-0.586767
2.0004
0.811693
-0.375857
0.241231
-0.661802
-0.284678
0.985864
0.330684
0.253034
-0.80932
0.0361853
-0.310234
0.274049
-0.217363
-0.07416
-0.212338
0.247571
-0.692491
0.965046
-2.22435
1.26757
0.956784
1.19708
0.16318
0.785218
0.459759
-0.0421131
0.74389
0.215886
-0.943429
-0.512872
-1.10051
0.348724
0.751783
0.089033
-0.384539
0.295506
-0.93375
0.944656
-0.222338
1.41242
-0.315334
0.44862
0.810407
-1.58866
0.788953
-0.898661
0.109708
0.284615
-0.0358857
0.256994
-0.0183006
-1.77032
1.14072
-0.120357
0.553704
0.0275547
-0.424945
0.39739
-2.72247
1.01819
-0.578504
0.938501
-0.402868
-0.0325058
-0.466487
0.498992
-1.13107
0.410141
-1.93365
1.73541
3.16343
-0.351947
-0.519693
0.481869
0.0378238
0.218327
-0.162959
-0.33847
-1.74526
0.928929
0.816328
-0.328535
0.313549
-0.0871275
0.760924
-0.673797
0.856396
-0.241916
0.104728
0.180262
-0.28499
-0.604642
0.613095
0.0927866
-0.0214236
1.05119
-2.15541
1.82585
0.101778
-1.21567
0.246131
1.66468
-0.0934574
-1.57122
0.183084
0.68878
-0.871864
0.78145
-1.6649
0.855196
-1.90763
1.05244
-0.0150038
-0.015457
0.0304607
-1.69601
1.76425
-0.0682328
-0.858655
0.992853
1.15687
0.00043666
2.27134
-0.879083
-1.39226
-0.204702
-0.430873
0.635576
-0.294335
-0.667538
-0.0254218
-0.635541
-0.0319965
0.20735
-0.580705
0.373355
-0.179421
1.68749
-1.50807
-1.46069
0.348988
1.1117
0.474536
1.45566
0.0202935
0.195023
-0.215317
1.09821
0.472288
-1.5705
-0.0534463
-0.0565843
-0.635361
1.46945
-0.834093
-1.3664
0.182004
1.10531
0.502231
-1.52076
-0.00226888
-0.235726
0.237995
1.79502
-0.570516
-1.22451
0.78827
0.479991
-1.76469
0.941435
1.66122
-1.71794
-0.887504
0.0718728
0.815631
0.0423645
-0.141699
-0.190145
0.331844
-0.0947433
-0.158071
0.252815
-0.0158711
0.265925
-0.250054
-0.814977
0.852852
-0.037875
-1.08476
2.19647
-0.624301
0.577188
0.520106
-0.607233
0.654041
-1.10576
0.451723
-0.868161
-0.746459
0.100506
0.000235635
-0.227618
-0.0232379
0.250856
1.70305
-0.901578
-0.801468
0.0802253
1.14739
-0.497059
-0.278359
-1.15099
0.239207
0.995788
0.610109
-1.6059
-0.0198183
-0.0218708
0.0416891
-0.0171151
0.734443
0.642311
-0.311776
-0.330536
2.61872
-1.8771
-0.741619
-2.74567
0.614681
0.0784335
-0.723875
1.57441