/*--------------------------------*- C++ -*----------------------------------*\
| =========                 |                                                 |
| \\      /  F ield         | OpenFOAM: The Open Source CFD Toolbox           |
|  \\    /   O peration     | Version:  2306                                  |
|   \\  /    A nd           | Website:  www.openfoam.com                      |
|    \\/     M anipulation  |                                                 |
\*---------------------------------------------------------------------------*/
FoamFile
{
    version     2.0;
    format      ascii;
    arch        "LSB;label=32;scalar=64";
    class       volVectorField;
    location    "6";
    object      U;
}
// * * * * * * * * * * * * * * * * * * * * * * * * * * * * * * * * * * * * * //

dimensions      [0 1 -1 0 0 0 0];

internalField   nonuniform List<vector> 
13486
(
(3.47222 -0.850682 1.49544e-18)
(3.53579 0.00946763 9.66863e-19)
(5.06267 -0.0408217 0)
(6.96263 -2.57894 -1.07061e-17)
(5.83806 -0.491167 -1.27145e-18)
(4.54982 0.292651 -2.32293e-19)
(6.28176 0.900357 -3.61623e-20)
(4.92561 -1.59751 2.70802e-19)
(4.53809 -0.801492 0)
(3.69781 0.756976 0)
(-2.53901 -0.58253 -1.86838e-18)
(4.35699 0.0250749 0)
(3.25945 -1.21144 -1.44836e-18)
(4.23279 1.05076 -4.40918e-19)
(5.50239 0.553787 -6.3072e-19)
(3.65144 0.72295 -9.96237e-19)
(0.109695 -0.384781 1.23069e-18)
(1.0377 3.82838 -2.14059e-18)
(3.96482 0.0214753 6.92904e-21)
(3.68271 -0.494225 -1.61031e-18)
(7.13098 -0.471452 -5.40603e-18)
(3.29564 -1.24011 1.89538e-18)
(3.56447 0.000485104 -7.68113e-19)
(4.96318 0.904814 0)
(3.83169 0.62847 3.53381e-19)
(5.03886 1.03762 1.96474e-19)
(1.9059 -1.07484 1.81033e-18)
(6.04336 0.0624448 5.86486e-19)
(2.96103 1.01502 0)
(6.45381 0.423285 -9.32259e-19)
(5.16557 3.02059 -5.22156e-18)
(4.61219 0.963371 2.62473e-19)
(5.79572 0.501134 4.58813e-19)
(5.80067 -0.293438 0)
(4.9428 -1.51165 0)
(3.05165 0.026519 2.00077e-21)
(3.61126 -0.372585 1.84417e-20)
(3.82469 -1.76738 4.31126e-19)
(4.40533 -1.07584 -5.99028e-20)
(4.43381 -0.51383 4.70408e-19)
(7.22957 -1.54109 0)
(2.64023 -1.30055 -1.72913e-18)
(4.60827 0.0356243 0)
(3.88784 0.525549 -1.62408e-18)
(3.90338 0.510729 6.76056e-19)
(4.31976 0.023475 3.73796e-19)
(-3.8653 0.698798 4.41627e-18)
(2.88735 0.67298 3.3895e-20)
(3.59977 -0.350302 -1.34424e-20)
(5.27389 0.195426 -6.5046e-21)
(3.99855 0.00238707 1.2099e-18)
(4.64185 -0.370562 0)
(3.84812 0.109288 -7.96959e-19)
(3.97766 -1.4722 -6.91963e-19)
(-0.113066 4.31403 0)
(5.69256 -0.537667 5.9972e-19)
(3.76942 -0.130762 -1.80281e-20)
(4.81077 -0.627023 -3.42666e-19)
(5.68788 0.446236 4.63937e-19)
(3.55641 -0.488546 0)
(-2.21055 -1.21896 -1.99697e-18)
(3.61518 -0.500332 0)
(7.0778 1.7579 -1.68762e-18)
(7.1982 -0.609762 -6.43574e-20)
(-3.5117 3.50549 0)
(3.59792 -0.40566 1.24116e-20)
(6.40324 -2.68514 -9.94908e-18)
(3.33097 -0.416899 5.88362e-19)
(4.5545 -0.858536 -1.74017e-19)
(3.10786 0.0415509 2.28352e-20)
(6.94715 -2.93413 1.14334e-17)
(0.370739 4.36475 -1.55266e-19)
(4.34056 -0.318922 4.39415e-19)
(-0.267094 1.31388 -2.86932e-19)
(3.58641 -0.459546 3.27957e-21)
(3.65343 -0.148339 3.03095e-21)
(3.57282 -0.441624 -1.01102e-20)
(5.5848 0.54132 2.70844e-19)
(-3.97854 0.501315 -2.41656e-18)
(5.77613 -4.65424 0)
(3.36422 0.077392 1.55504e-21)
(3.42736 0.116366 -6.20534e-20)
(5.87742 1.24304 5.18949e-20)
(5.1231 -0.123631 -9.4396e-20)
(3.47192 -0.85285 -2.94153e-18)
(2.61377 1.55122 0)
(2.50906 -1.95651 1.77167e-19)
(4.00624 0.023873 -1.91097e-18)
(3.84274 0.0139949 -7.90746e-19)
(3.33789 1.0246 -1.40665e-18)
(3.95822 0.980671 -6.53136e-20)
(5.24103 -1.22244 2.87589e-19)
(3.60735 -0.979893 3.60554e-19)
(3.63638 -0.288085 4.62663e-20)
(4.46337 -1.31764 6.05641e-20)
(3.0805 0.458045 -6.37433e-21)
(2.12047 -1.17864 0)
(6.59906 -3.42777 5.65299e-18)
(4.45832 -0.496965 -9.03322e-19)
(-0.378225 -0.378589 2.11372e-21)
(3.36173 0.0441668 0)
(4.20728 1.05824 -1.73635e-19)
(6.23804 -3.82727 2.75412e-19)
(4.69753 -0.531456 3.9661e-19)
(2.55394 1.42092 0)
(-0.750251 -0.385754 1.45987e-20)
(4.0272 -0.063649 -2.81296e-21)
(4.44776 -1.24787 -1.37785e-19)
(-3.43476 0.344951 2.92076e-18)
(5.13141 -2.19493 0)
(3.88899 -1.80219 0)
(5.06895 1.50007 1.02088e-18)
(3.99519 -1.42444 1.2773e-20)
(4.92975 -0.188114 7.44349e-22)
(2.82838 -0.691998 0)
(3.69032 -1.7934 -7.29804e-20)
(3.80335 0.643509 0)
(6.32551 -0.376228 0)
(4.33098 -0.295321 0)
(3.55157 -0.293628 2.00276e-21)
(1.0474 3.51506 7.60274e-19)
(-2.05178 -1.07613 0)
(4.36935 -1.19718 0)
(4.46928 -1.08259 2.07084e-19)
(4.62495 -1.52365 0)
(4.687 -0.347352 0)
(4.9146 -0.226934 8.56211e-22)
(4.19647 0.0764053 8.2243e-19)
(5.83725 -0.523266 -1.62278e-19)
(-2.36994 4.48709 -1.47212e-18)
(4.46487 -0.267624 -3.80559e-20)
(-2.81723 0.989177 -1.20459e-18)
(0.423438 2.08464 2.51775e-19)
(0.176056 -0.546964 3.50317e-19)
(3.99927 0.000313903 -1.89739e-19)
(3.74125 0.306082 -1.10389e-18)
(2.04894 0.257666 -6.27235e-19)
(5.07261 -2.0919 0)
(3.52968 -0.275919 9.64183e-22)
(4.92275 -1.15639 1.96914e-20)
(5.59708 0.492363 -4.64338e-19)
(3.83909 0.204018 6.88899e-19)
(4.27758 0.554521 0)
(6.24278 -4.20057 0)
(5.00091 0.10382 4.84015e-21)
(6.39056 -0.359058 -2.81765e-18)
(3.19983 -0.827796 -2.12771e-19)
(1.26199 1.08833 0)
(5.2761 0.254331 0)
(3.13787 1.05933 0)
(4.01587 0.0047371 2.48061e-20)
(5.90942 0.19103 0)
(3.39801 0.059912 -1.63577e-21)
(3.37963 0.0890302 -5.43154e-19)
(4.1297 0.378251 0)
(5.44444 -0.0663762 0)
(5.06452 -2.25388 0)
(3.74347 1.98218 4.89046e-18)
(4.23661 -1.65508 6.10736e-19)
(3.39738 -0.658493 1.7863e-19)
(5.03929 0.117916 -1.44097e-19)
(4.26617 -1.58189 -9.07453e-19)
(3.52501 1.8912 4.87542e-20)
(2.42557 -1.16044 7.50936e-19)
(4.83665 -0.45994 0)
(4.37866 1.13398 4.07145e-19)
(4.18405 0.92225 1.136e-18)
(1.92725 -0.880767 -2.25424e-18)
(3.09973 -0.796418 5.42363e-19)
(0.373026 -0.519475 1.07387e-19)
(0.448604 2.35712 1.88964e-19)
(4.12586 0.327004 6.46859e-19)
(3.98969 0.0556426 -1.79572e-18)
(4.88571 0.171572 -4.79692e-21)
(3.30586 0.161379 -2.13357e-21)
(-1.36388 -4.35714 0)
(4.02346 1.41433 -9.65841e-19)
(5.68436 0.521603 7.2323e-19)
(4.04456 -0.0628744 -1.67793e-18)
(4.26913 0.481051 0)
(4.59876 -0.552856 6.61806e-19)
(4.96365 -0.229685 -1.02317e-21)
(4.73023 0.325714 1.4642e-20)
(2.02413 -1.20171 0)
(4.65957 -0.345049 2.63793e-19)
(5.49158 0.0890994 -2.62535e-19)
(4.55577 1.34018 5.69827e-20)
(6.19266 0.0645322 -2.34604e-19)
(6.99255 -1.45571 0)
(3.42851 -1.62396 -1.9954e-19)
(3.56259 -0.332316 0)
(5.21104 0.0119704 0)
(5.00111 -0.918805 0)
(2.80142 0.567795 -1.28197e-18)
(5.22303 -1.12475 0)
(-2.45665 -0.476528 -5.02477e-19)
(-3.24225 4.82656 2.94797e-18)
(5.20542 0.0933066 -5.0895e-20)
(3.20983 -1.56972 -2.38773e-19)
(4.37656 1.07328 3.31585e-19)
(4.86119 3.47682 5.88755e-18)
(4.21165 0.11613 -2.58708e-20)
(3.71276 -1.7677 -5.02533e-19)
(5.72317 -2.16837 -8.41544e-19)
(3.32268 -0.593565 -2.1664e-19)
(5.33622 -1.05374 -4.74424e-19)
(1.71156 5.30776 -1.98502e-18)
(4.13263 -0.294545 1.09554e-18)
(4.90591 -0.935761 0)
(4.76482 -0.307901 0)
(6.20611 0.00123758 6.35675e-19)
(4.08293 2.32587 -3.53803e-19)
(3.7076 -0.457034 1.46688e-18)
(4.00996 -0.0616416 -2.11009e-21)
(4.54511 0.339981 2.67504e-19)
(9.53706 -1.28375 1.65225e-18)
(6.27652 0.385983 0)
(3.38467 0.992254 3.05887e-18)
(3.78795 -0.981885 0)
(5.15986 1.73027 0)
(-0.139068 -0.396011 -2.27229e-18)
(5.25821 0.333781 0)
(4.85944 -1.1739 -8.54253e-20)
(5.15823 0.133289 0)
(3.54517 -0.0882486 -1.92584e-19)
(3.29194 -1.54321 4.64633e-19)
(4.66921 0.631774 2.31951e-20)
(1.08061 1.84384 3.91192e-18)
(7.57775 -2.08385 1.51057e-19)
(2.71504 -2.02706 -5.06587e-20)
(4.6038 -0.52736 -2.19736e-19)
(7.95873 0.52881 6.70367e-18)
(5.62745 0.481018 5.78513e-19)
(2.66877 -1.31273 6.05507e-19)
(6.23533 -2.32519 0)
(3.03876 -1.46643 5.01791e-20)
(6.21484 -0.153656 5.64785e-19)
(5.2088 0.0162861 -5.07655e-20)
(2.88676 -1.38262 1.36667e-18)
(4.62539 0.200726 0)
(5.67998 0.407587 0)
(3.99965 0.0427915 2.72865e-18)
(5.51754 -0.0409581 0)
(2.79441 -1.38363 4.22437e-19)
(4.08997 -1.23864 -6.8372e-20)
(3.85998 -0.196417 0)
(4.48872 0.0714286 -5.82413e-20)
(5.85156 1.08984 2.80703e-19)
(0.498556 -0.119647 7.60607e-19)
(3.86164 0.467999 0)
(3.29765 -3.9203 -1.53184e-18)
(2.77337 -0.648045 2.52046e-19)
(3.39336 -1.64698 1.15157e-20)
(4.51433 -1.2612 0)
(6.75749 -2.68315 1.01591e-18)
(-1.7124 -4.39157 9.57263e-19)
(4.54127 0.943917 -1.09607e-19)
(9.92468 -1.35593 -2.1027e-18)
(6.03218 2.02329 -4.86769e-18)
(5.68967 0.498624 2.52102e-19)
(3.72158 -0.0078606 0)
(4.04724 -1.21612 -1.06382e-20)
(5.45723 0.532828 1.39813e-18)
(-1.60481 -5.10571 -1.21825e-18)
(5.72903 -1.37738 1.17212e-18)
(2.21659 -1.31207 0)
(7.10625 -1.75121 -1.65731e-18)
(5.53121 2.03658 -7.31059e-18)
(4.49381 -0.0247507 -5.85996e-19)
(0.0371419 1.10204 0)
(3.08352 0.801541 1.05794e-18)
(4.00386 -0.0388403 -4.78112e-19)
(6.24048 0.462888 0)
(4.12218 -0.0457347 4.02162e-19)
(3.28425 -1.56882 6.14341e-19)
(6.01374 1.16157 -1.66469e-19)
(6.38035 -2.53176 0)
(-2.43672 5.82801 0)
(4.60007 -1.46259 -2.19466e-19)
(3.27916 -0.824053 4.23478e-19)
(-2.24703 5.87004 5.38824e-18)
(4.68995 -0.239984 -2.27032e-19)
(3.99591 -0.0725959 1.01101e-18)
(4.45651 -0.790903 -9.06513e-20)
(-1.72557 -0.878731 2.3026e-18)
(0.110946 -0.69502 2.94247e-18)
(5.5118 0.548978 4.18529e-19)
(5.31676 -0.456436 2.11931e-19)
(3.83721 -0.113602 3.40168e-19)
(4.33882 -0.0105708 0)
(7.27218 -1.83085 0)
(3.66201 -0.736902 -5.7905e-20)
(3.73472 -1.76784 1.59997e-19)
(3.99681 0.00235706 -1.84972e-19)
(6.29379 -0.181341 5.74661e-19)
(6.22257 -0.0402382 0)
(4.8492 -0.00317384 1.44341e-19)
(4.19331 -0.117541 -3.73744e-19)
(4.01094 -0.102028 -9.12521e-19)
(6.88424 0.209168 -2.326e-18)
(3.48855 1.85829 -2.32169e-20)
(1.17069 5.25346 2.86039e-19)
(3.36485 -0.811632 -3.65234e-19)
(4.72037 0.909827 -2.0843e-19)
(3.60564 -0.275149 -1.29487e-21)
(5.03247 -2.28541 0)
(5.99159 -0.0713111 0)
(4.22465 0.034242 1.11613e-19)
(2.66646 -2.27264 -9.89333e-20)
(3.57557 -0.351879 0)
(3.34137 2.49795 -2.81452e-19)
(5.45966 -1.86721 0)
(3.92343 1.31928 5.94228e-19)
(4.96379 1.45899 8.10458e-19)
(-1.14534 -2.18991 0)
(3.71316 0.27469 -7.13712e-19)
(3.66886 -0.709768 8.52011e-20)
(3.8187 0.000416879 -6.81721e-20)
(4.10047 -0.285355 -1.24754e-18)
(7.31593 -1.46481 0)
(3.57761 -0.390883 -2.27678e-20)
(3.76872 -0.759499 6.75296e-21)
(4.0437 -0.0322418 2.13308e-19)
(3.61669 -0.200823 -8.86784e-19)
(2.16235 0.231744 1.10756e-18)
(4.09906 1.0185 2.5134e-19)
(5.18872 -0.288176 9.43162e-19)
(4.72151 -0.238138 0)
(4.34144 -0.336509 -7.4097e-21)
(5.29863 -0.217932 3.76614e-19)
(4.00313 0.00101988 2.76777e-18)
(5.38131 -1.0893 0)
(3.73957 1.13204 -7.57609e-20)
(3.2116 0.0412266 0)
(6.34996 0.985845 4.4439e-18)
(4.60032 -1.14823 -9.98122e-20)
(2.26131 -1.1065 7.66733e-19)
(5.89811 0.131049 1.3435e-18)
(3.9868 0.137668 0)
(3.96115 -1.17502 -3.93426e-20)
(7.30275 -1.41625 1.53385e-18)
(3.60512 -0.214463 8.36375e-19)
(5.3697 -0.175316 -1.12086e-18)
(4.75858 0.346433 -2.43411e-20)
(1.63494 -1.49169 -1.93672e-18)
(2.98683 0.630072 -1.08749e-20)
(4.82778 -0.00334645 0)
(2.81018 -1.13949 1.84913e-18)
(5.23093 1.75684 0)
(3.70838 -0.763169 -6.17074e-21)
(4.73803 0.0321332 3.18187e-19)
(4.21876 -0.259028 -4.60802e-19)
(4.12134 -0.0507893 3.6987e-19)
(2.32233 -1.19248 -2.16604e-18)
(4.01873 -0.0906597 1.13245e-18)
(3.408 0.0229062 0)
(-0.476563 1.15786 -1.79826e-19)
(4.90669 -0.167819 -1.88433e-20)
(2.95116 -2.1581 -2.09898e-21)
(5.16014 2.54628 -1.52153e-19)
(4.64039 -0.000141246 0)
(3.76527 0.881003 4.172e-19)
(3.79232 -0.107497 1.86152e-18)
(3.99783 -0.0476826 1.46468e-18)
(6.39052 0.54197 0)
(3.42487 0.0532354 -1.08417e-21)
(6.29305 -0.0537152 -5.30414e-19)
(-1.98193 1.57242 4.49247e-19)
(3.65373 -0.511141 2.03353e-19)
(4.8766 -0.154585 1.78537e-20)
(4.77352 0.0567581 7.16161e-21)
(4.81987 -0.0818768 0)
(3.5187 -0.253317 -8.05479e-19)
(2.66376 -3.50125 1.07415e-18)
(4.43234 0.612286 -5.5381e-19)
(3.99738 0.0076776 1.00387e-18)
(3.05133 0.0283702 0)
(3.78849 -0.907506 5.68065e-20)
(-1.15403 -2.27161 0)
(4.80658 2.12999 -2.93022e-20)
(4.53513 -0.0379583 0)
(5.37428 -1.44127 -4.66394e-20)
(3.26178 -0.708062 -4.45254e-19)
(3.10023 0.670872 2.34884e-18)
(-2.64892 1.24129 -2.80115e-18)
(6.59844 -2.23505 0)
(4.36891 0.0845357 -8.19107e-19)
(3.99385 0.147157 -7.86414e-19)
(-0.631596 0.30158 -4.16049e-19)
(6.38485 1.52228 7.182e-19)
(3.74696 -0.460608 -2.19976e-18)
(6.06232 0.405876 2.26954e-19)
(4.05484 0.180586 6.49065e-19)
(3.60367 -1.2275 0)
(3.14065 -0.104232 1.03803e-18)
(3.4851 -0.294777 -7.71938e-21)
(6.21471 -2.28954 5.88419e-18)
(2.58346 -3.62604 -4.20486e-18)
(-0.692791 0.0749357 -1.04408e-18)
(5.57984 0.553819 0)
(-0.800306 0.286546 0)
(3.48655 1.35763 0)
(4.55213 -0.114546 0)
(6.32559 -0.695717 -3.44832e-18)
(5.99523 1.17479 0)
(2.05883 -1.14649 0)
(3.67373 -0.224606 3.34583e-19)
(5.65978 0.535222 -7.56669e-19)
(4.77214 -0.0977337 -1.99718e-19)
(3.58392 0.0583775 3.3256e-18)
(4.01074 0.0166315 -3.97104e-19)
(3.57514 2.08713 0)
(5.86376 0.387666 0)
(3.99777 -0.113672 9.75945e-19)
(3.99403 0.0248538 1.72782e-19)
(2.80279 0.581658 0)
(1.97004 -1.34625 2.2955e-18)
(5.70408 -1.45399 -1.33148e-18)
(-0.00995926 2.71325 0)
(4.65809 0.208651 1.47938e-19)
(4.04264 -0.059799 -1.13549e-18)
(4.77055 3.82798 1.35488e-18)
(2.78984 -1.12484 0)
(3.97423 0.140052 1.40499e-18)
(4.82113 0.433232 0)
(6.23671 0.0416007 0)
(4.20459 0.238715 -1.2373e-19)
(3.97827 -0.0820076 5.44995e-19)
(1.86499 -1.08815 -2.32728e-18)
(4.1391 0.888985 3.69451e-19)
(3.37033 -1.0694 -7.11633e-19)
(4.53912 -0.096887 6.71891e-20)
(4.06735 0.192729 5.22578e-19)
(3.83671 -0.293386 2.12377e-18)
(6.03356 -1.33611 0)
(5.74872 0.911335 1.76573e-19)
(3.24281 -0.609506 0)
(3.69691 -0.800348 -4.9635e-20)
(4.86325 0.128868 0)
(3.36785 -0.380992 1.24647e-18)
(-3.00811 0.763591 -2.39379e-18)
(6.09343 0.334619 0)
(-0.726638 -0.476766 1.65443e-20)
(5.84899 0.366625 -3.76952e-19)
(3.10843 -1.26567 2.75447e-19)
(4.12859 -0.723633 1.5491e-18)
(2.92249 0.591168 -1.51399e-18)
(3.33716 -1.06489 -2.08155e-18)
(4.82383 2.22562 0)
(3.5566 -0.296674 -2.17916e-21)
(1.47426 -1.344 -4.34402e-18)
(3.97622 0.154464 0)
(3.80184 0.0136089 7.38027e-20)
(5.07942 0.109503 4.94343e-22)
(4.35568 1.74002 0)
(4.00379 0.00062411 0)
(3.79626 -2.64625 0)
(-1.46046 -4.50208 5.48411e-18)
(3.5164 -0.919271 1.09608e-19)
(5.90602 -0.497069 2.23255e-19)
(3.90151 1.2765 0)
(3.95304 -0.612992 1.24492e-18)
(3.2908 0.137705 5.12993e-21)
(4.15145 0.827577 -8.84663e-19)
(7.96288 -1.68071 1.05117e-17)
(3.89613 -0.00669982 0)
(2.91344 0.775684 0)
(2.34032 -0.830513 -1.37439e-18)
(3.54678 -1.20752 -4.59996e-19)
(4.38712 -0.39654 0)
(4.21105 -1.97439 3.89546e-19)
(3.47658 0.0440033 -8.18838e-22)
(3.17912 0.445738 5.2431e-21)
(2.47488 -1.2083 0)
(5.26765 -0.70555 6.08798e-19)
(3.53003 -0.26929 5.42648e-21)
(4.81371 0.388054 -3.23717e-19)
(4.57733 -1.22831 0)
(-0.284135 -0.514478 -4.44641e-18)
(4.19223 -0.172639 4.07269e-19)
(3.98713 0.0559908 2.73203e-19)
(3.39191 -0.00790167 5.33707e-21)
(4.49573 1.17046 0)
(3.55427 0.0658589 -8.87713e-19)
(5.48216 1.2968 -2.63831e-19)
(-0.533206 -0.123397 2.41202e-19)
(4.01146 0.0305106 0)
(5.7659 1.77783 -7.42991e-19)
(1.95336 -0.808328 0)
(4.0136 0.0364683 -1.09582e-18)
(3.98938 -0.000840162 4.05635e-19)
(3.99531 -0.175824 -1.87355e-19)
(-0.652778 -4.86283 0)
(4.69171 -0.0622515 -1.69519e-19)
(2.70351 -0.00221535 2.94178e-18)
(5.89902 -1.25725 0)
(3.64918 -0.254776 1.0413e-18)
(6.76224 -0.0198714 2.61887e-18)
(4.40146 -0.0195524 0)
(5.4574 1.88623 3.83468e-18)
(5.89388 -4.14167 -2.59571e-18)
(4.84539 0.0516848 0)
(-1.30222 -0.265668 2.65871e-18)
(3.78659 0.00274432 0)
(4.39079 -1.92899 5.35671e-20)
(2.9326 -4.23599 2.64369e-18)
(4.49807 1.49817 -6.20936e-20)
(4.59478 0.286054 4.19218e-19)
(3.15585 -0.110238 5.37971e-19)
(4.13335 -0.750706 -5.68698e-19)
(6.37801 -2.11242 -7.0541e-19)
(4.40124 -1.8907 1.56843e-20)
(4.82619 -0.195254 6.37678e-20)
(4.45506 1.17112 -7.4124e-19)
(5.40801 -2.26268 0)
(3.99847 -0.00157235 -8.90447e-19)
(0.380599 2.88428 -1.99862e-19)
(3.30667 -0.620161 0)
(3.45652 -0.411331 -7.4046e-21)
(3.01279 0.0429773 0)
(3.15462 -1.1176 1.83018e-18)
(5.30168 -1.69902 0)
(3.23609 0.0197756 -9.08613e-21)
(4.78611 -0.0115672 -1.85066e-19)
(4.00978 2.52566 7.47144e-18)
(4.92522 -2.96672 4.87104e-18)
(4.55164 0.0487955 -2.81e-21)
(4.54156 -2.09573 -1.02866e-18)
(4.32555 -1.19713 3.48473e-19)
(3.61428 -0.984259 0)
(2.43581 -0.997489 -1.32483e-18)
(6.08504 -0.998361 2.63834e-19)
(2.49196 -1.02579 -1.5073e-18)
(3.03561 0.520618 -6.27423e-21)
(3.59798 -1.44444 0)
(4.3464 -0.0328879 -9.03282e-21)
(2.07071 -1.28605 0)
(6.09669 -3.90253 3.54796e-19)
(4.55392 3.66211 -1.82585e-18)
(6.91236 2.73498 0)
(5.02949 -1.00606 -5.31518e-20)
(-3.51821 3.7374 0)
(4.41502 1.59935 0)
(4.11538 -1.89433 -7.59647e-20)
(3.25731 -0.000101141 8.5097e-19)
(2.16061 -3.89457 0)
(3.78756 -0.0716434 -5.27263e-19)
(6.05687 -0.210262 3.49512e-18)
(2.10465 -3.16398 4.1907e-18)
(4.1913 2.00766 0)
(4.2564 -0.0592711 0)
(0.944926 -0.967187 -1.75646e-18)
(4.18551 -0.369874 0)
(4.84478 -0.143359 0)
(-2.06839 -1.49858 -3.55791e-20)
(4.86289 -0.621183 -9.29683e-20)
(4.17908 -1.03054 3.8594e-19)
(5.62297 0.493509 3.27354e-20)
(2.22117 -0.914775 2.74019e-18)
(3.9895 0.00864681 4.55529e-19)
(3.6868 -1.02799 0)
(4.0355 0.554067 -3.16542e-19)
(3.44003 -0.810881 0)
(4.43774 -0.0518744 0)
(3.98417 0.0749453 0)
(4.19245 0.204783 -1.00512e-19)
(4.07261 -0.28939 5.85079e-19)
(5.56542 0.00378416 6.82278e-21)
(3.78225 -1.01827 0)
(2.04453 -1.09149 -1.75148e-18)
(3.56144 1.23529 7.97666e-19)
(4.62739 -1.55155 7.05592e-22)
(5.69685 -0.667533 -4.62647e-19)
(6.13344 1.13219 6.43629e-19)
(4.1989 0.0559873 -6.38343e-19)
(-2.88499 0.903674 0)
(4.19734 -0.0967545 0)
(2.98476 0.624223 0)
(3.20215 -1.45133 -1.2532e-18)
(-1.70255 6.23844 -6.17298e-18)
(7.21464 2.89779 0)
(4.07278 0.585922 0)
(3.61998 0.135408 7.04993e-19)
(4.21898 0.00858658 -1.11993e-19)
(3.62934 0.580691 1.331e-18)
(5.89507 -2.21801 0)
(-0.0702785 -0.646026 -7.11667e-19)
(4.41545 0.105225 4.79305e-19)
(3.47488 -1.14961 -1.14574e-18)
(4.24494 0.0730026 -6.50749e-19)
(4.13211 0.832504 1.13191e-18)
(-0.534039 0.728042 -3.38017e-19)
(3.15521 -1.46153 2.17855e-18)
(3.49543 4.02906 6.10121e-18)
(5.22113 -0.137293 2.33569e-21)
(4.00228 -0.000866236 -2.08557e-19)
(3.89701 -1.75264 1.78028e-19)
(5.92316 -3.58717 1.23387e-18)
(2.62393 2.09697 -9.0369e-19)
(4.1299 -1.92669 -1.45677e-19)
(4.36498 -0.360822 0)
(2.44152 -1.55075 -7.45137e-20)
(4.2923 -0.0610187 -1.33929e-18)
(4.844 1.46381 -3.72813e-20)
(3.42239 -1.10408 -1.06813e-18)
(4.56484 -1.48563 -1.29335e-19)
(4.19259 0.0360845 6.52604e-19)
(5.51034 -0.029608 -3.68665e-19)
(2.04188 -0.430454 -6.99022e-19)
(5.50029 0.572275 -2.1295e-19)
(3.00015 -0.822419 -2.70277e-18)
(4.3367 -0.0318337 -1.16195e-18)
(2.99333 -0.915297 0)
(2.01839 2.16434 -1.63841e-17)
(4.37271 0.0395162 1.36198e-18)
(2.81602 -0.000618202 -1.53648e-21)
(-0.465276 1.59288 0)
(4.9231 -2.17821 0)
(3.87928 0.411357 1.19684e-18)
(2.77723 -0.842713 1.71682e-18)
(-3.97004 0.946972 -2.01138e-18)
(5.44435 -1.40758 4.43492e-19)
(5.25044 -0.274269 -5.41447e-19)
(5.38654 1.71463 0)
(3.87425 0.461228 6.9309e-19)
(1.21251 4.58674 -1.53923e-19)
(4.09678 1.48866 -8.26626e-19)
(4.52784 -0.523818 -4.84253e-19)
(2.38159 -1.02467 -4.47522e-18)
(6.27404 1.13878 -6.51585e-19)
(5.71587 0.914925 6.43693e-22)
(3.76513 1.5292 0)
(7.14968 -0.668878 -6.9865e-19)
(4.01169 -0.169091 1.64815e-19)
(3.35181 0.106885 -8.96514e-22)
(2.47275 -1.21071 2.0912e-18)
(4.47829 -0.542145 7.30502e-19)
(3.40712 -0.629913 -8.42181e-20)
(2.18164 -3.32973 -2.52434e-18)
(5.66858 0.0753906 -3.20305e-19)
(4.3277 -0.0455651 1.0421e-18)
(-1.85765 -0.728274 -2.96306e-19)
(3.99989 1.34209 1.67522e-18)
(-0.944512 -0.319841 -2.88744e-18)
(2.96704 -1.43398 -5.59712e-19)
(3.41304 0.12247 0)
(4.09767 -0.144721 -1.55027e-20)
(-1.04017 -2.66046 -1.15901e-18)
(3.263 -0.749286 2.39235e-18)
(5.21299 0.776319 0)
(3.26207 1.78777 1.18513e-19)
(3.07992 -1.34146 5.13272e-19)
(3.99757 0.00723807 -1.97023e-18)
(2.52261 -1.98912 -2.37086e-18)
(2.85346 -4.76896 -1.45559e-18)
(4.78839 -0.0664381 1.27806e-19)
(4.35276 0.0975307 1.23205e-18)
(4.47208 -1.95476 5.00552e-20)
(5.58599 -0.0538169 4.94267e-21)
(-2.50639 5.29452 -1.39234e-17)
(4.24516 -0.0486534 1.25722e-18)
(4.50115 -0.0957347 -3.03858e-19)
(4.15301 0.104416 -1.33703e-20)
(4.91265 0.0149332 -5.64033e-19)
(2.9977 -1.36277 -9.95282e-19)
(5.17764 -0.150842 0)
(0.286812 -3.57221 7.23725e-18)
(4.26 0.0712479 1.23773e-19)
(5.05693 3.39296 1.80295e-18)
(4.6951 0.0851654 4.09718e-19)
(5.16563 -0.440941 2.25743e-19)
(3.99885 0.0177029 -1.72936e-18)
(4.02374 0.328853 3.97038e-19)
(1.98008 -1.19329 -2.35539e-18)
(4.97472 -0.132948 0)
(3.83872 -0.944489 -2.43586e-20)
(4.20266 -0.330489 4.71264e-19)
(3.61587 -1.41356 0)
(4.14381 0.0653866 8.52485e-19)
(4.31078 -0.384007 5.95626e-19)
(4.89706 -0.12573 4.6701e-23)
(7.40719 -1.58233 2.33563e-18)
(5.50819 -1.03919 0)
(3.63669 0.157538 1.72411e-18)
(3.42883 -0.540306 7.19387e-20)
(3.9799 -1.86742 -4.85323e-20)
(4.50481 -0.340023 0)
(3.26533 -0.0492214 -2.4416e-18)
(1.12353 2.43661 3.32591e-19)
(3.86223 1.94796 8.61325e-19)
(3.02722 -0.850452 2.58152e-18)
(5.0768 0.0670091 -4.24691e-20)
(4.455 -2.89335 3.52978e-18)
(4.26777 -0.31147 -7.82203e-19)
(5.75739 0.686053 -2.49535e-19)
(3.78756 -0.0919338 -1.08304e-18)
(4.62868 0.0948329 0)
(4.00554 -0.00523879 -7.81504e-19)
(1.74688 -0.370711 1.67944e-17)
(-0.206944 -0.10151 0)
(4.60167 1.64938 0)
(3.35428 0.112416 0)
(-0.226032 -0.34501 0)
(3.96484 0.301671 0)
(2.89541 -0.815609 0)
(9.67622 -0.556881 3.56054e-19)
(5.93532 -0.598861 -1.21751e-18)
(4.70184 0.695559 0)
(3.61047 0.13011 2.59726e-18)
(-0.793048 0.850655 -1.18037e-18)
(4.05254 0.191511 1.23947e-20)
(-1.54806 -2.09747 -4.85476e-19)
(2.83288 -0.490206 1.09502e-20)
(2.20792 -1.54436 2.10131e-18)
(3.53585 0.0420916 -1.75931e-19)
(5.20902 0.191996 7.44697e-21)
(3.94325 0.261418 -7.99325e-19)
(3.84697 -0.0121 -1.53946e-18)
(3.51604 1.08043 -1.42346e-18)
(4.77086 2.11102 0)
(7.09865 -0.303796 2.01031e-18)
(3.20626 -1.15979 -2.01318e-18)
(4.0217 0.0212354 -2.33617e-18)
(6.10961 -1.1354 2.7354e-18)
(4.70181 0.0245859 1.08326e-19)
(7.52864 -0.33685 -3.42367e-18)
(4.88909 -0.363058 -3.46528e-21)
(5.04626 -0.959354 1.91097e-19)
(3.99837 0.135243 8.2286e-19)
(3.45784 2.34125 0)
(6.0912 -1.96838 -5.72755e-19)
(3.70811 -0.265184 -3.22245e-19)
(5.9228 1.29393 0)
(4.72442 -1.27354 0)
(4.73286 -2.05221 -2.5538e-20)
(4.48768 -3.44454 4.1005e-18)
(9.25184 -0.400818 -6.22984e-18)
(4.24532 -0.223675 0)
(4.15528 -0.262837 -1.1504e-18)
(3.75539 -0.000257433 -2.95706e-19)
(2.40527 -2.47636 5.0048e-18)
(4.58953 -0.316647 2.67525e-19)
(2.4232 -1.70969 0)
(7.06975 -0.239655 2.43623e-18)
(4.54126 -0.361165 0)
(7.32345 -0.781765 9.47036e-19)
(3.73648 0.926183 -2.59386e-19)
(4.00591 -0.00709223 1.17866e-21)
(4.19134 0.944515 -2.03167e-18)
(4.24384 1.87233 -5.81926e-20)
(4.21349 -1.16772 8.08193e-19)
(2.85983 2.55365 0)
(-3.24207 5.43708 -4.87894e-18)
(-2.73577 3.06389 0)
(4.80196 0.723381 9.14295e-20)
(3.5268 -3.16887 1.06828e-17)
(4.82357 1.78418 -3.86114e-19)
(3.94184 -1.01271 2.33811e-21)
(-2.5648 -4.09744 -4.51439e-18)
(3.58331 -1.72336 5.63618e-20)
(3.28324 -1.15616 -1.10478e-18)
(3.49468 -0.296315 2.24694e-21)
(-2.74004 5.19561 3.94072e-18)
(3.04524 -1.38922 8.2575e-19)
(3.38093 -1.18624 1.20313e-18)
(-1.7997 5.81394 8.65379e-18)
(-2.1627 4.6276 -1.29198e-18)
(4.50468 -1.30994 2.00363e-19)
(-2.70684 1.43603 2.13095e-18)
(5.4592 0.0707102 1.40405e-20)
(-1.26128 1.13927 1.21793e-18)
(4.27652 0.611772 -4.97988e-19)
(5.66776 -0.601512 0)
(-0.106762 -0.276029 -2.32574e-18)
(4.17732 -0.0461627 -1.46058e-18)
(3.97684 0.0748457 0)
(4.76828 0.657703 0)
(-2.82431 6.86908 -6.02339e-18)
(5.49567 0.451017 -1.39061e-19)
(4.51542 0.38313 -1.0696e-18)
(4.84234 -0.62608 1.1171e-19)
(3.51905 1.09132 1.18461e-18)
(3.10471 -0.00618275 4.07553e-19)
(2.33044 -3.81361 -2.7548e-20)
(3.50746 0.519662 0)
(3.43207 -1.22453 1.13864e-18)
(-3.13005 -0.234557 6.56721e-19)
(-1.39327 -4.73062 3.64406e-18)
(4.24313 -1.55862 9.50473e-20)
(5.31429 -2.37037 9.88911e-19)
(3.62868 -0.0177481 2.57596e-19)
(4.32625 -1.04875 4.72763e-20)
(6.46864 0.379239 9.70083e-19)
(2.98805 -4.62682 -5.60936e-18)
(4.48877 0.36397 7.95536e-19)
(4.03084 -0.0965515 5.56625e-19)
(2.97613 -0.922692 -1.06726e-18)
(4.1841 -0.34132 6.76804e-19)
(1.49325 -0.334536 0)
(4.43047 0.62072 9.7644e-19)
(4.04045 -0.050196 1.26386e-19)
(3.56202 -0.937025 -3.70151e-19)
(2.96608 1.96754 -8.40457e-19)
(4.42759 -1.29636 2.15079e-19)
(4.33597 0.0174009 2.16513e-19)
(3.20303 -0.341717 -1.75057e-18)
(6.00411 1.06602 0)
(3.93139 -0.891752 2.69464e-21)
(4.26735 0.122008 8.86183e-19)
(6.16583 -0.899715 0)
(3.28717 -0.471528 9.56006e-19)
(4.6307 -0.323546 0)
(2.84459 1.88776 2.97431e-18)
(5.25477 0.00918133 0)
(6.27928 -2.07975 0)
(4.45923 -0.0153836 1.73924e-19)
(4.49435 0.281069 6.19888e-19)
(5.4228 0.753395 -3.56336e-19)
(3.90742 -0.0204019 -7.18615e-19)
(2.97157 1.12027 -7.87228e-19)
(3.98678 0.0547107 -3.45291e-19)
(4.00326 0.315272 0)
(-0.117312 -0.0573122 -8.80536e-19)
(4.67479 0.294347 -4.57443e-19)
(7.24458 -1.06364 -1.93552e-18)
(5.64446 -0.628363 0)
(4.90991 1.46875 -7.143e-22)
(3.39878 2.05886 -1.48992e-19)
(5.59364 0.0832954 8.17744e-21)
(-2.86052 -2.31861 0)
(-2.15585 -1.63822 1.59852e-18)
(4.02362 0.13456 0)
(6.3318 0.278481 -4.63219e-19)
(0.540945 -0.142124 0)
(4.63436 1.0659 0)
(1.81061 4.56654 0)
(5.15056 -1.71011 0)
(-2.59588 -0.127466 -3.24665e-19)
(-2.14921 -3.59676 -1.34533e-18)
(4.06979 -0.270569 -8.86219e-19)
(4.00849 1.9467 -8.91066e-18)
(3.20054 -1.4222 0)
(-0.212144 2.74161 -6.76339e-18)
(0.314036 0.139263 -7.57636e-19)
(3.90032 -1.79948 0)
(3.62072 -1.33955 -1.07726e-18)
(3.61412 -0.472738 4.65974e-21)
(4.26673 0.575487 1.29467e-18)
(6.78181 -1.63234 -1.80377e-18)
(3.84563 -0.0439757 0)
(5.69871 -1.34126 0)
(6.20251 1.31622 5.02293e-19)
(5.55536 -3.13436 1.95769e-19)
(3.62649 -0.290518 1.7835e-21)
(-2.69854 6.24229 7.77612e-22)
(3.99912 0.00284057 5.78583e-20)
(3.91615 -0.0916261 -4.06732e-21)
(3.99578 0.139828 1.17866e-18)
(3.77792 -0.77944 -2.27032e-20)
(4.5739 -1.1216 0)
(1.08546 -0.861912 0)
(5.56813 -0.0186229 0)
(3.15152 0.0146357 0)
(4.08343 -0.847779 4.21138e-19)
(5.4749 0.403819 0)
(-2.35059 -0.831296 3.53258e-18)
(-0.563987 0.772704 1.42419e-19)
(3.33353 -1.21416 -1.83712e-18)
(-0.406254 1.09647 3.3867e-19)
(-0.443833 -3.23332 -3.74675e-18)
(-2.79618 -0.696457 -2.01397e-18)
(4.29835 0.0500993 1.70406e-19)
(1.4117 -4.79051 -3.67933e-18)
(3.73252 -0.725653 -5.48802e-20)
(4.55352 -0.0332673 0)
(5.40969 0.209203 0)
(0.180905 -1.58278 0)
(5.18663 -0.488198 -1.40895e-19)
(-2.81411 3.7955 0)
(3.51534 0.547792 0)
(4.00151 0.00568468 0)
(4.22158 -1.03859 3.57113e-19)
(4.05592 0.18542 -1.2993e-18)
(3.11961 0.0971952 0)
(9.1625 0.115117 -3.41173e-18)
(3.94109 0.0988271 -9.89177e-19)
(4.1431 1.37356 1.68955e-18)
(3.93216 -1.8007 4.12277e-19)
(3.61337 0.666511 1.53535e-20)
(6.1037 -4.57237 -3.43431e-19)
(4.50943 -1.41787 2.17439e-19)
(7.20985 -2.35245 -1.94118e-18)
(4.46023 0.274621 -8.36675e-19)
(3.59748 -0.27026 9.99451e-22)
(3.8804 -0.166289 -9.77499e-19)
(4.22515 -0.0447323 0)
(4.83402 3.22316 -1.40307e-18)
(4.00509 -0.0572391 1.06145e-18)
(0.777777 4.02512 1.13293e-18)
(4.85484 -0.361637 -3.9854e-20)
(2.82808 -0.874964 -1.88474e-18)
(4.48633 0.265832 1.41772e-19)
(5.48179 1.32451 3.77217e-19)
(3.98729 0.0584468 0)
(2.18161 -1.24185 -2.42581e-19)
(4.30541 -0.423802 -3.93468e-20)
(7.24442 -2.42551 3.75386e-18)
(7.39711 -1.05601 -1.2617e-17)
(4.24136 -0.0180456 4.58909e-19)
(5.46792 -0.101861 -3.49571e-21)
(5.18868 0.0972857 3.36092e-20)
(5.61021 0.0217059 0)
(1.47884 1.60868 0)
(3.65355 -1.73233 6.16553e-19)
(2.64438 -1.95749 2.52892e-18)
(3.41315 0.0633908 7.99456e-22)
(4.01369 -0.0549929 2.09834e-18)
(2.21516 -1.25247 7.5092e-19)
(3.24134 -0.0858098 0)
(3.82845 -0.18498 0)
(3.83386 -0.985523 -2.99421e-20)
(4.33466 -0.0225633 2.62011e-19)
(3.65922 0.652338 1.90851e-18)
(4.34686 0.440173 0)
(4.56181 0.00211508 0)
(5.20621 -1.05666 -6.97435e-19)
(4.44324 -0.350732 4.84979e-19)
(0.115193 0.788794 -2.20654e-18)
(5.27641 -0.586979 0)
(4.09813 1.39997 1.12956e-18)
(7.85598 1.69296 -4.64677e-19)
(-0.979966 -2.67602 -1.43137e-18)
(4.29785 -0.124359 -8.88256e-19)
(6.55159 -0.0652284 0)
(5.47689 0.370445 9.4405e-20)
(-2.88774 -1.4824 -1.24619e-18)
(0.00615866 0.578177 0)
(3.30845 -0.00379615 -1.57455e-20)
(3.94269 -0.0644881 -7.11974e-19)
(3.3407 0.0274849 -1.08212e-23)
(3.9651 1.14919 4.78923e-20)
(2.76827 2.60164 1.61692e-19)
(4.19265 0.032852 0)
(2.83547 -1.1717 -2.22561e-20)
(2.00758 -1.12554 -7.01565e-19)
(-0.612529 -2.60074 -2.25552e-18)
(3.95371 0.255997 9.51197e-19)
(2.90445 3.68675 5.65118e-18)
(4.29513 0.00869709 -2.08478e-18)
(3.47444 -0.684529 4.81144e-20)
(4.17163 -1.2897 7.50677e-20)
(4.12061 -0.978679 0)
(3.90844 -9.11421e-05 -4.86924e-19)
(2.98424 -1.41371 6.5308e-19)
(4.73443 -0.0122607 -4.01954e-19)
(4.03563 -0.0400523 -9.3897e-19)
(6.33767 0.182503 4.09497e-19)
(3.84457 -0.629976 1.93325e-18)
(5.24669 0.0929782 -1.88835e-20)
(3.80291 -0.155479 5.96433e-19)
(3.46573 -0.407633 -1.22973e-20)
(5.6253 0.367791 -4.05823e-19)
(3.97871 1.45596 1.42429e-18)
(-3.69067 0.537136 1.59958e-18)
(4.00536 0.0263198 0)
(1.36386 -2.43786 0)
(7.7679 0.699029 0)
(3.32457 -1.16184 1.42638e-18)
(4.18769 0.0573386 -1.50399e-18)
(3.73481 0.000147571 0)
(3.65124 -0.957296 -1.0499e-18)
(3.74231 -0.0434629 0)
(4.09168 -0.770436 -6.88145e-19)
(7.52995 -1.03244 -2.53151e-18)
(4.49642 -1.07616 -2.67409e-19)
(4.26862 0.0334432 0)
(4.05423 -0.105699 0)
(6.122 -0.87566 5.67207e-19)
(4.6846 0.584709 -2.31971e-20)
(5.33562 0.138267 1.35136e-19)
(3.54594 2.24132 -5.71225e-20)
(4.23342 0.78927 0)
(4.26136 -1.51217 -1.48232e-19)
(-0.551731 -0.351726 0)
(2.18167 0.545533 -1.26103e-18)
(4.27832 1.8688 0)
(5.39893 -0.103419 8.87057e-21)
(2.99179 -0.791482 7.13134e-19)
(3.57591 -0.636368 6.55259e-19)
(4.52923 -0.653501 -3.8291e-19)
(-1.34496 1.46278 5.09992e-19)
(4.40436 -0.41352 1.22638e-18)
(3.97184 0.289476 -1.08921e-20)
(7.5769 -0.170128 3.9352e-18)
(4.69157 -0.82343 -8.35003e-20)