/*--------------------------------*- C++ -*----------------------------------*\
| =========                 |                                                 |
| \\      /  F ield         | OpenFOAM: The Open Source CFD Toolbox           |
|  \\    /   O peration     | Version:  2306                                  |
|   \\  /    A nd           | Website:  www.openfoam.com                      |
|    \\/     M anipulation  |                                                 |
\*---------------------------------------------------------------------------*/
FoamFile
{
    version     2.0;
    format      ascii;
    arch        "LSB;label=32;scalar=64";
    class       volVectorField;
    location    "0.4";
    object      U;
}
// * * * * * * * * * * * * * * * * * * * * * * * * * * * * * * * * * * * * * //

dimensions      [0 1 -1 0 0 0 0];

internalField   nonuniform List<vector> 
13486
(
(4.66961 -0.929563 8.84683e-21)
(5.26433 0.495405 3.81892e-21)
(6.28474 -0.0178033 0)
(4.0524 -2.31123 -5.92929e-21)
(7.42818 -1.50774 2.32914e-21)
(6.77816 0.10134 2.95852e-22)
(8.66568 -0.796148 1.12333e-22)
(6.30672 -2.26325 -4.4754e-21)
(6.04572 -1.27976 0)
(6.12144 1.45798 0)
(5.24755 -2.35699 -3.14515e-21)
(6.64264 0.0959731 0)
(4.3088 -1.4565 -8.90899e-21)
(7.2497 1.0634 9.30586e-22)
(7.75533 -0.56682 9.80395e-22)
(5.9919 1.54733 -2.15256e-21)
(3.19592 -2.25064 2.84704e-21)
(4.83081 2.1111 -6.89439e-22)
(6.56196 0.126053 4.07623e-23)
(5.15822 -0.503981 -8.65717e-21)
(4.00068 -2.60436 -2.43326e-21)
(4.34337 -1.4807 1.14773e-20)
(5.29932 0.652352 -3.05925e-21)
(5.78257 -0.94721 0)
(6.26152 1.15746 6.18645e-22)
(5.77249 -0.873599 -8.94994e-22)
(4.14422 -2.05948 3.48482e-21)
(5.76238 -0.203513 3.63124e-21)
(6.09332 0.0272736 0)
(5.87751 -0.307351 -1.95501e-21)
(3.473 -2.18459 -1.80811e-21)
(7.34243 0.420688 -1.30677e-21)
(6.51851 -0.681029 2.78634e-21)
(5.99072 0.0748727 0)
(6.35338 -2.15993 0)
(6.07678 0.0526521 2.24537e-23)
(5.97607 0.0890101 8.98072e-23)
(5.13903 -2.36827 4.5886e-21)
(5.86261 0.186541 -3.34289e-24)
(6.02538 -0.764246 4.353e-21)
(8.08788 -2.61282 0)
(3.87884 -1.84914 -1.05764e-20)
(6.15587 0.143943 0)
(6.15437 0.977584 -3.0619e-21)
(6.14794 0.989265 1.23002e-21)
(6.60235 0.194747 1.36608e-21)
(5.98427 -3.94477 1.18862e-20)
(5.96149 0.0188613 4.31988e-23)
(5.97165 0.0615564 -7.03451e-23)
(6.85725 -0.107021 1.70753e-21)
(5.55189 0.210544 4.71043e-21)
(5.87945 0.107562 0)
(6.45142 0.456994 -2.12807e-21)
(5.2294 -1.94467 -6.62283e-21)
(4.35833 1.53276 0)
(7.36585 -1.54513 -1.64522e-21)
(6.11611 -0.113636 2.21494e-23)
(5.85828 -0.0299184 -2.96211e-22)
(6.39638 -0.719395 3.31704e-21)
(5.97963 0.0328151 0)
(5.20045 -2.24691 -3.27441e-21)
(6.08114 0.0949397 0)
(7.36619 -1.95941 -4.3833e-21)
(3.78569 -2.4023 -3.07451e-23)
(4.91148 -0.908115 0)
(5.99832 0.0679887 4.41696e-23)
(4.03568 -2.15084 -5.40301e-21)
(4.55464 -0.0741769 2.9294e-21)
(5.98483 -1.29534 -2.48847e-21)
(5.80516 -0.29676 -1.37939e-23)
(3.90068 -2.04981 6.23876e-21)
(4.58725 1.57641 -2.20196e-24)
(5.83431 -0.301858 3.13677e-21)
(5.52019 -2.47712 -3.12495e-20)
(5.88449 0.0925093 4.42094e-23)
(5.99396 0.0219623 3.36089e-23)
(5.90069 0.0576853 -5.1422e-23)
(7.91557 -0.649927 -4.16379e-22)
(5.67866 -3.56303 -4.98646e-21)
(5.43658 0.237217 0)
(5.7281 -0.0513304 7.36659e-23)
(5.10379 0.753805 -2.50551e-22)
(7.17128 -2.15719 -3.61868e-22)
(6.19847 0.0403671 -2.06052e-22)
(4.64282 -0.916132 -1.72343e-20)
(4.97718 4.30435 0)
(5.7535 0.288137 2.77843e-22)
(6.0176 -0.00605613 -6.92673e-21)
(5.77644 0.345919 -3.11614e-21)
(5.74749 2.23673 -2.35176e-21)
(7.18388 0.771554 -6.04063e-22)
(6.70059 -1.90571 -2.24379e-21)
(4.82898 -1.16442 2.2629e-21)
(5.14164 0.0795885 2.18759e-22)
(5.85902 -1.84509 1.03332e-21)
(6.10914 0.0426688 -9.10446e-24)
(4.65972 -2.27406 0)
(4.39552 -2.30956 2.40079e-21)
(5.89918 -0.657488 -8.24938e-21)
(3.45433 -2.55342 -9.86353e-25)
(6.08248 0.0501577 0)
(7.08538 1.14197 2.93057e-22)
(4.39027 -2.20812 -5.30363e-23)
(5.93706 0.0831675 3.19025e-22)
(4.34903 4.02218 0)
(3.53016 -2.88895 9.69515e-23)
(5.85819 0.273006 2.15054e-23)
(5.7853 0.0941091 -8.26268e-23)
(5.78173 -3.65806 6.94532e-21)
(6.54496 -2.95523 0)
(5.56781 -2.61931 0)
(8.23566 0.423955 -2.83379e-23)
(5.26481 -1.89891 5.99122e-23)
(6.13275 -0.0102927 4.4956e-24)
(3.69731 -0.470261 0)
(5.46971 -2.58285 -3.88421e-21)
(6.19191 1.32746 0)
(6.06976 -0.0573936 0)
(5.88089 -0.416514 0)
(5.98412 0.0566937 3.36301e-23)
(5.12693 2.00367 4.29349e-23)
(5.14005 -2.28176 0)
(5.71994 -1.67226 0)
(5.81507 0.0439265 3.99416e-23)
(6.00662 -2.13806 0)
(5.92602 -0.00629919 0)
(6.68756 -0.717915 9.07925e-23)
(6.411 0.131283 8.60315e-22)
(6.04553 -0.0419983 -3.50516e-22)
(4.87861 -0.605844 -6.10066e-22)
(5.9017 0.0776728 -1.77967e-23)
(6.03657 -4.04141 -3.04759e-21)
(11.8826 -4.60731 2.84173e-20)
(-3.5418 4.86057 3.39601e-20)
(5.82632 -0.0916317 -7.58595e-22)
(5.90677 0.80038 -3.25173e-21)
(2.88187 1.4853 -2.59425e-21)
(6.41567 -2.86402 0)
(5.97802 0.0189233 2.57679e-24)
(6.30862 -1.81715 -1.59716e-21)
(6.65702 -0.512888 -3.20647e-21)
(6.54728 0.495741 1.84859e-21)
(6.93284 0.437977 0)
(5.61534 0.207083 0)
(6.43245 -0.0610306 1.02316e-22)
(6.57899 -1.72012 -5.20949e-21)
(6.0721 0.257054 -3.20676e-22)
(-1.12459 2.84612 0)
(6.68254 -0.274382 0)
(6.00823 0.0168196 0)
(5.94202 -0.158483 6.05671e-23)
(7.91174 -0.92385 0)
(5.98876 0.136559 -7.70966e-23)
(5.05241 0.728929 -2.13966e-21)
(6.4457 0.522115 0)
(6.13801 0.0745961 0)
(6.54104 -2.92595 0)
(3.31034 -2.80045 4.16109e-21)
(5.54532 -2.20696 9.4248e-21)
(6.02017 0.112098 3.05734e-22)
(6.60106 0.0279839 1.3029e-21)
(5.5533 -2.14446 -1.41447e-20)
(7.3447 1.59519 -8.77279e-23)
(3.49282 -1.72961 4.63769e-21)
(5.94366 0.0320681 0)
(7.42005 0.871006 -1.69786e-21)
(6.9665 1.02369 -6.90363e-22)
(2.06234 -0.668956 -1.17696e-20)
(6.06227 0.351574 7.69046e-22)
(-3.94348 5.23572 9.63822e-21)
(11.9376 -4.56332 -3.36808e-22)
(6.45059 0.478469 7.54347e-22)
(6.13708 0.257492 -5.42768e-21)
(6.99518 -0.307149 1.27782e-22)
(6.08382 0.0545442 1.89268e-23)
(4.67572 -1.88181 0)
(7.53514 2.03989 2.80345e-21)
(6.84783 -0.623842 4.78473e-21)
(5.9116 0.147783 -7.60724e-21)
(6.87255 0.245911 0)
(6.27582 -0.901552 8.66136e-21)
(6.03823 0.127245 2.59874e-23)
(7.0619 -0.144752 -4.26681e-23)
(3.83736 -1.86968 0)
(6.09513 0.149751 5.31188e-22)
(6.01203 -0.14867 -1.62251e-21)
(6.04226 0.00880621 -4.61612e-24)
(5.92486 -0.231858 -6.18727e-22)
(8.11618 -2.65059 0)
(4.99667 -2.39935 -5.32406e-21)
(5.93923 0.0578143 0)
(5.99491 -0.117626 0)
(5.77275 0.0146524 0)
(5.53802 2.18276 -4.59517e-21)
(5.65994 0.0950116 0)
(5.21171 -2.40695 -8.73559e-22)
(4.89468 -0.666717 1.39525e-21)
(6.54784 -0.0185184 5.25195e-22)
(4.67359 -2.28003 -2.08293e-21)
(7.24027 0.856934 -8.585e-22)
(3.25087 -1.92442 1.78378e-21)
(6.42274 0.0802288 -2.93425e-23)
(5.12944 -2.42121 -5.31721e-21)
(7.37005 -3.06574 5.1961e-22)
(5.91211 0.221224 -3.43969e-22)
(5.82974 0.0853511 -2.40876e-22)
(2.99311 2.40097 -1.41886e-21)
(5.57923 -0.157859 6.42705e-21)
(5.62025 0.0812717 0)
(6.22268 0.209576 0)
(5.89389 -0.0321577 2.32737e-21)
(5.54567 -0.835154 1.43205e-21)
(5.20756 -0.404128 7.95106e-21)
(5.73465 0.0585164 -2.26472e-23)
(6.75958 0.204829 -3.41184e-22)
(5.50241 -0.0295973 2.1003e-22)
(5.84024 -0.286365 0)
(5.95311 2.20852 6.3797e-21)
(5.06532 -1.20065 0)
(8.33279 -0.476495 0)
(2.95812 -2.19749 -5.82227e-21)
(6.83783 -0.270145 0)
(6.27465 -1.77604 3.73741e-21)
(6.59519 0.0647935 0)
(6.45238 0.470848 -2.79282e-22)
(4.46993 -2.07622 3.27802e-21)
(7.07289 0.179339 -9.16762e-23)
(3.99264 -1.66338 7.02151e-22)
(5.49925 0.0110293 7.13531e-23)
(5.85271 0.368764 -9.72223e-23)
(6.23223 -0.878596 -2.76352e-21)
(6.78074 -0.536361 5.79454e-21)
(6.7283 -0.454718 4.06781e-21)
(3.82429 -1.81686 3.62344e-21)
(4.21209 -2.24899 0)
(4.3393 -2.08973 3.87969e-22)
(5.74232 -0.0788807 1.01398e-21)
(6.16457 0.166898 -8.14197e-23)
(4.3174 -2.06022 1.06685e-20)
(6.93023 -0.0932314 0)
(6.33645 -0.81821 0)
(5.69822 -0.162027 8.38915e-21)
(6.00961 0.00759225 0)
(4.21272 -2.07941 3.54008e-21)
(5.84432 0.228651 -7.43747e-23)
(5.58107 0.0500438 0)
(6.48445 0.0642527 -5.98863e-22)
(5.80119 -0.582753 3.31824e-21)
(-7.41614 2.89979 6.72652e-20)
(5.98373 0.844384 0)
(4.62433 -2.20477 -9.80205e-22)
(3.60258 -0.389355 1.31763e-21)
(5.10401 -2.4931 4.90101e-21)
(5.80133 0.175483 0)
(5.71489 0.0517439 2.17496e-22)
(4.74817 -1.90836 4.60595e-22)
(7.50466 0.427239 1.03659e-21)
(5.34661 0.0152425 -2.654e-22)
(2.96196 -3.41199 -4.35768e-21)
(6.41069 -0.752474 1.97757e-21)
(5.40375 0.451948 0)
(5.92804 0.117549 7.80867e-24)
(7.80761 -0.584799 -2.34309e-21)
(4.76337 -1.90336 -5.751e-22)
(7.17605 -2.25591 -2.44759e-21)
(4.25469 -2.09407 0)
(5.66277 0.023414 -5.5592e-22)
(3.68083 -2.22987 -2.62333e-21)
(6.22166 -0.087812 -3.66146e-21)
(5.64889 1.03023 0)
(4.84005 2.15124 3.2908e-21)
(5.85192 0.0824128 -2.00793e-21)
(5.88422 -0.375316 0)
(6.45065 0.398464 1.06599e-21)
(4.5784 -2.1481 4.38232e-21)
(5.85472 -0.595296 -1.838e-21)
(5.62702 0.0555811 0)
(4.43177 0.201956 0)
(5.76177 0.0346544 -1.27223e-22)
(6.15221 0.456818 6.43653e-22)
(4.48916 0.199389 5.68753e-22)
(6.52443 -0.560521 -3.08392e-21)
(5.64314 0.249067 4.657e-21)
(5.95017 -1.38321 -1.77952e-21)
(5.06698 -2.30993 4.00729e-21)
(4.60622 -2.50961 6.09879e-21)
(6.78695 -0.588605 4.05836e-21)
(5.83003 0.089268 4.60918e-22)
(6.39863 0.498084 4.05032e-22)
(5.90545 -0.277525 0)
(4.19879 -2.2129 0)
(6.02852 0.165994 -5.49645e-23)
(5.40184 -2.54211 3.97847e-21)
(5.8625 0.224999 -7.14521e-22)
(5.91591 -0.170665 1.03486e-21)
(5.86164 -0.0991718 0)
(6.58767 -0.0865386 -1.48466e-21)
(6.6381 0.224977 -8.25081e-22)
(5.89958 0.169494 -4.09393e-21)
(8.4786 -1.57705 -5.73377e-23)
(7.12134 1.52321 1.08004e-22)
(3.12022 2.30562 2.93661e-22)
(6.10035 0.303814 -5.48504e-22)
(7.57502 0.259093 1.28626e-21)
(5.943 0.0663682 -1.69024e-23)
(6.26573 -3.01089 0)
(1.22363 0.152001 0)
(6.54893 -0.240215 1.1322e-21)
(5.96275 0.307972 -1.36564e-22)
(5.97614 0.0879893 0)
(7.34013 4.72598 -4.11793e-20)
(3.77663 -2.06816 0)
(7.18164 1.96858 -8.94672e-22)
(8.1262 0.438706 -1.24129e-22)
(5.71248 -1.99447 0)
(5.76429 0.785385 -1.93974e-21)
(5.94955 0.0490835 8.77114e-23)
(5.65506 0.335019 -2.69489e-22)
(5.75431 -0.337637 -7.1543e-21)
(5.64033 -0.0790007 0)
(6.0573 0.0919203 -1.01346e-22)
(5.92033 0.163161 -7.73439e-24)
(5.87035 0.0510425 9.76826e-22)
(5.18055 0.0502354 -4.13052e-21)
(2.88055 1.40585 4.83437e-21)
(7.20426 0.800103 1.17985e-21)
(7.08799 -0.993075 -8.19593e-21)
(6.41192 -0.610352 0)
(6.28013 0.227543 5.48118e-23)
(7.18532 -0.945966 -1.4412e-21)
(6.14596 -0.00481862 9.95701e-21)
(6.78158 -1.90528 0)
(7.06968 0.901906 -2.36108e-22)
(4.60315 0.732851 0)
(8.60131 -0.797835 2.46181e-22)
(6.0572 -1.69995 -2.76384e-21)
(3.01883 -1.42115 4.43949e-21)
(7.96085 -1.08448 -1.65865e-21)
(6.10745 0.374567 0)
(5.87185 0.141221 -2.33713e-23)
(5.6592 -0.0308417 6.56777e-22)
(5.10536 0.182963 3.90598e-21)
(7.21363 -0.913409 5.66563e-21)
(7.1398 -0.0381763 2.50883e-21)
(4.85604 -2.30708 -2.97916e-21)
(5.95415 0.0760902 -6.92191e-23)
(6.41263 -0.295513 0)
(3.5929 -1.31074 1.04215e-20)
(8.26848 -0.595911 0)
(5.9046 0.129885 -9.95013e-24)
(6.40134 -0.342825 4.87327e-21)
(6.42966 0.358425 -9.10307e-22)
(6.65761 0.238113 8.62987e-22)
(4.51781 -2.19991 -3.99843e-21)
(5.75798 -0.00953029 5.17954e-21)
(5.94338 -0.0127246 0)
(6.07432 -1.54877 -2.41193e-20)
(6.68421 -0.682251 -1.83152e-21)
(5.8731 0.385923 3.58361e-23)
(5.38864 -0.656921 1.32639e-21)
(6.76209 0.155049 0)
(6.9059 0.783328 1.0401e-21)
(5.30493 0.242551 8.08981e-21)
(6.00333 0.288796 6.15498e-21)
(5.93889 -0.314478 0)
(6.03194 -0.0702746 -1.44283e-22)
(5.8753 -0.0963675 -9.52317e-22)
(6.42376 -4.43947 2.17177e-21)
(5.00143 -0.479044 1.10548e-21)
(6.55796 -0.458904 1.74693e-21)
(6.08697 0.0893812 -4.95503e-23)
(6.76455 -0.373172 0)
(6.27147 0.483134 -9.83381e-22)
(4.71877 -2.23031 9.33349e-22)
(6.69515 0.393128 6.82294e-22)
(6.14041 0.318559 3.94798e-21)
(5.39383 0.1335 0)
(5.94471 0.178436 1.97952e-23)
(5.71918 -1.8916 0)
(10.2361 -0.317188 -6.67562e-21)
(6.0099 -0.0638361 0)
(6.80126 -2.20141 -1.00447e-22)
(4.37254 -0.614602 -2.4421e-21)
(4.91364 1.82444 7.77961e-21)
(6.44167 -4.29345 -8.3325e-21)
(5.59523 0.0271783 0)
(6.6312 0.215455 -2.57475e-22)
(6.03801 0.532827 -2.04299e-21)
(-1.4119 -0.930879 -6.05957e-21)
(2.86447 -2.58852 4.40921e-22)
(5.03623 -0.353007 -1.19942e-20)
(6.04941 -0.294377 9.78179e-22)
(6.40687 0.486858 1.23255e-21)
(4.81206 -1.52287 0)
(4.46818 0.524359 4.63725e-21)
(5.96266 0.0675825 6.63963e-23)
(3.87289 -2.16695 3.4004e-21)
(4.68433 -2.22607 -3.25626e-21)
(0.284034 -1.94756 -6.77144e-21)
(6.83399 -0.560482 0)
(-0.864729 -1.92713 0)
(6.41549 2.48182 0)
(6.21928 -0.469662 0)
(2.78432 -1.95919 -3.33218e-21)
(8.53864 -0.548271 0)
(5.91643 0.490108 0)
(5.1478 0.145592 1.62293e-21)
(6.48004 -0.619864 -4.91608e-21)
(6.71258 -0.466609 -4.05985e-21)
(5.23556 0.612586 1.33149e-20)
(6.11352 -0.0725679 -9.47523e-22)
(7.81464 3.9736 0)
(6.10424 -0.344687 0)
(5.8485 0.135031 4.42354e-21)
(6.02132 -0.0103127 7.89693e-22)
(4.58248 2.42468 0)
(3.85523 -1.83207 3.22371e-21)
(7.07552 -2.29526 2.74552e-21)
(10.5284 -5.42578 0)
(7.01175 0.0787498 2.66791e-21)
(5.94794 0.0681308 -5.09518e-21)
(9.52461 2.20969 6.77616e-21)
(3.57318 -1.27209 0)
(5.97153 0.402696 3.9021e-21)
(6.84271 -0.00212215 0)
(5.98122 -0.203001 0)
(6.45629 0.235517 -8.15488e-23)
(5.65932 0.183333 2.41682e-21)
(4.51494 -2.20601 -4.56616e-21)
(6.84632 1.14197 -7.07836e-23)
(4.42469 -1.25169 -4.34849e-21)
(6.33082 -0.227062 5.54727e-22)
(6.43229 0.441684 8.6159e-22)
(6.21183 0.552457 2.59336e-21)
(7.40259 -2.24786 0)
(5.92446 -0.624223 1.78668e-21)
(4.3787 -0.49181 0)
(6.00112 0.118524 -5.12308e-23)
(7.15452 -0.325068 0)
(4.68864 -0.128767 6.18501e-21)
(5.37336 -5.90909 -1.19159e-20)
(5.90389 -0.25415 0)
(1.66712 2.14173 1.36638e-21)
(5.9776 -0.390643 -2.32453e-21)
(5.94159 0.245464 2.3093e-22)
(5.56991 -0.939562 1.15155e-20)
(4.45357 1.68126 -4.89529e-21)
(4.4065 -1.2099 -1.2423e-20)
(10.2255 -0.172588 0)
(5.96354 0.0790587 -2.75287e-23)
(4.86034 -2.30095 -6.96084e-21)
(6.05508 0.489743 0)
(5.61998 0.585076 2.95254e-22)
(6.53419 -0.248161 -3.56874e-22)
(8.28734 1.56956 0)
(5.74483 0.0309453 0)
(3.65112 -1.83337 0)
(4.65314 -1.85203 1.99685e-21)
(5.79154 -1.36277 2.10753e-21)
(6.50182 -1.67331 1.51487e-22)
(7.14158 1.99659 0)
(5.33052 -0.78232 7.76004e-21)
(5.86236 0.00757071 2.75633e-24)
(6.79167 0.925813 3.74795e-22)
(4.16793 -2.58115 5.44983e-21)
(5.83013 0.398057 0)
(6.02828 -0.0716471 0)
(2.85123 -0.671584 -7.09769e-21)
(4.71471 -1.52469 -3.07018e-21)
(5.97696 -0.533569 0)
(6.11822 -2.86379 -3.54642e-21)
(5.9268 0.029134 -4.62972e-23)
(5.94531 0.00491326 7.30789e-24)
(3.25545 -1.49503 0)
(5.7712 -0.0670228 3.61488e-22)
(5.99147 0.0725585 -1.43789e-23)
(6.82877 0.0996429 1.60358e-21)
(6.00004 -1.80837 0)
(4.55708 -2.60045 -9.2313e-21)
(6.30217 0.337945 9.0108e-22)
(6.20528 0.368934 8.73879e-22)
(5.86775 0.111294 6.68314e-23)
(7.47806 0.708376 0)
(5.26675 0.485325 -3.57076e-21)
(7.66442 -0.595036 -2.91892e-21)
(1.14443 -1.97549 8.67908e-22)
(6.08454 0.127026 0)
(3.21744 -2.7054 -4.52423e-22)
(2.24216 -0.520087 0)
(6.03172 0.0313838 -3.36902e-21)
(6.17444 0.105773 1.50159e-21)
(5.55619 0.0490647 -9.69565e-22)
(4.6951 -1.92126 0)
(5.95624 0.106396 -5.49813e-22)
(3.8151 1.00728 1.28364e-20)
(7.3728 -2.23344 0)
(5.23777 -0.00846493 5.00202e-21)
(8.32849 -1.67294 6.79007e-23)
(6.27474 0.0442174 0)
(3.58046 -2.02446 1.08138e-21)
(5.64352 0.243138 -4.29696e-22)
(5.93737 -0.054616 0)
(4.19811 -3.14735 6.24319e-21)
(5.59658 0.358072 0)
(5.7498 -2.60599 3.82481e-21)
(4.65438 -2.15965 1.82466e-21)
(6.12753 0.0266609 5.91122e-24)
(6.72318 0.180521 -1.12836e-21)
(4.42148 0.467839 2.45444e-21)
(5.50692 -1.05755 -4.21799e-21)
(5.74069 0.0107954 -2.89204e-22)
(5.71672 -2.5261 4.93419e-23)
(6.81385 -0.582829 1.68036e-21)
(7.37298 0.693531 3.44795e-21)
(6.92488 -3.09478 0)
(5.98146 -0.0162942 -3.49756e-21)
(11.2156 -5.47097 -1.30231e-20)
(4.45262 -0.448394 0)
(6.04539 0.0506691 1.65019e-23)
(5.88361 0.0943433 0)
(4.17227 -1.28651 1.09082e-20)
(6.66355 -2.40592 0)
(6.03145 -0.110136 -1.41796e-22)
(6.95787 -0.0379217 -2.76459e-21)
(3.71579 -1.85288 1.80172e-21)
(4.00573 -2.0142 3.5199e-21)
(6.87037 -0.0902397 -2.0607e-23)
(6.15871 -2.94315 3.07906e-21)
(5.66822 -1.66998 4.19457e-21)
(4.82805 -1.15623 0)
(3.89939 -1.91576 -2.2287e-21)
(7.48937 -2.09621 -5.47062e-22)
(4.01191 -1.98409 -2.56604e-21)
(5.93063 0.0345465 1.4825e-23)
(4.77444 -1.86344 0)
(6.35585 0.00213813 -1.34691e-23)
(4.04393 -2.02522 0)
(4.38313 -2.25167 -4.84666e-23)
(9.42246 3.11248 -8.5549e-21)
(1.31993 -2.29445 0)
(6.58887 -1.61348 1.16217e-21)
(4.80309 -0.783259 0)
(8.34166 1.48841 0)
(5.58232 -2.63474 -5.03107e-21)
(4.67556 0.592878 3.69798e-21)
(5.53132 0.261947 0)
(5.37554 0.472147 -2.22814e-21)
(6.51019 -1.78086 5.9621e-21)
(4.75566 -2.24157 4.11351e-21)
(8.94477 2.5801 0)
(6.08639 -0.0357302 0)
(4.90971 -2.31756 -3.02851e-21)
(5.68743 -0.42781 0)
(6.27736 -0.00458764 0)
(5.15855 -2.21213 -1.15274e-23)
(6.49908 -1.12213 -5.59082e-21)
(5.57314 -1.39406 3.5665e-21)
(6.25527 -0.831109 2.83373e-22)
(3.8035 -1.90943 4.61221e-21)
(6.19458 0.0552852 1.77995e-21)
(4.93039 -1.27876 0)
(6.40102 0.852015 -4.06296e-22)
(4.60337 -0.856107 0)
(6.2616 -0.0589253 0)
(6.10178 0.666078 0)
(6.36673 0.379078 -1.24327e-22)
(5.76096 -0.243811 3.29467e-21)
(6.06794 0.00985687 -9.40979e-23)
(5.05617 -1.25219 0)
(4.06251 -1.98509 -3.24871e-21)
(6.45338 2.42595 3.3322e-22)
(6.00565 -2.16941 3.93427e-22)
(5.95318 -0.140095 -6.66687e-22)
(5.80902 -0.39594 3.06888e-21)
(5.93466 -0.113355 -2.97819e-21)
(5.64878 -6.56554 0)
(6.32585 0.318962 0)
(4.75161 2.14075 0)
(4.22929 -1.86815 -7.97978e-21)
(3.99808 -0.901091 -1.04537e-21)
(4.02956 -1.17463 0)
(6.57303 0.821354 0)
(6.40703 0.630373 1.00379e-21)
(6.32939 -0.153992 -8.51553e-22)
(5.94157 1.32344 3.11371e-21)
(7.57054 -3.07966 0)
(5.01676 -2.46468 -1.25825e-21)
(6.68112 0.0663723 -2.07351e-23)
(4.59044 -1.46137 -7.30961e-21)
(6.54302 0.0994691 -3.09465e-22)
(6.89115 1.01875 1.80257e-22)
(5.26604 -1.09351 1.10457e-21)
(4.19348 -1.84869 1.37709e-20)
(5.23005 -0.269169 9.06042e-22)
(6.09175 -0.0146132 3.046e-23)
(5.98207 0.0802136 -8.75388e-22)
(5.46835 -2.6491 -1.00621e-21)
(5.80153 0.148531 2.34423e-22)
(5.40772 5.69748 -1.15909e-22)
(5.95104 -2.81331 1.90777e-21)
(6.12909 0.207261 0)
(6.08027 0.325604 -9.63666e-23)
(6.04048 0.0822893 -2.2029e-21)
(8.12013 0.257527 2.00857e-21)
(4.48502 -1.33895 -6.6765e-21)
(5.95422 -2.06027 -4.25489e-21)
(6.31427 -0.0079204 7.88205e-21)
(6.76325 -0.262956 -4.52979e-21)
(6.15635 0.743032 -6.29152e-22)
(6.88147 -0.484375 -2.0216e-21)
(3.9095 -0.748934 -1.47154e-20)
(6.0836 0.0359739 -1.92097e-21)
(3.87852 -0.960863 0)
(4.01811 -1.69421 -3.11036e-21)
(5.88477 0.0373652 7.43429e-21)
(6.03274 -0.0395345 5.11987e-23)
(3.79914 -1.4857 0)
(6.37946 -2.92039 0)
(6.26765 0.84029 2.63622e-21)
(3.60389 -0.726674 9.20416e-21)
(4.90926 -1.22415 -1.67961e-21)
(6.91145 -2.20363 -1.90187e-21)
(7.00958 -0.915764 4.49318e-21)
(8.3382 -0.680172 0)
(6.23674 0.924592 1.35832e-21)
(4.14461 2.64711 4.907e-23)
(7.70322 1.82281 2.775e-21)
(6.15424 -0.825859 -4.93499e-21)
(3.97832 -1.98041 -7.33138e-21)
(5.78615 -0.493565 -2.94215e-21)
(5.7332 -0.698508 8.84237e-22)
(7.03733 2.56004 0)
(5.73328 -0.0947483 -4.34876e-22)
(5.55104 0.102428 8.25219e-22)
(5.98415 0.0928872 -1.58805e-23)
(3.50197 -1.72002 1.28288e-20)
(6.11722 -0.87559 7.43997e-21)
(5.99547 0.170153 -1.13683e-22)
(4.72631 -2.23357 -2.51947e-21)
(5.88655 -0.0769345 -1.17274e-21)
(6.20792 0.164007 1.71585e-21)
(5.08641 -2.33329 -5.21312e-22)
(7.41646 1.81718 -3.34973e-21)
(3.88985 -2.88872 -6.78359e-21)
(4.42903 -2.12653 -4.20672e-21)
(5.98477 0.0641468 0)
(6.03814 -0.0903727 -5.60148e-24)
(4.98798 -2.09385 -1.31016e-21)
(4.35591 -0.689041 1.30727e-20)
(6.04064 -0.00629871 0)
(6.95211 1.54492 4.55547e-23)
(4.04688 -1.6754 3.12922e-21)
(5.6106 0.041778 -7.59773e-21)
(4.68475 -2.28573 -2.99437e-21)
(5.55178 0.293775 -4.97698e-23)
(6.58359 -0.512176 2.7623e-21)
(6.62186 0.0911375 3.76915e-22)
(5.82079 -2.64726 -5.24437e-21)
(6.06247 0.0850564 9.75921e-23)
(4.25009 -1.00557 -2.59662e-21)
(5.98077 -0.0370012 2.07335e-21)
(6.18264 -0.150754 -2.42917e-21)
(6.39673 0.30895 -6.46847e-23)
(6.31777 0.333124 -4.66353e-21)
(3.94257 -1.72382 -6.04437e-21)
(6.03887 0.0710142 0)
(4.46564 -1.86205 1.73356e-21)
(6.09371 0.214547 5.54491e-22)
(9.87122 1.51583 5.79108e-21)
(6.78742 -0.0466351 -6.98739e-22)
(6.88769 -1.14568 -2.82586e-21)
(6.12886 -0.115576 -4.96651e-21)
(6.4385 0.654914 7.20308e-22)
(3.67547 -1.79088 -3.31346e-21)
(6.3856 0.124906 0)
(5.89067 0.0963004 -1.0368e-23)
(6.34926 0.192163 9.33014e-22)
(4.81226 -1.8074 0)
(6.26056 0.218628 1.02023e-21)
(6.19587 0.307545 1.10808e-21)
(6.27371 0.206357 1.07781e-25)
(8.33811 -2.93813 9.56997e-22)
(5.85598 0.148749 0)
(5.47717 0.734158 6.25832e-21)
(6.09853 0.105545 1.36944e-22)
(5.78757 -2.72231 4.26842e-21)
(6.16808 -0.633965 0)
(4.7442 0.51217 -1.07094e-20)
(5.46335 1.78233 -1.59739e-22)
(8.15016 3.19734 -7.22745e-21)
(3.92277 -0.815884 1.43989e-20)
(5.96326 -0.333926 -3.5011e-22)
(4.12802 -2.06354 2.70089e-21)
(5.865 -0.478315 -5.22281e-21)
(6.06227 -0.610088 -2.46249e-21)
(5.60523 0.173316 -4.77155e-21)
(6.10937 -0.0198217 0)
(6.38299 0.114368 -3.22554e-21)
(-1.88238 -0.145369 1.52627e-20)
(3.49023 1.94039 0)
(5.61064 -0.871352 0)
(6.17302 0.0176878 0)
(1.94303 -1.94971 0)
(6.1965 0.647669 0)
(3.79793 -0.716837 0)
(5.52637 -0.0899724 -8.96961e-23)
(6.29858 -1.44604 -2.61899e-21)
(7.06873 0.205303 0)
(5.50489 0.629434 9.423e-21)
(5.57511 0.884383 5.70068e-22)
(6.00838 0.310279 1.96984e-22)
(5.02366 -2.13078 -7.12138e-22)
(3.83609 -0.0783371 -4.29598e-23)
(4.01371 -1.98537 2.65807e-21)
(6.935 -0.0253106 -1.81139e-21)
(6.63047 -0.223456 2.71285e-22)
(6.03715 0.659322 -1.92195e-21)
(5.70166 0.338161 -6.13235e-21)
(6.16305 2.18924 -1.79382e-21)
(10.1249 0.298777 0)
(3.57488 -2.48231 1.15108e-21)
(4.20396 -1.31705 -1.19417e-20)
(5.9645 -0.0390011 -1.0579e-20)
(7.53832 -2.01871 -2.81534e-21)
(6.18926 -0.108781 8.15501e-22)
(8.73648 -1.75959 -7.87337e-22)
(6.61042 -0.835878 -6.18758e-22)
(6.56253 -1.59392 -4.05558e-21)
(6.07384 0.403794 2.11755e-21)
(11.6961 4.93218 0)
(5.71893 0.0265088 -2.05467e-22)
(5.2117 0.0678992 -1.38316e-21)
(8.54819 -0.280618 0)
(5.78378 0.0166025 0)
(6.14166 -2.77355 -3.66788e-23)
(4.29929 -2.14549 2.91965e-21)
(5.32149 -0.107616 -9.60573e-22)
(5.85015 0.061928 0)
(5.78213 -0.346875 -6.81709e-21)
(5.40377 0.353109 -1.24426e-21)
(4.29283 -1.92175 1.09398e-21)
(6.29894 0.105074 5.06113e-22)
(4.05646 -2.0135 0)
(3.97747 -2.79268 1.24392e-21)
(6.39889 0.200324 0)
(5.69519 -0.151068 4.70808e-22)
(6.88353 0.805159 -8.76053e-22)
(5.80541 0.210591 -3.7835e-23)
(6.93541 1.12821 1.26915e-21)
(8.62681 2.10136 -7.38285e-22)
(5.50583 -1.64182 8.75553e-21)
(1.60923 -1.83305 0)
(4.7503 -0.549767 -1.44053e-21)
(5.13809 0.583093 0)
(7.10552 0.0976187 -7.3497e-22)
(4.30417 -1.96154 2.52239e-21)
(5.77873 -0.874257 1.87023e-21)
(5.88516 0.094137 3.89492e-23)
(4.81635 -1.92402 -2.92813e-21)
(5.21876 -2.45643 -4.92986e-21)
(4.3292 -1.33257 -6.91546e-21)
(6.00203 0.0198092 -1.26172e-23)
(4.88262 -0.509323 1.17644e-21)
(3.99754 -1.75357 4.9572e-21)
(4.45041 -1.44279 7.48942e-21)
(3.98137 -0.929173 1.56573e-21)
(4.95064 -0.657586 -6.77434e-22)
(5.81585 -1.83422 4.25363e-21)
(6.44632 -5.05769 1.02293e-20)
(5.90231 -0.181623 6.48075e-23)
(5.55933 0.900364 -4.7162e-22)
(6.81357 0.72883 -1.53419e-23)
(7.34364 -1.58905 0)
(1.51718 -1.50379 -9.37261e-21)
(6.07417 0.0718447 -2.97771e-21)
(5.89573 0.49038 0)
(7.11254 0.167895 0)
(4.47694 -0.010044 -7.63614e-22)
(5.95008 -0.884412 -2.4799e-21)
(6.83615 0.0698057 1.31847e-21)
(6.45771 -1.18864 7.35491e-21)
(6.1809 2.24149 1.70979e-21)
(6.08425 0.0100629 4.44375e-21)
(4.41282 -1.97701 3.30615e-23)
(5.68681 1.50553 0)
(4.54575 -1.53026 7.12819e-21)
(5.48906 -2.7453 1.08888e-21)
(4.80879 -1.91642 2.23487e-21)
(5.50851 -2.09361 1.45852e-21)
(6.50697 -3.00445 -6.12112e-22)
(6.27868 -0.394781 2.55898e-21)
(5.87876 0.112091 4.47072e-23)
(5.7772 -0.197567 2.07618e-21)
(4.45231 -1.98882 -1.63775e-21)
(6.77147 0.214941 -9.93107e-22)
(5.66014 0.234193 2.61268e-21)
(3.87464 -0.94104 -5.92228e-21)
(5.66902 -0.452064 4.20783e-21)
(6.05277 0.674458 0)
(6.81054 0.491872 -1.05344e-21)
(5.92084 0.126085 5.80894e-22)
(4.81964 -1.07025 -2.27514e-21)
(6.44786 4.59926 1.22306e-21)
(5.76043 -1.76305 3.17342e-21)
(6.02382 -0.124651 1.14555e-21)
(4.51006 0.123088 -8.39228e-21)
(8.58875 -0.446744 0)
(5.90678 0.166489 4.11523e-24)
(6.56987 0.0635175 4.61538e-22)
(5.53907 -0.144921 0)
(4.37719 -0.149866 4.82791e-21)
(6.37922 0.102153 0)
(5.32608 4.27759 1.68493e-21)
(6.63263 0.248712 0)
(5.66808 0.0681374 0)
(6.54301 0.0409325 6.74961e-22)
(6.66801 0.186594 -5.35249e-22)
(7.11427 -0.466004 -3.86769e-21)
(5.69882 0.15584 -2.76693e-21)
(5.18555 2.4084 -2.05386e-21)
(6.01007 0.419407 -1.04873e-21)
(6.10156 0.627291 0)
(6.31158 -2.75229 -1.10987e-21)
(6.8139 0.114899 1.4403e-21)
(5.70979 -0.0793236 -9.61328e-22)
(7.34186 -1.57433 0)
(8.13673 0.26048 3.0594e-21)
(7.42931 4.08082 4.30677e-22)
(5.88245 -0.101097 4.97036e-22)
(5.11107 -1.59525 0)
(5.24152 -2.16123 2.55318e-21)
(6.1739 0.492165 0)
(5.82324 -0.270918 -1.08504e-21)
(-6.70025 3.07014 0)
(6.88381 -2.44732 0)
(5.2566 -0.187752 0)
(6.52615 -2.41686 0)
(5.1611 -2.46709 -5.8e-22)
(4.62463 -1.79499 -4.45786e-22)
(5.77574 -0.238569 -4.89348e-21)
(3.79533 -1.8354 -2.13211e-21)
(4.24379 -1.79461 0)
(3.99778 -1.53354 -1.14363e-21)
(-5.42635 1.97785 -6.67093e-20)
(5.23661 -2.41285 0)
(4.79836 -1.67008 -7.66748e-21)
(5.9913 0.0250668 2.58866e-23)
(6.67406 0.62159 -1.23485e-22)
(7.89606 -2.5807 9.68859e-23)
(5.66546 0.300813 0)
(7.10496 -2.14436 0)
(7.41738 -1.24415 1.73601e-21)
(5.73555 0.196989 3.64159e-23)
(5.97254 0.101777 2.70292e-23)
(4.5138 -0.0401129 5.82801e-23)
(6.10997 -0.108353 2.50435e-22)
(6.19037 -0.0381698 -1.92052e-22)
(6.17975 0.46742 2.94576e-21)
(5.95271 0.130908 -4.95658e-23)
(6.01115 -1.63355 0)
(4.89073 -2.38804 0)
(6.03117 -0.00937219 0)
(6.03367 0.0344822 0)
(5.52799 -1.06488 3.12748e-21)
(6.60088 -0.33809 0)
(5.21692 -2.33091 5.98422e-21)
(5.19992 -1.12843 -3.3254e-23)
(4.38155 -1.46418 -1.13238e-20)
(5.60436 1.06025 -3.11671e-22)
(4.45633 -1.79388 -9.74073e-22)
(5.36079 -2.42697 -3.18107e-21)
(5.6131 -0.129336 9.3855e-22)
(4.58367 -2.02358 -1.48596e-21)
(5.90355 0.0677358 -6.07598e-23)
(6.57587 0.0753298 0)
(7.51263 -0.70387 0)
(5.77661 0.586498 0)
(6.91174 -1.18822 1.49569e-21)
(4.89272 -0.735502 0)
(5.68398 1.31905 0)
(6.03993 -0.138099 0)
(5.59805 -1.35897 3.3527e-21)
(6.09143 0.440267 -2.50633e-21)
(6.03616 0.123258 0)
(5.72636 -0.145376 -1.12035e-21)
(5.90115 0.477072 -3.09322e-21)
(7.60751 1.62609 -5.91997e-21)
(5.2167 -2.36204 4.61652e-21)
(5.82705 1.42702 1.53624e-22)
(5.58781 0.135174 -2.7139e-23)
(5.78885 0.104593 1.25035e-22)
(5.58589 0.0382252 -4.56411e-22)
(6.76676 0.393084 6.8222e-22)
(6.00262 0.0247221 3.50101e-23)
(5.57249 0.0381265 -4.57125e-21)
(5.67645 0.0261892 0)
(9.63256 2.37787 -4.15517e-21)
(5.71929 0.0897554 4.69111e-21)
(4.55306 2.05593 2.49909e-22)
(6.58264 -0.805699 -1.84746e-21)
(3.67815 -0.780186 -1.00119e-20)
(6.64596 0.31209 -9.6269e-23)
(7.71401 -0.563678 4.22271e-21)
(6.06985 0.435843 0)
(5.98236 0.412636 -2.67551e-22)
(5.92136 0.0764836 -3.50669e-23)
(5.65732 0.00551206 9.13849e-22)
(4.24809 -2.71056 -6.21848e-21)
(5.96464 0.0451578 2.53762e-21)
(6.0019 0.0454778 -4.4101e-23)
(6.05365 0.120607 3.43494e-22)
(6.02729 0.0445935 0)
(5.97344 1.47777 0)
(4.96926 -2.34619 5.76489e-21)
(4.47948 -2.18471 3.23417e-21)
(5.8061 0.0339104 5.7973e-23)
(5.88601 0.212663 9.29574e-21)
(5.91193 0.492231 7.214e-22)
(4.76456 0.424278 0)
(5.3892 0.100565 0)
(5.12104 -1.22536 -2.32404e-23)
(6.59304 -0.0166914 8.90872e-22)
(5.9321 1.33171 4.15842e-21)
(7.01203 0.392639 0)
(5.98754 0.0721806 0)
(6.69276 -1.80896 5.5326e-21)
(6.11724 -0.466698 3.97002e-21)
(2.53011 -1.48664 -2.09564e-21)
(5.87449 0.129888 0)
(6.90735 -2.65798 1.9033e-21)
(5.67291 -0.362748 -3.96121e-22)
(4.95852 -2.10356 -1.8305e-21)
(5.91878 -0.167154 -5.40722e-21)
(6.38249 -1.40633 0)
(6.1614 -0.890974 1.9604e-21)
(5.18495 -1.58792 -2.09429e-21)
(1.78101 -0.997829 0)
(5.97777 -0.112492 -8.91459e-23)
(5.8177 0.223388 -2.98177e-21)
(5.81093 -0.18206 1.05801e-25)
(7.15054 0.888812 3.35765e-22)
(9.6261 7.34798 1.25377e-20)
(6.01525 0.0717358 0)
(3.62785 -1.36557 -7.15093e-23)
(6.07561 0.396337 -6.48907e-22)
(5.6229 -1.85714 -3.80783e-21)
(6.04503 0.700568 2.27589e-21)
(1.72533 -1.56283 4.05291e-21)
(6.0966 0.0441797 -1.14847e-20)
(6.13032 0.147203 5.59172e-23)
(5.94897 0.0929759 8.18669e-23)
(5.5627 -1.30381 0)
(5.60524 -0.12874 -2.11874e-22)
(3.91657 -1.79201 4.0026e-21)
(6.31205 -0.262984 -5.62448e-21)
(5.88946 0.0321386 -4.16536e-21)
(5.96586 -0.253161 1.04823e-21)
(5.23791 -0.606152 1.12441e-20)
(6.05757 0.0841312 -3.30689e-23)
(5.34913 0.163045 2.71484e-21)
(6.00021 0.0418354 7.75216e-23)
(6.28744 -0.818626 -3.23107e-21)
(7.49762 1.97911 -4.7642e-21)
(5.06134 -1.21708 1.31527e-21)
(6.30974 0.230489 0)
(5.70511 0.467626 0)
(3.99297 -2.33023 0)
(4.3811 -1.34801 8.70195e-21)
(5.81532 -0.00173462 -6.76979e-21)
(5.56156 0.365945 0)
(4.91182 -1.13324 -6.71771e-21)
(5.51407 0.373668 0)
(5.51797 -1.02792 -5.16893e-21)
(5.76655 -0.0823195 -9.93596e-22)
(5.97647 -1.56638 -4.63615e-21)
(6.09222 -0.280619 0)
(5.66535 0.214422 0)
(5.79955 -0.0363418 4.37171e-22)
(6.91576 0.200999 9.12049e-23)
(6.42462 -0.198159 1.70043e-21)
(7.84604 3.96894 -5.69758e-22)
(6.95441 0.54534 0)
(5.5837 -2.05459 -2.40946e-21)
(4.11298 1.79531 0)
(2.89865 1.75128 -4.71247e-21)
(8.6426 1.90323 0)
(6.04402 0.0482721 4.6089e-23)
(3.9269 -0.671777 3.81796e-21)
(4.79296 -0.546231 3.70407e-21)
(5.66154 -0.00876591 -6.12731e-22)
(5.09099 -0.9835 -4.26807e-21)
(6.06371 -0.611659 9.87829e-21)
(6.0918 0.675423 -2.25196e-23)
(8.54785 -2.02651 1.01909e-21)
(6.18766 -1.25885 -2.29532e-21)
(3.78348 1.49769 2.55821e-20)
(7.36002 0.441919 0)
(5.99784 0.0975755 -2.9969e-23)
(4.9623 -1.25193 0)
(5.95835 0.157014 -1.45974e-22)