# Force and moment coefficients
# dragDir     : (1.000000e+00 0.000000e+00 0.000000e+00)
# sideDir     : (0.000000e+00 0.000000e+00 -1.000000e+00)
# liftDir     : (0.000000e+00 1.000000e+00 0.000000e+00)
# rollAxis    : (1.000000e+00 0.000000e+00 0.000000e+00)
# pitchAxis   : (0.000000e+00 0.000000e+00 -1.000000e+00)
# yawAxis     : (0.000000e+00 1.000000e+00 0.000000e+00)
# magUInf     : 1.000000e+00
# lRef        : 1.000000e+00
# Aref        : 2.000000e+00
# CofR        : (0.000000e+00 0.000000e+00 0.000000e+00)
#
# Time        	Cd            	Cd(f)         	Cd(r)         	Cl            	Cl(f)         	Cl(r)         	CmPitch       	CmRoll        	CmYaw         	Cs            	Cs(f)         	Cs(r)         
9.90005       	1.316311e+02	-8.460526e+01	2.162363e+02	3.008416e+02	-1.390051e+03	1.690893e+03	-1.540472e+03	-1.504208e+02	6.581555e+01	9.823706e-18	6.581555e+01	-6.581555e+01
9.9001        	1.403285e+02	-8.757074e+01	2.278992e+02	3.154700e+02	-1.443679e+03	1.759149e+03	-1.601414e+03	-1.577350e+02	7.016425e+01	1.161852e-17	7.016425e+01	-7.016425e+01
9.90015       	1.444993e+02	-8.821562e+01	2.327150e+02	3.209306e+02	-1.459641e+03	1.780572e+03	-1.620106e+03	-1.604653e+02	7.224967e+01	1.330284e-17	7.224967e+01	-7.224967e+01
9.9002        	1.464786e+02	-8.809750e+01	2.345761e+02	3.226736e+02	-1.461964e+03	1.784637e+03	-1.623300e+03	-1.613368e+02	7.323929e+01	1.443263e-17	7.323929e+01	-7.323929e+01
9.90025       	1.474376e+02	-8.770226e+01	2.351398e+02	3.228421e+02	-1.458696e+03	1.781538e+03	-1.620117e+03	-1.614210e+02	7.371878e+01	1.532630e-17	7.371878e+01	-7.371878e+01
9.9003        	1.479179e+02	-8.719146e+01	2.351093e+02	3.223008e+02	-1.453080e+03	1.775381e+03	-1.614230e+03	-1.611504e+02	7.395893e+01	1.613584e-17	7.395893e+01	-7.395893e+01
9.90035       	1.481942e+02	-8.671214e+01	2.349064e+02	3.216185e+02	-1.447464e+03	1.769082e+03	-1.608273e+03	-1.608092e+02	7.409711e+01	1.688490e-17	7.409711e+01	-7.409711e+01
9.9004        	1.484102e+02	-8.630352e+01	2.347137e+02	3.210172e+02	-1.442495e+03	1.763512e+03	-1.603003e+03	-1.605086e+02	7.420510e+01	1.763982e-17	7.420510e+01	-7.420510e+01
9.90045       	1.484960e+02	-8.594811e+01	2.344441e+02	3.203922e+02	-1.437892e+03	1.758284e+03	-1.598088e+03	-1.601961e+02	7.424801e+01	1.829992e-17	7.424801e+01	-7.424801e+01
9.9005        	1.485996e+02	-8.569062e+01	2.342902e+02	3.199808e+02	-1.434453e+03	1.754434e+03	-1.594444e+03	-1.599904e+02	7.429979e+01	1.838454e-17	7.429979e+01	-7.429979e+01
9.90055       	1.487506e+02	-8.553297e+01	2.342835e+02	3.198165e+02	-1.432397e+03	1.752214e+03	-1.592306e+03	-1.599083e+02	7.437529e+01	1.828522e-17	7.437529e+01	-7.437529e+01
9.9006        	1.487990e+02	-8.537666e+01	2.341757e+02	3.195524e+02	-1.429828e+03	1.749380e+03	-1.589604e+03	-1.597762e+02	7.439951e+01	1.870901e-17	7.439951e+01	-7.439951e+01
9.90065       	1.489366e+02	-8.529807e+01	2.342346e+02	3.195327e+02	-1.428576e+03	1.748109e+03	-1.588342e+03	-1.597664e+02	7.446828e+01	1.897890e-17	7.446828e+01	-7.446828e+01
9.9007        	1.490045e+02	-8.523064e+01	2.342352e+02	3.194658e+02	-1.427350e+03	1.746816e+03	-1.587083e+03	-1.597329e+02	7.450226e+01	1.916581e-17	7.450226e+01	-7.450226e+01
9.90075       	1.491117e+02	-8.520792e+01	2.343196e+02	3.195275e+02	-1.426611e+03	1.746139e+03	-1.586375e+03	-1.597638e+02	7.455584e+01	1.928592e-17	7.455584e+01	-7.455584e+01
9.9008        	1.492112e+02	-8.519568e+01	2.344068e+02	3.196025e+02	-1.426122e+03	1.745725e+03	-1.585923e+03	-1.598013e+02	7.460558e+01	1.941167e-17	7.460558e+01	-7.460558e+01
9.90085       	1.492806e+02	-8.517125e+01	2.344518e+02	3.196231e+02	-1.425479e+03	1.745102e+03	-1.585290e+03	-1.598115e+02	7.464029e+01	1.957058e-17	7.464029e+01	-7.464029e+01
9.9009        	1.493164e+02	-8.516335e+01	2.344798e+02	3.196431e+02	-1.424963e+03	1.744606e+03	-1.584785e+03	-1.598216e+02	7.465820e+01	1.964345e-17	7.465820e+01	-7.465820e+01
9.90095       	1.494272e+02	-8.516796e+01	2.345952e+02	3.197631e+02	-1.424926e+03	1.744689e+03	-1.584807e+03	-1.598816e+02	7.471361e+01	1.980300e-17	7.471361e+01	-7.471361e+01
9.901         	1.495080e+02	-8.517560e+01	2.346836e+02	3.198592e+02	-1.424934e+03	1.744793e+03	-1.584863e+03	-1.599296e+02	7.475401e+01	1.989461e-17	7.475401e+01	-7.475401e+01
9.90105       	1.496096e+02	-8.518117e+01	2.347908e+02	3.199720e+02	-1.424985e+03	1.744957e+03	-1.584971e+03	-1.599860e+02	7.480482e+01	2.002835e-17	7.480482e+01	-7.480482e+01
9.9011        	1.496395e+02	-8.516294e+01	2.348024e+02	3.199653e+02	-1.424538e+03	1.744503e+03	-1.584520e+03	-1.599827e+02	7.481973e+01	2.015700e-17	7.481973e+01	-7.481973e+01
9.90115       	1.496705e+02	-8.515208e+01	2.348226e+02	3.199747e+02	-1.424183e+03	1.744158e+03	-1.584171e+03	-1.599873e+02	7.483526e+01	2.026752e-17	7.483526e+01	-7.483526e+01
9.9012        	1.497019e+02	-8.513484e+01	2.348367e+02	3.199716e+02	-1.423753e+03	1.743724e+03	-1.583739e+03	-1.599858e+02	7.485094e+01	2.040130e-17	7.485094e+01	-7.485094e+01
9.90125       	1.497587e+02	-8.513188e+01	2.348905e+02	3.200224e+02	-1.423686e+03	1.743709e+03	-1.583698e+03	-1.600112e+02	7.487933e+01	2.051684e-17	7.487933e+01	-7.487933e+01
9.9013        	1.498408e+02	-8.513917e+01	2.349799e+02	3.201191e+02	-1.423863e+03	1.743982e+03	-1.583922e+03	-1.600595e+02	7.492038e+01	2.061005e-17	7.492038e+01	-7.492038e+01
9.90135       	1.498384e+02	-8.511508e+01	2.349535e+02	3.200686e+02	-1.423351e+03	1.743419e+03	-1.583385e+03	-1.600343e+02	7.491922e+01	2.074267e-17	7.491922e+01	-7.491922e+01
9.9014        	1.498651e+02	-8.510758e+01	2.349727e+02	3.200803e+02	-1.423245e+03	1.743326e+03	-1.583286e+03	-1.600401e+02	7.493255e+01	2.083961e-17	7.493255e+01	-7.493255e+01
9.90145       	1.499041e+02	-8.510123e+01	2.350053e+02	3.201065e+02	-1.423149e+03	1.743255e+03	-1.583202e+03	-1.600533e+02	7.495204e+01	2.095859e-17	7.495204e+01	-7.495204e+01
9.9015        	1.499402e+02	-8.509170e+01	2.350319e+02	3.201236e+02	-1.422964e+03	1.743087e+03	-1.583026e+03	-1.600618e+02	7.497011e+01	2.109180e-17	7.497011e+01	-7.497011e+01
9.90155       	1.499376e+02	-8.506930e+01	2.350069e+02	3.200762e+02	-1.422539e+03	1.742615e+03	-1.582577e+03	-1.600381e+02	7.496881e+01	2.128674e-17	7.496881e+01	-7.496881e+01
9.9016        	1.499596e+02	-8.506577e+01	2.350254e+02	3.200912e+02	-1.422451e+03	1.742542e+03	-1.582496e+03	-1.600456e+02	7.497981e+01	2.108167e-17	7.497981e+01	-7.497981e+01
9.90165       	1.500342e+02	-8.509663e+01	2.351309e+02	3.202275e+02	-1.423019e+03	1.743247e+03	-1.583133e+03	-1.601137e+02	7.501711e+01	2.120636e-17	7.501711e+01	-7.501711e+01
9.9017        	1.500500e+02	-8.508144e+01	2.351314e+02	3.202128e+02	-1.422749e+03	1.742962e+03	-1.582855e+03	-1.601064e+02	7.502498e+01	2.135273e-17	7.502498e+01	-7.502498e+01
9.90175       	1.500761e+02	-8.508141e+01	2.351575e+02	3.202389e+02	-1.422631e+03	1.742870e+03	-1.582751e+03	-1.601194e+02	7.503803e+01	2.146372e-17	7.503803e+01	-7.503803e+01
9.9018        	1.500976e+02	-8.507259e+01	2.351702e+02	3.202427e+02	-1.422549e+03	1.742792e+03	-1.582671e+03	-1.601214e+02	7.504878e+01	2.159394e-17	7.504878e+01	-7.504878e+01
9.90185       	1.500786e+02	-8.505455e+01	2.351332e+02	3.201877e+02	-1.422178e+03	1.742365e+03	-1.582271e+03	-1.600939e+02	7.503932e+01	2.171652e-17	7.503932e+01	-7.503932e+01
9.9019        	1.500771e+02	-8.504058e+01	2.351176e+02	3.201582e+02	-1.421916e+03	1.742074e+03	-1.581995e+03	-1.600791e+02	7.503853e+01	2.183896e-17	7.503853e+01	-7.503853e+01
9.90195       	1.501411e+02	-8.506077e+01	2.352019e+02	3.202627e+02	-1.422405e+03	1.742667e+03	-1.582536e+03	-1.601313e+02	7.507056e+01	2.195286e-17	7.507056e+01	-7.507056e+01
9.902         	1.501787e+02	-8.508729e+01	2.352660e+02	3.203533e+02	-1.422905e+03	1.743258e+03	-1.583082e+03	-1.601766e+02	7.508934e+01	2.202235e-17	7.508934e+01	-7.508934e+01
9.90205       	1.501755e+02	-8.505795e+01	2.352334e+02	3.202914e+02	-1.422403e+03	1.742694e+03	-1.582548e+03	-1.601457e+02	7.508774e+01	2.220620e-17	7.508774e+01	-7.508774e+01
9.9021        	1.501765e+02	-8.504752e+01	2.352240e+02	3.202716e+02	-1.422235e+03	1.742506e+03	-1.582370e+03	-1.601358e+02	7.508826e+01	2.230939e-17	7.508826e+01	-7.508826e+01
9.90215       	1.501408e+02	-8.502285e+01	2.351636e+02	3.201865e+02	-1.421721e+03	1.741907e+03	-1.581814e+03	-1.600932e+02	7.507040e+01	2.242421e-17	7.507040e+01	-7.507040e+01
9.9022        	1.501317e+02	-8.500900e+01	2.351407e+02	3.201497e+02	-1.421474e+03	1.741623e+03	-1.581548e+03	-1.600748e+02	7.506585e+01	2.255685e-17	7.506585e+01	-7.506585e+01
9.90225       	1.501382e+02	-8.500044e+01	2.351387e+02	3.201391e+02	-1.421394e+03	1.741533e+03	-1.581464e+03	-1.600696e+02	7.506911e+01	2.268835e-17	7.506911e+01	-7.506911e+01
9.9023        	1.501228e+02	-8.498523e+01	2.351081e+02	3.200933e+02	-1.421121e+03	1.741214e+03	-1.581167e+03	-1.600466e+02	7.506142e+01	2.281980e-17	7.506142e+01	-7.506142e+01
9.90235       	1.501186e+02	-8.497420e+01	2.350928e+02	3.200670e+02	-1.420950e+03	1.741017e+03	-1.580984e+03	-1.600335e+02	7.505930e+01	2.289516e-17	7.505930e+01	-7.505930e+01
9.9024        	1.501125e+02	-8.495701e+01	2.350696e+02	3.200266e+02	-1.420672e+03	1.740699e+03	-1.580685e+03	-1.600133e+02	7.505627e+01	2.306954e-17	7.505627e+01	-7.505627e+01
9.90245       	1.501098e+02	-8.495581e+01	2.350656e+02	3.200214e+02	-1.420646e+03	1.740668e+03	-1.580657e+03	-1.600107e+02	7.505491e+01	2.317395e-17	7.505491e+01	-7.505491e+01
9.9025        	1.500934e+02	-8.494151e+01	2.350350e+02	3.199765e+02	-1.420392e+03	1.740368e+03	-1.580380e+03	-1.599882e+02	7.504672e+01	2.330258e-17	7.504672e+01	-7.504672e+01
9.90255       	1.500879e+02	-8.492958e+01	2.350175e+02	3.199470e+02	-1.420208e+03	1.740155e+03	-1.580181e+03	-1.599735e+02	7.504394e+01	2.344195e-17	7.504394e+01	-7.504394e+01
9.9026        	1.500770e+02	-8.491671e+01	2.349937e+02	3.199104e+02	-1.420025e+03	1.739936e+03	-1.579981e+03	-1.599552e+02	7.503850e+01	2.357692e-17	7.503850e+01	-7.503850e+01
9.90265       	1.500640e+02	-8.490665e+01	2.349706e+02	3.198773e+02	-1.419817e+03	1.739695e+03	-1.579756e+03	-1.599386e+02	7.503200e+01	2.370183e-17	7.503200e+01	-7.503200e+01
9.9027        	1.500580e+02	-8.489518e+01	2.349532e+02	3.198484e+02	-1.419641e+03	1.739490e+03	-1.579565e+03	-1.599242e+02	7.502902e+01	2.384136e-17	7.502902e+01	-7.502902e+01
9.90275       	1.500508e+02	-8.487770e+01	2.349285e+02	3.198062e+02	-1.419414e+03	1.739220e+03	-1.579317e+03	-1.599031e+02	7.502540e+01	2.393634e-17	7.502540e+01	-7.502540e+01
9.9028        	1.500208e+02	-8.486678e+01	2.348875e+02	3.197543e+02	-1.419137e+03	1.738891e+03	-1.579014e+03	-1.598772e+02	7.501038e+01	2.414766e-17	7.501038e+01	-7.501038e+01
9.90285       	1.500231e+02	-8.486419e+01	2.348873e+02	3.197515e+02	-1.419093e+03	1.738845e+03	-1.578969e+03	-1.598758e+02	7.501156e+01	2.427993e-17	7.501156e+01	-7.501156e+01
9.9029        	1.499979e+02	-8.483473e+01	2.348326e+02	3.196674e+02	-1.418626e+03	1.738293e+03	-1.578460e+03	-1.598337e+02	7.499895e+01	2.442357e-17	7.499895e+01	-7.499895e+01
9.90295       	1.499951e+02	-8.482684e+01	2.348219e+02	3.196488e+02	-1.418502e+03	1.738151e+03	-1.578327e+03	-1.598244e+02	7.499754e+01	2.457560e-17	7.499754e+01	-7.499754e+01
9.903         	1.499834e+02	-8.481602e+01	2.347995e+02	3.196155e+02	-1.418323e+03	1.737938e+03	-1.578131e+03	-1.598077e+02	7.499172e+01	2.472046e-17	7.499172e+01	-7.499172e+01
9.90305       	1.499757e+02	-8.479982e+01	2.347755e+02	3.195753e+02	-1.418065e+03	1.737640e+03	-1.577853e+03	-1.597877e+02	7.498785e+01	2.489046e-17	7.498785e+01	-7.498785e+01
9.9031        	1.499542e+02	-8.478520e+01	2.347394e+02	3.195246e+02	-1.417784e+03	1.737309e+03	-1.577546e+03	-1.597623e+02	7.497711e+01	2.503774e-17	7.497711e+01	-7.497711e+01
9.90315       	1.499425e+02	-8.477859e+01	2.347211e+02	3.194997e+02	-1.417663e+03	1.737163e+03	-1.577413e+03	-1.597498e+02	7.497126e+01	2.516652e-17	7.497126e+01	-7.497126e+01
9.9032        	1.499270e+02	-8.476805e+01	2.346951e+02	3.194631e+02	-1.417474e+03	1.736937e+03	-1.577206e+03	-1.597316e+02	7.496351e+01	2.531366e-17	7.496351e+01	-7.496351e+01
9.90325       	1.498987e+02	-8.475203e+01	2.346507e+02	3.194027e+02	-1.417153e+03	1.736555e+03	-1.576854e+03	-1.597014e+02	7.494934e+01	2.545322e-17	7.494934e+01	-7.494934e+01
9.9033        	1.498997e+02	-8.474430e+01	2.346440e+02	3.193883e+02	-1.417060e+03	1.736448e+03	-1.576754e+03	-1.596941e+02	7.494984e+01	2.561386e-17	7.494984e+01	-7.494984e+01
9.90335       	1.498622e+02	-8.472708e+01	2.345893e+02	3.193164e+02	-1.416675e+03	1.735991e+03	-1.576333e+03	-1.596582e+02	7.493111e+01	2.575458e-17	7.493111e+01	-7.493111e+01
9.9034        	1.498561e+02	-8.471668e+01	2.345728e+02	3.192894e+02	-1.416530e+03	1.735820e+03	-1.576175e+03	-1.596447e+02	7.492804e+01	2.591042e-17	7.492804e+01	-7.492804e+01
9.90345       	1.498638e+02	-8.470367e+01	2.345675e+02	3.192712e+02	-1.416386e+03	1.735657e+03	-1.576022e+03	-1.596356e+02	7.493191e+01	2.610052e-17	7.493191e+01	-7.493191e+01
9.9035        	1.498258e+02	-8.469010e+01	2.345159e+02	3.192060e+02	-1.416059e+03	1.735265e+03	-1.575662e+03	-1.596030e+02	7.491290e+01	2.623376e-17	7.491290e+01	-7.491290e+01
9.90355       	1.498084e+02	-8.467739e+01	2.344858e+02	3.191632e+02	-1.415825e+03	1.734988e+03	-1.575406e+03	-1.595816e+02	7.490422e+01	2.638449e-17	7.490422e+01	-7.490422e+01
9.9036        	1.497912e+02	-8.466375e+01	2.344549e+02	3.191187e+02	-1.415577e+03	1.734696e+03	-1.575136e+03	-1.595593e+02	7.489559e+01	2.653972e-17	7.489559e+01	-7.489559e+01
9.90365       	1.497605e+02	-8.464315e+01	2.344036e+02	3.190468e+02	-1.415184e+03	1.734231e+03	-1.574707e+03	-1.595234e+02	7.488025e+01	2.668943e-17	7.488025e+01	-7.488025e+01
9.9037        	1.497658e+02	-8.463890e+01	2.344047e+02	3.190436e+02	-1.415148e+03	1.734192e+03	-1.574670e+03	-1.595218e+02	7.488288e+01	2.691214e-17	7.488288e+01	-7.488288e+01
9.90375       	1.497478e+02	-8.462422e+01	2.343720e+02	3.189962e+02	-1.414883e+03	1.733879e+03	-1.574381e+03	-1.594981e+02	7.487389e+01	2.706414e-17	7.487389e+01	-7.487389e+01
9.9038        	1.497114e+02	-8.460555e+01	2.343169e+02	3.189225e+02	-1.414501e+03	1.733423e+03	-1.573962e+03	-1.594612e+02	7.485569e+01	2.721028e-17	7.485569e+01	-7.485569e+01
9.90385       	1.497072e+02	-8.459533e+01	2.343025e+02	3.188978e+02	-1.414346e+03	1.733244e+03	-1.573795e+03	-1.594489e+02	7.485358e+01	2.738441e-17	7.485358e+01	-7.485358e+01
9.9039        	1.496745e+02	-8.457816e+01	2.342526e+02	3.188308e+02	-1.413995e+03	1.732825e+03	-1.573410e+03	-1.594154e+02	7.483723e+01	2.753597e-17	7.483723e+01	-7.483723e+01
9.90395       	1.496677e+02	-8.456741e+01	2.342351e+02	3.188026e+02	-1.413828e+03	1.732630e+03	-1.573229e+03	-1.594013e+02	7.483387e+01	2.771510e-17	7.483387e+01	-7.483387e+01
9.904         	1.496517e+02	-8.456103e+01	2.342127e+02	3.187737e+02	-1.413682e+03	1.732456e+03	-1.573069e+03	-1.593869e+02	7.482583e+01	2.783375e-17	7.482583e+01	-7.482583e+01
9.90405       	1.496140e+02	-8.453367e+01	2.341476e+02	3.186813e+02	-1.413167e+03	1.731849e+03	-1.572508e+03	-1.593406e+02	7.480698e+01	2.802725e-17	7.480698e+01	-7.480698e+01
9.9041        	1.496013e+02	-8.452306e+01	2.341244e+02	3.186474e+02	-1.412980e+03	1.731627e+03	-1.572304e+03	-1.593237e+02	7.480066e+01	2.819544e-17	7.480066e+01	-7.480066e+01
9.90415       	1.495827e+02	-8.450920e+01	2.340919e+02	3.186011e+02	-1.412722e+03	1.731323e+03	-1.572022e+03	-1.593006e+02	7.479135e+01	2.836727e-17	7.479135e+01	-7.479135e+01
9.9042        	1.495608e+02	-8.449458e+01	2.340554e+02	3.185500e+02	-1.412442e+03	1.730992e+03	-1.571717e+03	-1.592750e+02	7.478040e+01	2.853750e-17	7.478040e+01	-7.478040e+01
9.90425       	1.495397e+02	-8.447969e+01	2.340194e+02	3.184991e+02	-1.412162e+03	1.730661e+03	-1.571411e+03	-1.592495e+02	7.476984e+01	2.871180e-17	7.476984e+01	-7.476984e+01
9.9043        	1.495254e+02	-8.446899e+01	2.339944e+02	3.184634e+02	-1.411965e+03	1.730428e+03	-1.571196e+03	-1.592317e+02	7.476270e+01	2.888295e-17	7.476270e+01	-7.476270e+01
9.90435       	1.495012e+02	-8.445349e+01	2.339547e+02	3.184082e+02	-1.411664e+03	1.730072e+03	-1.570868e+03	-1.592041e+02	7.475059e+01	2.905618e-17	7.475059e+01	-7.475059e+01
9.9044        	1.494812e+02	-8.443929e+01	2.339205e+02	3.183598e+02	-1.411395e+03	1.729755e+03	-1.570575e+03	-1.591799e+02	7.474060e+01	2.923444e-17	7.474060e+01	-7.474060e+01
9.90445       	1.494573e+02	-8.442393e+01	2.338813e+02	3.183052e+02	-1.411098e+03	1.729403e+03	-1.570250e+03	-1.591526e+02	7.472867e+01	2.941037e-17	7.472867e+01	-7.472867e+01
9.9045        	1.494370e+02	-8.440934e+01	2.338463e+02	3.182556e+02	-1.410822e+03	1.729078e+03	-1.569950e+03	-1.591278e+02	7.471848e+01	2.959089e-17	7.471848e+01	-7.471848e+01
9.90455       	1.494133e+02	-8.439389e+01	2.338071e+02	3.182010e+02	-1.410524e+03	1.728725e+03	-1.569624e+03	-1.591005e+02	7.470663e+01	2.977001e-17	7.470663e+01	-7.470663e+01
9.9046        	1.493921e+02	-8.437889e+01	2.337710e+02	3.181498e+02	-1.410239e+03	1.728389e+03	-1.569314e+03	-1.590749e+02	7.469603e+01	2.995321e-17	7.469603e+01	-7.469603e+01
9.90465       	1.493688e+02	-8.436352e+01	2.337323e+02	3.180958e+02	-1.409940e+03	1.728036e+03	-1.568988e+03	-1.590479e+02	7.468438e+01	3.013547e-17	7.468438e+01	-7.468438e+01
9.9047        	1.493424e+02	-8.434575e+01	2.336881e+02	3.180339e+02	-1.409613e+03	1.727647e+03	-1.568630e+03	-1.590169e+02	7.467119e+01	3.032140e-17	7.467119e+01	-7.467119e+01
9.90475       	1.493130e+02	-8.432678e+01	2.336398e+02	3.179665e+02	-1.409257e+03	1.727224e+03	-1.568240e+03	-1.589833e+02	7.465649e+01	3.051103e-17	7.465649e+01	-7.465649e+01
9.9048        	1.492865e+02	-8.431050e+01	2.335970e+02	3.179075e+02	-1.408941e+03	1.726849e+03	-1.567895e+03	-1.589538e+02	7.464326e+01	3.070119e-17	7.464326e+01	-7.464326e+01
9.90485       	1.492639e+02	-8.429436e+01	2.335583e+02	3.178527e+02	-1.408634e+03	1.726486e+03	-1.567560e+03	-1.589263e+02	7.463197e+01	3.088867e-17	7.463197e+01	-7.463197e+01
9.9049        	1.492383e+02	-8.427709e+01	2.335154e+02	3.177924e+02	-1.408304e+03	1.726096e+03	-1.567200e+03	-1.588962e+02	7.461914e+01	3.107906e-17	7.461914e+01	-7.461914e+01
9.90495       	1.492117e+02	-8.425883e+01	2.334705e+02	3.177293e+02	-1.407956e+03	1.725685e+03	-1.566821e+03	-1.588647e+02	7.460583e+01	3.127146e-17	7.460583e+01	-7.460583e+01
9.905         	1.491839e+02	-8.424045e+01	2.334243e+02	3.176648e+02	-1.407605e+03	1.725270e+03	-1.566437e+03	-1.588324e+02	7.459193e+01	3.146538e-17	7.459193e+01	-7.459193e+01
9.90505       	1.491517e+02	-8.421870e+01	2.333704e+02	3.175892e+02	-1.407189e+03	1.724778e+03	-1.565984e+03	-1.587946e+02	7.457587e+01	3.166275e-17	7.457587e+01	-7.457587e+01
9.9051        	1.491462e+02	-8.421540e+01	2.333616e+02	3.175770e+02	-1.407132e+03	1.724709e+03	-1.565920e+03	-1.587885e+02	7.457312e+01	3.184738e-17	7.457312e+01	-7.457312e+01
9.90515       	1.491289e+02	-8.420602e+01	2.333349e+02	3.175410e+02	-1.406945e+03	1.724486e+03	-1.565715e+03	-1.587705e+02	7.456446e+01	3.203048e-17	7.456446e+01	-7.456446e+01
9.9052        	1.491068e+02	-8.418640e+01	2.332933e+02	3.174797e+02	-1.406594e+03	1.724074e+03	-1.565334e+03	-1.587398e+02	7.455342e+01	3.224107e-17	7.455342e+01	-7.455342e+01
9.90525       	1.490689e+02	-8.416429e+01	2.332332e+02	3.173975e+02	-1.406155e+03	1.723553e+03	-1.564854e+03	-1.586987e+02	7.453444e+01	3.243609e-17	7.453444e+01	-7.453444e+01
9.9053        	1.490447e+02	-8.414576e+01	2.331904e+02	3.173362e+02	-1.405815e+03	1.723151e+03	-1.564483e+03	-1.586681e+02	7.452234e+01	3.264304e-17	7.452234e+01	-7.452234e+01
9.90535       	1.490119e+02	-8.412523e+01	2.331371e+02	3.172623e+02	-1.405416e+03	1.722679e+03	-1.564048e+03	-1.586312e+02	7.450594e+01	3.284313e-17	7.450594e+01	-7.450594e+01
9.9054        	1.489859e+02	-8.410625e+01	2.330922e+02	3.171984e+02	-1.405063e+03	1.722261e+03	-1.563662e+03	-1.585992e+02	7.449297e+01	3.305092e-17	7.449297e+01	-7.449297e+01
9.90545       	1.489546e+02	-8.408598e+01	2.330406e+02	3.171266e+02	-1.404674e+03	1.721800e+03	-1.563237e+03	-1.585633e+02	7.447731e+01	3.325533e-17	7.447731e+01	-7.447731e+01
9.9055        	1.489272e+02	-8.406651e+01	2.329937e+02	3.170602e+02	-1.404309e+03	1.721369e+03	-1.562839e+03	-1.585301e+02	7.446359e+01	3.346512e-17	7.446359e+01	-7.446359e+01
9.90555       	1.488961e+02	-8.404597e+01	2.329421e+02	3.169880e+02	-1.403916e+03	1.720904e+03	-1.562410e+03	-1.584940e+02	7.444805e+01	3.367440e-17	7.444805e+01	-7.444805e+01
9.9056        	1.488674e+02	-8.402467e+01	2.328921e+02	3.169167e+02	-1.403532e+03	1.720449e+03	-1.561990e+03	-1.584584e+02	7.443369e+01	3.389750e-17	7.443369e+01	-7.443369e+01
9.90565       	1.488532e+02	-8.401410e+01	2.328673e+02	3.168814e+02	-1.403316e+03	1.720197e+03	-1.561756e+03	-1.584407e+02	7.442659e+01	3.407418e-17	7.442659e+01	-7.442659e+01
9.9057        	1.488195e+02	-8.399201e+01	2.328115e+02	3.168036e+02	-1.402888e+03	1.719692e+03	-1.561290e+03	-1.584018e+02	7.440977e+01	3.429006e-17	7.440977e+01	-7.440977e+01
9.90575       	1.487966e+02	-8.397491e+01	2.327715e+02	3.167464e+02	-1.402579e+03	1.719326e+03	-1.560952e+03	-1.583732e+02	7.439829e+01	3.450283e-17	7.439829e+01	-7.439829e+01
9.9058        	1.487656e+02	-8.395383e+01	2.327194e+02	3.166733e+02	-1.402179e+03	1.718852e+03	-1.560516e+03	-1.583366e+02	7.438281e+01	3.471981e-17	7.438281e+01	-7.438281e+01
9.90585       	1.487346e+02	-8.393263e+01	2.326672e+02	3.165998e+02	-1.401777e+03	1.718377e+03	-1.560077e+03	-1.582999e+02	7.436728e+01	3.493811e-17	7.436728e+01	-7.436728e+01
9.9059        	1.487026e+02	-8.391085e+01	2.326134e+02	3.165243e+02	-1.401364e+03	1.717889e+03	-1.559627e+03	-1.582621e+02	7.435130e+01	3.516012e-17	7.435130e+01	-7.435130e+01
9.90595       	1.487058e+02	-8.390749e+01	2.326133e+02	3.165208e+02	-1.401332e+03	1.717853e+03	-1.559593e+03	-1.582604e+02	7.435291e+01	3.528797e-17	7.435291e+01	-7.435291e+01
9.906         	1.486489e+02	-8.387208e+01	2.325209e+02	3.163930e+02	-1.400658e+03	1.717051e+03	-1.558855e+03	-1.581965e+02	7.432443e+01	3.569895e-17	7.432443e+01	-7.432443e+01
9.90605       	1.486198e+02	-8.385120e+01	2.324710e+02	3.163222e+02	-1.400239e+03	1.716561e+03	-1.558400e+03	-1.581611e+02	7.430989e+01	3.587857e-17	7.430989e+01	-7.430989e+01
9.9061        	1.485595e+02	-8.381388e+01	2.323734e+02	3.161873e+02	-1.399531e+03	1.715719e+03	-1.557625e+03	-1.580936e+02	7.427975e+01	3.611445e-17	7.427975e+01	-7.427975e+01
9.90615       	1.485209e+02	-8.379164e+01	2.323126e+02	3.161042e+02	-1.399091e+03	1.715195e+03	-1.557143e+03	-1.580521e+02	7.426047e+01	3.633430e-17	7.426047e+01	-7.426047e+01
9.9062        	1.484930e+02	-8.377053e+01	2.322635e+02	3.160340e+02	-1.398700e+03	1.714735e+03	-1.556717e+03	-1.580170e+02	7.424649e+01	3.656837e-17	7.424649e+01	-7.424649e+01
9.90625       	1.484548e+02	-8.374602e+01	2.322008e+02	3.159468e+02	-1.398227e+03	1.714174e+03	-1.556200e+03	-1.579734e+02	7.422739e+01	3.679818e-17	7.422739e+01	-7.422739e+01
9.9063        	1.484236e+02	-8.372986e+01	2.321535e+02	3.158833e+02	-1.397891e+03	1.713775e+03	-1.555833e+03	-1.579417e+02	7.421180e+01	3.701598e-17	7.421180e+01	-7.421180e+01
9.90635       	1.484149e+02	-8.371597e+01	2.321308e+02	3.158468e+02	-1.397656e+03	1.713503e+03	-1.555580e+03	-1.579234e+02	7.420743e+01	3.724849e-17	7.420743e+01	-7.420743e+01
9.9064        	1.483811e+02	-8.369318e+01	2.320742e+02	3.157674e+02	-1.397221e+03	1.712989e+03	-1.555105e+03	-1.578837e+02	7.419053e+01	3.748467e-17	7.419053e+01	-7.419053e+01
9.90645       	1.483466e+02	-8.367024e+01	2.320168e+02	3.156871e+02	-1.396777e+03	1.712464e+03	-1.554621e+03	-1.578435e+02	7.417329e+01	3.773497e-17	7.417329e+01	-7.417329e+01
9.9065        	1.483081e+02	-8.364445e+01	2.319526e+02	3.155970e+02	-1.396289e+03	1.711886e+03	-1.554087e+03	-1.577985e+02	7.415407e+01	3.799067e-17	7.415407e+01	-7.415407e+01
9.90655       	1.482726e+02	-8.362072e+01	2.318933e+02	3.155141e+02	-1.395834e+03	1.711348e+03	-1.553591e+03	-1.577570e+02	7.413631e+01	3.823529e-17	7.413631e+01	-7.413631e+01
9.9066        	1.482344e+02	-8.359459e+01	2.318290e+02	3.154236e+02	-1.395336e+03	1.710759e+03	-1.553048e+03	-1.577118e+02	7.411720e+01	3.849110e-17	7.411720e+01	-7.411720e+01
9.90665       	1.481856e+02	-8.356891e+01	2.317545e+02	3.153234e+02	-1.394846e+03	1.710170e+03	-1.552508e+03	-1.576617e+02	7.409279e+01	3.869409e-17	7.409279e+01	-7.409279e+01
9.9067        	1.481552e+02	-8.354928e+01	2.317045e+02	3.152538e+02	-1.394446e+03	1.709700e+03	-1.552073e+03	-1.576269e+02	7.407759e+01	3.896243e-17	7.407759e+01	-7.407759e+01
9.90675       	1.481148e+02	-8.352436e+01	2.316391e+02	3.151635e+02	-1.393955e+03	1.709119e+03	-1.551537e+03	-1.575817e+02	7.405738e+01	3.921815e-17	7.405738e+01	-7.405738e+01
9.9068        	1.480804e+02	-8.349889e+01	2.315793e+02	3.150781e+02	-1.393492e+03	1.708570e+03	-1.551031e+03	-1.575391e+02	7.404018e+01	3.947524e-17	7.404018e+01	-7.404018e+01
9.90685       	1.480381e+02	-8.347271e+01	2.315108e+02	3.149835e+02	-1.392986e+03	1.707969e+03	-1.550477e+03	-1.574918e+02	7.401905e+01	3.971523e-17	7.401905e+01	-7.401905e+01
9.9069        	1.480283e+02	-8.346035e+01	2.314886e+02	3.149490e+02	-1.392759e+03	1.707708e+03	-1.550234e+03	-1.574745e+02	7.401415e+01	3.997200e-17	7.401415e+01	-7.401415e+01
9.90695       	1.479755e+02	-8.342837e+01	2.314039e+02	3.148322e+02	-1.392172e+03	1.707005e+03	-1.549589e+03	-1.574161e+02	7.398775e+01	4.023462e-17	7.398775e+01	-7.398775e+01
9.907         	1.479398e+02	-8.340529e+01	2.313451e+02	3.147504e+02	-1.391715e+03	1.706465e+03	-1.549090e+03	-1.573752e+02	7.396990e+01	4.049897e-17	7.396990e+01	-7.396990e+01
9.90705       	1.479008e+02	-8.338041e+01	2.312812e+02	3.146616e+02	-1.391229e+03	1.705890e+03	-1.548559e+03	-1.573308e+02	7.395039e+01	4.076670e-17	7.395039e+01	-7.395039e+01
9.9071        	1.478619e+02	-8.335572e+01	2.312176e+02	3.145734e+02	-1.390748e+03	1.705321e+03	-1.548035e+03	-1.572867e+02	7.393095e+01	4.103093e-17	7.393095e+01	-7.393095e+01
9.90715       	1.478221e+02	-8.333045e+01	2.311526e+02	3.144830e+02	-1.390256e+03	1.704740e+03	-1.547498e+03	-1.572415e+02	7.391106e+01	4.129992e-17	7.391106e+01	-7.391106e+01
9.9072        	1.477811e+02	-8.330445e+01	2.310856e+02	3.143900e+02	-1.389751e+03	1.704141e+03	-1.546946e+03	-1.571950e+02	7.389056e+01	4.157406e-17	7.389056e+01	-7.389056e+01
9.90725       	1.477391e+02	-8.327785e+01	2.310170e+02	3.142948e+02	-1.389234e+03	1.703529e+03	-1.546381e+03	-1.571474e+02	7.386957e+01	4.185099e-17	7.386957e+01	-7.386957e+01
9.9073        	1.476922e+02	-8.324774e+01	2.309399e+02	3.141876e+02	-1.388650e+03	1.702837e+03	-1.545744e+03	-1.570938e+02	7.384608e+01	4.213496e-17	7.384608e+01	-7.384608e+01
9.90735       	1.476642e+02	-8.323106e+01	2.308952e+02	3.141263e+02	-1.388321e+03	1.702447e+03	-1.545384e+03	-1.570632e+02	7.383209e+01	4.240291e-17	7.383209e+01	-7.383209e+01
9.9074        	1.476197e+02	-8.320271e+01	2.308224e+02	3.140251e+02	-1.387771e+03	1.701796e+03	-1.544784e+03	-1.570125e+02	7.380983e+01	4.268835e-17	7.380983e+01	-7.380983e+01
9.90745       	1.475768e+02	-8.317566e+01	2.307524e+02	3.139281e+02	-1.387244e+03	1.701172e+03	-1.544208e+03	-1.569640e+02	7.378839e+01	4.297550e-17	7.378839e+01	-7.378839e+01
9.9075        	1.475308e+02	-8.314601e+01	2.306768e+02	3.138228e+02	-1.386672e+03	1.700495e+03	-1.543584e+03	-1.569114e+02	7.376538e+01	4.326751e-17	7.376538e+01	-7.376538e+01
9.90755       	1.474927e+02	-8.312330e+01	2.306160e+02	3.137393e+02	-1.386221e+03	1.699960e+03	-1.543090e+03	-1.568696e+02	7.374635e+01	4.355789e-17	7.374635e+01	-7.374635e+01
9.9076        	1.474439e+02	-8.309273e+01	2.305366e+02	3.136294e+02	-1.385623e+03	1.699253e+03	-1.542438e+03	-1.568147e+02	7.372195e+01	4.386256e-17	7.372195e+01	-7.372195e+01
9.90765       	1.474068e+02	-8.306719e+01	2.304740e+02	3.135412e+02	-1.385173e+03	1.698714e+03	-1.541944e+03	-1.567706e+02	7.370340e+01	4.409258e-17	7.370340e+01	-7.370340e+01
9.9077        	1.473633e+02	-8.304206e+01	2.304054e+02	3.134474e+02	-1.384638e+03	1.698085e+03	-1.541362e+03	-1.567237e+02	7.368165e+01	4.441216e-17	7.368165e+01	-7.368165e+01
9.90775       	1.473179e+02	-8.301355e+01	2.303314e+02	3.133450e+02	-1.384081e+03	1.697426e+03	-1.540754e+03	-1.566725e+02	7.365894e+01	4.471943e-17	7.365894e+01	-7.365894e+01
9.9078        	1.472720e+02	-8.298462e+01	2.302566e+02	3.132412e+02	-1.383518e+03	1.696759e+03	-1.540138e+03	-1.566206e+02	7.363598e+01	4.502671e-17	7.363598e+01	-7.363598e+01
9.90785       	1.472255e+02	-8.295525e+01	2.301807e+02	3.131360e+02	-1.382946e+03	1.696082e+03	-1.539514e+03	-1.565680e+02	7.361274e+01	4.533572e-17	7.361274e+01	-7.361274e+01
9.9079        	1.471791e+02	-8.292596e+01	2.301051e+02	3.130310e+02	-1.382376e+03	1.695407e+03	-1.538891e+03	-1.565155e+02	7.358955e+01	4.564678e-17	7.358955e+01	-7.358955e+01
9.90795       	1.471325e+02	-8.289644e+01	2.300289e+02	3.129254e+02	-1.381801e+03	1.694726e+03	-1.538264e+03	-1.564627e+02	7.356623e+01	4.596029e-17	7.356623e+01	-7.356623e+01
9.908         	1.470855e+02	-8.286666e+01	2.299521e+02	3.128188e+02	-1.381221e+03	1.694040e+03	-1.537630e+03	-1.564094e+02	7.354274e+01	4.627640e-17	7.354274e+01	-7.354274e+01
9.90805       	1.470382e+02	-8.283664e+01	2.298748e+02	3.127115e+02	-1.380637e+03	1.693348e+03	-1.536992e+03	-1.563557e+02	7.351909e+01	4.659522e-17	7.351909e+01	-7.351909e+01
9.9081        	1.469905e+02	-8.280631e+01	2.297968e+02	3.126031e+02	-1.380046e+03	1.692649e+03	-1.536348e+03	-1.563016e+02	7.349525e+01	4.691678e-17	7.349525e+01	-7.349525e+01
9.90815       	1.469425e+02	-8.277573e+01	2.297182e+02	3.124939e+02	-1.379451e+03	1.691945e+03	-1.535698e+03	-1.562470e+02	7.347123e+01	4.724103e-17	7.347123e+01	-7.347123e+01
9.9082        	1.468941e+02	-8.274492e+01	2.296391e+02	3.123840e+02	-1.378852e+03	1.691236e+03	-1.535044e+03	-1.561920e+02	7.344707e+01	4.756783e-17	7.344707e+01	-7.344707e+01
9.90825       	1.468459e+02	-8.271412e+01	2.295600e+02	3.122742e+02	-1.378253e+03	1.690527e+03	-1.534390e+03	-1.561371e+02	7.342296e+01	4.789571e-17	7.342296e+01	-7.342296e+01
9.9083        	1.467937e+02	-8.268056e+01	2.294743e+02	3.121548e+02	-1.377600e+03	1.689755e+03	-1.533677e+03	-1.560774e+02	7.339687e+01	4.824429e-17	7.339687e+01	-7.339687e+01