/*--------------------------------*- C++ -*----------------------------------*\
| =========                 |                                                 |
| \\      /  F ield         | OpenFOAM: The Open Source CFD Toolbox           |
|  \\    /   O peration     | Version:  2306                                  |
|   \\  /    A nd           | Website:  www.openfoam.com                      |
|    \\/     M anipulation  |                                                 |
\*---------------------------------------------------------------------------*/
FoamFile
{
    version     2.0;
    format      ascii;
    arch        "LSB;label=32;scalar=64";
    class       volScalarField;
    location    "2";
    object      p;
}
// * * * * * * * * * * * * * * * * * * * * * * * * * * * * * * * * * * * * * //

dimensions      [0 2 -2 0 0 0 0];

internalField   nonuniform List<scalar> 
13486
(
21.9757
17.4969
0.542508
-4.21061
7.85719
-2.96982
3.52753
12.8864
15.096
8.50394
-121.318
3.42774
23.2354
-2.30136
5.72794
8.93223
-51.739
0.455261
4.59722
19.8027
-3.08635
23.0221
17.1491
-25.2561
7.24382
-22.135
-60.9643
-10.64
-0.00521206
-9.62172
-2.21732
4.11151
-20.8625
-6.91186
12.8908
-0.0290243
-0.249427
18.3095
-1.69653
14.8539
3.30597
24.168
0.152462
7.41166
7.29673
3.30682
-39.5888
0.00610801
-0.26126
-10.6946
12.6831
-1.78335
2.50935
18.5698
-0.154642
8.19397
0.223178
-1.80683
-19.4173
-0.280599
-135.879
-0.234474
-32.0579
-2.80573
-11.684
-0.257972
-5.69171
21.9265
15.0268
-0.633771
-5.65004
0.0867722
15.0534
-47.1298
-0.159166
0.199841
-0.130262
5.60204
-45.5388
-2.72792
0.0298079
17.6298
-32.6845
0.626355
22.0683
6.72894
-2.12518
11.9651
14.6729
9.82105
2.85914
11.2997
21.1419
18.788
15.8443
0.00536851
-63.1051
-8.92616
14.7917
-52.6681
0.0517034
-1.62573
-8.93696
-1.81813
9.75297
-50.8484
14.5104
-1.8269
-44.8208
10.7298
15.0895
3.4579
18.5251
0.286316
25.7829
15.348
7.56271
-6.20356
15.2109
-0.230117
0.481177
-128.022
16.521
-1.79654
14.7342
-1.72599
10.6772
3.02682
-5.37508
-10.0811
-1.68773
-37.6716
-49.5311
-32.4807
13.1854
11.9399
23.9846
10.9488
-0.223347
13.154
-16.3668
2.24429
4.09728
-2.7845
0.332617
-48.2586
-1.29418
19.306
-11.353
0.0396303
8.04379
5.58117
0.0427697
18.093
3.85007
0.461105
9.04122
0.26111
16.6773
-2.68065
-8.34405
16.6627
1.73253
24.0051
-1.86134
-5.2234
-0.0433013
29.5762
-0.817703
-32.9074
-51.2263
3.90442
9.86723
7.95925
0.00601462
-40.446
-3.87492
-18.9891
14.5768
4.13572
14.144
0.29968
6.2959
-63.1365
0.363333
-10.6391
-0.00501634
-8.73092
3.71564
16.3043
-0.273358
0.451964
-2.13996
19.3195
-2.4302
-115.958
-9.91938
-8.32515
20.2624
-4.12118
-2.33035
2.84507
18.3053
7.51008
-2.11948
-2.4727
0.183772
16.0926
-2.07703
0.505648
-9.58563
-17.1269
19.5389
14.4998
-2.95518
-4.91292
-10.2825
9.98478
20.0996
-20.9616
-50.5563
-11.4257
13.4065
-8.6437
1.15326
21.6125
-5.45675
-7.54824
-4.19724
-1.99718
13.956
-4.08265
-17.0977
24.6867
-6.35574
20.8788
-7.41761
0.548071
21.1069
6.50759
-20.9647
9.77885
0.373836
19.9579
-1.68834
16.7461
6.71655
-15.277
-40.6162
8.44031
-30.4449
26.0019
14.6889
-1.90843
-3.35808
-52.752
4.02236
-4.75839
0.0219011
-21.061
16.117
-1.60893
5.64204
-47.4341
8.765
-64.6991
-4.22548
-2.81166
14.0018
0.174828
15.282
14.1668
-10.5512
2.45116
21.6842
-14.4553
-3.32948
-2.20465
-1.99853
-0.360889
-2.36484
12.2798
14.8002
-48.1727
-115.154
-55.5725
-16.5292
-5.77354
1.31226
14.078
-5.44562
-0.939983
16.0945
13.2208
-7.02051
-8.08848
-8.36915
2.24528
15.1148
3.49724
1.38403
0.270558
-0.795697
4.30329
-0.321042
6.94002
-0.866925
6.89022
-2.3833
-0.258142
-27.4694
-3.93842
-1.21237
3.52666
-124.795
12.1296
-1.14839
14.645
16.1657
-4.68946
-0.23041
-0.974155
14.4374
18.9232
24.8867
3.05158
9.55388
12.0767
1.1048
8.94751
12.0325
10.8916
2.57957
20.1942
3.34047
15.0057
26.9029
5.91173
8.86466
-1.6688
-4.49194
18.6739
8.72226
6.45007
-68.9614
0.00482535
9.90609
25.9097
-21.2344
-1.27914
9.65976
1.54384
2.2872
-66.7509
15.0257
-0.141171
-46.6647
10.6308
-2.08395
-16.4817
5.06177
2.81827
16.3525
14.2298
-10.1426
-0.0135441
-7.69075
-33.4376
19.9885
10.7032
0.130677
10.0164
1.06085
-38.4634
-1.6422
12.7645
14.3794
-1.43889
-120.981
-31.9698
13.8797
10.5671
23.0913
15.8508
-33.6731
-3.50652
0.425934
8.70189
-53.1031
-1.38261
19.1977
-11.0905
5.84568
21.1283
21.5023
-0.138409
-4.60383
-35.6666
-51.9393
-17.0056
-52.1416
3.95589
13.1539
-1.37974
3.61196
-1.23339
18.6334
-18.4833
10.5326
16.6902
8.09735
-8.1448
-12.1653
15.1252
14.3028
18.3171
-59.1263
9.03591
-49.5624
6.71031
14.5841
1.77687
25.9455
9.38344
-6.79278
-8.40477
2.72105
14.7472
-60.5067
0.647966
22.84
13.1269
5.68412
1.17075
7.52467
-15.8301
22.9204
-1.03189
8.18786
21.5641
-50.7254
-10.7732
-31.7667
-12.283
-4.18962
17.5154
17.6571
22.8927
-31.7374
-0.285315
-71.759
9.16877
14.8342
-10.6488
-10.5534
14.0348
-26.67
-40.1509
-50.4818
-46.025
-0.445567
18.536
0.00355069
0.939007
-3.20559
13.9691
0.0286682
28.0192
21.4369
14.9661
12.4363
0.049696
-0.0181569
26.7828
-3.51053
-0.186892
-7.10716
15.096
-54.4959
2.07056
10.1608
-0.187669
-6.49851
16.9062
-19.0134
-51.7765
9.42974
-1.44618
29.2953
9.50895
12.7286
15.9195
-45.206
1.10439
23.5578
7.98954
19.0568
3.82358
3.74069
-3.3738
-2.73233
0.24358
-52.2235
15.0949
15.1446
-30.7115
0.0278363
-3.53403
21.7509
17.6035
-3.47827
15.4037
10.8966
-6.16361
9.06043
12.8299
-53.2587
22.6568
-0.0587561
-0.649895
23.9548
10.7862
-0.0137896
9.74748
-4.03758
-20.4721
5.72906
10.194
16.66
21.2542
-72.9926
7.36464
-73.5885
6.76091e-05
20.759
3.43728
-60.6685
-10.5028
1.69045
0.000553284
12.2252
-11.8962
-10.5683
15.4383
19.9894
-2.21848
16.0677
-47.6913
-46.2551
-14.2833
5.39097
-78.7115
16.1363
0.867291
-138.453
12.7636
17.5037
-21.7693
-71.0936
12.8339
20.6716
4.55052
22.1321
0.948053
9.55507
2.81187
16.1802
0.310013
20.1479
-63.7311
4.47301
14.7213
-5.2371
-13.316
14.3454
-50.8969
2.45055
17.8659
23.0123
-4.64708
-1.26174
4.04024
1.75933
13.088
10.5173
5.95815
-82.0026
-0.453641
21.9515
1.92173
1.15571
-30.7024
23.094
-6.03046
0.34776
13.854
12.0632
-2.79658
-3.4136
13.2624
0.874622
-1.7662
5.03299
-14.0927
22.4027
15.0429
10.1943
10.569
0.105674
-16.6148
24.997
4.12753
25.0904
-6.31885
14.2802
-0.0911997
-47.8601
9.9997
8.30304
26.1905
-22.4034
10.2174
9.29215
-22.3902
8.19567
0.441091
-4.79634
14.5189
-70.7924
-12.497
-16.619
-0.664305
-5.64747
15.814
0.0176813
24.4828
14.7246
-1.42333
-43.8452
-9.29264
4.26179
-113.298
-2.52409
-52.7151
20.7586
-0.002893
0.281273
-99.0125
23.2109
0.0305852
1.722
23.9913
12.7205
-53.0044
-2.13312
10.3714
0.675985
14.7106
0.362412
-6.52092
4.92235
13.2902
3.88462
12.0732
24.304
0.33437
-20.8326
14.2698
1.32321
-3.60283
10.3227
10.6409
6.23705
-55.9005
0.856264
-1.24703
1.44374
20.7092
4.06681
0.986612
0.661523
2.38226
-2.68151
15.1882
-0.627905
14.3043
13.941
20.3276
0.560183
-9.01252
24.8549
0.0774347
-24.8967
15.3453
-16.3318
16.5728
0.332638
13.8595
-2.84468
-40.0586
-20.6181
0.0246413
-51.804
7.72634
25.5456
-5.51669
-44.2872
-6.15291
15.3386
-0.455924
6.1408
-113.83
25.1616
-53.8233
7.62501
-11.0949
8.37811
14.641
6.31534
-27.0611
-2.30487
23.7269
14.2341
7.09985
13.0116
2.24997
11.6553
12.0746
8.48522
-30.9287
-3.27714
18.3036
3.42178
-2.02014
12.9126
-20.1884
-5.43534
-1.26756
15.7903
15.5963
-12.0555
0.609367
-48.4489
-2.43107
1.14236
-5.59204
2.71128
13.8192
-0.256272
-12.0299
17.4857
-0.643866
-7.13441
-1.36025
-7.62413
-12.3721
-19.1751
-1.34815
-70.11
14.6874
23.2388
-0.143696
-7.35987
24.0282
22.5429
-4.30026
-10.2605
15.5822
-39.5484
0.382312
-0.158687
0.270738
8.49515
-51.8606
5.94136
9.66231
-6.84593
-3.21543
-23.3104
-2.51602
12.8406
6.96774
9.37994
-16.3587
12.8855
22.0072
-82.1947
-60.5031
16.9075
6.43353
9.44252
-1.65379
-9.26083
-18.6176
-2.30128
14.968
25.1548
16.1146
-0.00282241
-1.8297
14.4763
21.3878
-3.36038
16.0305
14.6356
22.37
3.68404
-1.20236
1.65404
-4.54488
22.0175
0.68268
2.11092
10.064
-3.2973
3.49816
-1.96891
-15.6874
13.9122
12.9024
10.0037
6.89543
-43.7968
-4.5359
-5.1286
8.48222
-14.972
-6.03776
0.247085
-69.8871
-144.084
7.50818
-9.3594
-38.6208
-33.6464
-6.08099
11.5062
-100.963
-34.2496
16.3552
-4.44341
23.1098
-6.99012
-42.4196
17.7955
20.8626
-0.0916884
0.574327
4.64229
15.1151
9.05403
-26.5608
-2.58983
-0.318697
-3.0616
13.8618
0.266565
8.45767
-1.18117
15.1067
-63.2759
0.350609
-0.0924158
17.9974
-13.8076
-126.678
-30.6837
22.8964
0.0646159
-20.4631
-127.187
14.5892
-27.7411
-1.07717
3.09096
6.97005
-1.08547
10.3961
-12.0371
12.4799
13.983
17.2557
6.33225
-0.785793
-6.18284
10.9879
-4.41469
18.0466
10.5024
-2.72556
-1.90953
-3.67094
-1.56981
-0.304468
16.5671
5.34338
3.12937
14.4006
0.382318
11.8303
25.9232
-1.99569
-19.2662
9.80452
-1.30905
-1.2557
-3.80628
-3.24246
14.5989
0.374262
0.170412
0.277684
1.04987
19.2682
-49.3396
0.0169856
14.4427
-0.992864
20.7102
16.655
19.7405
3.28506
9.89897
4.36407
0.714217
11.4245
14.4151
-2.16307
-5.38572
-33.64
-8.91883
-93.5476
14.6285
-40.173
-25.5078
-65.8713
-2.19437
-0.15204
14.6899
0.0833213
2.85704
-31.0827
14.3754
25.6915
-1.12093
-116.153
8.16518
-0.395505
14.4326
-2.54837
-1.7139
17.7787
-1.95774
24.3828
10.0527
14.3959
-8.94811
19.0591
0.391505
16.8192
-0.0690258
-21.9529
-3.93948
-25.5858
9.50068
-1.26299
-0.333424
23.0258
14.305
15.8462
20.8856
16.2089
17.9152
-5.0861
15.5509
14.3844
15.0252
-4.5796
-5.62506
-11.6144
-10.0771
3.74878
16.8761
-41.3808
23.6346
-12.3114
0.327085
24.877
20.9659
-5.18768
-25.0545
14.8414
7.5727
1.52026
13.9524
-37.2614
-6.28497
14.3107
20.4604
-1.67776
16.5928
18.8735
0.0348785
-7.83748
18.9548
6.268
-0.316455
-83.3729
0.588844
-15.36
13.591
11.2957
-0.498637
-0.951813
-11.1983
3.77386
-1.14045
3.27631
21.3507
-1.58742
27.7579
14.7048
4.55688
16.504
-54.1106
-51.1169
-24.3941
14.6176
-1.69105
-30.2645
-2.19435
6.76197
8.59152
-1.54723
11.2527
-33.5059
7.81973
0.160896
-1.12637
11.8469
4.37787
19.2013
14.8773
15.4219
14.1396
-5.11303
-17.6245
-13.6841
0.828666
-5.73158
-2.20296
11.6622
-3.64023
-0.68892
-0.478225
0.850628
-118.547
10.3498
7.02497
-3.67308
-11.7836
6.92214
-11.0224
-16.7276
1.80415
-1.26453
16.5572
10.662
19.2329
-32.6144
13.0082
0.331527
20.4573
-0.0813744
7.48536
0.744317
-2.48846
23.8028
24.2229
11.8333
8.78361
9.97274
13.7453
24.1382
10.3718
-19.2899
-105.939
2.67269
-10.8035
-38.3094
14.3316
14.2686
-1.01985
4.99629
12.8683
13.3207
26.2623
-47.4503
11.4376
-51.4925
-10.3467
20.9735
-3.52071
12.3239
-3.30455
4.91481
5.55985
27.2323
-4.98009
-11.6505
6.95702
1.97916
-75.4178
-36.7223
0.508145
16.3129
-13.3803
8.75875
22.4566
20.522
-2.62803
-27.1633
-6.47212
2.26039
17.5955
14.0251
20.5816
8.61287
-129.655
21.6179
13.7898
-24.0841
11.612
15.0847
18.7258
-106.419
-2.18349
0.00291925
12.2836
23.6927
7.51217
1.79662
-15.6502
26.3167
-93.028
-16.0688
24.6235
12.6868
0.0788289
11.6718
-5.04892
8.42859
-7.88541
-96.4237
-1.48755
-30.602
-0.0425709
-6.06326
-46.953
-51.7838
-37.0585
1.95757
-51.8615
-33.1082
12.4156
13.4488
8.73985
-29.8077
3.77021
1.98542
-5.37221
27.5419
10.0458
-12.2461
12.6505
-7.67229
-36.2852
12.6457
12.5884
14.1944
27.8351
0.0443144
-3.52984
-24.9416
0.430396
10.3192
14.9391
-6.17299
21.8485
10.3425
15.477
-3.26763
-2.56769
0.408355
15.4692
14.5353
16.2216
14.5807
25.457
25.3066
-7.84103
12.7
18.7277
-11.8189
20.6499
-1.29364
24.9726
20.5391
-0.104725
16.5909
7.09869
11.4843
0.158975
14.9367
-17.0188
12.7771
5.59682
10.5026
-2.99365
14.3099
-1.09116
3.6112
24.1398
24.0768
9.90089
-32.7101
3.23003
2.55584
-3.31027
11.7401
21.5911
-34.4204
15.0575
14.2535
6.99298
15.3306
-68.6049
-3.2274
-0.563795
25.8934
4.224
-10.716
16.9323
-3.18972
0.294043
6.81664
2.61148
11.0204
7.05681
-9.06602
8.6428
12.1749
10.1933
11.3731
25.3208
20.7416
18.6036
19.6965
23.8048
7.01052
-1.44437
0.0747929
-13.8193
23.7715
-3.49854
14.6243
13.3222
-52.7788
7.86553
16.2021
-21.8858
7.15659
9.4922
28.1553
-67.2909
6.27584
-0.19422
17.1611
0.459043
-6.04214
23.4327
20.1049
14.3502
14.5347
-8.59432
7.57915
-52.142
25.2297
0.0125428
27.045
-0.216742
1.42195
-55.3046
8.87439
-46.4713
2.48619
-2.06101
4.52348
-1.66719
4.49888
-8.22853
-0.00534535
-4.36322
-31.8508
-10.3282
-27.3087
-2.00654
-2.56399
-2.76834
-121.751
15.3948
15.6601
19.0919
14.1152
5.82209
5.51169
29.2131
14.2817
-64.1157
0.0197003
-1.95848
11.1388
12.8672
21.8639
-15.2333
-15.3598
12.5935
-0.00758488
3.36938
18.3795
-35.8326
-63.7012
-51.3027
25.5459
-8.47019
10.2271
18.7165
-0.118776
11.6765
-0.905083
-81.1468
-71.8416
-1.09778
9.80305
17.6094
18.3847
-29.0923
-32.2891
10.3988
-53.4383
-9.99616
-5.24321
2.96576
-6.93116
-2.04532
-10.3874
-69.5874
-22.9265
22.5684
-3.2723
24.5153
-81.8415
-3.43638
5.46574
-0.0497877
20.9769
14.9543
17.5588
-1.43807
-7.98726
-87.1899
20.4095
-30.5933
10.5862
-1.29761
17.8176
20.8055
-1.34562
14.4697
23.5942
16.3189
15.7274
-25.8345
-1.06793
5.98812
-15.3901
-2.0636
9.16686
11.2541
0.487737
-102.168
3.23763
-0.359235
13.2193
11.4307
-9.82835
24.882
0.416881
-0.00704828
1.67792
13.9768
-10.3538
0.0253538
16.0433
-7.95431
0.693101
-4.0981
15.9769
14.0361
13.4494
-2.10037
13.6993
16.829
16.6292
-7.51765
0.339718
3.16864
12.6635
-15.3752
-48.497
-17.7651
-20.5699
-4.97179
0.0996588
-1.96436
0.258666
-37.5484
-11.4707
-131.573
-0.482941
-8.03961
5.02633
-74.095
15.5299
29.5933
4.92788
-4.27756
6.4416
1.32007
3.27904
0.0923424
-9.38831
-56.0439
1.14128
19.4934
0.0229336
23.2519
0.0583816
13.3799
12.3126
6.35323
-55.8769
9.5711
25.3689
-2.64968
14.066
13.8801
21.7769
1.07179
20.0309
16.193
-53.6111
17.126
-69.8527
-67.8741
20.5208
12.6773
-25.3623
1.40326
18.9499
2.68648
-18.646
0.248796
0.32349
11.5058
7.62732
14.8513
14.0825
12.3366
-30.7553
-10.7424
-6.99453
14.4401
27.1449
-10.5087
-84.6525
-54.7993
15.2103
0.881297
0.842136
7.2462
0.524807
11.5503
-1.57297
3.23691
22.6465
5.88775
0.377333
-2.64123
-14.9368
-16.014
-51.0402
-22.7411
-67.7523
17.4341
7.4867
-12.1259
23.1035
0.00197278
-89.649
-4.928
-75.8966
15.9868
-30.1513
4.4379
14.7578
-2.13758
-7.74398
-2.11562
-66.6319
-5.77689
15.9314
-129.259
-1.08186
-50.1753
13.9183
15.6697
-9.14541
18.534
17.1848
22.4184
22.8446
16.5093
2.10854
25.6382
-50.8004
14.4569
3.34598
-91.623
17.7769
-15.055
22.255
6.71022
-17.7659
-37.9321
-29.3727
15.6431
-17.4735
-8.33539
-1.72702
-9.49595
0.289523
8.77855
2.39651
11.0073
25.5111
-37.246
-21.7768
-6.7982
15.7003
11.2161
-15.0667
29.334
-1.36065
-0.300614
9.69656
-15.068
13.7122
15.1822
16.9195
17.3302
0.443085
8.17733
13.9987
2.85073
-6.64172
-0.0955205
16.2347
16.4181
20.3818
-2.16578
0.605849
8.56339
8.58454
2.43843
-58.6078
12.002
-3.92919
12.6455
15.013
-50.7627
23.2774
-20.1585
24.7963
16.9948
-111.56
0.0470381
-0.236314
6.6586
15.4754
-87.2192
19.9733
13.8212
8.23922
0.250626
2.67706
-3.26438
8.27049
-49.6651
9.57092
-5.14594
14.0922
-47.5057
-0.503041
-6.8335
18.0351
21.1138
7.93141
-46.4413
6.89873
-2.81414
0.248181
7.93126
-2.01506
-1.93868
24.5494
-7.67994
-1.2386
-16.3052
-80.0447
-1.76172
14.279
-52.6387
-5.70153
15.3373
9.50608
15.7101
-28.6435
6.58316
24.747
-30.5968
14.2519
4.47474
-2.62847
4.53799
2.96839
-5.45814
25.1827
16.8998
-0.601435
24.2369
19.1672
17.9416
-50.9031
-49.1403
10.5319
-19.0654
-1.6724
-39.6601
-16.8343
-35.9638
11.5869
5.46685
9.13699
9.97475
-1.74253
11.6191
14.4321
-110.319
15.855
8.91844
14.2152
-2.82024
-0.213473
-9.78775
-50.4258
-22.5762
-6.5805
14.2537
-93.3591
22.7192
-51.1843
13.7549
9.78406
-0.523404
2.88228
14.9974
6.80883
3.28705
13.2422
2.05294
0.286509
21.408
17.3758
-16.232
-50.2214
-0.657724
12.8052
-0.167009
7.49595
-28.3749
-0.521268
-2.93243
-9.96492
12.6626
12.9203
1.95388
6.72431
-0.5869
-0.977591
-90.0622
18.0151
-13.4798
14.4469
0.0342738
12.3721
15.4955
8.16073
13.6951
-0.364316
-8.18539
-0.828789
-52.5065
-17.0812
-19.0971
-0.214249
-1.59306
11.5388
-1.44067
13.9119
-0.887577
0.516854
-24.649
-1.24069
15.2522
-71.8237
14.232
3.44179
-52.8627
0.198832
-14.7887
10.2494
14.4889
-0.947049
2.52425
-50.0418
17.5454
0.267609
4.36907
-66.0529
18.3589
6.99224
-0.0296353
15.5778
15.262
17.76
5.2434
18.0226
-32.0869
-1.08707
-2.46785
14.6742
9.17881
3.63718
1.80355
-41.0037
-73.3763
8.24093
0.338165
-81.4113
23.3094
-30.0081
17.6045
10.4138
-7.93519
-1.4632
-5.08927
-2.52619
1.16713
1.84116
13.6388
-0.699225
14.4727
-25.5131
7.3643
-1.79626
3.64577
-47.6809
18.5403
24.8036
15.9629
9.0444
4.04159
9.80687
-61.4993
0.179126
-2.73849
-3.20381
-18.6006
-124.599
-50.4074
-11.6233
13.0639
14.8897
-38.1795
3.38681
16.4453
-10.9522
-23.4742
15.7108
-1.55348
-116.189
0.250692
-4.07537
0.0275049
23.2431
-2.86284
14.3099
-15.8024
-10.6612
-10.9159
14.4008
3.91104
12.1565
-11.4695
-13.8919
-4.35015
2.51808
16.8046
12.7533
2.38376
-1.62519
-7.04117
25.8274
-2.16343
16.6778
18.5552
-0.230524
-1.8753
6.51582
-53.1031
-16.7466
12.6545
8.45021
14.0616
-23.1991
15.9081
1.27677
20.7474
2.99232
12.9094
18.4043
12.0503
2.65643
-55.5637
4.3465
-65.9563
13.1578
6.54633
17.674
0.893401
22.2623
2.29926
23.8235
-0.347956
18.6761
-2.43305
10.8408
-94.109
13.7851
6.89161
6.31258
21.8156
14.4118
3.45461
-10.5453
8.1758
13.5191
-1.20055
-51.9696
10.3761
-13.2679
18.9708
-10.0142
22.7614
3.25425
29.2972
22.7363
11.3157
10.5175
-107.516
0.450537
24.2921
-1.66914
-1.3923
-2.92171
23.8066
7.36004
12.557
19.6942
-11.4205
15.7976
-5.52474
17.6015
0.262307
16.8055
14.8229
20.5693
-1.46147
-42.7128
3.9734
-16.3643
6.69829
3.67359
-6.67733
18.8168
21.2855
0.132427
5.58845
-4.86469
19.425
11.8559
13.4844
8.74606
-2.28709
-52.1217
-3.77244
14.8615
-25.1284
-0.672508
1.5216
10.6135
6.83102
-10.9397
25.4407
-1.31399
22.6596
5.36248
23.0169
-9.22468
3.21607
-0.424845
0.405827
12.1785
14.149
-0.0180778
-0.649107
-0.34914
-0.841492
21.3817
-4.6099
-0.462604
-1.62869
-0.535865
6.14686
18.1604
7.57199
-1.7509
-0.0125006
14.3298
27.1567
-18.0965
-4.80039
14.4197
0.191628
6.92358
-1.4693
11.1114
-0.597547
-32.8506
-0.886658
-3.88845
-3.43424
-1.7028
-38.9719
-19.763
-0.0745702
11.3961
15.4618
12.4898
26.4667
-140.32
23.5995
-47.3419
22.704
-84.2341
-12.7385
25.6304
5.88965
-7.49115
15.1315
-1.54133
16.3325
-3.23656
-52.4615
2.17134
-10.9559
-13.8001
0.000863281
-3.52151
5.43678
18.5026
-79.6161
6.02321
-24.754
3.65396
-1.68635
-1.17334
1.23687
-1.58104
-20.5448
18.903
-0.791844
21.0363
5.45675
-69.857
4.9727
-12.8973
-0.366735
12.3907
18.2551
26.1281
10.9343
12.6788
7.36519
-36.5225
25.326
27.3254
15.9562
-9.84667
-24.2038
-68.6806
13.5665
9.89787
5.26598
12.5249
-2.55977
-0.902888
-116.994
21.641
1.68653
1.32241
-7.55018
14.3384
4.28836
28.8656
27.1432
12.9573
1.73666
4.05138
-37.4572
6.27922
27.714
1.8557
-0.27668
11.0819
0.0405143
2.66505
-3.18593
-5.63021
2.83331
1.77491
6.49414
-0.0732199
4.4164
20.4625
5.82182
15.4255
-8.96882
-6.54093
24.7932
-45.2237
2.40349
4.67127
6.17016
3.10835
-10.8136
3.97752
-1.7625
2.48919
28.8357
-57.1249
-37.9007
-26.6548
-8.57487
0.947461
4.81551
-7.8893
-34.8381
-0.0219628
-30.9878
-11.7602
-15.0173
3.28781
-2.74905
0.894198
28.5248
1.15894
4.01052
-3.39254
2.55855
-32.5756
-6.79512
20.1213
14.5746
3.94347
-0.607961
13.9506
15.4882
0.212725
-112.638
-2.29178
19.9782
-11.4383
13.2514
-0.0505076
22.4829
1.23367
-10.7317
0.819159
15.8595
-9.58958
12.9258
-11.5298
27.7386
-7.07281
-4.50427
-108.732
6.94802
-11.7184
-14.0058
-8.10441
1.34275
7.7878
-29.0075
-1.7956
-2.41809
2.62612
-14.1498
-11.8944
11.5897
-67.8902
12.7708
-9.29805
16.0489
25.2108
13.9802
-34.8092
15.0037
1.0289
2.38437
-2.59941
-7.14786
-52.983
-8.21818
-7.79012
7.6361
-0.429801
-8.2579
-0.332571
-87.874
7.27244
14.3136
-10.4294
-13.3319
-5.4598
-0.116815
-0.681156
8.7035
-24.4742
-15.076
14.8414
-1.03826
9.36774
-18.2241
-109.417
-75.8032
-148.035
27.7574
4.57541
-13.8117
5.03614
23.8368
24.8523
-12.6611
-5.69796
14.2751
-0.873046
-5.72115
24.3155
7.9948
13.4878
29.0814
-4.50894
5.35381
1.93654
21.7688
15.0687
15.4303
18.4444
10.2439
0.204462
0.507496
6.62207
3.19283
-52.6317
24.981
-4.41625
-7.14006
-0.0471604
-13.8281
7.1657
-7.22536
-6.23264
3.39415
15.4112
15.7677
17.0954
-57.211
21.5069
24.3638
-41.1048
9.17731
-2.6227
-1.75876
2.35124
8.45104
-1.56324
-11.027
-12.1315
27.0865
-69.816
17.0767
14.6412
19.6941
11.4876
11.3804
-0.735371
0.164647
9.57488
-1.82667
-84.7639
-23.8967
0.594246
-5.61467
17.9942
-25.8673
-0.726451
2.81508
-31.1361
-9.88979
-50.7028
12.8221
-5.63152
-2.55598
5.91548
-34.477
5.14305
-41.3038
-2.60397
15.7108
-81.7417
24.9667
-0.0747562
26.1231
0.0163624
-2.33794
1.94547
12.6016
12.6075
-29.9379
-3.09829
-2.98908
1.68027
10.5288
29.3607
19.6846
5.04886
-10.861
7.94995
0.010579
17.1122
-1.11806
8.51767
-4.33648
-7.10374
-32.4529
6.53733
0.195489
-31.4375
9.36329
9.3731
24.1871
25.7462
-50.9216
-51.6084
0.116289
-14.5482
25.4121
1.4815
-5.35392
5.91796
10.4647
-4.52762
0.956172
1.08586
-1.53783
13.8603
-3.23552
4.99582
-0.728521
-11.5382
-28.1055
-4.12337
-27.6868
-25.4177
16.3802
-15.1153
-8.59076
-6.12684
0.541814
27.3777
11.6452
13.4869
-6.45361
7.47224
-1.52081
6.15386
4.045
-7.69186
-40.8028
25.3349
15.4565
-0.708921
-50.9911
28.4444
-10.9406
-49.8692
-3.59724
8.02417
-13.5807
-3.94077
21.7882
-1.4169
13.635
5.58734
-4.57672
1.26239
-2.51976
7.0881
-29.5973
-0.364142
4.72298
14.3803
-16.4647
-55.7318
1.204
-8.60276
-16.1281
-15.5681
26.7665
9.44661
-95.9372
7.70104
3.3498
23.601
8.4824
-47.0378
9.25302
18.5194
16.3609
-11.4309
12.919
-0.719996
25.1659
0.160335
14.9548
-81.1344
-10.7056
-0.11276
-5.5387
9.5525
4.73392
-53.3663
-17.311
17.4227
-0.519149
-2.07392
20.4237
11.39
19.8925
13.2535
-14.4626
0.111381
-0.038903
14.6505
0.0146187
18.3347
12.0919
24.7763
-6.20277
19.3571
8.39228
24.8083
-4.09812
-10.6336
25.5043
-6.96503
11.942
-73.2159
22.25
24.5183
15.7556
-21.9401
14.1549
19.0259
-13.63
6.31968
-8.7358
20.292
-7.96445
-1.8378
-53.2264
-53.8366
18.6486
7.93068
-64.6257
7.73267
24.4911
-6.57378
-2.2556
-54.4431
-13.6344
12.9948
-3.6822
13.7196
13.7372
-62.8724
27.4651
-1.91218
20.9379
21.0254
-2.3954
-0.166298
13.2456
-23.1319
-4.7116
13.2354
11.27
-5.91921
13.8755
-3.4746
21.6019
15.8927
5.72839
1.91578
16.7088
-2.11267
9.11027
19.6228
2.88399
-0.0335738
18.8999
15.7388
-11.3879
-35.0089
11.8298
16.5431
25.0146
-51.8314
26.4556
25.29
26.7339
-1.51385
18.2895
-81.1992
14.4536
19.9854
19.2254
16.341
21.6403
28.9185
12.7216
-53.072
2.8779
-42.3508
28.6422
7.95947
-0.808363
-11.9114
13.9437
21.6574
13.9133
5.01753
-2.90394
21.4322
-35.3704
15.9725
-13.3908
6.2626
-0.989521
5.95658
9.55454
-60.2067
-57.0135
-2.30427
-8.30031
-1.34418
17.901
-3.07954
1.28205
13.6041
-79.7269
10.1719
-0.126051
-66.0718
-78.1789
-51.212
20.6175
22.0901
-9.24482
6.74399
18.8492
17.1935
0.146746
-43.361
16.0912
-54.8192
20.1969
-54.569
19.6216
9.38107
1.57649
18.3194
10.0137
19.3351
5.32953
6.64318
-9.53988
-34.2687
-112.361
-2.27527
18.9538
-61.8635
-6.13148
-51.7328
21.1047
19.1811
5.4349
11.1909
21.1965
-25.0086
14.0645
-1.68504
-10.8488
13.9332
-10.2775
-66.0987
-14.5054
-50.3263
-6.19777
-105.686
-1.93184
-73.7541
-41.3817
12.0285
25.1457
27.5202
23.8908
-67.1092
16.1111
-87.9584
13.482
21.1284
1.92841
18.5811
-44.1631
5.23727
-10.5799
-1.778
20.2215
-8.97005
16.7781
-59.9653
-4.24557
-50.2551
16.7861
16.6053
14.2325
-80.1719
13.8089
-2.23637
-59.2342
-54.2967
4.81366
25.4942
-29.2818
-6.38702
-15.2594
14.2982
13.7906
-1.82032
8.93993
-77.8991
21.4993
19.7647
-4.99026
-3.49129
20.9969
-10.5887
-150.986
-0.605279
19.155
21.5503
-72.3759
11.0663
-1.68052
24.6955
-73.3442
-15.7879
-1.92029
23.2743
-0.749418
-9.0212
-0.871698
20.2103
11.3763
19.9525
-2.33422
-26.7304
16.3538
28.189
-39.3281
13.788
-1.05459
-59.1624
-0.802481
5.3758
-16.5569
10.8835
-3.52831
9.37675
-2.57867
-15.1283
18.2029
21.9522
13.6737
-21.7822
-15.1675
17.3659
-69.8542
5.90707
-11.0927
7.22746
-96.1187
15.8138
17.3274
-1.08113
16.4237
24.5903
-4.49757
12.4775
16.565
-52.0381
9.01062
-6.89247
7.19126
6.05127
11.5242
0.00639293
5.05272
-4.56365
-23.4395
20.7422
6.56301
1.35609
-12.24
-4.4144
15.0721
-85.5229
26.6678
-72.1592
-49.2067
-0.80813
18.6102
16.9529
19.9263
-34.9735
23.6994
-79.948
12.2907
0.822338
-63.5451
13.429
6.6372
-5.31749
10.1775
-46.6239
11.8343
-51.1368
-12.1808
-0.0814594
-45.4831
-52.8885
13.381
24.1845
-2.65331
-84.7452
18.8869
-32.3445
22.0461
7.83749
-0.251592
8.96081
14.626
7.77728
-1.51993
1.57968
-0.977644
3.77397
5.45157
-78.5015
-15.9041
0.303651
9.74404
0.00962284
28.818
16.0298
14.4109
22.3853
2.3272
16.2967
-38.6209
-27.0767
-21.0176
14.3047
28.2892
13.5447
-11.5369
20.6566
14.3607
14.534
-2.69221
-0.958163
7.65065
26.8664
1.6634
-14.7776
18.2197
21.1771
15.935
14.4495
17.8071
10.2575
-2.12884
-45.6518
16.1196
-45.7521
-31.8192
14.3904
-29.2889
1.9444
5.7456
16.2337
16.8824
17.0535
-1.20521
19.7571
20.2824
2.8334
17.8395
15.4332
13.1831
11.6596
10.8791
7.48651
-1.90278
18.6288
17.8129
0.432813
13.8419
-1.44894
-0.51614
23.946
18.3671
0.0687972
-72.2404
1.81532
19.0007
10.9572
4.03676
-1.06281
1.27599
-6.23756
2.36595
-27.4688
-3.42731
11.6052
-3.48038
-49.0802
-81.2302
22.8382
-15.5127
-48.7463
-35.6997
24.225
-2.91673
3.42625
2.91015
-59.3537
12.1383
13.5255
9.62433
21.561
11.4547
-0.362437
-43.8808
-63.5629
0.171987
17.0595
0.810429
-78.1692
-70.8345
-6.78174
-48.8004
-28.0537
-34.9402
-4.24387
5.1717
14.1092
19.3981
-5.57888
-1.64663
21.5824
16.1804
-69.4507
-1.20937
-45.6464
9.16059
0.316138
7.89572
12.1541
-0.351085
-3.44322
-4.64887
4.01111
-74.927
-48.0992
0.267272
-41.867
-51.2418
-64.0392
-53.0529
0.70691
-32.7648
7.42068
-75.8244
14.3157
12.7917
4.0599
18.8705
-96.0693
24.4193
-12.5793
0.140236
-13.4873
14.4721
8.68329
-33.3361
-28.7514
14.8477
17.652
25.2909
-79.7493
-54.1821
-76.1143
-3.70928
0.0566617
-73.1032
5.99702
-53.1037
8.40892
-84.6865
11.9554
2.04694
-2.43555
21.9908
12.9909
-8.41208
-0.608988
-19.5754
-53.613
19.1237
27.58
-51.1828
18.2573
13.649
-0.00123451
-1.27072
18.3362
17.6698
-37.2366
-2.53683
-25.1538
-95.9694
-12.3718
-65.9743
-10.2605
9.98777
-1.06118
16.0939
-89.9113
-67.1655
13.5655
-10.9757
-54.213
0.433309
11.7156
-54.8027
-7.19807
-66.0118
-71.9088
-52.1403
25.7077
-28.9644
-3.16017
-92.6967
15.8038
-50.0056
-1.24927
-34.6934
-150.523
-9.96983
16.6436
-0.0123715
-67.3315
12.5788
0.0367782
-13.0464
-67.306
-85.7301
10.7829
12.131
14.5186
-30.1605
22.0956
-8.9435
0.0408236
-2.58078
-24.1392
-51.4132
-77.357
-38.9124
3.28638
5.69935
-2.26474
-3.34373
-18.0796
13.8776
-154.525
14.3819
-92.0572
8.94342
-6.06742
-1.2689
0.190653
29.2931
-0.92899
-56.0568
-25.6569
-17.9065
14.2449
-2.66087
0.318488
0.109045
-66.1092
-75.1315
-39.1186
-60.5688
16.4268
-97.4356
1.72422
-63.4838
-1.49848
12.6556
-1.44938
6.9204
-7.45958
19.4434
-49.2394
-21.783
20.8628
5.89635
-49.4379
-3.42149
-72.4291
-17.1141
-5.03761
18.8532
-14.6616
6.36605
-53.4844
-61.0755
-126.017
-109.112
-48.4254
9.56239
-3.96407
14.5057
5.65252
-104.99
22.7366
-66.965
18.0931
21.7919
-58.1914
1.27549
15.5422
13.9623
12.1684
-30.0811
-45.5594
-41.5313
14.3546
3.92544
-20.2681
-89.1528
8.73477
17.3655
-2.76637
0.445133
0.358735
20.4954
-17.7862
-19.5525
-0.709594
12.3534
1.85691
-0.0555129
22.1813
18.1328
-2.24605
-54.4054
18.6385
7.2747
-1.21761
14.0809
-8.91611
-40.9157
-49.6506
-45.8456
17.785
15.9819
-2.95677
-11.2406
-0.930499
-0.374618
16.1875
-63.0492
12.0648
19.5605
21.0106
-5.49002
14.6184
13.1754
16.6429
17.6003
-1.89537
17.608
0.00450984
14.491
8.76886
15.7832
-57.5524
18.3363
17.5308
12.8744
9.80529
-19.3028
10.689
-0.849921
-14.0923
20.0802
19.6992
-43.3725
17.7365
-39.6989
-43.7113
15.866
15.7888
-32.4883
-2.03572
-52.3214
-50.6697
-10.283
-9.74077
-36.0346
-3.71276
13.3721
26.4301
18.7881
-6.51842
-4.70777
15.7788
7.29941
-1.95623
-42.7319
-15.4951
-18.7098
-42.1071
-34.2362
13.6997
-0.868359
6.30528
0.132179
0.120342
-0.39069
0.180962
3.32939
8.06535
10.5046
-11.8866
8.22401
-37.1517
-142.887
10.0948
7.80322
-2.43748
-0.00244312
10.0385
-1.45255
5.98
-11.3081
14.5127
11.9607
23.4025
14.4792
-30.3707
-4.15054
-11.0819
-13.1459
-0.957009
-0.599116
-3.75678
-41.6216
26.71
0.454348
-0.00687264
21.7999
-16.8795
-8.66431
-2.86768
-59.764
-39.952
5.03781
-15.3339
14.5777
-4.66147
-27.6432
0.27017
-7.44511
-14.1699
-1.8316
-0.267939
11.4153
-7.89283
-11.2036
-16.7324
5.67534
-18.672
15.7131
22.4353
-12.7811
15.9806
8.53802
10.4041
24.5024
-21.7683
8.86742
7.51145
5.98364
21.1458
-3.20775
-3.70186
-1.68463
15.4964
22.4618
-14.577
-1.67896
-22.7507
-16.8374
7.48258
-21.8125
-26.8208
-16.2388
6.00852
-54.7745
3.11832
4.7138
12.7151
2.22983
-50.5228
-1.02813
-1.4212
-2.75681
23.8685
26.6996
19.9145
27.5126
13.0623
14.9664
16.9305
14.7507
13.952
-20.654
15.018
-4.19116
-43.1187
21.6338
-4.74962
-17.1623
25.3286
-0.0223943
-98.6012
7.60415
6.30327
17.8184
-33.6501
13.4399
23.3077
-18.2213
-43.9985
-22.0896
10.2103
-81.4797
19.0834
-2.40331
17.8645
14.3511
-12.1733
17.1605
-9.8812
-49.988
-52.2317
-33.9632
17.963
-18.5143
14.3343
-1.73076
-69.6619
-1.79519
-0.797129
-11.9263
-19.2173
-39.0292
18.0743
2.75352
-50.937
-5.91524
9.69798
3.51433
-54.5387
7.21401
-2.5295
7.04937
-52.6437
9.02737
3.8127
10.0047
-2.8844
13.7982
8.93471
4.3395
-48.7613
27.6955
-13.6308
-60.5813
13.9459
11.8927
-57.4606
-16.5078
-50.5437
9.59798
7.94836
-16.3123
-2.05733
-4.09001
27.6147
-0.490675
-17.9008
-1.96198
-9.78324
10.6737
-5.502
13.369
9.7178
-77.6294
9.36358
-55.4006
12.2088
5.67671
14.8592
10.2911
0.019932
0.0514884
7.3696
15.8215
2.88618
0.0457727
-52.5638
-6.8876
-7.80867
12.6787
-55.6496
7.39436
-35.1663
18.0339
-73.7733
-3.72482
19.4056
17.3989
7.48306
-30.4313
-46.7589
16.1254
0.428814
18.1501
7.84428
0.664583
14.6933
4.30422
4.22701
2.69864
-9.82864
-17.664
10.0688
-0.953947
19.8828
4.35781
27.8667
-0.994791
3.81431
17.6135
1.62863
3.81118
15.5722
12.6964
9.00038
-20.96
-1.56049
13.8449
9.54086
5.29009
-81.2305
-3.71716
-57.4132
-62.9989
-11.1986
13.0665
-2.63942
11.7725
-0.787891
23.8635
18.5471
5.49849
12.1457
5.16168
-49.6125
13.813
10.5641
0.671682
6.13133
18.064
16.1388
-2.10566
-60.5754
-23.4966
13.1638
6.80517
0.903898
15.5167
-104.607
13.758
-30.1087
14.2714
6.92923
-2.13741
6.35202
16.8798
-2.88164
15.0068
19.2603
2.39676
-7.54933
8.6806
1.68697
22.4346
-76.2415
20.3755
17.1097
-81.8296
-15.3393
-0.0740376
-9.83476
-93.7173
-8.86907
13.8776
20.5931
16.3198
20.8807
10.1232
18.9762
6.24959
1.03261
6.82958
-4.1489
1.43382
12.0055
-0.209073
21.7852
3.87172
-58.5841
10.6345
21.4187
22.5243
-155.562
8.46253
-24.0764
-38.5293
7.37137
2.15158
-12.1373
8.1138