/*--------------------------------*- C++ -*----------------------------------*\
| =========                 |                                                 |
| \\      /  F ield         | OpenFOAM: The Open Source CFD Toolbox           |
|  \\    /   O peration     | Version:  2306                                  |
|   \\  /    A nd           | Website:  www.openfoam.com                      |
|    \\/     M anipulation  |                                                 |
\*---------------------------------------------------------------------------*/
FoamFile
{
    version     2.0;
    format      ascii;
    arch        "LSB;label=32;scalar=64";
    class       surfaceScalarField;
    location    "2";
    object      phi;
}
// * * * * * * * * * * * * * * * * * * * * * * * * * * * * * * * * * * * * * //

dimensions      [0 3 -1 0 0 0 0];

oriented        oriented;

internalField   nonuniform List<scalar> 
20045
(
0.740204
-0.783922
0.0437171
-1.57956
0.561674
1.01789
0.591783
2.87886
-3.47064
0.0854245
-0.0461249
-0.0392995
-1.22914
1.20276
0.0263785
-0.929208
3.35886
-2.42966
-1.49844
0.66114
0.837297
0.095519
0.631369
-0.726888
0.70973
0.603218
-1.31295
-1.26138
-0.128202
1.38958
-0.145757
-0.898947
1.0447
3.3651
-1.58535
-1.77975
0.516129
-0.530088
0.0139595
-1.90829
1.65465
0.253645
-0.492388
1.57229
-1.0799
-1.61744
0.356064
-0.0948154
-0.0858141
0.180629
1.08397
-0.85321
-0.230763
-2.61567
3.82806
-1.21239
-1.11096
0.0832794
1.02768
0.132418
-0.216772
0.084354
0.16779
0.348339
-0.19079
-1.38877
0.982575
1.73301
-2.71558
1.22306
0.336484
-1.55955
-1.77852
2.76109
-0.77523
0.913465
-0.138235
-1.87442
3.58933
-1.71491
2.5664
0.384646
-2.95105
-3.49685
1.89032
1.60652
-0.422976
-0.0812553
0.504231
2.12377
-1.48301
-0.640764
-1.20041
2.47285
-1.27244
3.60978
-2.04473
-1.56504
-0.815351
0.91087
3.26248
-1.62258
-1.63991
2.14962
0.18524
-2.33486
-0.0935832
0.569506
-0.475923
-2.77695
1.22026
1.55669
0.869831
0.766923
-1.63675
0.0819652
0.599537
-0.681503
0.245962
-0.337775
0.0918133
3.33682
-3.33604
-0.000773319
2.22743
-0.834813
-1.39262
1.0368
1.19063
1.51011
1.85499
-0.56797
1.07012
-0.502155
1.89519
0.80054
-2.69573
2.59653
-0.446911
0.238409
2.85108
-3.08949
1.94619
-3.29013
1.34393
2.57868
-1.86546
-0.713216
-1.80485
-1.2344
3.03925
-0.138647
-0.43807
0.576717
1.13642
-0.346763
-0.789656
-1.01737
-0.21177
-0.149396
2.41205
-2.26265
2.27162
0.197361
-2.46898
1.54746
-2.74787
2.99427
-1.84033
-1.15394
0.0652653
-0.829873
0.764608
1.38289
1.61138
0.78527
-2.74201
1.95674
0.258705
-0.126287
1.63426
-0.271016
-1.36324
2.45323
0.166038
-2.61927
0.0692116
-0.0165469
-0.0526647
-0.994461
0.2394
0.755061
1.24911
-0.539383
2.6662
-2.71742
0.0512215
0.0474724
0.0217392
-0.0887809
1.2252
-0.371787
-1.56057
1.93236
0.0238364
-0.600108
0.576271
2.71419
-0.640143
-2.07405
2.01287
-2.16227
0.095907
2.61828
0.627442
-1.11983
-0.240177
-0.784768
1.02495
0.536333
-1.77307
1.23673
1.53846
1.7693
-3.30776
1.32928
-1.01402
-0.315252
2.18881
-1.40354
-3.81646
0.709385
3.10708
0.053271
0.686933
-0.856212
0.957014
-0.100802
0.712173
-1.88597
1.1738
-2.39934
0.0992714
2.30007
1.54774
0.213954
-1.76169
-1.25068
1.16763
0.0830455
-2.12901
-0.324352
2.45336
1.06349
-0.189093
-0.874398
0.591602
-0.824297
0.232695
-0.231479
-1.18888
1.42036
0.851545
-0.915206
0.0636608
2.24098
0.546465
-2.78745
-0.868735
0.0935054
-0.235927
0.213226
0.0227016
1.77778
-0.907952
0.140524
-0.1313
-0.00922372
2.221
1.04148
-0.673593
-1.2347
-0.0838342
-0.152093
-0.475742
2.74736
-0.0782268
-0.777985
-0.15386
0.294384
0.666101
1.7952
-2.4613
1.5477
-2.5437
0.995992
-0.808147
-0.680339
0.588426
0.0919122
-0.388439
0.484498
-0.0960593
1.83699
-1.33168
-0.50531
-0.72424
0.585593
1.90784
-3.29468
1.38684
-0.235058
0.465445
-0.230387
0.0778331
-0.46996
0.392127
1.74713
-0.524062
2.61076
0.999012
-1.72902
1.35723
2.0368
-2.83283
0.796032
0.750527
0.333446
-0.83238
0.897645
-1.13338
0.910501
0.222881
-1.22925
0.145688
-0.855482
0.709794
1.81452
0.764158
1.64543
-2.11152
0.466089
2.40175
0.302169
-2.70392
-3.23181
2.43733
0.79448
-0.113089
-1.48287
1.59596
2.71932
-0.904805
0.327348
0.742777
-0.124607
-0.0388016
0.163409
-0.240262
0.148083
0.0921781
1.71035
1.20226
-2.91261
1.77759
-1.73393
-0.0436606
-0.567326
0.251129
0.316197
-0.48003
-0.200309
3.19751
-1.16072
-0.951115
1.01031
-0.0591947
1.92083
-3.38884
1.46801
0.492266
-2.29712
1.69247
0.647591
-2.34006
1.97591
-1.43958
3.0311
-0.394802
-2.63629
1.60527
-3.08354
1.47827
3.02526
-1.69899
-1.32627
-0.21058
0.652007
-0.441428
-0.0346263
3.1716
-3.13698
3.1746
-0.608196
-2.48887
0.0848745
2.40399
-1.39439
1.22505
0.169336
2.98378
-1.44532
0.519014
0.810262
-1.88646
2.32338
-0.436913
-2.36282
2.9546
0.0369871
-0.560866
0.523879
0.171666
-0.226314
0.0546479
-0.0555233
-0.537441
0.592965
3.41823
-1.2087
-2.20953
4.12311
-2.02981
-2.09329
-0.646655
0.591131
1.08391
-2.04748
0.963572
0.300316
-0.0543533
-2.3412
-1.37429
2.04164
-0.667342
-2.02209
1.45087
0.571225
-0.0537891
-0.0549446
0.108734
1.64266
1.3826
-0.193298
-0.046964
-0.246973
0.122366
-2.13206
0.245598
-2.19112
2.7979
-0.606782
-1.93191
2.24111
-0.309201
-1.75569
-1.26552
3.0212
-1.29414
0.774411
0.519729
1.35957
-1.39419
0.0346249
2.77645
0.199618
-2.97607
0.0326529
-2.23073
2.19807
-1.05616
2.74863
0.562472
-1.59199
1.02952
-1.3356
3.24344
-2.46016
1.59175
0.868409
0.742041
-0.896479
0.154438
1.45119
-3.78225
2.33107
-2.89179
1.01738
-1.81732
-1.23937
3.26338
-1.95882
-1.30456
-0.779252
0.861217
0.467871
-0.498367
0.0304967
-2.28355
-0.421925
2.70548
-2.61958
3.61853
-0.998951
2.64844
-1.94988
-0.698552
0.263209
-0.751112
0.487903
-0.819361
-1.34717
2.16653
0.901046
-1.0468
-1.41217
1.29908
-2.18656
-0.71149
2.89806
0.329373
0.0835934
-0.412966
0.443384
-1.81768
0.0839873
-0.506963
2.59969
-0.197942
-0.470422
0.376839
-0.490422
0.585819
-0.0953962
0.587719
2.83052
-2.31718
1.49782
0.688238
0.0205377
-0.708775
-2.06316
0.400796
1.66236
0.844717
1.80372
3.94372
-2.49253
2.20723
-3.75414
1.54691
0.572318
-2.53395
1.96163
0.0710312
-1.18199
-1.43401
2.10011
1.95603
-2.88523
1.06547
-2.23559
1.17012
-3.81746
2.17864
1.63882
-0.0337359
-1.21694
0.525466
0.385886
-0.911352
2.20459
-0.724804
-1.47978
-0.226115
-2.19599
2.16136
-0.736237
-0.214878
1.93654
3.26902
-2.63484
-0.634178
-0.0294699
-0.389267
0.418737
2.02958
0.370359
-2.39994
0.759305
-0.4785
-0.280804
-0.549169
2.04706
-1.49789
-1.37338
2.08555
1.65846
-1.09599
-0.23011
0.592761
-0.362651
2.84593
-0.925095
0.32268
-0.0317461
-0.290934
0.342107
-0.341245
-0.000862695
-0.382312
0.398912
-0.0165994
3.19891
-2.00381
-1.1951
0.704198
-3.32378
-0.423662
0.0413498
-2.59097
0.857124
1.73384
3.64726
-1.17441
0.753787
-2.9449
3.8706
-1.72895
-2.14165
-0.0500418
0.379415
2.31977
-1.17518
-1.14459
-1.82848
0.433313
1.39516
-2.93971
2.94823
-0.00852023
0.89777
-2.71337
1.8156
-0.0239219
-0.200106
0.224028
-1.38841
1.87874
-0.490331
-0.556356
0.815871
-0.259516
-0.424252
0.189194
-0.464374
0.0759353
-1.59759
-0.946108
1.20189
-2.34331
1.14141
1.06741
0.132753
-1.20017
1.18969
0.934081
2.02373
-0.958262
0.0367674
0.134899
2.09028
1.55698
-1.44885
0.018676
1.43018
0.894301
1.42547
1.11683
0.455457
0.112016
0.955399
-0.828008
-0.0586076
0.886616
-0.16833
0.91037
-2.16083
1.61166
-0.499003
0.399396
0.0996075
-2.70686
2.61506
0.0918007
-0.97224
1.61193
-0.639689
-0.646336
-0.295303
0.941639
2.2712
-2.47815
0.206958
-2.32624
-1.49122
3.84392
-2.41944
-1.42449
-0.308296
0.278827
2.98255
-2.08478
-1.20589
2.40778
-0.54041
-0.480905
1.02131
2.40733
-0.549575
-1.85775
3.28717
-1.11224
-2.17493
-1.13888
0.598474
2.45716
-1.45551
-1.00165
-0.47793
2.33453
-1.8566
2.13038
-3.22258
1.0922
1.12204
-0.217836
-0.904208
0.93068
-0.399905
-0.530775
3.80707
-3.10754
-0.699527
-1.7855
-1.4463
2.16177
1.10725
-2.47629
-0.230569
0.202239
0.139869
0.181837
-1.83159
1.64976
0.0127156
0.455155
-1.61715
3.3275
1.26269
1.93622
3.53109
-2.12934
-1.40175
-3.01049
2.299
2.13346
-3.5963
1.46284
-1.86729
-0.105179
1.97247
-0.670353
-0.523122
1.19348
1.70963
-0.625718
0.0521019
0.636136
1.58818
-0.0630482
-1.41996
-2.06324
2.77102
-0.707775
-0.574675
0.0842523
-0.219206
-0.0109043
0.359943
-3.29965
0.955476
-2.32885
0.312977
-0.632271
0.816338
-0.184067
0.0155735
0.0698509
-1.49889
1.12289
0.375996
1.02168
0.815313
0.485129
1.22455
-1.70968
1.45818
0.319408
-1.702
1.88383
1.71378
-0.166041
-0.591947
-1.47121
2.97331
-2.31076
-0.662555
2.63847
-2.23695
0.633719
1.60323
2.35292
-2.57515
0.22223
-1.28428
1.0528
-0.353251
-0.214075
-0.341485
-1.78752
0.82964
-1.59508
0.765445
1.23531
1.22185
2.08649
-3.38723
1.30075
0.653721
-1.57312
0.919397
-2.91288
0.513539
0.0292477
1.03424
-1.6838
2.57135
-0.887545
-0.743269
0.898426
-0.155157
-1.17701
-0.321424
-0.361392
-0.657871
1.01926
0.272131
0.00480991
-0.276941
-0.970503
-0.423883
1.14603
1.32684
-2.47286
2.14127
-1.24697
0.812484
-1.33722
0.0529419
1.35093
-0.697205
-1.95689
-0.50327
0.590459
-1.00095
0.410488
2.89291
-0.99772
-1.34297
2.21161
-0.868649
-0.340324
0.384114
-0.0437897
2.22544
-0.0208508
-0.402276
-1.42932
-1.47802
2.72719
-1.24917
1.85696
-3.37709
1.52013
1.77949
2.06443
0.813306
-0.88069
0.067384
0.262357
-2.12965
1.99328
-3.00699
1.01371
0.517734
-0.493898
-0.214773
1.8602
-1.04845
2.00392
-1.9154
2.48772
0.620084
-3.23575
-2.6135
1.39568
1.21782
1.87426
-0.283983
-1.59027
2.79071
-0.519515
-1.3182
-1.59235
-1.38652
1.52728
-0.689921
0.281401
0.40852
0.931366
-0.848087
-2.10573
1.89096
2.63525
0.70157
-2.32415
0.981185
3.16609
-1.00432
-0.107507
0.726017
-0.618511
0.079504
-1.87441
1.7949
-2.70161
0.5115
2.19011
2.4665
-2.4665
-0.676119
2.04831
-1.37219
1.93085
-1.44572
2.08097
-1.13372
-0.947245
-2.7842
2.90981
-0.125611
0.98211
-0.133028
-0.849082
0.767366
-0.32807
-0.439295
0.312829
-0.959165
-0.362573
1.30724
-2.51313
-2.53347
2.96338
-0.429904
-0.837725
1.98375
0.427573
-0.0677364
-0.359836
-0.320987
0.355266
-0.0342781
-1.12212
1.19315
3.41509
-2.77607
-0.63902
-0.209147
-1.58631
1.79545
-0.665975
0.731256
-0.0652809
0.355599
-0.819745
0.464146
-2.98603
1.15033
1.8357
-0.0622468
0.0161218
-0.564104
0.456598
0.138851
-0.323784
0.184933
1.73206
2.07501
0.235898
0.191675
-0.13902
-0.872313
1.01133
-1.48555
2.36104
-0.875495
-0.0889687
0.327057
-0.238089
1.26855
-0.607414
2.26
-0.748858
-1.51114
0.0443012
-1.23318
0.299395
2.47706
1.25111
0.889591
-2.1407
1.37273
-1.22277
-0.149962
-3.045
0.556137
-1.2461
0.509346
0.736755
1.36548
1.76051
-3.12599
-1.85624
1.75106
0.187315
-2.69934
2.51203
-0.359943
0.623153
0.745858
-0.916359
0.170501
0.0597312
-0.887739
0.685613
-0.442304
-0.243309
-1.97901
-0.61196
1.82786
0.36126
0.05259
-0.41385
-0.340344
2.05519e-05
0.518696
-2.13276
1.61407
0.730051
1.59234
-2.32239
1.13403
-2.12795
2.61102
-0.483065
-2.12908
1.65115
0.587456
0.326009
-1.17301
-0.849082
-0.744079
0.207199
0.53688
-2.56008
1.07453
2.00843
-2.21758
1.28717
1.87891
-0.864696
0.87871
-0.0140137
1.19232
-2.95093
1.75861
0.434882
-0.782987
0.348105
1.42163
-1.82391
-1.8809
-0.0510161
-0.913253
-0.0812076
0.168246
0.328137
-0.496383
1.08885
-0.0645668
-0.0996978
0.164265
2.94403
-1.57855
-0.953463
2.15384
-1.20038
0.777644
0.515038
-1.29268
-1.06597
0.706026
-0.602248
-0.141831
1.35814
0.722833
-0.623253
-2.20958
1.12253
-0.532074
1.84553
1.21848
0.495298
-2.69585
2.93426
0.382573
-1.41035
1.02778
-0.268902
-2.47709
2.74599
-0.509145
0.48177
0.0273751
-0.290649
-1.00349
-1.20892
3.33931
3.17493
-1.56966
-1.28849
-0.210396
0.0364879
-1.21564
1.17916
1.20879
-2.96447
-0.391324
-1.39525
1.78657
-0.0803686
-0.0858762
0.166245
-1.94927
0.162282
1.78699
2.82751
-2.02697
-0.0701196
0.242916
-0.172796
-0.622797
-0.0431784
0.521921
1.04625
-1.56817
0.377765
-0.466166
0.0884016
1.92651
1.09221
-3.01872
-1.14183
3.38281
0.272531
-0.000399213
-0.799448
-1.66911
2.46856
1.05684
2.14067
2.81493
-2.08488
-1.00616
0.64477
0.41524
0.515439
-1.34771
3.48117
0.414261
-2.30622
1.89196
2.69794
-0.425783
-2.27216
-1.45264
2.11509
-0.662451
1.18194
-1.27319
-1.37135
2.64453
0.168994
-0.234454
0.0654604
-0.862033
-1.45293
2.31496
7.8713e-05
-0.321066
0.0700631
-0.123852
1.52541
-2.38744
-2.1143
-0.623785
2.73809
-0.193122
-1.41368
1.60681
0.886427
3.83472
-3.92783
0.0931092
0.618823
-0.447563
-0.17126
0.0245783
-0.889275
0.760269
0.660089
-0.918241
0.247888
-2.39365
3.04027
-0.646623
-0.278719
-0.220284
0.881877
1.09404
-2.60391
-0.732136
-0.328197
0.715735
-0.387537
1.59947
-0.380989
-0.592266
0.653444
-0.0611788
0.128708
-0.685063
-3.481
1.66368
2.77041
0.588451
-0.390286
0.745885
-0.57617
1.35381
2.46705
-1.1598
-0.611207
0.0189415
-0.287247
-1.81849
0.588996
0.664234
-0.627247
-2.74734
0.0457304
0.438639
0.613224
-0.178342
-2.85691
1.9225
0.934409
2.25039
0.415804
0.529723
-0.161916
-0.367807
0.799975
-0.748061
-0.0519135
-2.54489
0.922319
-3.02423
1.54621
-0.233806
0.541008
-0.307202
-0.16334
0.419106
-0.255766
3.19427
0.0303388
-3.22461
0.519318
0.0335049
-0.552823
-0.397728
-0.735653
0.634072
-0.0424696
0.84959
-0.853349
0.00375963
1.12162
-0.176506
-0.945117
-0.0347367
0.884326
2.48072
-1.93426
-0.089384
-0.403414
0.492798
-3.08387
0.690222
-0.150621
-0.344899
0.261065
-0.238119
0.599379
-0.0217199
0.0584873
0.707847
0.454628
-1.16248
1.28599
0.348266
1.33513
-0.952552
0.625792
-0.547959
0.186707
-0.929976
1.84132
-0.0548991
-1.78642
1.59252
-0.0952657
-1.49726
-1.94685
-1.1367
-0.314463
-0.542901
0.857365
1.23177
-1.29322
0.0614502
3.25344
-0.0770687
-3.17637
-0.818002
-0.381319
1.19932
-1.43228
1.91617
-0.483889
1.62307
1.93113
-3.55421
-0.228432
-0.601441
-0.771695
1.2426
-0.470906
0.602071
0.284679
-0.88675
-3.22786
1.70667
1.5212
-0.758803
-0.0945464
-2.53019
0.415893
0.844749
-0.534242
-0.310506
1.47447
-1.84795
0.37348
-0.216768
-0.567154
0.559147
3.27557
2.44406
-0.385905
-2.05815
-2.54726
0.419308
1.01443
-1.60638
2.12896
-3.34864
1.21968
-0.266736
0.792202
-0.0554289
-1.13905
1.00003
-0.457749
0.603438
-0.414056
-2.34093
2.75498
1.21686
1.7657
-2.1877
2.31899
-0.13129
-0.157848
0.326094
-1.81681
-0.75314
-0.334648
0.37175
-0.0371016
0.920546
-0.818133
-0.102414
0.141434
-0.116236
-0.0251985
-0.181349
1.65582
-2.40964
-0.267499
2.67714
-2.27079
-0.721787
2.99258
1.40685
-1.02708
-0.379774
-0.618718
0.0715141
0.547204
-0.980849
-0.111673
1.09252
-2.97086
0.150185
2.82068
0.0839712
0.525833
-0.609804
2.37496
-2.69991
0.324942
-1.56433
2.59068
0.00331769
-2.594
0.0233874
-0.358035
-0.42909
-1.50405
1.93314
1.79833
-3.13392
-2.83513
2.46575
0.369385
0.45216
-0.0743953
2.02866
-1.14678
-0.115854
-0.794295
0.910149
-0.0288517
0.465352
-0.4365
-0.618717
2.74747
-2.12875
2.45275
-1.21933
-1.23341
3.0334
-2.90955
-0.123852
2.37688
-0.885836
-1.49104
0.137836
-0.64303
0.505193
-0.82335
-0.0321317
-2.87926
2.54047
0.338795
0.168877
-3.04814
-0.879004
1.52848
-0.64948
-1.78919
-1.31835
0.518893
-0.46801
-0.0508831
-2.41753
-0.66634
-0.499747
0.316417
0.183331
0.497112
0.262193
-2.75722
2.63992
0.117304
-0.618382
-0.670155
0.0700474
0.555234
-0.0359159
-1.80916
0.420747
0.347338
-0.446033
0.0986942
-2.16792
1.03521
1.13271
1.02855
-0.0464449
-0.743478
2.02996
0.195478
1.04393
0.130112
0.683855
-0.813967
-0.262997
1.62257
-1.76996
1.14284
0.627121
-0.80299
0.0441874
2.90839
-1.69153
2.52452
-1.3322
-0.722614
-0.457884
1.1805
1.21279
-2.49341
1.28062
1.62439
-1.81751
2.90488
-1.28146
-1.62342
-0.0150954
-1.4932
-0.276764
-2.82795
2.68721
0.140743
0.411554
-0.944694
3.15192
-3.14851
0.730981
1.05731
0.064731
-0.271299
-0.482058
0.410963
-0.0120519
-1.47104
-1.50398
3.61929
-1.60642
0.0967047
0.853357
-0.950062
0.202483
0.564882
-1.96401
-1.12422
3.08823
0.741302
0.968324
-0.00109229
-0.392131
0.393223
2.45769
-0.644674
-0.194967
0.839642
1.82829
0.0130238
-1.07305
-3.02533
0.491855
-0.618672
0.0304233
0.588248
1.68065
2.18995
1.12743
-0.450327
-0.677101
2.91808
0.11532
1.77755
-2.50161
0.724066
-2.44443
-0.05742
2.50185
-2.34003
3.01532
-0.675286
0.37272
-0.00600437
-0.366716
-1.29559
3.09392
-0.930084
0.580148
0.349936
0.12388
-2.31158
0.50838
-0.104417
-0.403963
-2.85198
3.73339
-0.881411
-0.708489
1.56587
-0.857383
3.48479
-1.53582
-1.94897
-0.0370033
-1.75379
1.7908
-0.829964
-0.0863948
-1.53671
3.15979
1.3443
-2.02042
3.29946
-1.4425
-0.512672
0.423288
-2.58451
0.140087
3.5948
-1.50832
-0.0846019
-3.73186
0.671559
-0.0720216
0.928065
1.50176
-2.42982
1.62451
-0.359347
-1.26516
2.44166
-2.87448
0.432814
-0.469089
0.0308939
0.438195
-0.572102
-1.40213
1.97423
1.01735
-0.830639
-1.14212
0.437064
0.705057
0.345387
0.867541
-1.21293
0.234008
0.284884
-2.61181
3.08309
-0.471276
-0.349531
-0.159614
1.31551
0.592764
-1.90828
1.68374
1.37554
-3.05928
0.43061
1.44365
-0.0619246
3.09302
-0.00663969
2.34978
-2.34314
-0.0891492
0.000180472
0.294595
0.144191
-0.438786
2.57756
-2.49362
-0.0839354
1.32591
1.57897
-0.182617
0.170237
0.0123803
-0.871567
2.4156
-1.54404
0.0574512
0.40946
-0.466911
1.38154
-2.35503
0.97349
-1.57524
-1.62236
3.19761
2.54052
-0.510937
0.88782
0.736689
-1.27194
-0.334812
1.60675
0.817765
-2.40407
-0.809609
-0.156113
0.965722
0.534046
-0.231536
-0.302509
-0.111193
-0.718771
-0.230126
2.38512
-2.15499
-0.418394
3.26948
2.30871
-1.83968
-0.469026
1.84467
-1.63072
-1.54785
0.460529
1.08732
0.37774
-1.51146
-0.186688
0.25593
-0.0692414
0.151517
0.378207
0.438776
2.18652
-2.6253
0.591654
0.529969
0.377702
-2.64849
-1.24533
0.520515
0.724814
-0.923236
-0.687779
1.61101
1.36366
-0.655809
-2.50663
1.6689
0.821275
-0.63046
-0.190815
-1.33776
2.39329
-1.05553
-1.27365
1.31795
-1.23318
1.61191
-0.378729
-1.64179
2.55624
-0.914458
-0.0641008
0.59471
-0.530609
-0.400881
0.237541
-0.854055
-1.72545
2.63528
-0.909823
-1.58088
1.98168
1.48911
-1.50345
0.014332
0.644167
-0.573818
-0.0703483
-3.72882
2.53823
1.19059
-0.111265
0.721052
-0.609787
0.0720165
2.04028
-2.659
2.34198
-1.12918
-1.08195
-1.53155
-2.09999
2.09335
1.49125
-0.040382
1.1851
0.343377
-1.52848
-0.917109
0.842186
0.0749235
0.546022
-0.574378
0.0283563
-0.161738
-1.0405
1.20224
-0.516143
1.44673
-0.93059
-2.26197
-0.770273
3.03225
0.427562
0.216605
2.20621
0.371348
-2.28789
1.66698
0.620911
0.935848
-1.29369
0.357845
0.015409
0.470568
-0.627846
0.157277
-1.92919
-1.45699
1.29526
0.371628
0.553791
-0.415954
0.824945
0.0956012
0.11811
-1.60098
0.0788711
0.772674
-0.266732
0.602748
-0.336017
-1.81776
-1.37023
3.18799
-0.194969
-1.07697
-1.50483
-0.289498
1.79433
0.378375
0.500282
-0.878657
-0.0136236
3.31795
-2.12383
-1.19412
0.491944
1.95211
0.278545
0.990624
-1.19233
0.201709
-1.22273
2.81621
-1.59348
-1.67993
-0.755931
2.43586
-1.27742
0.505728
-1.22987
-0.317976
3.20869
-1.36454
-1.84415
0.513208
-0.832157
0.318949
1.15467
0.133836
-1.28851
-0.451043
0.535014
0.991969
-1.18322
0.191254
1.0686
-0.0718479
-0.574807
-0.0328994
1.85424
1.35444
-1.12848
2.34874
-1.15617
3.04649
-0.0299768
0.543185
-2.55681
0.876877
2.10933
-1.84697
-0.265739
-1.80134
0.369061
0.585176
-1.46418
2.14704
-2.06753
2.42109
-0.0681658
-0.54769
-0.276607
-0.806955
-0.222982
1.02994
-0.815941
-0.0992653
2.18539
0.414646
-2.60004
0.0933215
-0.738756
0.645434
0.0353702
0.840214
-2.3464
1.50618
2.59659
-0.22163
-2.72872
2.92139
-0.192672
0.612534
-0.373133
-3.2277
-0.501119
-0.922809
2.62609
-0.0856234
1.12928
3.33532
-1.21541
-2.11991
-1.90784
-0.100522
2.00836
0.571126
1.52341
-2.09454
-2.04829
0.0990256
-0.478875
-0.416411
0.895286
-1.39439
1.80865
0.363153
1.53456
-1.89771
-1.05771
1.04677
0.0109393
-2.84775
0.33393
2.51382
0.895224
1.44675
-0.638995
1.69794
0.67894
-0.881494
-0.364607
2.28617
-2.68097
-0.884499
-1.04816
1.93265
0.411726
-0.640158
1.97042
0.155103
-2.12552
1.95453
-3.11069
0.0740645
-0.0979864
-1.5387
1.91979
-0.381097
-1.87877
1.44968
-0.0419564
0.761122
-0.719165
-1.09444
0.285603
0.808838
0.824429
-1.11508
-0.708201
1.72263
0.286624
-0.52043
-0.410726
0.434113
0.403374
-0.881875
-0.114469
-0.0856364
-0.535911
0.513557
0.0223534
0.544885
-0.622372
0.0774863
-2.02709
1.38695
0.396927
-1.90176
-0.0269912
-0.752261
0.0827796
1.59975
-1.68253
0.891245
-0.949852
0.574844
-2.41889
1.84405
-0.836355
2.05189
-1.21554
0.575242
-2.63848
-0.14826
-0.0706444
-2.76449
1.56436
2.05494
-2.21343
-0.293198
-1.61263
-0.624319
-1.13844
0.480567
0.847487
0.00446283
-0.85195
3.47669
-1.79604
2.61644
-0.623161
-0.661632
-0.409024
1.07066
-3.35899
1.41598
1.943
-1.12835
0.229402
0.0495714
2.54111
0.429603
-0.261813
-1.30705
-0.136044
-0.79404
0.910714
-0.929593
0.0188794
-0.366453
2.55184
0.440463
0.401177
-0.841639
2.05535
-3.8252
1.70742
2.11778
0.667691
0.550427
-1.21812
1.82309
-0.839094
-0.983999
-1.4653
0.756811
-1.68319
0.044108
1.11056
2.65181
-2.92071
1.11004
-0.507964
-1.19272
2.01048
-2.77957
2.00016
0.779417
1.50565
-2.46896
0.963315
-2.05617
2.15224
-0.0960772
1.25636
-1.51936
0.0335955
0.702214
0.704638
0.301626
-2.07469
0.80974
-2.74924
1.43766
1.31158
0.686134
-2.59397
2.14776
-0.139637
-1.68884
0.34389
0.56097
3.01053
-1.00113
-2.0094
-0.94199
0.740822
-1.66406
0.40479
-2.83123
2.7307
-2.32855
1.05536
1.40351
-2.23289
1.11998
1.11291
-2.44484
1.61443
0.830411
-0.702185
-0.189367
0.108999
-2.84144
1.99054
0.850898
1.77855
-3.07414
-2.57809
-0.0337284
3.31102
-1.18207
0.887864
0.221085
-1.10895
-0.0655074
-0.408659
0.474167
-0.755939
1.39143
1.57652
-1.36161
-0.871272
0.501652
0.515694
0.678995
0.982054
-1.66105
1.00566
-0.61977
-0.0847739
-3.20738
3.29215
-0.915226
1.22463
-2.28079
-1.91908
-1.28237
3.20145
0.683544
-0.872637
-1.91709
0.589438
1.32765
-0.0116499
0.0365836
-0.0249337
2.49012
-2.90418
0.0459106
-1.58461
1.32699
1.17466
-2.50166
-0.594853
0.691558
-2.32649
0.657616
1.66887
-3.06011
1.48487
1.6163
-2.83904
1.45081
-2.3353
-0.00015371
-0.0114962
-0.0838704
2.78182
-1.74459
2.14778
-0.403183
2.75262
0.00293133
-2.75555
-2.00815
-0.0463699
-0.585901
0.14127
2.32523
0.296066
0.0880476
0.898381
0.393793
1.53706
1.43714
0.050245
0.495777
-2.59337
-0.163849
-2.24023
0.893498
-2.06868
0.450006
0.528347
-0.978353
2.37093
0.135154
-2.50609
-0.27957
0.273565
-0.951002
-2.07323
-2.23474
-0.340407
-1.19922
3.15374
-0.949943
1.27498
-0.325042
-2.63308
0.815314
-0.7425
1.42149
-0.992482
-1.86443
-1.13759
-0.909891
0.944516
-1.4557
-0.712222
3.02825
-0.402158
1.77766
-0.843011
-0.934646
0.31729
0.275471
0.677767
2.92328
-2.73597
0.0402597
-0.601972
0.834667
-1.41905
1.43772
-1.2378
-1.41553
0.586349
0.459335
-1.04568
-2.52966
0.0631558
-0.32951
2.16314
-1.83363
-0.177701
-2.55102
-2.03449
2.40485
3.89249
-1.7203
-2.17218
-0.387305
0.896651
2.32052
-1.26246
-1.05806
0.69552
-0.767368
0.194154
0.100441
-0.523841
0.080994
0.442847
-0.320584
1.50569
-1.34423
3.12278
-0.109736
-0.358274
-0.748078
-0.197329
0.945407
-0.0565275
2.54665
0.0706779
1.16955
-1.24023
-1.04911
1.57103
1.24011
1.17549
-0.937631
-0.307697
1.41453
-0.519447
-0.895079
-0.289039
0.206219
0.0828202
0.432334
-2.34112
1.90878
-2.62027
0.385529
0.578012
-1.19499
2.08848
-0.0222053
0.717726
0.317771
-1.26771
-2.86098
1.47446
-2.96736
0.937551
-1.22102
0.0988987
-1.19465
-1.60211
2.79676
-2.6315
0.175005
0.886597
-1.0616
2.83544
-2.12606
2.26216
-1.69104
0.444145
1.48222
-1.92637
0.615102
-1.09398
-1.99096
-0.438256
2.42921
-0.0605686
0.537087
-0.476518
-1.24865
2.84288
-1.59423
2.2831
-1.42962
-0.85348
2.24696
0.0670346
-2.31399
-1.59873
-2.22647
-0.898925
-0.0143281
1.01245
1.70688
-0.0524815
0.225127
-0.172645
-1.86974
-0.456755
2.08125
1.74681
-1.47858
1.75647
-0.277895
-0.876513
0.681545
-0.1096
1.01352
-0.903922
0.749085
-0.308622
-0.301935
-2.5395
-2.32347
0.740804
0.0804711
-0.469582
0.553569
0.190655
2.09173
-2.28238
-1.41219
-0.396964
1.38133
0.759946
0.191964
-0.671994
-0.247449
0.494485
-0.247036
0.270302
-0.994696
0.724394
0.855333
0.756596
0.435674
2.2928
-1.05749
2.50499
-1.28036
-0.27092
-0.67818
0.949099
2.11099
0.223544
0.0960241
-1.84824
1.27614
1.72386
-1.78039
-1.50015
-1.58209
3.08224
-1.82641
-1.53257
-3.14421
3.27378
-0.129573
0.309296
-1.05911
0.836125
1.5414
0.751403
-0.259935
-0.314479
0.574414
-0.88715
-1.83027
-0.175733
-2.0731
2.24884
1.3675
-0.626197
0.0444965
-0.854106
1.59625
-2.54725
1.32854
-0.992056
-0.678748
3.41718
-2.73843
1.65974
1.41938
0.791503
-2.21088
3.15164
-1.86321
-1.28843
-1.26719
-1.9372
3.2543
-1.3171
0.879939
0.897718
-0.749071
0.726866
1.18605
2.29874
-0.559538
0.49403
0.0694024
-0.133969
2.713
-1.51074
1.27418
2.20251
-1.08009
0.552344
0.527748
0.604629
-1.32724
2.12972
-0.159298
1.42964
-0.541779
-1.91423
-0.355588
2.26981
0.485587
-0.112978
-0.372609
0.352418
0.266404
0.402775
-2.74281
-0.736736
0.796467
1.97481
-1.72066
-0.254143
0.429503
0.985023
-0.369733
0.207817
0.634067
0.641139
-1.27521
-1.42548
2.97294
0.697244
-1.62035
3.30461
-1.68426
-0.819134
1.16452
-0.979082
-0.0786263
3.06455
-1.52814
-0.948154
0.935366
0.887727
0.782809
-0.8098
-0.461614
0.397513
-0.782536
-0.34815
0.00780566
1.55257
-0.394949
2.26306
-1.86811
0.294665
-0.155814
-1.05525
0.260954
-0.853077
-0.0458478
-2.57148
1.77203
0.61751
0.625091
-0.2349
-0.514157
0.749058
0.764489
0.192525
2.37965
1.23089
-3.61055
-0.217048
-0.0719677
0.289016
1.16517
-2.11863
2.58038
1.3121
2.18098
-1.99033
-3.2849
0.304532
-0.094885
-0.391595
1.30854
2.7046
0.163914
-2.86851
0.967646
-0.0764017
-0.106149
-0.864039
-0.216052
-1.38912
-1.27094
1.64868
1.882
0.271844
1.57563
-1.63572
0.0600961
0.496541
0.017016
-0.169145
0.64448
-0.099595
2.11243
0.582015
-2.69444
0.851353
0.0593613
-0.577335
0.344151
0.233184
-0.888322
0.000786289
0.887535
0.9675
1.5826
-2.5501
0.609019
0.754638
1.92745
-0.0528526
-0.671388
2.07312
-1.67932
-0.139056
0.186303
-0.047247
-2.76053
1.52116
2.33422
-1.8703
-0.463914
0.041765
-0.367637
0.325872
2.39209
-2.62222
1.52192
-0.154417
0.958999
1.30316
-0.293923
-0.0542276
-1.26338
0.393836
0.869541
-1.65678
-0.311316
2.99136
-1.53043
-1.46093
1.53125
-0.253324
-1.27793
1.09147
-1.88483
0.793364
-0.0787937
1.37609
-0.0251688
-0.850944
1.97515
-1.12421
-0.797522
-0.465855
-0.906562
-0.324443
0.72562
2.59055
0.0013953
-2.59194
-0.849382
-0.583822
0.31709
0.144152
0.0260853
1.39132
0.528474
-0.454557
0.595991
-0.0878856
0.251767
-0.415249
0.337022
-1.04484
1.48898
0.0427813
0.621453
0.0339523
-0.868465
2.05816
-0.149413
1.72504
-0.466852
-0.26953
-0.634538
1.2686
-0.552397
2.48729
-1.93489
-2.23029
-0.299908
-1.57229
2.5129
-0.94061
-0.860142
0.535699
0.795703
-0.164335
-0.0547871
-0.607537
0.662324
-2.26472
0.736581
0.235918
-0.306037
1.35777
-3.32179
0.96802
-2.63713
-0.81711
2.55012
-1.24402
1.31054
-0.6694
0.0347728
-1.73701
2.16935
-0.0042862
-0.384981
0.430616
-1.45769
-0.251543
-1.63078
1.88233
0.262288
1.1923
3.55568
-2.35996
-1.19572
-0.552088
0.190362
0.582885
0.0568331
-0.639718
-2.13352
0.388922
0.4462
0.0878456
-0.0267229
-0.300667
0.32739
1.10915
-2.68145
0.227407
1.1954
0.0672636
-1.26267
-2.75321
2.20081
0.375539
0.0938594
-0.469399
0.88441
-2.60986
-0.329505
-0.0177428
0.347248
0.487988
-0.112449
-0.0074877
1.87902
-1.44841
1.60326
1.27365
-0.664636
-2.73021
0.811128
-1.79733
1.42605
0.371285
1.50415
-3.0043
-1.30969
-0.781577
2.09126
0.222848
1.0022
-0.751382
0.618354
3.08361
-0.468341
-2.61527
-0.00983273
-2.58354
2.04797
0.198983
1.08762
1.23291
-0.37115
-0.020981
0.365379
-0.74566
-0.849424
0.238468
-0.207621
-0.030847
0.0200003
-2.70551
2.68551
-0.108612
0.71458
-0.605968
1.00915
-2.51286
1.50371
-0.304313
-1.42962
-0.0969636
0.13877
1.77982
-0.86233
-0.490597
1.35293
-0.900319
-1.07869
1.11979
-0.660451
0.952886
-0.739761
-0.213125
-0.925253
0.690353
-2.16669
-0.354696
-0.0483468
0.403043
0.285302
0.809475
-1.09478
0.0379408
-1.60717
1.56923
0.0433369
-1.43211
0.473025
-3.325
-1.17779
-1.94535
3.12314
-2.55068
0.13003
2.42065
-3.43717
-2.10304
0.046877
-0.688648
0.716458
-0.0278094
-3.15803
-0.934534
3.04696
0.944851
-0.490222
0.202102
-0.836641
-0.430298
1.18494
0.358577
0.204142
-0.95222
0.0451767
-0.378678
0.333501
-0.447913
0.237333
-0.251762
0.293527
-0.657304
1.325
-2.60418
1.63758
0.966602
-0.800811
0.852913
1.57515
0.468599
0.0169879
-0.669342
0.409408
-1.25474
-0.662353
-1.36792
0.486584
0.881339
0.329971
0.579644
-0.909615
-1.00278
1.27308
-0.189317
1.85168
2.11398
-2.04331
1.45683
-2.35715
1.13165
-1.55527
0.423626
0.227467
0.0154491
-0.853639
-0.0270517
-2.77435
1.5797
0.324769
1.20648
0.0357748
-0.5002
0.464425
-4.05499
1.69217
-0.345635
0.0043902
-0.476329
-0.0555031
-0.52963
0.585133
-1.40912
0.546785
-2.76499
2.46305
2.73918
-1.41219
-0.551082
0.495702
0.0553802
0.269726
0.446009
-0.356228
-2.8154
0.964027
1.85137
-0.330942
0.258974
-0.225626
0.800983
-0.575356
1.03357
0.488342
0.409044
-0.355101
-0.0539431
-0.64798
0.690761
0.207154
0.31058
1.48939
-2.19136
2.73144
0.186646
-1.56418
-0.321796
2.51063
-0.0666303
-2.444
-0.383496
0.265563
0.117933
1.4581
-2.92914
0.278962
0.947012
-1.22597
0.00990221
-0.0738513
0.0639491
-2.25681
2.22302
0.0337892
-1.16546
1.74031
1.89704
0.555704
2.47914
-0.869745
-1.6094
0.00710698
-0.148259
0.141152
-1.05022
-0.779696
-0.0436541
-0.752996
-0.0267006
0.0463786
-0.828241
0.781863
-0.226315
2.48974
-2.26343
-2.31395
0.910754
1.4032
0.694362
2.49991
0.115357
0.0279265
-0.143283
1.45648
0.624048
-2.08053
0.238477
0.60901
-1.06716
2.64478
-1.57761
-2.26507
0.350839
1.75729
0.704717
-2.0144
-0.00507857
-0.284883
0.289962
2.80328
-0.722358
-2.08092
1.01409
0.539922
-3.09522
1.59123
2.94509
-3.02986
-1.32709
0.328049
0.999043
-0.302506
-0.270241
0.993061
-0.72282
-0.523955
0.356322
0.167632
-0.026066
0.294512
-0.268446
0.0622191
-0.138628
0.0764091
-1.45743
3.05367
-0.731052
0.76754
0.307434
-0.53306
0.916741
-1.36595
0.449212
-1.60118
-1.1784
-1.15927
0.178425
0.865201
-0.0089929
-0.856208
2.84601
-0.25
-2.59601
0.300126
1.67468
-0.580962
-0.336147
-1.43096
0.215315
1.30671
1.21491
-2.52161
-0.00538398
-0.0368778
0.0422617
-0.0624328
0.862408
0.0731001
0.857991
-0.931091
2.84853
-1.21137
-1.63715
-2.83427
0.493339
0.921812
-1.8934
0.334212
1.55919
0.937602
-1.98605
-0.174619
-0.17028
-0.865506
0.0118675
-1.84325
2.55662
-0.713367
0.351953
0.0776501
-0.227462
0.0106901
-0.577978
0.468242
-1.16604
0.784722
-1.47281
1.96661
-0.4938
1.81091
-1.02349
-0.787415
1.79684
-0.941506
0.584338
0.146917
-0.564613
0.468554
-0.0364723
-0.977552
1.02306
-2.2424
-1.96989
1.11895
-1.23797
1.1263
0.337091
0.150897
-0.0206993
0.0306015
2.29667
-2.31462
0.0179539
2.18452
-1.24388
0.473475
0.770403
0.215413
-0.817385
-0.679418
-2.35034