/*--------------------------------*- C++ -*----------------------------------*\
| =========                 |                                                 |
| \\      /  F ield         | OpenFOAM: The Open Source CFD Toolbox           |
|  \\    /   O peration     | Version:  2306                                  |
|   \\  /    A nd           | Website:  www.openfoam.com                      |
|    \\/     M anipulation  |                                                 |
\*---------------------------------------------------------------------------*/
FoamFile
{
    version     2.0;
    format      ascii;
    arch        "LSB;label=32;scalar=64";
    class       volVectorField;
    location    "2";
    object      U;
}
// * * * * * * * * * * * * * * * * * * * * * * * * * * * * * * * * * * * * * //

dimensions      [0 1 -1 0 0 0 0];

internalField   nonuniform List<vector> 
13486
(
(4.12615 -0.460712 1.0894e-20)
(4.94024 0.903019 4.97451e-21)
(7.44633 0.192542 0)
(0.362532 -0.680502 -2.96896e-21)
(6.62211 -1.58654 3.87487e-21)
(7.33814 0.500239 5.82684e-22)
(7.37341 -1.35516 7.06102e-23)
(5.64709 -2.06936 -6.03099e-21)
(5.56424 -1.08912 0)
(5.89988 2.34037 0)
(-4.48739 5.0827 -4.23077e-20)
(7.53516 -0.283297 0)
(3.67387 -1.11269 -1.09218e-20)
(7.34134 2.32337 6.48602e-22)
(7.03347 -1.1854 1.93165e-21)
(5.79351 2.45047 -3.10001e-21)
(1.12517 -1.60125 1.69557e-20)
(3.47353 -1.25439 4.40655e-22)
(6.92979 -0.0718894 4.70375e-23)
(4.67406 -0.0743152 -1.08788e-20)
(0.808597 -1.62763 -1.04839e-21)
(3.7242 -1.14154 1.40702e-20)
(5.03655 0.890846 -3.98497e-21)
(9.07848 -3.0661 0)
(6.19264 1.88178 9.58569e-22)
(8.79977 -2.91822 -3.99035e-21)
(-5.94593 4.80978 2.32837e-20)
(7.83357 -0.410218 9.55512e-21)
(6.03687 0.148587 0)
(7.21569 -1.22274 -5.87499e-21)
(1.44718 -2.20709 -6.3037e-22)
(7.34756 -0.885993 -2.31401e-21)
(9.30177 -0.709438 8.98132e-21)
(6.53778 -0.310906 0)
(5.68373 -1.99366 0)
(5.62026 0.0120604 1.16137e-23)
(5.50611 0.513795 -2.20145e-22)
(4.47505 -2.07707 5.75041e-21)
(4.9826 -0.191875 -2.67088e-22)
(5.63912 -0.634808 5.50003e-21)
(6.88524 -2.38441 0)
(3.08655 -1.48185 -1.29143e-20)
(6.19303 0.0216672 0)
(6.14382 1.56445 -4.72477e-21)
(6.18355 1.56158 1.90684e-21)
(7.52029 -0.246629 1.50019e-21)
(-1.02243 5.3739 2.6315e-20)
(6.01044 0.147142 -1.73983e-24)
(5.51914 0.480128 1.69981e-22)
(8.13266 -0.0649221 4.55841e-21)
(5.95793 0.0977552 5.9955e-21)
(5.17052 -0.0195244 0)
(7.67693 -0.554555 -1.89495e-21)
(4.67232 -1.68767 -8.30045e-21)
(3.6541 -1.54577 0)
(6.5646 -1.61642 -2.55683e-21)
(6.3188 0.720882 -7.89741e-23)
(5.22165 -0.0768053 -1.07322e-21)
(9.15778 -0.703773 1.04082e-20)
(5.47141 0.840943 0)
(-5.03374 2.58001 -5.33566e-20)
(5.51342 0.832978 0)
(11.2124 1.09184 -9.61708e-21)
(0.908784 -1.67764 -1.09716e-23)
(4.66109 -4.81206 0)
(5.53306 0.591441 -1.03787e-22)
(-0.286875 -0.451097 -3.64122e-21)
(4.17179 0.227641 3.6099e-21)
(5.56729 -1.15135 -3.19583e-21)
(5.46301 0.0471971 1.95818e-22)
(-0.27746 -0.36576 4.20445e-21)
(3.48265 -1.45759 2.73526e-24)
(5.81027 -0.314816 4.05258e-21)
(-6.00245 -2.39092 -1.37022e-20)
(5.59313 0.657777 -1.99472e-23)
(6.34905 0.707054 1.80038e-23)
(5.64933 0.641068 3.67116e-23)
(7.0315 -1.23474 -7.92373e-22)
(-0.822528 6.49372 -1.63777e-20)
(5.17119 -1.26717 0)
(5.92113 0.0224961 1.8476e-23)
(4.77035 1.28406 -3.20865e-22)
(11.0535 1.26764 -1.11907e-22)
(7.75535 0.193093 -9.29537e-23)
(4.08649 -0.488299 -2.12238e-20)
(4.15181 5.22742 0)
(4.5661 -1.31048 -9.34058e-22)
(5.97663 0.126233 -9.04406e-21)
(5.57042 0.690081 -4.07338e-21)
(5.35714 3.21483 -3.45108e-21)
(7.46214 -0.790912 -1.17311e-21)
(6.02115 -1.80434 -3.13944e-21)
(4.19721 -0.770114 2.80347e-21)
(4.82508 0.312015 2.80571e-22)
(5.22655 -1.58192 1.32258e-21)
(5.96858 0.133448 3.57314e-25)
(-6.71767 5.00055 0)
(-1.49376 -1.03372 3.05808e-21)
(5.68492 -0.622179 -1.04976e-20)
(1.14588 0.0642252 2.20084e-22)
(5.98012 0.00729366 0)
(7.2934 2.33019 1.92265e-22)
(-1.56428 -1.15054 3.98475e-22)
(5.21304 -0.0695105 1.25609e-21)
(3.87489 5.09752 0)
(-0.769372 2.42023 -6.31325e-23)
(5.84491 0.185298 2.10701e-23)
(4.95579 -0.28937 -6.27527e-22)
(-0.986987 7.04522 1.97333e-20)
(5.61061 -2.5753 0)
(4.50941 -2.13553 0)
(7.32169 -1.08973 -2.18107e-21)
(4.69326 -1.62984 7.2229e-23)
(6.37571 0.43088 1.02675e-23)
(3.02432 0.0255085 0)
(4.41103 -2.1157 -5.07762e-21)
(6.13749 2.04317 0)
(6.67428 -0.306401 0)
(5.71932 -0.277845 0)
(5.57288 0.353359 -1.0778e-22)
(3.52262 -1.19879 -1.77417e-22)
(-6.02204 3.65139 0)
(5.13858 -1.41697 0)
(4.9664 -0.220292 8.65138e-22)
(5.37425 -1.89786 0)
(5.23622 -0.0222771 0)
(6.37436 -0.801836 1.21007e-22)
(6.54494 0.28693 1.39824e-21)
(6.12341 -0.201205 -8.44437e-22)
(5.0835 -3.94909 -2.09769e-21)
(5.18203 -0.0131529 -1.28529e-22)
(-1.04433 5.76563 -6.46185e-21)
(1.06365 0.171171 2.32646e-20)
(-1.83358 0.688531 1.37383e-20)
(5.95712 0.0368095 -9.83411e-22)
(5.65024 1.37674 -4.48704e-21)
(2.41848 2.49251 -2.95806e-21)
(5.5977 -2.55218 0)
(5.60227 0.338876 3.04382e-23)
(5.73255 -1.66938 -2.11096e-21)
(8.82269 -0.203896 -9.18528e-21)
(7.6891 -0.597306 1.56591e-21)
(7.36376 -0.64275 0)
(5.15245 -1.18869 0)
(6.47977 0.012609 5.76925e-23)
(13.843 0.280925 -2.51017e-20)
(6.52317 -1.2115 2.72705e-22)
(-2.31302 5.08696 0)
(8.15314 -0.0547226 0)
(6.02995 0.128137 0)
(6.06649 0.0518188 8.52383e-23)
(6.9981 -1.38797 0)
(5.96139 0.0310581 -1.93364e-23)
(4.60354 1.23926 -2.70713e-21)
(6.55779 1.02009 0)
(7.64616 0.239566 0)
(5.3701 -2.4324 0)
(0.869851 -0.477568 -6.02649e-23)
(4.94264 -1.93733 1.19887e-20)
(6.14946 2.57645 -1.53647e-21)
(7.95209 0.0528782 2.79175e-21)
(4.9768 -1.89309 -1.80149e-20)
(7.52857 -0.817611 4.98262e-22)
(2.83245 -1.39767 5.69459e-21)
(5.25088 -0.0605411 0)
(7.65831 2.34963 -1.72882e-21)
(7.09779 2.16062 -1.01232e-22)
(1.13268 -0.131498 -1.3572e-20)
(6.31223 -1.06521 -1.07841e-21)
(-1.84236 0.559879 3.76564e-21)
(-2.79331 -0.318963 8.00082e-22)
(6.56261 0.93175 1.292e-21)
(5.98572 0.27356 -7.1282e-21)
(6.7927 -0.708077 1.84474e-22)
(5.91307 0.0672434 1.66625e-24)
(-2.80439 -6.01612 0)
(7.32523 3.37211 1.88688e-21)
(9.25217 -0.114118 1.26811e-20)
(5.83049 0.147957 -9.98856e-21)
(7.37871 -0.605791 0)
(5.78138 -0.787544 1.12378e-20)
(6.33849 0.386828 1.97692e-23)
(7.04324 -0.68738 -8.84232e-23)
(-8.10397 3.6472 0)
(8.03669 0.109493 1.02332e-22)
(7.50758 -0.334312 -4.33949e-21)
(6.11521 0.118483 -5.96635e-24)
(7.1076 -0.781061 -1.77834e-21)
(6.79142 -2.39268 0)
(4.06363 -1.95489 -6.76497e-21)
(5.58585 0.444298 0)
(6.96792 0.162505 0)
(5.21719 -0.249523 0)
(3.97742 2.53988 -5.67064e-21)
(5.30396 -0.345636 0)
(-6.34581 6.24248 -1.15547e-20)
(4.77405 -4.27002 4.86888e-21)
(8.05519 0.00637692 1.53344e-21)
(3.84553 -1.89619 -2.57418e-21)
(7.57799 2.17754 -7.16055e-22)
(1.44778 -2.32255 6.35004e-22)
(6.55887 0.344561 -4.09046e-23)
(4.4098 -2.10814 -6.66346e-21)
(5.77069 -2.45742 1.32577e-21)
(6.13672 2.42796 1.86691e-21)
(5.35059 -0.327784 -9.60704e-22)
(3.06618 -1.46778 9.47226e-23)
(5.52164 -0.0862399 8.25564e-21)
(5.19498 -0.212766 0)
(7.94532 0.175065 0)
(7.6554 -0.487791 6.36163e-21)
(7.61002 -3.65233 6.25021e-21)
(4.72725 0.0179215 9.99068e-21)
(5.72147 0.198982 3.21524e-23)
(7.33741 0.614774 -6.71963e-22)
(5.72797 -1.70111 5.94922e-22)
(7.44483 -1.05552 0)
(5.49505 3.0893 9.04549e-21)
(4.41258 -0.867252 0)
(9.67395 2.17125 0)
(1.33069 -0.840299 -3.23432e-20)
(8.18876 -0.00811569 0)
(5.6932 -1.64278 4.9641e-21)
(7.97108 0.118434 0)
(7.83261 -0.612759 -2.57641e-22)
(3.79693 -1.75759 4.03326e-21)
(7.83634 1.06136 -1.36204e-22)
(0.521157 -3.96576 8.60186e-22)
(5.68681 -1.14438 9.54152e-23)
(4.78316 -1.26125 -4.69393e-23)
(5.80995 -0.76604 -3.59917e-21)
(4.91254 -1.21996 1.90603e-21)
(8.90404 -0.34099 1.15493e-20)
(3.0406 -1.43929 4.41915e-21)
(-0.54252 -2.07578 0)
(3.59038 -1.74717 4.78017e-22)
(6.7955 -0.617487 2.969e-21)
(6.97911 0.148782 -7.65186e-23)
(3.50787 -1.68218 1.31317e-20)
(7.00728 -0.430329 0)
(9.29926 -0.991468 0)
(6.02073 0.24829 1.09798e-20)
(6.46148 0.269299 0)
(3.39577 -1.6753 4.37047e-21)
(4.64063 -0.251899 -5.80669e-22)
(5.37914 0.28843 0)
(7.27109 -0.0457954 -7.37896e-22)
(8.08956 -2.09261 1.1987e-20)
(0.178363 -1.38407 2.88731e-20)
(6.03839 1.50557 0)
(-5.39915 -0.575705 -3.23365e-21)
(2.94196 0.11073 1.58394e-21)
(4.03852 -1.9808 6.51257e-21)
(4.95032 -0.320931 0)
(5.44601 -1.06652 7.04023e-22)
(-3.142 -5.99983 3.50906e-21)
(7.30661 -0.890131 1.8562e-21)
(5.65498 -1.7277 -7.51766e-22)
(0.983334 -1.00437 6.31075e-23)
(9.30454 -0.872886 7.24857e-21)
(5.26351 0.783451 0)
(4.65158 -0.205618 1.76487e-23)
(7.0431 -1.1939 -4.49843e-21)
(-3.24739 -4.92508 -4.38158e-21)
(6.32497 -2.12298 -4.06314e-21)
(-8.18899 3.78155 0)
(5.71346 -1.11041 -1.60715e-21)
(1.09469 -2.31434 -1.04268e-21)
(6.17501 0.00474292 -4.71476e-21)
(4.17713 -0.935584 0)
(4.44472 2.88631 4.13813e-21)
(5.92531 0.189355 -2.69866e-21)
(7.42605 -1.10626 0)
(7.63729 -0.399961 1.08982e-21)
(3.85477 -1.81419 5.38544e-21)
(7.85147 -2.00767 -6.69058e-21)
(5.44234 -0.971178 0)
(3.77406 -2.32159 0)
(4.96268 -0.418625 -6.82833e-22)
(6.54265 -0.952009 -2.70163e-22)
(3.89406 -2.45167 1.16753e-21)
(6.19527 -0.548262 -4.01721e-21)
(5.77028 0.243572 5.94523e-21)
(12.2195 -3.10701 -1.3097e-20)
(-7.2304 3.87049 5.65071e-20)
(-3.61566 4.97292 3.50356e-20)
(8.95182 -0.0627486 1.04199e-20)
(6.112 -0.231015 1.11041e-21)
(8.35604 -0.572734 3.07151e-22)
(6.09482 -4.12517e-06 0)
(-0.310393 -1.9596 0)
(4.59581 0.839107 3.79054e-22)
(4.39845 -2.10691 5.05241e-21)
(6.01567 0.0667295 -9.66899e-22)
(6.7467 -0.585596 2.73007e-21)
(6.95984 -0.71801 0)
(7.44275 -0.0425558 -3.60657e-21)
(7.69886 -0.317823 -8.09005e-22)
(5.72105 0.2607 -5.4671e-21)
(7.25192 -1.74956 1.56747e-21)
(5.83024 -0.531118 -5.97231e-22)
(3.17808 -1.44157 5.2567e-23)
(6.60332 -1.02767 2.30225e-22)
(7.2861 -0.900216 2.202e-21)
(5.4971 0.367628 5.25354e-23)
(5.02492 -2.39219 0)
(0.758944 -0.430965 0)
(6.70613 -0.0997564 1.48459e-21)
(4.81365 -1.12282 8.23842e-22)
(5.56404 0.459665 0)
(5.71449 4.11657 -2.26472e-20)
(0.405526 -0.47023 0)
(6.99697 3.29154 -2.55961e-22)
(7.48263 -1.05638 -2.14557e-21)
(9.82667 -0.598514 0)
(5.63412 1.24287 -2.72172e-21)
(4.56122 0.998604 -5.54921e-22)
(5.56911 0.65715 -3.47107e-22)
(5.55698 -0.0437571 -9.08135e-21)
(5.86727 -1.1495 0)
(5.49115 0.561224 1.8776e-22)
(4.70596 0.506559 -1.86526e-23)
(5.92495 0.135898 1.2586e-21)
(4.77978 0.476219 -5.25533e-21)
(1.88129 2.33085 5.5267e-21)
(7.5544 -0.788567 2.2662e-21)
(6.50309 -1.16462 -1.15074e-20)
(6.20821 -0.534574 0)
(7.86713 -0.208154 6.58103e-23)
(6.57362 -1.1922 -2.1735e-21)
(5.97995 0.0687331 1.30811e-20)
(6.09043 -1.82343 0)
(7.31607 -0.792566 -4.89775e-22)
(4.21294 1.21482 0)
(7.25818 -1.42596 -3.62377e-21)
(5.43566 -1.48968 -3.59426e-21)
(2.24812 -1.01093 5.33371e-21)
(6.94079 -1.42698 -3.18828e-21)
(6.04858 0.634751 0)
(4.55122 -0.152257 -9.1154e-22)
(5.82088 -1.11647 1.7676e-21)
(4.89005 0.449038 4.96964e-21)
(6.58215 -1.20638 8.30665e-21)
(7.02744 -0.679788 3.67478e-21)
(-8.88815 2.51139 -2.58858e-20)
(6.00891 0.146914 5.84207e-25)
(6.55398 -0.64325 0)
(2.87993 -0.869428 1.26195e-20)
(9.6905 2.04691 0)
(4.44833 0.763429 3.7419e-23)
(6.58977 -0.358276 6.59977e-21)
(7.7729 -0.311518 -6.70297e-22)
(7.6602 -0.389875 7.84065e-22)
(-7.37716 5.1522 -2.95334e-20)
(5.73085 0.223611 6.83317e-21)
(5.84693 0.0507217 0)
(-4.06798 -0.954564 -1.2832e-20)
(6.39824 -0.812446 -2.40464e-21)
(4.55999 -1.17063 -4.46628e-22)
(7.44599 -3.3054 5.5887e-21)
(7.86119 -0.0569401 0)
(7.74194 -0.769423 1.48918e-21)
(5.28702 0.535399 1.05567e-20)
(5.84526 0.199828 8.17446e-21)
(7.26471 -1.24194 0)
(5.95992 0.0334541 -3.23235e-24)
(6.91303 -0.683187 -2.78846e-21)
(-1.1002 4.23867 3.55976e-21)
(4.61134 -0.0613874 1.39003e-21)
(6.41847 -0.731631 2.29359e-21)
(6.41245 0.00706854 -1.78868e-23)
(6.53234 -0.616465 0)
(7.75638 -0.503355 -7.06815e-22)
(-6.10504 -0.427758 4.63796e-21)
(7.2312 1.26863 8.26473e-22)
(5.97949 0.0967519 5.03622e-21)
(4.71206 -0.00066439 0)
(4.45226 0.347151 -9.34262e-22)
(11.7999 -1.44441 0)
(10.2909 3.97652 -6.64037e-21)
(6.16376 -0.0333019 0)
(6.06462 -2.06155 -1.05308e-22)
(3.85969 -0.198461 -2.99098e-21)
(4.49574 2.50306 9.88823e-21)
(-1.23747 2.89133 -1.30669e-20)
(5.50239 -0.968169 0)
(6.92321 0.206357 -3.67106e-22)
(6.06171 0.658922 -2.80408e-21)
(3.44783 -0.338869 -1.14244e-20)
(1.62467 -1.67609 7.00905e-23)
(4.86176 -0.0457222 -1.50384e-20)
(7.57992 -1.00948 3.02237e-21)
(6.22267 0.646164 1.79981e-21)
(4.21186 -1.2397 0)
(4.06237 1.02313 5.68991e-21)
(5.66967 0.356378 -6.48803e-23)
(0.0975406 -0.498882 1.77069e-21)
(-5.94103 0.176065 -1.49526e-20)
(2.96795 -0.45491 -2.10036e-20)
(8.96267 -0.0509481 0)
(3.8609 -0.599409 0)
(6.22063 3.69933 0)
(6.16347 -0.232671 0)
(1.41666 -1.36177 -5.47557e-22)
(7.2523 -1.36236 0)
(4.70543 -0.961963 0)
(4.90759 0.304554 2.05897e-21)
(9.16558 -0.0961386 -1.30295e-20)
(6.46021 -0.563357 -5.3821e-21)
(5.03617 1.01818 1.71345e-20)
(6.00352 0.110504 -1.38689e-21)
(7.02226 5.25317 0)
(7.84834 -0.844007 0)
(5.67216 0.264861 5.82601e-21)
(5.91318 0.0930577 9.98641e-22)
(3.64017 2.83365 0)
(-7.84772 3.37223 2.32588e-20)
(6.26432 -2.16419 4.55768e-21)
(-3.60281 -1.89339 0)
(7.01723 -0.438996 3.55778e-21)
(5.85149 0.18436 -6.66888e-21)
(2.4542 -0.434904 -5.62586e-22)
(2.86688 -0.827383 0)
(5.98634 0.656776 5.34746e-21)
(7.80782 0.609068 0)
(7.05663 -0.773007 0)
(6.62946 0.626846 -1.89697e-22)
(5.67306 0.287394 3.10456e-21)
(-5.71494 4.51198 -3.04979e-20)
(7.02991 2.13868 2.03965e-22)
(3.84742 -0.842765 -5.34731e-21)
(6.13997 -0.204497 6.94327e-22)
(6.26959 0.709002 1.37965e-21)
(8.2584 -0.481456 1.80419e-21)
(6.51379 -2.12051 0)
(8.22483 -1.77589 6.17658e-21)
(3.92759 -0.0869436 0)
(4.52036 0.626529 4.01865e-22)
(6.7581 -0.691894 0)
(4.23854 0.249801 7.69533e-21)
(-1.82863 3.07363 -2.80486e-20)
(7.61336 -0.945195 0)
(-0.360151 1.32622 6.34986e-22)
(7.88903 -0.934306 -6.89314e-21)
(4.02708 -1.91399 -2.49682e-21)
(5.17564 -0.693103 1.44993e-20)
(4.1903 2.36767 -6.10445e-21)
(3.83093 -0.795004 -1.52335e-20)
(11.1936 3.84111 0)
(5.54792 0.393493 1.24748e-22)
(-8.36364 2.59595 -6.48817e-20)
(6.01937 0.673964 0)
(5.55365 0.735644 3.80292e-22)
(7.92167 -0.0931012 -9.72745e-22)
(8.19949 3.54651 0)
(5.99998 0.0233094 0)
(-4.52079 1.45342 0)
(-2.29497 -5.99085 1.34157e-20)
(12.0872 -4.26391 1.55124e-20)
(12.0721 -0.243882 1.38422e-21)
(6.9644 3.13363 0)
(5.01804 -0.4406 9.77721e-21)
(5.91229 0.0758434 -2.65683e-24)
(6.98674 1.94101 -2.14918e-22)
(0.692117 -1.26357 2.01626e-21)
(5.73352 0.528619 0)
(6.02197 0.157551 0)
(2.08142 -0.132865 -8.40098e-21)
(4.14529 -1.21565 -3.78678e-21)
(5.68018 -0.490959 0)
(4.84212 -2.29152 -4.97774e-21)
(6.11116 0.00857655 -2.04199e-24)
(5.98855 0.124991 2.36772e-24)
(2.4639 -1.07015 0)
(5.64581 -0.1091 1.12386e-21)
(5.60937 0.329553 8.06154e-23)
(7.85968 0.568264 3.02666e-21)
(5.37846 -1.549 0)
(-4.23289 5.97849 -5.31109e-20)
(7.70126 -0.302839 8.83521e-22)
(5.9931 0.296229 1.14372e-21)
(5.72298 0.072665 4.1605e-23)
(7.82735 2.2838 0)
(5.03154 1.02882 -4.55739e-21)
(9.59617 1.26911 -4.92707e-21)
(1.94428 -0.788794 4.66289e-21)
(6.00791 0.187445 0)
(1.53688 -1.70236 -7.19207e-23)
(1.31898 -0.00593462 0)
(6.06255 0.139106 -4.33198e-21)
(5.96864 0.207916 1.9912e-21)
(5.54184 0.190651 -1.14443e-21)
(-3.77055 -5.49444 0)
(7.5973 0.0890391 -2.66644e-22)
(3.21501 1.55255 1.53702e-20)
(6.45251 -2.10733 0)
(4.7616 0.348315 6.34726e-21)
(7.14972 -1.7617 -1.80266e-21)
(6.60876 0.0818619 0)
(0.97722 -2.42467 5.73645e-22)
(5.15991 -1.18619 -1.34173e-21)
(6.43112 0.0324644 0)
(-2.22494 4.68608 3.22336e-20)
(5.51166 0.648026 0)
(5.09764 -2.32678 4.96105e-21)
(-5.35023 -1.26551 8.33563e-21)
(6.12279 0.129288 6.20666e-24)
(7.40289 0.506982 -1.53374e-21)
(4.0276 1.00799 3.02316e-21)
(5.16284 -0.774486 -5.31487e-21)
(5.50672 -0.892246 -7.31431e-22)
(5.11484 -2.28907 4.76422e-23)
(6.3872 -0.726535 2.18931e-21)
(7.83689 2.25473 3.5213e-21)
(5.85189 -2.6432 0)
(5.97501 0.0867855 -4.46453e-21)
(-3.62565 -1.7887 -1.29069e-20)
(3.98785 -0.0989648 0)
(5.72292 0.464295 -1.11482e-23)
(5.39863 0.0245578 0)
(3.52023 -0.870479 1.3343e-20)
(5.94369 -2.22748 0)
(5.86284 0.0154672 -3.41997e-23)
(6.63559 -0.301233 -3.77661e-21)
(0.971343 -2.83414 1.06397e-21)
(-3.77271 0.755287 9.06918e-21)
(7.56072 -0.146463 -3.0033e-23)
(4.87052 -2.34162 4.81985e-21)
(5.10583 -1.41004 5.32992e-21)
(4.18817 -0.793495 0)
(-8.40189 4.1761 -1.86542e-20)
(6.58162 -2.00243 -9.17051e-22)
(-8.64725 4.96911 -2.22544e-20)
(5.9826 0.146387 2.07674e-24)
(4.18508 -1.57624 0)
(6.66495 0.0371922 -1.76506e-23)
(-7.89702 3.53709 0)
(-1.86427 -1.60307 3.65902e-22)
(2.9242 -0.799874 8.08661e-22)
(-0.748724 0.257962 0)
(5.93858 -1.56609 1.56597e-21)
(4.59457 -4.62373 0)
(8.18709 3.38109 0)
(4.79809 -2.27163 -6.51915e-21)
(4.28696 1.07026 4.622e-21)
(4.86906 -1.39102 0)
(5.39385 0.590864 -2.88349e-21)
(12.3568 0.488491 2.81236e-20)
(-6.76413 -0.0311555 2.60346e-20)
(8.30474 4.49746 0)
(6.35122 -0.0178327 0)
(-8.50544 3.27097 -3.04402e-20)
(5.44366 -0.317713 0)
(7.77217 0.163021 0)
(-5.30171 2.14383 -2.50756e-21)
(5.92073 -1.11703 -7.3315e-21)
(5.0422 -1.12377 4.51481e-21)
(9.34514 -1.16164 1.05059e-21)
(-8.4856 4.58039 3.87165e-20)
(5.9368 0.159572 2.2957e-21)
(4.28301 -0.884597 0)
(6.54916 1.56651 -6.6776e-22)
(4.09687 -0.403397 0)
(7.40233 0.0719836 0)
(5.96996 0.387766 0)
(6.66551 0.603444 -1.50186e-22)
(5.53189 -0.0341911 4.19371e-21)
(6.43974 0.207998 -6.60994e-23)
(4.38338 -0.924625 0)
(-6.58182 4.47442 -2.27138e-20)
(6.11401 3.45002 9.8442e-22)
(5.36495 -1.92635 5.15724e-22)
(6.13026 -0.266937 -1.80496e-21)
(7.70238 -1.97965 1.03336e-20)
(6.18023 0.0803631 -3.85463e-21)
(-1.25629 2.483 0)
(7.65364 -0.310968 0)
(4.09776 2.74811 0)
(3.5753 -1.56475 -9.78589e-21)
(2.46387 -3.59759 -1.38001e-21)
(-0.332333 -0.990052 0)
(6.61259 1.56116 0)
(8.02876 -0.703953 1.03456e-21)
(5.90869 -0.0889888 -1.08655e-21)
(5.69085 2.04674 4.56137e-21)
(5.86995 -2.47068 0)
(-7.78991 5.83648 -1.13131e-20)
(7.00612 0.210778 -2.50487e-22)
(4.04259 -1.09978 -9.003e-21)
(6.6697 0.294122 -6.74085e-22)
(6.9737 1.97207 8.80389e-22)
(8.28638 -6.08706 7.1059e-21)
(3.52828 -1.54139 1.68646e-20)
(5.55758 -2.47493 2.76271e-21)
(6.37703 0.397576 2.52564e-23)
(5.95953 0.0349466 -1.13678e-21)
(4.3772 -2.11823 -1.53688e-21)
(5.17761 -1.1242 5.90069e-22)
(4.77837 6.73715 -2.53801e-22)
(4.74703 -2.266 2.57849e-21)
(7.90636 -0.131471 0)
(5.79695 -1.51136 2.05936e-22)
(6.44074 -0.0103061 -3.19256e-21)
(8.86488 2.41291 2.52336e-21)
(3.94709 -0.969273 -8.20704e-21)
(5.33181 -1.85522 -5.50144e-21)
(6.07499 -0.0840557 1.04318e-20)
(7.45442 -0.16885 -5.9951e-21)
(4.39048 -0.621438 -1.2957e-23)
(8.96311 0.0849296 -5.44236e-21)
(3.26694 -0.25539 -1.78643e-20)
(6.56099 0.00620925 -2.47536e-21)
(3.21402 -0.450626 0)
(0.563583 -3.66248 -3.64353e-21)
(6.1282 0.0619521 9.84635e-21)
(5.38695 -0.017192 5.03278e-24)
(-5.0576 -2.18365 0)
(5.25326 -2.43288 0)
(6.09205 1.44506 3.85559e-21)
(2.8694 -0.217442 1.10982e-20)
(4.75278 -7.08955 -9.00478e-21)
(6.13127 -2.04916 -2.8093e-21)
(6.52954 -1.18989 6.31278e-21)
(9.85198 1.94509 0)
(6.07787 1.48747 2.08649e-21)
(3.25033 -1.30203 -3.45266e-23)
(7.52692 3.22637 2.11304e-21)
(5.72561 -0.709272 -6.3384e-21)
(-8.36164 4.29176 -6.19038e-20)
(7.52675 -1.91522 -1.00007e-20)
(8.37135 -1.92206 3.4415e-21)
(6.78241 3.74174 0)
(6.22264 -1.10167 -1.22579e-21)
(5.61333 0.157105 1.04911e-21)
(5.93344 0.0507822 -1.05307e-24)
(2.83259 -1.37057 1.56392e-20)
(5.65683 -0.723069 9.54673e-21)
(5.58898 2.28982 6.35949e-22)
(-6.79319 0.24269 -1.45322e-20)
(7.02259 -0.437067 -3.18427e-21)
(6.51188 0.105331 2.20859e-21)
(-7.30784 3.60799 -7.05855e-21)
(7.24424 3.15658 -1.82932e-21)
(-1.84266 3.87357 -3.5023e-20)
(3.60751 -1.74484 -5.17511e-21)
(5.95057 0.054271 0)
(6.36834 0.653332 -9.15542e-23)
(-5.72933 -2.15505 -1.72622e-20)
(3.83 -0.254891 1.60095e-20)
(6.17415 0.107137 0)
(6.62625 -0.516061 4.48758e-22)
(3.37037 -1.30164 3.82124e-21)
(5.98667 0.126549 -9.77124e-21)
(-7.39301 2.52709 -1.96737e-20)
(4.8527 -1.32855 -3.29552e-22)
(6.49454 -0.612539 3.68909e-21)
(6.89384 0.231602 4.36179e-22)
(5.16139 -2.36042 -6.88573e-21)
(6.48796 0.304672 9.52006e-23)
(2.40437 -4.17269 -4.83061e-21)
(6.40644 0.0121688 2.99161e-21)
(6.12667 -0.143347 -2.99062e-21)
(6.41588 0.381316 -1.00522e-22)
(6.77871 -0.104801 -6.44225e-21)
(3.2572 -1.37028 -7.37867e-21)
(6.41243 0.377091 0)
(-2.11831 -4.99107 5.85394e-21)
(6.25359 0.0658077 7.41151e-22)
(2.1398 -0.329279 -1.05442e-21)
(7.45904 0.14913 -1.18945e-21)
(6.36072 -1.22547 -3.91064e-21)
(6.01769 0.0516574 -7.44088e-21)
(6.29189 1.06277 1.08495e-21)
(-7.5114 3.2504 -2.39073e-20)
(7.78602 0.165172 0)
(4.53793 0.217403 4.71096e-22)
(7.81772 -0.279789 6.87016e-22)
(4.21095 -1.52483 0)
(6.36867 0.314955 1.72727e-21)
(7.89127 -0.183855 6.13819e-22)
(7.70539 0.179601 4.93757e-26)
(7.17479 -2.6683 -6.28637e-22)
(5.42084 -0.312585 0)
(5.2821 1.17357 8.30114e-21)
(6.08832 1.65264 -2.22185e-22)
(4.67324 -2.21412 5.59656e-21)
(5.94172 -0.479293 0)
(4.2905 1.06579 -1.33865e-20)
(3.64182 -1.06383 -2.23581e-22)
(7.52349 4.71692 -5.21626e-21)
(3.29407 -0.302729 1.74804e-20)
(6.36122 0.0363229 8.75208e-23)
(-4.39573 1.16658 8.43863e-21)
(5.73194 -0.277506 -6.54213e-21)
(8.39868 -1.47493 -8.88059e-21)
(5.25451 0.547917 -6.08662e-21)
(6.29087 0.0408878 0)
(5.9524 0.091228 -4.29863e-21)
(-0.839836 -0.474734 2.44047e-21)
(-3.13913 0.300992 0)
(8.14699 -3.47181 0)
(5.93213 0.0447996 0)
(1.64317 -0.973105 0)
(6.16077 1.02921 0)
(3.09722 -0.220468 0)
(5.89591 -1.73522 -8.40537e-23)
(12.0668 -0.981082 -1.36939e-20)
(7.94768 1.14071 0)
(5.23186 1.13273 1.23628e-20)
(4.38653 -1.17839 -2.40824e-22)
(6.24295 0.69755 1.29908e-22)
(-5.71586 -1.04688 -1.06828e-20)
(3.21291 0.39399 -4.88507e-23)
(-7.36041 3.11902 1.80842e-20)
(6.34272 0.000658511 -2.38253e-21)
(8.08577 -0.0988265 6.31087e-22)
(6.07959 1.01062 -2.65041e-21)
(5.58485 0.665942 -8.14702e-21)
(5.90402 3.22329 -2.90555e-21)
(10.7898 3.98093 0)
(1.20027 -1.61731 2.58242e-22)
(3.57164 -0.933341 -1.46095e-20)
(6.05551 0.0535977 -1.3082e-20)
(6.64066 -1.9811 -5.48984e-21)
(6.44828 -0.0644219 1.02912e-21)
(7.73024 -1.95964 7.96577e-22)
(6.1949 -0.928616 -8.28869e-22)
(5.97077 -1.53443 -5.43274e-21)
(6.05313 0.591841 2.90641e-21)
(5.51095 4.13874 0)
(5.48113 -0.773101 -6.73137e-22)
(5.04429 0.220807 -1.88102e-21)
(7.27078 -1.29545 0)
(5.02693 -0.348669 0)
(5.4082 -2.47596 -4.91412e-23)
(-3.71555 0.668696 7.98205e-21)
(5.82975 -1.74448 -3.05685e-21)
(5.21627 0.0794225 0)
(5.5641 -0.160695 -8.57801e-21)
(5.3848 0.706398 -1.58076e-21)
(-1.27388 -4.0046 2.74918e-21)
(8.00677 0.0572329 2.24913e-22)
(-6.87333 2.78843 0)
(1.05612 -1.56891 3.5118e-22)
(7.89667 -0.102472 0)
(6.13617 -1.12739 1.31109e-21)
(7.44095 -0.788213 -1.21205e-21)
(6.04731 0.0557365 -1.33544e-23)
(7.13756 2.20437 1.83406e-22)
(8.22952 4.02493 -6.1346e-22)
(4.94405 -1.34708 1.10361e-20)
(2.19324 -1.78951 0)
(4.39989 -3.7426 -3.94658e-21)
(4.31427 -1.64635 0)
(8.12904 1.12571 -1.23645e-21)
(-1.37312 -3.7628 4.25148e-21)
(8.12537 -3.4277 7.88544e-21)
(4.61418 0.0694406 -4.91301e-22)
(-2.95244 -6.63456 -2.95507e-20)
(4.20142 -1.97497 -6.46377e-21)
(3.70382 -0.954284 -8.49521e-21)
(5.63947 0.351016 2.26182e-23)
(4.65997 -3.59667 3.21771e-21)
(3.31803 -1.39245 6.04956e-21)
(3.89208 -1.06463 9.20629e-21)
(2.41913 -3.42217 1.69174e-21)
(5.24723 -4.01739 -2.39824e-21)
(5.2685 -1.60334 5.46811e-21)
(-2.79536 3.31267 1.7708e-20)
(6.60452 0.0778142 5.54566e-23)
(4.29302 -1.19367 2.40094e-22)
(7.05014 1.35374 -2.10566e-22)
(6.50788 -1.66996 0)
(1.52267 -0.48568 -4.13149e-20)
(6.25824 -0.00548593 -3.90464e-21)
(5.99703 0.416398 0)
(8.03844 1.05543 0)
(3.93136 -2.69658 -1.65438e-21)
(9.34612 -1.89434 -1.04283e-20)
(7.34633 0.709018 2.05257e-21)
(5.91715 -1.08497 9.6384e-21)
(5.86439 3.14116 2.75066e-21)
(5.08004 -0.0517157 6.74972e-21)
(-2.14084 -4.02738 -6.83385e-22)
(5.31405 2.06166 0)
(4.00197 -1.17929 8.77959e-21)
(-0.778074 7.15372 7.44398e-21)
(-3.70466 -4.97911 2.1628e-20)
(4.94602 -1.8568 1.85334e-21)
(5.25709 -2.39413 -1.56178e-21)
(6.14668 -0.0184744 3.28643e-21)
(4.88934 -0.166287 2.81657e-22)
(7.09335 -1.19346 6.21303e-21)
(-2.52838 -4.1321 -4.22162e-21)
(7.27313 0.676251 -1.51663e-21)
(5.79171 0.207092 3.40711e-21)
(3.20062 -0.427752 -7.19118e-21)
(5.46176 -0.270477 5.36593e-21)
(4.34819 -0.709796 0)
(7.2829 1.24091 -1.29037e-21)
(5.84935 0.148786 7.52947e-22)
(4.17802 -0.687541 -2.8069e-21)
(5.79935 5.62449 1.38158e-21)
(5.18872 -1.557 4.05897e-21)
(6.09468 0.0481226 1.4791e-21)
(4.03679 0.571362 -1.0375e-20)
(7.31577 -1.30527 0)
(4.71089 0.200329 -7.97085e-22)
(6.73489 0.32687 9.16279e-22)
(6.01749 -0.332227 0)
(4.15177 0.205473 5.96683e-21)
(7.95733 0.0668699 0)
(4.9629 5.67591 1.72163e-21)
(7.19755 -0.109705 0)
(5.46861 -0.842886 0)
(7.55272 -0.168306 7.67786e-22)
(7.24122 0.558965 -7.80293e-22)
(8.93805 0.617896 -8.27713e-21)
(5.72566 0.469308 -3.66701e-21)
(4.50468 3.53048 -2.58092e-21)
(6.0183 0.305948 -1.36971e-21)
(6.21773 1.06662 0)
(6.0255 3.59469 -2.47809e-21)
(7.5203 0.467763 2.03228e-21)
(6.04593 -1.12032 -2.69288e-21)
(6.51137 -1.65598 0)
(8.98394 2.34064 3.79201e-21)
(6.5371 5.31432 2.94831e-22)
(6.59038 0.043399 2.1173e-22)
(4.5427 -8.50993 0)
(-4.135 0.94296 4.38886e-20)
(6.11292 0.582343 0)
(7.23284 -1.00529 -3.13624e-21)
(0.729234 -1.46746 0)
(8.70829 1.78694 0)
(5.45955 -2.68771 0)
(5.82985 -2.20105 0)
(-5.57546 6.48146 -6.11156e-21)
(-1.70716 -6.44195 -2.67353e-21)
(5.48804 -0.0194136 -6.26741e-21)
(0.769713 -2.96125 -1.50159e-21)
(3.56869 -1.47299 0)
(0.85798 -4.10932 -1.46903e-21)
(-0.745527 -1.78285 -2.86368e-20)
(4.55693 -2.12779 0)
(4.21596 -1.40865 -9.47555e-21)
(5.63929 0.700211 -1.30857e-23)
(7.02589 1.28619 4.02856e-22)
(6.97238 -2.40633 1.57989e-21)
(5.50785 0.610169 0)
(6.31293 -2.04739 0)
(10.3592 0.865865 4.09219e-21)
(5.13625 -0.988173 1.50082e-22)
(5.51326 0.386652 -1.05418e-22)
(3.95207 -2.621 8.19662e-24)
(5.99448 0.0189032 3.18801e-22)
(6.35419 0.636208 6.60921e-24)
(6.03626 0.569856 4.12496e-21)
(4.62115 0.459569 3.80276e-22)
(5.4375 -1.44969 0)
(-6.19657 5.48151 0)
(6.4707 0.254852 0)
(5.60174 0.0634418 0)
(5.04321 -0.836281 3.9379e-21)
(8.43512 -0.165172 0)
(-5.44041 5.10854 8.80065e-20)
(7.4502 -6.23309 -4.67172e-22)
(3.78584 -1.109 -1.39095e-20)
(4.16038 -1.0169 5.72495e-23)
(-1.68204 -5.20521 -3.43458e-21)
(-1.84957 5.74701 -4.43523e-20)
(6.11157 0.0964045 1.17235e-21)
(-3.60012 -4.06338 -6.34923e-21)
(4.66047 0.63501 5.34259e-22)
(7.59489 -0.133972 0)
(6.85228 -1.17059 0)
(4.96143 -1.0919 0)
(6.32439 -1.28636 2.07342e-21)
(5.08798 -4.47573 0)
(5.4615 2.03013 0)
(6.0233 0.0246595 0)
(5.10182 -1.11769 4.22512e-21)
(6.27289 0.642925 -3.6221e-21)
(5.3319 0.0526128 0)
(6.07803 -1.77849 -2.99951e-21)
(5.91017 0.595542 -4.18337e-21)
(7.51542 3.09118 -4.60537e-21)
(4.61009 -2.10523 5.79774e-21)
(5.57117 2.24965 3.20113e-23)
(5.13621 -1.32025 -1.03787e-22)
(4.94653 -0.391774 6.71087e-22)
(5.5518 -1.10389 -1.38217e-21)
(7.21983 0.586093 1.15369e-21)
(5.56124 0.379123 -2.23167e-22)
(5.41347 0.317751 -5.96011e-21)
(6.34053 0.0342146 0)
(2.88148 -0.535727 7.85063e-22)
(5.82799 0.219268 6.06044e-21)
(3.46 -1.28261 -2.03871e-22)
(6.1805 -0.882123 -2.41459e-21)
(2.95784 -0.282266 -1.2072e-20)
(7.21692 0.505628 -2.16217e-22)
(9.64057 1.36365 7.12772e-21)
(6.02731 0.242962 0)
(5.54495 -1.00209 2.98229e-22)
(5.1403 0.0934948 -2.2774e-22)
(5.57487 -1.12628 2.6649e-21)
(0.669368 -1.37191 -2.30054e-21)
(5.92128 0.053873 3.19535e-21)
(6.43085 0.376119 -2.74893e-23)
(6.25903 0.0386144 -6.28801e-23)
(6.42735 0.217063 0)
(3.95511 -0.766108 0)
(4.27808 -2.02727 7.17325e-21)
(-7.14465 2.4287 2.12509e-20)
(5.96971 0.0559703 2.06272e-24)
(5.85524 0.220424 1.20983e-20)
(4.71878 -0.716728 -8.42504e-22)
(4.29122 0.959638 0)
(5.32467 0.400723 0)
(4.55455 -0.874855 -4.24785e-23)
(7.44438 -0.0800704 1.16619e-21)
(5.75215 2.13115 6.05613e-21)
(7.32517 -0.573685 0)
(6.90224 0.0290111 0)
(6.02237 -1.73052 7.72474e-21)
(5.87041 -0.428616 5.07178e-21)
(0.279486 -0.0787539 -3.22946e-22)
(5.87193 -0.15763 0)
(8.57795 1.52525 3.92564e-21)
(6.66133 -2.16202 -1.27474e-21)
(-6.7072 -1.1703 -2.24947e-20)
(5.90088 -0.071109 -6.87447e-21)
(11.6576 -0.449604 0)
(9.68222 -1.70565 8.2558e-21)
(6.67309 -9.00165 -2.39716e-20)
(0.117205 0.0637013 0)
(5.63485 0.0846802 -1.39147e-22)
(5.67707 0.39858 -3.9788e-21)
(5.94802 0.0347706 1.46276e-26)
(7.7571 -0.810485 6.6834e-22)
(3.75128 4.08941 6.62495e-21)
(6.35666 0.0683136 0)
(2.92637 -0.939972 -7.53525e-23)
(5.49423 -0.883774 5.71188e-22)
(11.1617 -2.51923 -5.41676e-20)
(6.10572 1.00149 3.13851e-21)
(2.24512 -1.67827 2.09033e-22)
(6.02953 0.04975 -1.50586e-20)
(5.65458 2.47689 -4.20405e-22)
(4.7538 -0.271815 6.39164e-22)
(5.03115 -1.02893 0)
(5.28927 0.0224575 -1.20149e-21)
(3.2439 -1.44052 4.89213e-21)
(6.52971 -0.284591 -7.29795e-21)
(5.87385 0.139083 -5.47844e-21)
(7.10325 -0.96712 2.84161e-21)
(4.91624 -0.371678 1.42348e-20)
(6.56388 0.0755091 -6.94141e-23)
(5.22732 0.450413 3.43844e-21)
(5.75283 0.461106 -3.22064e-23)
(9.36572 -1.2146 -1.18582e-20)
(7.36651 3.40524 -3.37847e-21)
(5.16093 -7.13236 6.97221e-21)
(5.99216 -0.0879646 0)
(5.09264 -1.10714 0)
(3.02126 -1.31054 0)
(3.77964 -0.973334 1.06906e-20)
(6.18698 0.0688492 -8.72694e-21)
(5.30843 0.811185 0)
(4.26315 -0.756432 -8.32424e-21)
(5.31851 0.742792 0)
(5.07631 -0.745484 -6.47177e-21)
(5.9795 -1.14982 -2.82963e-21)
(5.3929 -1.34062 -5.95719e-21)
(6.46461 0.0855404 0)
(5.75303 0.145129 0)
(6.0569 -0.368461 1.60232e-21)
(7.80873 0.921395 1.35504e-22)
(7.97582 -0.20537 4.6179e-21)
(6.96376 5.57993 -3.40769e-22)
(7.38276 -0.747511 0)
(4.986 -1.80358 -3.07201e-21)
(-2.31688 2.00171 0)
(2.32371 2.66748 -5.46593e-21)
(8.29102 3.99496 0)
(6.45481 0.337807 5.71961e-23)
(3.29825 -0.194526 4.63492e-21)
(4.36378 -0.265184 4.60441e-21)
(5.77621 -0.178746 -1.6085e-21)
(7.16707 -5.87577 -2.39662e-20)
(5.73304 -0.507718 1.28404e-20)
(6.18993 1.04862 -1.31229e-22)
(7.13305 -1.95909 -9.48328e-22)
(5.74755 -1.21186 -2.97952e-21)
(-1.27914 1.95917 1.11788e-20)
(7.92794 1.59425 0)
(5.94717 0.145948 2.2693e-23)
(4.31465 -0.930896 0)
(4.77804 -0.205065 -6.31092e-22)
(5.04581 -1.80628 -1.60042e-21)
(4.98186 -0.300279 -4.67649e-21)