/*--------------------------------*- C++ -*----------------------------------*\
| =========                 |                                                 |
| \\      /  F ield         | OpenFOAM: The Open Source CFD Toolbox           |
|  \\    /   O peration     | Version:  2306                                  |
|   \\  /    A nd           | Website:  www.openfoam.com                      |
|    \\/     M anipulation  |                                                 |
\*---------------------------------------------------------------------------*/
FoamFile
{
    version     2.0;
    format      ascii;
    arch        "LSB;label=32;scalar=64";
    class       surfaceScalarField;
    location    "4.1";
    object      phi;
}
// * * * * * * * * * * * * * * * * * * * * * * * * * * * * * * * * * * * * * //

dimensions      [0 3 -1 0 0 0 0];

oriented        oriented;

internalField   nonuniform List<scalar> 
20045
(
0.251597
-0.275581
0.0239841
-0.53885
0.188256
0.350594
0.161871
0.894968
-1.05684
0.0562481
-0.0803177
0.0240696
-0.42473
0.414898
0.00983154
-0.278044
1.0972
-0.819151
-0.513015
0.22361
0.289406
0.0357341
0.218346
-0.25408
0.237253
0.214433
-0.451685
-0.413949
-0.0612286
0.475178
0.26512
-0.05897
-0.20615
1.13293
-0.558444
-0.574489
0.18473
-0.184281
-0.000448912
-0.647043
0.545049
0.101994
-0.166986
0.537833
-0.370847
-0.549875
0.135926
0.0943315
0.0540668
-0.148398
0.4504
-0.340936
-0.109465
-0.848343
1.24396
-0.395614
-0.380966
0.0290087
0.351958
0.195384
-0.177681
-0.0177034
0.0641521
0.120578
-0.0649539
-0.473896
0.259289
0.449563
-0.708852
0.428778
0.0912539
-0.520032
-0.479442
0.738731
-0.311182
0.327949
-0.0167669
-0.573256
1.1054
-0.532142
0.87862
0.115813
-0.994433
-1.05817
0.600729
0.457445
-0.0643772
-0.173087
0.237464
0.727899
-0.511312
-0.216587
-0.423967
0.751738
-0.327771
1.11672
-0.648809
-0.46791
-0.281521
0.317255
1.09785
-0.540892
-0.556961
0.729591
0.117627
-0.847218
-0.0307842
0.188863
-0.158079
-0.990946
0.382793
0.608153
0.309157
0.256255
-0.565412
0.0261148
0.19948
-0.225595
0.0656948
-0.0951794
0.0294845
1.07859
-1.07885
0.000257792
0.74749
-0.264779
-0.482711
0.336095
0.411395
0.532748
0.600185
-0.0196711
0.279772
-0.260101
0.627391
0.286477
-0.913868
0.929313
-0.199722
0.063823
0.917727
-0.98155
0.649839
-1.09943
0.449591
0.914517
-0.680125
-0.234392
-0.601633
-0.453467
1.0551
-0.0453889
-0.155082
0.20047
0.433586
-0.104274
-0.329312
-0.351666
-0.0730638
0.0383319
0.743655
-0.781987
0.822992
0.0363762
-0.859368
0.403626
-0.827592
1.0654
-0.716594
-0.348803
0.289756
0.0112021
-0.300958
0.43157
0.633826
0.413867
-0.934963
0.521096
0.159572
0.0358125
0.361688
0.0852646
-0.446953
0.825992
0.121313
-0.947305
-0.0249556
0.0869226
-0.0619671
-0.340902
0.0810822
0.25982
0.429155
-0.191902
0.919509
-0.935889
0.0163803
-0.0520775
0.027122
-0.0592281
0.492814
-0.129602
-0.520959
0.65056
-0.0226842
-0.089244
0.111928
0.914697
-0.158824
-0.755872
0.693803
-0.655471
-0.0273228
0.942019
0.217585
-0.384572
-0.238161
-0.0726784
0.310839
0.240245
-0.587142
0.346897
0.521394
0.608315
-1.12971
0.458166
-0.352655
-0.105511
0.814539
-0.400673
-1.16999
0.220755
0.949234
0.0079195
0.243678
-0.271996
0.315782
-0.0437855
0.45516
-0.43021
-0.0249498
-0.804565
0.036882
0.767683
0.521334
0.0770597
-0.598394
-0.436487
0.396064
0.0404229
-0.733887
-0.109944
0.843831
0.367312
-0.0630889
-0.304223
0.203361
-0.29452
0.0911588
-0.0752008
-0.415587
0.490788
0.299706
-0.316696
0.016989
0.748846
0.203169
-0.952014
-0.259901
-0.0512811
0.00583342
-0.111439
0.105606
0.617389
-0.308232
0.0917543
0.15205
-0.243804
0.743356
0.354498
-0.241454
-0.405589
-0.140221
0.146054
-0.139836
0.962828
0.00530336
-0.2773
-0.234669
0.326424
0.225623
0.604046
-0.82967
0.609695
-0.896961
0.287267
-0.257832
-0.209823
0.183018
0.0268052
-0.0992345
0.126627
-0.0273925
0.629037
-0.456947
-0.17209
-0.251697
0.206309
0.662733
-1.07784
0.415109
-0.0886384
0.162167
-0.0735285
0.0230764
-0.12326
0.100183
0.587656
-0.158878
0.826613
0.290105
-0.587667
0.458065
0.697376
-1.01057
0.313195
0.300448
0.149952
0.212352
0.077404
-0.392204
0.320479
0.0717256
-0.381252
0.0473435
-0.29597
0.248627
0.662627
0.25189
0.563929
-0.718093
0.154164
0.81415
0.0857903
-0.89994
-0.993463
0.769521
0.223942
-0.198501
-0.343362
0.541863
0.970343
-0.307717
-0.0874706
0.367243
0.0521782
-0.0900809
0.0379028
-0.0468704
0.0203335
0.026537
0.569924
0.402736
-0.97266
0.605679
-0.57932
-0.0263592
-0.178235
0.103269
0.0749664
-0.150579
-0.0592435
1.13155
-0.434173
-0.327737
0.351476
-0.0237392
0.628572
-1.04567
0.417101
0.193466
-0.795099
0.57307
0.232202
-0.805272
0.644017
-0.403772
0.973589
-0.134025
-0.839563
0.204811
-0.789929
0.585117
1.13419
-0.941296
-0.192895
-0.135252
0.236606
-0.101354
0.00923006
1.00008
-1.00931
1.07301
-0.194388
-0.825424
0.0266119
0.798812
-0.47986
0.420512
0.0593489
1.02153
-0.500134
0.174021
0.284145
-0.638319
0.772101
-0.133783
-0.728438
0.890309
0.0107023
-0.153375
0.142673
0.0265437
-0.0396422
0.0130985
-0.0155469
-0.191492
0.207038
0.928676
-0.103991
-0.824686
1.28989
-0.635443
-0.654449
-0.224761
0.209214
0.356046
-0.682275
0.326229
0.0773564
-0.0116616
-0.819961
-0.489617
0.688835
-0.199218
-0.669955
0.499618
0.170337
-0.0120831
-0.027249
0.0393322
0.270086
0.864106
-0.0515104
0.00463996
-0.0184416
0.0706198
-0.704138
0.0658198
-0.735359
0.932423
-0.197064
-0.660677
0.762369
-0.101692
-0.606914
-0.424016
1.03093
-0.0949664
-0.14079
0.235757
0.44956
-0.483487
0.0339265
0.806294
0.123637
-0.929931
0.0133997
-0.758202
0.744802
-0.370001
0.943071
0.200172
-0.549128
0.348957
-0.405811
1.06854
-0.83756
0.547344
0.290215
0.0395861
-0.0662709
0.0266848
0.385896
-1.13001
0.744111
-0.893231
0.319975
-0.618462
-0.407019
1.00161
-0.619646
-0.381969
-0.268988
0.295102
0.124269
-0.131291
0.00702223
-0.773001
-0.189847
0.962848
-0.806972
1.13537
-0.328401
0.934037
-0.64763
-0.286408
0.0802099
-0.253027
0.172817
-0.226897
-0.496666
0.723563
0.0893075
0.175812
-0.459253
0.260752
-0.656302
-0.220747
0.877049
0.0901638
0.0249994
-0.115163
0.117177
-0.606794
0.156396
-0.220774
0.863827
-0.0496776
-0.141503
0.110719
-0.13027
0.158783
-0.0285123
-0.0793791
1.00806
-0.770449
0.543552
0.321901
-0.0143061
-0.307595
-0.697563
0.127983
0.56958
0.327091
0.606946
1.17921
-0.793311
0.693245
-1.15331
0.460065
0.226462
-0.704306
0.477843
0.0272251
-0.408191
-0.488535
0.714159
0.661471
-0.939515
0.260374
-0.682445
0.422072
-1.15127
0.641881
0.509388
-0.0249165
-0.411571
0.180807
0.144904
-0.32571
0.697092
-0.193035
-0.504056
0.246381
-0.690363
0.699593
-0.257008
-0.0707294
0.63359
1.11571
-0.914332
-0.201383
-0.0109519
-0.129105
0.140057
0.674227
0.100863
-0.775089
0.178039
0.0866139
-0.264653
-0.0972971
0.616397
-0.5191
-0.0691078
0.524268
0.57207
-0.371898
-0.0569111
0.154691
-0.0977801
0.871086
-0.242514
0.0914646
-0.00780902
-0.0836555
0.147779
0.0356746
-0.183454
-0.104661
0.108526
-0.00386507
0.996551
-0.647304
-0.349246
0.231344
-1.03832
-0.114288
0.00962748
-0.880498
0.284834
0.595664
1.04637
-0.294629
0.245028
-0.980387
1.26317
-0.588333
-0.674838
-0.0118346
0.101998
0.863153
-0.342303
-0.52085
-0.616827
0.144524
0.472303
-0.960508
0.965739
-0.0052313
0.273906
-0.769378
0.495472
-0.0423533
-0.0215419
0.0638952
-0.478894
0.630686
-0.151792
-0.0479306
-0.0542136
0.102144
-0.147536
0.0588971
-0.115125
0.0158904
-0.624278
-0.272683
0.443994
-0.747003
0.303009
0.302652
-0.234607
-0.068045
0.411889
0.31601
0.603532
-0.343158
0.00541191
0.0211318
0.64252
0.403847
-0.50015
0.0204372
0.479713
0.254816
0.608337
0.383527
0.154306
0.24743
0.0552221
-0.287312
-0.0201634
0.307475
-0.0469286
0.0865147
-0.656145
0.558848
-0.195054
0.267239
-0.0721852
-0.898626
0.859802
0.0388242
-0.407846
0.626551
-0.218705
-0.21837
-0.112863
0.331233
0.763374
-0.828173
0.0647996
-0.692454
-0.458815
1.30384
-0.854454
-0.449382
-0.0944471
0.0834952
0.860926
-0.587019
-0.333314
0.777309
-0.0928773
-0.256193
0.349071
0.815232
-0.111746
-0.703486
1.18777
-0.125244
-1.06252
-0.387311
0.294434
0.830101
-0.483699
-0.346402
-0.161015
0.781606
-0.620591
0.583246
-0.748281
0.165035
0.130311
-0.275394
0.145083
0.383764
-0.0907599
-0.293004
1.18332
-0.932948
-0.250376
-0.528217
-0.465246
0.783145
0.33257
-0.818722
-0.0799041
-0.0431588
0.190938
0.171915
-0.798658
0.626743
0.00421484
0.120054
-0.539685
1.10961
0.365317
0.631234
1.0923
-0.68074
-0.411561
-0.760507
0.53976
0.770027
-1.21234
0.442317
-0.626118
-0.0409735
0.667092
-0.233048
-0.177571
0.410619
0.57297
-0.216923
0.0576002
0.264301
0.246472
-0.0264741
-0.484837
-0.712424
0.991966
-0.279543
-0.149462
0.0191919
-0.0599147
0.00300354
0.120738
-1.08125
0.457519
-0.526627
0.156312
-0.22405
0.312987
-0.0889375
-0.00292522
0.0591733
-0.517346
0.373684
0.143662
0.351151
0.277886
-0.3984
0.671978
-0.273579
0.491886
0.113793
-0.64321
0.815125
0.580016
-0.058682
-0.198041
-0.499522
0.964257
-0.70209
-0.262167
0.943619
-0.908126
0.289099
0.619027
0.797573
-0.863198
0.0656246
-0.430976
0.355775
-0.118023
-0.0602122
-0.11981
-0.614077
0.283493
-0.545884
0.262391
0.42243
0.40767
0.77117
-1.11686
0.345695
0.224095
-0.538877
0.314782
-0.97306
0.168495
0.00932064
0.357991
-0.582789
0.888023
-0.305234
-0.260738
0.311087
-0.0503489
-0.406221
-0.106794
-0.131531
-0.223544
0.355076
0.0856425
0.000796089
-0.0864385
-0.333107
-0.146753
0.370161
0.449277
-0.819439
0.823078
-0.568262
0.308112
-0.451526
0.0205502
0.46433
-0.240235
-0.669668
-0.167891
-0.06434
-0.0203192
0.0846591
0.976149
-0.348758
-0.452466
0.749683
-0.297217
-0.118773
0.138943
-0.0201699
0.746695
-0.0496038
-0.226917
-0.571741
-0.495487
0.917793
-0.422306
0.692199
-1.1393
0.447098
0.558306
0.74553
0.276416
-0.22747
-0.0489454
0.0880756
-0.714194
0.685965
-1.04298
0.357018
0.13341
-0.156094
-0.070921
0.63485
-0.0821421
0.539661
-0.475973
0.702436
0.190593
-1.03894
-0.904856
0.493568
0.411288
0.642946
-0.103782
-0.539164
0.935996
-0.172622
-0.416293
-0.535735
-0.485107
0.444997
-0.203044
-0.121459
0.324503
0.320622
-0.291613
-0.713184
0.642263
0.853181
0.225409
-0.786235
0.33377
1.11955
-0.336409
0.123176
-0.0670254
-0.0561503
-0.00417089
-0.608396
0.612567
-0.901946
0.170153
0.731793
0.72934
-0.72934
-0.25153
0.848422
-0.596892
0.372215
-0.770615
0.671337
-0.409687
-0.261649
-0.925372
0.95645
-0.0310772
0.340672
-0.0468158
-0.293856
0.264385
-0.108043
-0.156343
0.111934
-0.330304
-0.290514
0.478125
-0.81144
-0.842822
0.997057
-0.154235
-0.287652
0.657814
0.0475473
0.00479874
-0.052346
-0.11236
0.205733
-0.0933726
-0.380538
0.407763
1.03082
-0.8326
-0.198216
-0.0920733
-0.521318
0.613392
-0.234778
0.252513
-0.0177349
0.123009
-0.280021
0.157012
-1.05284
0.43789
0.614952
-0.0587468
-0.0215709
0.0947222
0.0284534
0.0314134
-0.0336241
0.00221068
0.496673
0.686651
0.0326007
0.0149466
-0.0587808
-0.288544
0.347325
-0.49441
0.79189
-0.29748
-0.00679965
0.0763538
-0.0695541
0.434201
-0.210591
0.849982
-0.20041
-0.649572
0.00360703
-0.419195
0.0328322
0.773462
0.422604
0.304664
-0.727267
0.467655
-0.414329
-0.0533258
-1.01296
0.187541
-0.432256
0.189797
0.24246
0.412242
0.535464
-0.947706
-0.627471
0.586498
0.0451784
-0.914555
0.869376
-0.128869
0.209079
0.0290591
-0.0477213
0.0186622
0.0209603
-0.308272
0.0933876
-0.00639882
-0.0869888
-0.67778
-0.202718
0.617446
0.11143
0.0413529
-0.152783
-0.125871
0.0070982
0.164986
-0.70662
0.541634
0.204833
0.545483
-0.750316
0.320875
-0.711435
0.859097
-0.147662
-0.721436
0.560421
0.144163
0.183786
-0.400233
-0.269722
-0.256934
0.0646193
0.192315
-0.863266
0.368856
0.663555
-0.755629
0.396646
0.722908
-0.300022
0.304726
-0.00470417
0.339818
-0.846769
0.506951
0.150455
-0.268309
0.117854
0.553743
-0.78066
-0.642862
-0.0178151
-0.312979
-0.0279234
0.0397837
0.24871
-0.288494
0.338363
-0.000654797
-0.0329573
0.0336121
0.884381
-0.472139
-0.796245
0.817484
-0.0212396
0.259518
0.18269
-0.442209
-0.371833
0.242964
-0.216611
-0.0403224
0.375421
0.295916
-0.257938
-0.752632
0.0700637
-0.134404
0.614263
0.415848
0.164169
-0.869189
0.933012
0.0890233
-0.456052
0.367028
-0.0849772
-0.828291
0.913268
0.0402279
-0.0447458
0.00451787
0.213073
-0.308039
-0.181799
0.765045
0.834174
-0.629362
-0.429862
-0.0874841
0.00812408
-0.410552
0.402427
0.405448
-1.01236
-0.107181
-0.479852
0.587034
0.0364076
-0.137584
0.101177
-0.651639
0.0520148
0.599624
0.960429
-0.673953
-0.0161325
0.0850486
-0.068916
-0.214062
-0.0207156
0.179773
0.355767
-0.53554
0.0959748
-0.12164
0.0256647
0.641001
0.375422
-1.01642
-0.401029
1.14987
0.0825164
0.0031261
-0.25666
-0.568978
0.825638
0.399
0.732549
0.903938
-0.699105
-0.352748
0.221216
0.286499
0.0972644
-0.40438
1.17441
0.137071
-0.76829
0.63122
0.939336
-0.141905
-0.797432
-0.456247
0.713047
-0.2568
0.402701
-0.357092
-0.487108
0.844199
-0.0470621
-0.00502948
0.0520916
-0.286635
-0.483006
0.769641
0.0835099
-0.19587
0.0340472
-0.0461304
0.505118
-0.791753
-0.70685
-0.206602
0.913452
-0.0681052
-0.473899
0.542004
0.10664
1.14299
-1.16889
0.0258987
0.21195
-0.149113
-0.0628369
0.00826642
-0.308289
0.263212
0.227577
-0.316239
0.0831908
-0.812123
1.01782
-0.205699
0.0246201
-0.219674
0.356966
0.287052
-0.828716
-0.250133
-0.0853452
0.344428
-0.259083
0.539907
-0.124059
-0.197065
0.21785
-0.0207851
-0.129351
0.0814201
-1.16509
0.546625
0.926231
0.170964
-0.129131
0.25214
-0.203133
0.462651
0.798923
-0.320798
-0.205593
0.00852808
-0.0954038
-0.61778
0.232588
0.206903
-0.196201
-0.918863
0.0169176
0.074946
0.210776
-0.0603214
-1.00254
0.63524
0.367305
0.773427
0.146082
0.189315
-0.0631604
-0.126154
0.277503
-0.26104
-0.0164632
-0.841351
0.300458
-1.01872
0.523235
-0.254021
0.21492
0.0391013
0.00177132
-0.0469528
0.0451815
1.04763
-0.0061629
-1.04147
0.14104
0.00786592
-0.148906
-0.133118
-0.259086
0.226339
-0.022978
0.119466
-0.136751
0.0172849
0.387773
-0.0604545
-0.327319
-0.0533135
0.172779
0.849127
-0.645958
-0.0277694
-0.143846
0.171615
-1.01261
0.200488
-0.0372118
0.0173051
-0.157526
-0.107098
0.218529
0.00399916
0.00141275
0.246786
0.153939
-0.400725
0.42434
-0.0626515
0.42898
-0.339957
0.191243
-0.168167
0.0638719
-0.32461
0.598043
-0.0432127
-0.55483
0.538001
-0.0412348
-0.496766
-0.608159
-0.181769
0.1129
-0.0884267
-0.0244733
0.389958
-0.446679
0.0567215
1.10694
-0.0392167
-1.06772
0.0466354
-0.174202
0.127567
-0.492564
0.656473
-0.163909
0.495317
0.609249
-1.10457
-0.311381
0.322583
-0.261277
0.430401
-0.169124
0.216363
0.0916687
-0.308032
-0.920127
0.445939
0.474187
-0.138885
0.00213434
-0.843082
0.136233
0.30266
-0.184324
-0.118336
0.470908
-0.611188
0.140281
-0.084849
-0.190732
0.171513
0.971478
0.821125
-0.138551
-0.682574
-0.835117
0.123682
0.34191
-0.539951
0.678939
-1.08894
0.410006
-0.100788
0.281595
0.0165147
-0.398701
0.339921
-0.162336
0.209679
-0.114171
-0.762144
0.876314
0.380164
0.480761
-0.742946
0.774739
-0.031793
-0.189771
0.229555
-0.654038
-0.259899
-0.11316
0.126842
-0.0136818
0.184045
-0.333295
0.14925
0.0225981
0.0141965
-0.0367947
-0.0861251
0.557033
-0.819126
-0.118572
0.937698
-0.736043
-0.240503
0.976546
0.47608
-0.357565
-0.118516
-0.16561
0.0190782
0.146532
-0.0923596
-0.190249
0.282608
-0.988343
0.0392852
0.949057
0.0237002
0.186565
-0.210265
0.803436
-0.899122
0.0956855
-0.507414
0.517087
0.0954268
-0.612514
0.0123709
-0.125531
-0.21769
-0.400351
0.618041
0.625187
-1.031
-0.948712
0.823231
0.125481
0.111393
-0.0154179
0.651208
-0.294242
-0.0574103
-0.242972
0.300382
-0.00813746
0.122026
-0.113888
-0.302714
0.928424
-0.625709
0.575458
-0.7016
0.126142
1.02972
-0.97342
-0.0562958
0.798071
-0.335674
-0.462397
0.0413367
-0.221675
0.180339
-0.288664
-0.00730636
-0.938606
0.826646
0.11196
0.057239
-0.995845
-0.54331
0.752137
-0.208827
-0.581158
-0.35179
0.185106
-0.16084
-0.0242664
-0.791999
-0.220612
-0.176475
0.117326
0.0591491
0.25317
-0.0751307
-0.894672
0.853306
0.0413653
-0.20035
-0.114999
0.0257555
0.152296
-0.0112565
-0.601612
0.122718
0.130161
-0.156431
0.0262693
-0.448823
0.358961
0.0898617
0.35628
-0.0156084
-0.255384
0.63141
0.115285
0.365907
0.0792727
0.278988
-0.358261
-0.109598
0.559159
-0.61249
0.388824
0.223666
-0.106989
-0.0318958
0.853259
-0.473095
0.710335
-0.370517
-0.23272
-0.173872
0.406592
0.328572
-0.773117
0.444545
0.544287
-0.612392
0.989288
-0.432237
-0.557051
-0.00371481
-0.512136
-0.100354
-0.784678
0.991769
-0.207091
0.0458746
-0.269981
0.963225
-1.05836
0.266366
-0.0833342
0.213645
-0.109803
-0.320015
0.111495
-0.00296879
-0.49167
-0.521336
1.15975
-0.465943
0.326656
-0.103276
-0.22338
0.0620798
0.202305
-0.66298
-0.366823
1.0298
0.234655
0.338315
-0.00501056
-0.137837
0.142848
0.819992
0.0112107
-0.050542
0.0393313
0.561516
0.0365266
-0.363632
-1.01603
0.173207
-0.204614
0.00871798
0.195896
0.567988
0.695183
0.266419
0.0600757
-0.326495
0.97312
0.0565953
0.591587
-0.839674
0.248087
-0.828703
-0.00495419
0.833658
-0.761322
0.992566
-0.231244
0.133582
-0.00606385
-0.127518
-0.391934
1.01712
-0.0227427
0.246119
-0.223376
0.0237458
-0.766691
0.152337
-0.0226044
-0.129733
-0.92022
1.18894
-0.268717
-0.243357
0.536376
-0.293019
1.16129
-0.510735
-0.650557
0.00411678
-0.599496
0.595379
-0.0503794
0.00265818
-0.480232
0.975549
0.558778
-0.810308
1.10797
-0.415772
-0.178663
0.150894
-0.863819
0.0351158
1.18207
-0.410899
-0.0270243
-1.14296
0.221623
-0.0221427
0.267385
0.540211
-0.807596
0.546954
-0.126176
-0.420778
0.682335
-0.976474
0.294138
-0.123397
0.00947288
0.113924
-0.199571
-0.46723
0.666801
0.34879
-0.284918
-0.465225
0.174955
0.29027
0.139496
0.280989
-0.420484
0.076534
0.108572
-0.854775
1.0059
-0.151122
0.0476234
-0.00739552
0.445171
0.197843
-0.643014
0.495864
0.389748
-0.885613
0.151419
0.491527
-0.0181103
0.991699
0.0030439
0.784075
-0.787119
-5.268e-05
-0.00674697
0.0345442
0.0828058
-0.11735
0.70449
-0.649024
-0.0554658
0.447287
0.542001
0.0388937
-0.0743869
0.0354932
-0.279791
0.803795
-0.524004
0.0120662
0.149486
-0.161552
0.363644
-0.717464
0.35382
-0.57635
-0.248549
0.824899
0.814341
-0.140115
0.295723
0.251231
-0.460916
-0.0932522
0.554168
0.288888
-0.810207
-0.265419
0.322641
-0.0572224
0.181208
-0.0745137
-0.106694
-0.0338472
-0.0165323
-0.07629
0.664624
-0.588334
-0.119355
1.03708
0.768022
-0.624141
-0.143881
0.622087
-0.545028
-0.531186
0.166812
0.364374
0.0454128
-0.4551
-0.182375
0.137628
0.0447461
0.058294
0.131021
0.137876
0.735189
-0.873065
0.204798
0.182975
0.119667
-0.85571
-0.421826
0.172444
0.249382
-0.313036
-0.240363
0.5534
0.470338
-0.223552
-0.840724
0.553072
0.308899
-0.254213
-0.0546859
-0.487932
0.776402
-0.28847
-0.437872
0.441479
-0.424821
0.551429
-0.126608
-0.638871
0.895321
-0.25645
-0.0206567
0.194068
-0.173411
0.0753893
-0.073618
-0.318801
-0.627804
0.947192
-0.319388
-0.544807
0.67279
0.501809
-0.514134
0.0123256
-0.00451342
-0.204554
0.209067
-1.12386
0.816039
0.307823
-0.0253035
0.0238596
0.00144388
-0.022803
0.600933
-0.903647
0.718225
-0.389653
-0.368994
-0.535862
-0.696251
0.699294
0.49712
0.00249774
0.373901
0.148527
-0.522428
-0.31965
0.297759
0.0218905
0.316525
-0.266527
-0.049998
0.104717
-0.418495
0.313778
-0.214621
0.508288
-0.293667
-0.754536
-0.220027
0.974563
0.17851
-0.183024
0.565903
0.138587
-0.886714
0.68689
0.199824
0.355132
-0.148496
-0.206636
0.00323002
0.172134
-0.221335
0.0492013
-0.653842
-0.35562
0.460337
0.128571
0.191709
-0.150372
0.30574
-0.121696
0.167278
-0.51064
0.0320949
0.267612
-0.299859
0.238159
0.0617
-0.573472
-0.447268
1.02074
-0.081679
-0.379237
-0.514233
-0.0791748
0.593408
0.130975
0.173076
-0.304051
-0.00816836
1.12862
-0.738775
-0.389849
0.170516
0.650609
0.0598048
0.439941
-0.409049
-0.0308922
-0.295128
0.777966
-0.482838
-0.56849
-0.229764
0.798254
-0.442261
0.180984
-0.410842
-0.120344
0.951727
-0.439597
-0.51213
-0.150078
-0.0395709
0.189648
0.383668
0.0520458
-0.435713
-0.161219
0.184919
0.0412647
0.0900071
-0.131272
0.120525
-0.0214041
-0.203357
-0.00682714
0.518669
0.433059
-0.474262
0.857055
-0.326012
0.926741
-0.191793
0.0417149
-0.83789
0.269399
0.713822
-0.625746
-0.0999408
-0.615686
0.123122
0.139146
-0.682456
0.701544
-0.705715
0.817254
-0.0196803
-0.187443
-0.107077
-0.278354
-0.0794384
0.357792
-0.287455
-0.0292409
0.714633
0.142439
-0.857072
0.0274756
-0.248185
0.220709
0.00938037
0.31182
-0.913056
0.601236
0.862259
-0.0588231
-0.893917
0.934683
-0.0407665
0.209421
-0.128338
-1.02803
-0.0958362
-0.335764
0.857341
-0.0306957
0.310991
1.11443
-0.422071
-0.692363
-0.610092
-0.0600238
0.670116
0.126333
0.519772
-0.646105
-0.687069
0.0354307
-0.17073
-0.142104
0.312834
-0.462961
0.600032
0.13913
0.506911
-0.646041
-0.620445
0.230639
0.389806
-0.928427
0.0952592
0.833167
0.22055
0.497675
-0.220691
0.534093
0.263978
-0.294027
-0.13823
0.728992
-0.863017
-0.0689694
-0.341109
0.410079
-0.424736
0.113355
0.668546
0.0416129
-0.710159
0.616252
-0.942263
0.00812264
-0.050476
-0.564775
0.891221
-0.326446
-0.603013
0.385323
-0.0133363
0.264792
-0.251455
0.0367401
-0.195991
0.159251
0.261392
-0.0483184
-0.239785
0.581695
-0.0339685
-0.220053
-0.143812
0.156183
0.314606
-0.227992
-0.0457909
0.0242491
-0.175341
0.169431
0.00591041
0.193596
-0.2165
0.0229037
-0.705171
0.546347
0.110721
-0.624955
-0.0110615
-0.257926
0.0236933
0.533584
-0.557277
0.308865
-0.329028
0.27621
-0.793478
0.517267
-0.338028
0.659823
-0.321796
0.237684
-0.950108
0.0526303
-0.0256347
-0.923077
0.459758
0.699987
-0.736043
-0.10468
-0.656142
-0.251984
-0.395217
0.171672
0.222839
0.105524
-0.328363
1.13195
-0.563966
0.906622
-0.220657
-0.222178
-0.146394
0.368572
-1.04316
0.413986
0.629174
0.198582
-0.257552
-0.080773
0.59786
0.150533
-0.0863808
-0.501098
0.219334
-0.242077
-0.247685
0.297619
-0.0499333
-0.10852
0.823153
0.181926
-0.145327
-0.0365986
0.842842
-1.27096
0.58855
0.682408
0.229456
0.188959
-0.418415
0.520962
-0.146195
-0.374767
-0.502753
0.259395
-0.373988
0.00788357
0.375784
0.886271
-0.971248
0.386265
-0.169902
-0.386483
0.675372
-0.972562
0.691309
0.281253
0.398504
-0.752212
0.353707
-0.686732
0.725684
-0.0389521
0.409982
-0.519581
0.0135217
0.227933
0.248147
0.047594
-0.634736
0.190954
-0.89189
0.408596
0.483294
0.239342
-0.849434
0.734028
-0.0464504
-0.570376
0.133517
0.19369
1.01531
-0.336186
-0.679122
-0.400164
0.256379
-0.569415
0.142227
-0.950919
0.890895
-0.731355
0.374264
0.469462
-0.730465
0.735592
-0.00512782
-0.882458
0.592535
0.289924
-0.275493
-0.091156
0.127564
-0.98716
0.686694
0.300465
0.610685
-1.00262
-0.839188
-0.0155873
1.08642
-0.407485
0.328875
0.119412
-0.448287
-0.0199095
-0.125122
0.145032
-0.0140928
0.485793
0.526773
-0.727872
-0.0025929
0.170998
0.177792
0.226625
0.333611
-0.560236
0.357322
-0.212418
-0.0468211
-1.05691
1.10373
-0.321942
0.412133
-0.782134
-0.560421
-0.395051
0.955471
0.237742
-0.300831
-0.64719
0.203589
0.443601
0.00166569
0.0066653
-0.00833099
0.781441
-0.895611
0.223597
-0.788372
0.452316
0.288162
-0.740478
0.184879
0.141777
-0.784446
0.218105
0.566342
-0.84949
0.27314
0.483694
-0.778822
0.396511
-0.465481
-0.000335093
0.00200078
-0.0393687
0.978705
-0.585464
0.725352
-0.139888
0.934503
-0.000161265
-0.934342
-0.692733
-0.00861068
-0.215439
0.0638066
0.665534
0.111014
0.0279287
0.12211
-0.235446
0.607661
0.488231
0.0921805
0.224345
-0.832677
-0.0619948
-0.864057
0.410121
-0.752424
0.16273
0.175809
-0.338539
0.835944
0.0440421
-0.879986
-0.0950748
0.089011
-0.315266
-0.703456
-0.755611
-0.107587
-0.348567
0.964818
-0.318311
0.432503
-0.114192
-0.841005
0.267533
-0.259985
0.48661
-0.386436
-0.616109
-0.277607
-0.301997
0.335923
-0.443897
-0.00492608
0.986654
-0.129313
0.359543
-0.0998146
-0.259728
0.0826339
0.0720573
0.236753
0.983683
-0.938505
0.00165883
-0.208233
0.299392
-0.472464
0.492901
-0.425311
-0.48154
0.197607
0.165413
-0.36302
-0.766169
0.0368284
-0.109048
0.730521
-0.621474
-0.0865534
-0.807364
-0.673151
0.774014
1.23496
-0.532771
-0.702189
-0.126406
0.316203
0.800109
-0.430644
-0.369465
0.244347
-0.265751
0.0740608
-0.0395166
-0.198311
0.0461832
0.152128
-0.135064
0.508966
-0.404477
1.01516
-0.0291152
-0.131724
-0.257562
-0.0717112
0.329273
-0.0126051
0.794046
0.144348
0.204082
-0.34843
-0.355545
0.535318
0.402589
0.401206
-0.323054
-0.0987717
0.484797
-0.172832
-0.311965
-0.049858
0.0323886
0.0174694
0.109193
-0.757949
0.648757
-0.879275
0.123664
0.201872
-0.36273
0.772851
-0.0039478
0.248294
0.109348
-0.427659
-0.973783
0.488675
-0.954388
0.318945
-0.416685
0.0361478
-0.397875
-0.548496
0.946371
-0.942479
-0.126089
0.247796
-0.121707
0.863742
-0.642987
0.707547
-0.581214
0.148307
0.494948
-0.643255
0.200576
-0.371306
-0.689077
-0.221992
0.911068
-0.122448
0.296388
-0.17394
-0.39966
0.842867
-0.443207
0.785176
-0.494575
-0.290601
0.778817
0.0204228
-0.79924
-0.514441
-0.756518
-0.304135
-0.00884425
0.346836
0.623508
-0.0124935
0.0810323
-0.0685388
-0.636671
-0.147775
0.66829
0.575667
-0.504638
0.59826
-0.0936227
-0.0272954
-0.0232466
0.0808885
0.369907
-0.450795
0.0307924
0.151133
-0.112928
-0.874232
-0.836992
0.314893
-0.00599421
-0.134042
0.290438
0.0698
0.694447
-0.764247
-0.484325
-0.117287
0.600613
0.222465
0.0632841
-0.213864
-0.153071
-0.105572
0.258644
0.0940873
-0.342404
0.248316
0.284325
0.342226
0.19228
0.774977
-0.352547
0.857299
-0.445166
-0.102179
-0.23076
0.332939
0.709683
0.0719231
0.0257726
-0.625062
0.425491
0.469238
-0.481843
-0.484845
-0.423093
0.907938
-0.591561
-0.451599
-0.965344
1.00233
-0.0369838
-0.0668758
-0.362127
0.282689
0.52561
0.249367
0.0549753
-0.258321
0.203346
-0.310738
-0.625151
-0.142933
-0.719196
0.862129
0.462917
-0.228263
-0.383105
0.117686
0.556266
-0.871532
0.439434
-0.34818
-0.335637
0.967467
-0.63183
0.453599
0.479296
0.275056
-0.754352
1.01245
-0.613545
-0.398903
-0.350905
-0.714457
1.11011
-0.395648
0.160938
0.198605
-0.259128
0.25518
0.398475
0.762817
-0.188132
0.168223
0.0272095
-0.0278643
0.90157
-0.498834
0.433736
0.698219
-0.372542
0.192956
0.179586
0.219797
-0.452517
0.708868
-0.0403218
0.558884
-0.230009
-0.649259
-0.0922147
0.741473
0.167528
-0.03045
-0.137078
0.122155
0.0897943
0.133892
-0.895214
-0.256278
0.277239
0.656579
-0.574504
-0.0820754
0.142128
0.34267
-0.132162
0.0690015
0.219247
0.22171
-0.440957
-0.469556
0.873181
0.219366
-0.512145
1.10662
-0.594477
-0.268333
0.407829
-0.313088
-0.307356
1.04749
-0.500572
-0.31815
0.116287
0.404675
0.27029
-0.281351
-0.138976
0.118319
-0.271679
-0.122281
-0.00358967
0.585625
-0.137895
0.764216
-0.626321
-0.0462644
0.0776778
-0.329261
0.0862892
-0.2917
-0.0124344
-0.853664
0.597004
0.20898
0.221421
0.07197
-0.315082
0.243112
0.266582
0.0491997
0.784824
0.427946
-1.21277
-0.0847322
-0.0179275
0.10266
-0.236139
-0.560106
0.809243
0.425718
0.735259
-0.665459
-1.11884
0.116699
0.0242028
-0.164776
0.434219
0.685629
0.199008
-0.884637
0.335199
-0.026334
-0.0293609
-0.294
-0.0785414
-0.503063
-0.4508
0.496213
0.123965
0.693519
0.541895
-0.538518
-0.0033779
0.161531
0.00790008
-0.0655707
0.224113
-0.0305169
0.706449
0.17341
-0.879859
-0.459663
0.211978
-0.202251
0.124393
0.0778578
-0.310832
0.00429947
0.306533
0.376771
0.44951
-0.826281
0.211686
0.258652
0.645781
-0.0150909
-0.236607
0.443634
-0.67908
-0.0422189
0.0575477
-0.0153289
-0.920201
0.513182
0.779232
-0.622804
-0.156428
0.0113352
-0.116041
0.104706
0.782142
-0.858432
0.5461
-0.0831824
0.253964
0.453583
-0.110372
-0.0119097
0.140474
-0.0932399
-0.0472346
-0.549
-0.102884
0.998432
-0.510387
-0.488045
0.505403
0.128948
-0.634351
0.368077
-0.641229
0.273153
0.0281758
0.473649
-0.00931853
-0.170729
0.553024
-0.382295
0.0766561
0.0638184
-0.286101
-0.202302
0.0569751
0.682237
0.00143905
-0.683676
-0.31896
-0.24055
-0.0593085
-0.0698191
-0.00456782
0.370089
0.521132
-0.131294
0.153892
-0.0010234
0.0405086
-0.129422
0.134726
-0.353506
0.501813
0.012808
0.194095
-0.274531
-0.295235
0.707124
-0.0290883
0.570984
-0.12609
-0.0972257
-0.219789
0.439036
-0.195125
0.794531
-0.599405
-0.743777
-0.0993048
-0.426777
0.762978
-0.336202
-0.0578526
-0.14445
0.277028
-0.0586825
-0.0194195
-0.207107
0.226527
-0.751194
0.250622
0.0924108
-0.108543
0.44659
-1.10957
0.304187
-0.873164
-0.211045
0.660608
-0.313967
0.452282
-0.230572
0.0132351
-0.591981
0.701173
0.0012653
-0.130371
0.130873
-0.488438
-0.0832113
-0.548294
0.631505
0.23954
0.31318
1.13836
-0.744916
-0.393439
-0.19761
0.0590515
0.180463
0.0200737
-0.200537
-0.719834
0.13437
0.156273
0.0249354
-0.00524188
-0.104809
0.110051
0.379964
-0.806741
0.0762142
0.405179
0.0215983
-0.426778
-0.880722
0.685597
0.119132
0.0328558
-0.151988
0.305581
-0.933385
-0.120571
-0.00119638
0.121767
0.152504
-0.0333719
0.00871474
0.648013
-0.496594
0.541719
0.43972
-0.228034
-0.800979
0.240558
-0.608816
0.489243
0.119573
0.418532
-0.903377
-0.436302
-0.273684
0.709986
0.0762925
0.344219
-0.262492
0.215677
1.00623
-0.13075
-0.875484
-0.000605736
-0.832071
0.70945
0.0693672
0.380424
0.419685
-0.135428
-0.00240903
0.118496
-0.25593
-0.289954
0.0523617
-0.0755015
0.0231398
0.0183458
-0.690446
0.6721
-0.0403445
0.239119
-0.198774
0.284314
-0.809456
0.525142
-0.094859
-0.484461
-0.0274975
0.0194044
0.604774
-0.293092
-0.174522
0.467613
-0.312529
-0.365251
0.387749
-0.222336
-0.0243794
-0.168216
0.192595
-0.265334
0.337304
-0.83201
-0.119135
-0.0217814
0.140916
0.100323
0.276108
-0.376431
0.685213
-0.820762
0.135549
0.0130059
-0.486902
0.140042
-1.06026
-0.442506
-0.582014
1.02452
-0.847862
0.0372112
0.810651
-1.16618
-0.705447
0.0187153
-0.23059
0.238351
-0.00776112
-0.968212
-0.310404
1.01685
0.325915
-0.171976
0.0694814
-0.28927
-0.150827
0.409479
0.12522
0.0728701
-0.330432
0.0128733
-0.0990823
0.086209
-0.204144
0.0688915
-0.0670454
0.0783806
-0.226182
0.455638
-0.926888
0.594157
0.332731
-0.311472
0.369072
0.538485
0.169506
-0.00197868
-0.222386
0.277361
-0.420467
-0.226723
-0.472035
0.173439
0.298596
0.0686236
-0.0648268
-0.00379684
-0.343788
0.437875
-0.0600695
0.629649
0.583104
-0.438756
0.491003
-0.803532
0.388225
-0.517653
0.129428
0.0859073
-0.000858713
-0.247848
0.0203781
-0.942765
0.54489
-0.146902
0.652305
0.0139408
-0.163792
0.149851
-1.23348
0.505042
-0.151849
0.187523
-0.163041
-0.0158633
-0.18768
0.203543
-0.485177
0.192086
-0.947899
0.834971
0.825215
-0.372898
-0.148025
0.132469
0.0155566
0.226879
0.117549
-0.125812
-0.981655
0.377378
0.604277
-0.116839
0.0989111
-0.057387
0.234222
-0.176835
0.355295
0.190805
0.0252518
0.0223929
-0.0476447
-0.218536
0.231344
0.0152541
0.118156
0.519029
-0.750617