/*--------------------------------*- C++ -*----------------------------------*\
| =========                 |                                                 |
| \\      /  F ield         | OpenFOAM: The Open Source CFD Toolbox           |
|  \\    /   O peration     | Version:  2306                                  |
|   \\  /    A nd           | Website:  www.openfoam.com                      |
|    \\/     M anipulation  |                                                 |
\*---------------------------------------------------------------------------*/
FoamFile
{
    version     2.0;
    format      ascii;
    arch        "LSB;label=32;scalar=64";
    class       volVectorField;
    location    "4.1";
    object      U;
}
// * * * * * * * * * * * * * * * * * * * * * * * * * * * * * * * * * * * * * //

dimensions      [0 1 -1 0 0 0 0];

internalField   nonuniform List<vector> 
13486
(
(1.42922 -0.214062 5.93749e-19)
(1.67442 0.316231 2.76415e-19)
(2.31533 0.0146007 0)
(0.598032 -0.283736 -4.96534e-20)
(2.29822 -0.548675 1.98596e-19)
(2.43379 0.103343 2.05112e-20)
(2.50557 -0.458622 2.62157e-21)
(1.96006 -0.731855 -3.14969e-19)
(1.91273 -0.400683 0)
(2.04504 0.755419 0)
(-0.313975 -1.55778 -1.5246e-18)
(2.53627 -0.0200755 0)
(1.28212 -0.428677 -5.87005e-19)
(2.5048 0.707246 4.4882e-20)
(2.41061 -0.39358 1.07433e-19)
(1.9968 0.7478 -1.58656e-19)
(-1.00893 1.01254 1.09125e-18)
(1.44991 -0.45762 1.60291e-20)
(2.28135 -0.00869641 2.87416e-21)
(1.60335 -0.0262414 -6.00983e-19)
(1.23122 -0.597598 -2.04077e-20)
(1.30112 -0.444205 7.57371e-19)
(1.69678 0.31043 -2.20946e-19)
(2.37836 -0.824403 0)
(2.09854 0.570471 5.17385e-20)
(2.35621 -0.76038 -1.05958e-19)
(-2.436 1.1361 1.31827e-18)
(2.40068 -0.107708 3.34512e-19)
(2.03504 0.0209423 0)
(2.18038 -0.30577 -1.83081e-19)
(1.29571 -0.637349 -1.40504e-20)
(2.51674 -0.286769 -1.33774e-19)
(2.7455 -0.397332 3.22334e-19)
(2.01038 -0.0580476 0)
(1.96835 -0.706775 0)
(1.87583 0.00624438 -2.29391e-21)
(1.96701 0.0829017 1.77078e-20)
(1.46154 -0.692048 3.01353e-19)
(1.80178 0.0636622 -2.13453e-21)
(1.9478 -0.249607 3.03453e-19)
(2.32654 -0.80253 0)
(0.857161 -0.427965 -6.80154e-19)
(2.02794 -0.00102755 0)
(2.09515 0.464267 -2.49821e-19)
(2.118 0.455493 1.0277e-19)
(2.53941 -0.0189803 8.7278e-20)
(0.806165 1.63772 2.43348e-18)
(2.02723 0.0180753 -9.78457e-22)
(1.96647 0.0769021 -1.34067e-20)
(2.58146 -0.0495691 1.7324e-19)
(2.00435 0.0332787 3.36459e-19)
(1.84679 0.0295065 0)
(2.6591 -0.112003 -1.03935e-19)
(1.62715 -0.60718 -4.40189e-19)
(1.44347 -0.499963 0)
(2.26996 -0.554293 -1.3275e-19)
(2.07904 0.0941959 -1.44659e-20)
(1.82958 0.0318947 -1.57917e-20)
(2.72983 -0.383642 3.70175e-19)
(1.98196 0.125307 0)
(0.0801249 -2.11946 -1.2595e-18)
(1.98409 0.123775 0)
(3.68674 -0.148236 -5.57911e-19)
(1.2661 -0.610832 -2.3433e-22)
(1.68475 -0.873173 0)
(1.97288 0.0928966 9.30943e-21)
(0.676243 -0.321189 -4.73803e-20)
(1.42643 0.0670641 2.0011e-19)
(1.91272 -0.425173 -1.74747e-19)
(1.8871 0.0110561 -1.24512e-21)
(0.50458 -0.233704 5.43059e-20)
(1.48602 -0.47848 -4.56203e-22)
(1.95463 -0.114315 2.24279e-19)
(-0.933135 -0.484829 -7.59728e-19)
(1.9847 0.0979606 2.18708e-21)
(2.07794 0.0932704 3.28886e-21)
(1.98916 0.0961424 -7.30078e-21)
(2.41261 -0.412741 -4.37993e-20)
(0.986954 1.52582 -1.64507e-18)
(1.64169 -0.229618 0)
(2.02929 0.00238639 1.48678e-21)
(1.62219 0.421666 -1.75228e-20)
(3.86396 -0.292714 1.80712e-22)
(2.36836 0.0666948 -1.29874e-20)
(1.41982 -0.228118 -1.16247e-18)
(1.39306 1.71946 0)
(1.06748 0.42802 -6.53831e-20)
(2.00505 0.0503985 -5.04749e-19)
(1.88401 0.226727 -2.22871e-19)
(1.90622 1.03177 -1.62041e-19)
(2.5986 -0.260562 -6.98284e-20)
(2.08904 -0.632957 -1.65744e-19)
(1.48483 -0.322783 1.53357e-19)
(1.64991 0.122775 1.55661e-20)
(1.81639 -0.585591 7.08067e-20)
(2.03221 0.0157953 2.73259e-22)
(-2.62068 1.2201 0)
(1.01975 -0.534773 2.46918e-20)
(1.9587 -0.246958 -5.79334e-19)
(-1.90102 1.94183 1.80177e-20)
(2.03828 0.0132806 0)
(2.46947 0.704663 1.29643e-20)
(1.02697 -0.574208 2.2911e-21)
(1.8502 0.0375245 1.80952e-20)
(1.36165 1.66628 0)
(-1.89198 1.97148 2.16127e-20)
(1.96358 0.0626162 8.17038e-22)
(1.78339 0.0632046 -4.62703e-21)
(0.831038 1.72502 1.89248e-18)
(1.71868 -0.783791 0)
(1.21515 -0.586764 0)
(2.53366 -0.372074 -1.26427e-19)
(1.63431 -0.587672 3.20422e-21)
(2.08705 0.058765 1.08844e-21)
(1.05982 -0.0400842 0)
(1.16445 -0.579252 -2.65236e-19)
(2.0956 0.597408 0)
(2.08418 -0.0417243 0)
(1.9442 -0.115466 0)
(1.97538 0.0620214 8.63727e-21)
(1.46017 -0.466208 -1.83351e-21)
(-0.152588 -2.01241 0)
(1.78851 -0.527465 0)
(1.79429 0.0628298 7.74448e-21)
(1.86281 -0.680979 0)
(1.85912 0.0357049 0)
(2.17986 -0.28579 6.69523e-21)
(2.19515 0.057458 8.68442e-20)
(1.91515 -0.0159116 -2.73859e-20)
(1.72217 -0.766663 -5.02815e-20)
(1.85695 0.0322609 -1.55581e-21)
(1.05684 1.45042 -6.22465e-19)
(0.625341 -0.062476 1.0368e-18)
(-0.40534 -0.0167042 9.85535e-19)
(2.00168 0.0179701 -5.52819e-20)
(1.91571 0.418861 -2.46171e-19)
(0.645402 0.771724 -1.62893e-19)
(1.746 -0.783215 0)
(1.97495 0.0576352 -2.42055e-21)
(1.98578 -0.594354 -1.12683e-19)
(2.71847 -0.187208 -3.4802e-19)
(2.64972 -0.148489 8.64411e-20)
(2.53404 -0.200129 0)
(1.64894 -0.215064 0)
(2.07931 -0.0106987 4.77792e-21)
(3.4794 -0.891513 -9.31461e-19)
(2.58836 0.608394 1.20858e-20)
(0.279 1.74649 0)
(2.58758 -0.0589858 0)
(2.03697 0.017851 0)
(2.00942 0.0220721 4.91591e-21)
(2.40769 -0.474117 0)
(2.04045 -0.00696922 -1.56076e-21)
(1.59958 0.423635 -1.48761e-19)
(2.19667 0.285485 0)
(2.30692 0.0457927 0)
(1.51941 -0.696504 0)
(0.185268 -0.136969 -2.18818e-20)
(1.72753 -0.707594 6.28981e-19)
(2.05334 0.25049 3.07556e-20)
(2.48723 -0.00893307 1.05326e-19)
(1.73377 -0.687077 -9.55419e-19)
(2.43426 -0.273406 2.96524e-20)
(0.759758 -0.364176 2.98801e-19)
(1.85215 0.0321573 0)
(2.61622 0.665058 -9.72302e-20)
(2.40424 0.642863 -2.8579e-20)
(0.433992 -0.121969 -7.16659e-19)
(2.55086 0.601643 -2.87136e-20)
(-0.423636 -0.0931925 2.66191e-19)
(-0.0875858 -0.122899 -8.41781e-21)
(2.18673 0.266283 7.48753e-20)
(1.99769 0.0861608 -4.01079e-19)
(2.32608 -0.230951 1.01649e-20)
(2.01185 0.0076938 8.61033e-22)
(0.931646 -1.18022 0)
(2.53642 1.02725 1.341e-19)
(2.84352 -0.222329 4.94192e-19)
(1.97795 0.0611601 -5.57576e-19)
(2.53084 -0.181796 0)
(1.98477 -0.298683 6.14354e-19)
(2.08172 0.0575124 2.26384e-21)
(2.40949 -0.21244 -4.75174e-21)
(-0.71286 0.166353 0)
(2.42695 0.165493 3.02949e-20)
(2.33496 -0.0956641 -1.52995e-19)
(2.05042 0.0187964 -6.69885e-22)
(2.19466 -0.182918 -5.8322e-20)
(2.37672 -0.792511 0)
(1.04378 -0.506253 -3.40248e-19)
(1.97588 0.0716934 0)
(2.17704 0.0258251 0)
(1.81644 0.02273 0)
(1.32022 0.881725 -3.05233e-19)
(1.80882 0.000698026 0)
(-0.634422 -1.49739 -3.55986e-19)
(1.696 -0.800419 1.18857e-19)
(2.41189 -0.0217438 5.81219e-20)
(1.06813 -0.529094 -1.30475e-19)
(2.58873 0.629611 -4.61654e-20)
(1.2903 -0.652069 1.62049e-20)
(2.20852 0.0673959 -2.54762e-21)
(1.33401 -0.648832 -3.48257e-19)
(1.59461 -0.700124 5.74087e-20)
(2.05058 0.238639 -3.72399e-20)
(1.81915 -0.00208978 -2.11414e-20)
(1.3991 -0.511014 5.41189e-21)
(1.87449 -0.0198166 4.56546e-19)
(1.80736 0.0186172 0)
(2.40733 0.153135 0)
(2.34069 -0.111429 2.15995e-19)
(2.0902 -0.774107 1.48813e-19)
(1.62136 -0.00689386 5.50023e-19)
(1.95986 0.0633897 9.95205e-22)
(2.43803 0.145732 -2.36325e-20)
(1.81505 -0.357098 1.80263e-20)
(2.22263 -0.281493 0)
(1.89926 1.01854 4.31824e-19)
(1.57078 -0.348037 0)
(3.19778 0.47186 0)
(-1.41409 1.472 -2.04631e-18)
(2.61739 -0.0468133 0)
(1.96884 -0.588313 2.62161e-19)
(2.50344 0.0059584 0)
(2.80445 -0.11108 -1.07934e-20)
(1.2466 -0.590333 2.11389e-19)
(2.56169 0.274217 -6.22876e-21)
(1.24882 -0.773306 1.51514e-20)
(1.8246 -0.217891 2.75976e-21)
(1.16495 0.410497 1.80095e-20)
(1.99792 -0.292955 -1.97271e-19)
(1.16154 -0.243968 3.9159e-20)
(2.72932 -0.23704 4.37528e-19)
(0.884409 -0.431564 2.32729e-19)
(1.15899 -0.645778 0)
(1.0407 -0.50803 2.50395e-20)
(2.12467 -0.124772 9.61561e-20)
(2.19111 0.0196184 -8.19346e-21)
(0.905048 -0.43896 6.77038e-19)
(2.39821 -0.130067 0)
(2.70736 -0.452056 0)
(2.0058 0.0613546 6.12016e-19)
(2.11098 0.0405529 0)
(0.91129 -0.454041 2.26433e-19)
(1.77153 0.128895 -8.30892e-22)
(1.8109 0.0984128 0)
(2.31231 -0.0226586 -4.29532e-20)
(2.26656 -0.55361 3.37607e-19)
(0.433089 -0.399135 1.78582e-18)
(2.05377 0.451298 0)
(0.518734 -0.688832 -1.47686e-20)
(1.02386 -0.00987916 8.52916e-20)
(0.973824 -0.479504 3.3593e-19)
(1.7716 0.0575567 0)
(1.74867 -0.181946 1.8358e-20)
(0.848962 -1.39232 2.56022e-20)
(2.52013 -0.282529 1.06128e-19)
(1.80147 -0.361727 -2.27972e-20)
(0.10343 -0.0900255 2.29297e-20)
(2.67051 -0.443108 2.34341e-19)
(1.78685 0.227179 0)
(1.78198 0.129593 -6.52946e-22)
(2.41495 -0.401236 -2.52029e-19)
(0.863436 -1.31327 -3.20564e-20)
(2.19315 -0.738993 -2.04748e-19)
(-0.789614 0.110225 0)
(1.84163 -0.212722 -4.6113e-20)
(1.2736 -0.647447 -2.20194e-20)
(2.03485 -0.0152934 -2.61185e-19)
(1.6402 -0.492958 0)
(1.5768 0.958837 2.10161e-19)
(1.96783 0.0684998 -1.50432e-19)
(2.23803 -0.289808 0)
(2.62081 -0.0226937 6.40851e-20)
(1.16935 -0.565531 2.80184e-19)
(2.25675 -0.516674 -1.88139e-19)
(1.76003 -0.162778 0)
(1.53311 -0.572811 0)
(1.74598 0.0435977 -7.70956e-21)
(2.71317 0.55664 -3.01002e-20)
(1.55236 -0.583777 4.71037e-20)
(2.09959 -0.208584 -2.23638e-19)
(1.93259 0.0922382 3.29123e-19)
(2.71332 -1.15362 -2.99638e-19)
(-0.589904 -1.69768 1.26827e-18)
(-2.52053 1.69368 2.56569e-18)
(2.75576 -0.150943 3.96679e-19)
(1.86723 -0.0238397 3.59179e-20)
(2.79456 -0.118787 8.17659e-21)
(2.02494 -0.00734781 0)
(1.18628 -0.63002 0)
(1.91325 0.186696 -1.02203e-20)
(1.20121 -0.582828 2.59635e-19)
(1.9953 0.0243376 -5.45367e-20)
(2.10983 -0.119966 8.90841e-20)
(2.15906 -0.153704 0)
(2.02299 -0.035334 -1.34356e-19)
(2.60229 0.0170712 -4.80457e-20)
(1.92315 0.0764514 -3.02836e-19)
(2.49742 -0.577377 7.5615e-20)
(2.05803 -0.237265 -3.7067e-20)
(1.40469 -0.507082 1.57757e-21)
(2.66695 0.555277 2.59645e-20)
(2.49901 -0.289803 1.26589e-19)
(1.96547 0.0688763 -2.67587e-21)
(1.30149 -0.598586 0)
(0.395675 -0.11526 0)
(2.31334 -0.0390278 8.79529e-20)
(1.20659 0.265601 3.71214e-20)
(1.97018 0.0734747 0)
(2.26555 1.46481 -1.77097e-18)
(0.479344 -0.234754 0)
(2.43505 1.01974 -3.00746e-20)
(2.53961 -0.364977 -1.25248e-19)
(2.8548 -2.53996 0)
(1.90491 0.408684 -1.50718e-19)
(1.92069 0.193499 1.51804e-20)
(1.88431 0.209373 -1.908e-20)
(1.87271 -0.0123417 -5.01608e-19)
(1.87615 -0.226597 0)
(1.97829 0.085816 -1.698e-20)
(1.88403 0.156098 5.10352e-22)
(1.98561 0.0619575 7.03094e-20)
(1.60792 0.170556 -2.90643e-19)
(0.751094 0.743754 3.0355e-19)
(2.58098 -0.260022 1.289e-19)
(2.22556 -0.398434 -6.29252e-19)
(2.11138 -0.207876 0)
(2.58738 0.129294 3.33628e-21)
(2.25727 -0.407474 -1.15119e-19)
(2.00084 0.0349639 7.32101e-19)
(2.1146 -0.636048 0)
(2.58924 -0.270436 -2.75055e-20)
(1.45952 0.421016 0)
(2.50734 -0.468093 -1.99679e-19)
(1.88339 -0.549912 -1.93642e-19)
(0.687356 -0.322896 2.77015e-19)
(2.38754 -0.488486 -1.71518e-19)
(2.02579 0.18003 0)
(1.7832 0.152781 2.67317e-21)
(1.85085 -0.226294 5.04508e-20)
(1.6269 0.175475 2.74439e-19)
(2.27092 -0.41482 4.48996e-19)
(2.40317 -0.217528 2.06627e-19)
(-0.716989 -0.526328 -2.82327e-19)
(2.03172 0.0185275 2.12313e-22)
(2.22781 -0.218179 0)
(1.02674 -0.36133 6.69532e-19)
(3.20338 0.454131 0)
(1.90044 0.190927 -5.82268e-22)
(2.23179 -0.117677 3.68942e-19)
(2.62743 0.0743008 -4.15724e-20)
(2.62255 -0.0179026 4.57608e-20)
(-2.42461 1.06319 -1.25776e-18)
(1.93402 0.0755221 3.78419e-19)
(2.01713 0.00434333 0)
(-1.05105 -0.629909 -6.65856e-19)
(2.19103 -0.290157 -1.31625e-19)
(1.29384 0.284853 -1.12762e-20)
(2.09719 -0.715786 1.40004e-19)
(2.48692 -0.00748326 0)
(2.65333 -0.249348 7.77279e-20)
(1.79705 0.175337 5.8136e-19)
(1.96899 0.0764224 4.57513e-19)
(2.19282 -0.314056 0)
(2.04122 -0.00409636 -8.23069e-22)
(2.14237 -0.14646 -9.03125e-20)
(1.1226 1.39516 2.696e-19)
(1.58121 -0.02619 7.64289e-20)
(2.19181 -0.255172 1.25121e-19)
(2.04436 0.00762607 -2.0153e-21)
(2.21549 -0.209203 0)
(2.85271 -0.0663638 -1.64386e-20)
(0.316429 -0.720275 2.22551e-20)
(2.43819 0.337793 4.00964e-20)
(1.99329 0.0317207 2.84838e-19)
(1.36917 0.0279131 0)
(1.85779 0.177537 1.18292e-20)
(3.09204 -2.31954 0)
(3.54756 0.890045 -3.50986e-19)
(2.04292 -0.0288241 0)
(2.09979 -0.718609 -5.92126e-21)
(1.33451 -0.107151 -1.63417e-19)
(1.56371 0.886948 5.11789e-19)
(0.89408 1.64619 -1.17098e-18)
(1.79007 -0.163393 0)
(2.34234 0.0454477 -3.66401e-20)
(2.03042 0.192631 -1.5563e-19)
(0.450569 -0.230001 -5.92651e-19)
(1.31807 -0.62269 1.35617e-21)
(1.64992 -0.0258736 -8.29922e-19)
(2.29698 -0.27134 9.75202e-20)
(2.09408 0.180546 1.04399e-19)
(1.45934 -0.462159 0)
(1.38278 0.345173 3.11492e-19)
(1.98235 0.0485946 8.12394e-21)
(0.574279 -0.274368 2.87285e-20)
(0.36079 -0.682188 -6.9e-20)
(0.198672 0.0507962 -1.15738e-18)
(2.76051 -0.158644 0)
(0.354056 -0.15464 0)
(2.10391 1.1783 0)
(2.06767 -0.0878048 0)
(0.637367 -0.171594 -2.63544e-20)
(2.49518 -0.44379 0)
(2.12852 -0.140114 0)
(1.67896 0.136457 1.1312e-19)
(2.81236 -0.225236 -5.11395e-19)
(2.18837 -0.199196 -3.02056e-19)
(1.71894 0.347537 9.35596e-19)
(2.00663 0.0214269 -8.08586e-20)
(2.49427 1.71132 0)
(2.38532 -0.254045 0)
(1.91997 0.0733201 3.23129e-19)
(2.02518 0.0529016 5.70065e-20)
(1.33541 0.936952 0)
(-0.499003 0.11689 2.05046e-19)
(2.17628 -0.752399 2.30439e-19)
(-0.6736 -0.0573372 0)
(2.39138 -0.130934 2.02803e-19)
(1.9727 0.0606898 -3.73586e-19)
(0.89311 -0.313453 -4.36932e-20)
(1.02039 -0.344221 0)
(2.01644 0.200394 2.95001e-19)
(2.5688 0.121566 0)
(2.16797 -0.17237 0)
(2.2091 0.17621 -1.15302e-20)
(1.94948 0.0959362 1.72032e-19)
(-2.69879 1.32649 -1.73094e-18)
(2.35577 0.637014 7.54349e-21)
(1.33908 -0.343578 -2.90948e-19)
(2.07349 -0.0773486 3.86508e-20)
(2.10211 0.175417 8.04957e-20)
(2.85628 -0.0689889 2.01146e-20)
(2.26474 -0.736525 0)
(2.37131 -0.512959 1.87635e-19)
(1.34157 -0.0394657 0)
(1.89111 0.181378 -8.77134e-21)
(2.30803 -0.236415 0)
(1.44916 0.0833655 4.227e-19)
(-0.570057 2.28108 -1.76548e-18)
(2.27144 -0.259686 0)
(-0.237802 0.2214 4.57612e-20)
(2.37516 -0.277803 -2.28727e-19)
(1.76069 0.548331 -6.68539e-21)
(1.76391 -0.263648 7.96167e-19)
(1.45547 0.871621 -3.24169e-19)
(1.33026 -0.329219 -8.26767e-19)
(3.58607 0.841568 0)
(1.96731 0.0586154 -7.68919e-21)
(-0.77451 -0.654542 -7.56879e-19)
(2.01959 0.210101 0)
(1.87272 0.232555 2.07727e-20)
(2.60939 -0.0551546 -3.62213e-20)
(2.85912 1.02776 0)
(2.0013 0.0213431 0)
(0.314309 -0.213029 0)
(0.99646 -1.19627 1.01331e-19)
(2.6397 -1.26174 3.60655e-19)
(3.33376 -0.941395 5.12353e-20)
(2.39274 0.978384 0)
(1.70414 -0.159969 5.39854e-19)
(2.0168 0.00618784 -1.84662e-21)
(2.35071 0.573136 -5.38799e-21)
(1.05128 -0.497035 4.29517e-20)
(1.9164 0.170705 0)
(2.03228 0.0209578 0)
(0.74803 -0.107778 -4.53265e-19)
(1.43302 -0.454659 -2.03588e-19)
(1.93794 -0.176295 0)
(1.24759 -0.607566 -2.53773e-19)
(2.08063 -0.0031243 2.35055e-21)
(2.03049 0.0116802 -4.84706e-22)
(0.775941 -0.361979 0)
(1.87978 -0.00343912 3.16321e-20)
(1.97855 0.0594301 -6.96715e-21)
(2.56437 0.104573 1.22138e-19)
(1.86973 -0.568701 0)
(-2.48486 1.85103 -3.98807e-18)
(2.61722 0.0374948 5.24023e-20)
(2.00362 0.0988211 6.37741e-20)
(1.99177 0.018917 -3.58828e-21)
(2.67877 0.630984 0)
(1.69286 0.346414 -2.49291e-19)
(3.1003 0.206574 -2.48751e-19)
(-0.028787 0.270213 2.50108e-19)
(2.00566 0.058706 0)
(1.30708 -0.626515 -1.38097e-21)
(0.482208 -0.0883518 0)
(2.00523 0.058499 -2.44189e-19)
(1.98897 0.0760308 1.11761e-19)
(1.86485 0.0669305 -6.32103e-20)
(0.872881 -1.2374 0)
(2.22233 0.0237473 -2.39169e-20)
(1.1091 0.495717 8.51656e-19)
(2.23785 -0.73144 0)
(1.6336 0.127587 3.54012e-19)
(2.47295 -0.586224 -8.60922e-20)
(2.18727 -0.0208344 0)
(1.25943 -0.661194 1.1817e-20)
(1.65013 -0.191382 -3.35739e-20)
(2.04676 -0.00924885 0)
(-1.98356 2.058 2.38933e-18)
(1.85566 0.215856 0)
(1.67909 -0.775124 2.56587e-19)
(0.527423 -0.761679 4.10604e-20)
(2.04933 0.0225482 6.73473e-22)
(2.44688 0.121589 -5.85251e-20)
(1.3733 0.324002 1.65575e-19)
(1.75981 -0.294042 -2.93731e-19)
(1.78954 -0.146716 -1.98961e-20)
(1.72642 -0.787744 2.59597e-21)
(2.17351 -0.257934 1.21314e-19)
(2.67493 0.64081 2.00337e-19)
(1.78195 -0.797219 0)
(1.9995 0.0246141 -2.5257e-19)
(-0.485245 -0.1829 -5.15217e-19)
(1.36678 -0.0514472 0)
(1.99829 0.0671205 3.45147e-21)
(1.85146 0.00524199 0)
(1.23085 -0.359816 7.13349e-19)
(2.06966 -0.780297 0)
(1.95349 0.00205812 1.60613e-21)
(2.23286 -0.111719 -2.10107e-19)
(1.26171 -0.689142 2.34085e-20)
(0.476049 -0.277203 3.93931e-20)
(2.39603 -0.00922394 -1.76555e-21)
(1.27204 -0.603798 2.31728e-19)
(1.77495 -0.521253 2.83158e-19)
(1.47892 -0.331276 0)
(-1.49672 0.588347 -3.94426e-19)
(2.28747 -0.681858 -4.78711e-20)
(-1.61759 0.540012 -4.89714e-19)
(2.02858 0.0145775 2.60322e-22)
(1.45773 -0.575083 0)
(2.21945 -0.0236201 -1.09112e-21)
(-0.578808 0.0582481 0)
(1.01448 -0.604496 2.41864e-21)
(1.0345 -0.367106 5.82151e-20)
(-0.00624451 -0.0501197 0)
(2.04548 -0.552283 8.37734e-20)
(1.66366 -0.840492 0)
(2.85385 0.933184 0)
(1.44083 -0.686195 -3.38345e-19)
(1.48808 0.391083 2.51519e-19)
(1.54431 -0.341291 0)
(1.80135 0.185812 -1.58625e-19)
(3.55509 -0.899236 1.09652e-18)
(0.151217 -0.801167 1.48225e-19)
(2.90679 1.33242 0)
(2.17059 -0.0424704 0)
(-0.97067 -0.706289 -4.20237e-19)
(1.87 -0.102925 0)
(2.42256 0.0750905 0)
(0.252804 -2.31116 -5.43075e-20)
(2.04605 -0.409952 -4.00057e-19)
(1.74018 -0.428265 2.44304e-19)
(2.63229 -0.50789 3.31729e-20)
(-1.41474 0.389869 7.42771e-19)
(1.99099 0.0638236 1.28187e-19)
(1.51808 -0.362406 0)
(2.18912 0.439662 -3.59147e-20)
(1.4161 -0.194274 0)
(2.24751 0.0232037 0)
(1.99887 0.10748 0)
(2.19514 0.163043 -9.51504e-21)
(1.85447 -0.0121969 2.33089e-19)
(2.10137 0.0311877 -6.69616e-21)
(1.56274 -0.367302 0)
(-2.37523 1.05141 -1.08457e-18)
(2.13565 1.1219 3.36977e-20)
(1.86121 -0.695132 2.70259e-20)
(1.93857 -0.0450023 -5.62184e-20)
(2.22294 -0.504693 3.00729e-19)
(2.0398 0.0587003 -2.14741e-19)
(-0.441358 2.2083 0)
(2.60445 0.00458351 0)
(1.47232 0.890981 0)
(1.21759 -0.557876 -5.11919e-19)
(1.42936 -0.735736 -4.25749e-20)
(0.253286 -0.000422475 0)
(2.21245 0.447658 0)
(2.74185 -0.185202 5.10646e-20)
(1.97191 -0.0264083 -6.09478e-20)
(1.93584 0.631052 2.42027e-19)
(1.58537 -0.689293 0)
(-2.1118 0.110873 -4.49029e-19)
(2.36105 0.0456434 2.18278e-21)
(1.39937 -0.41821 -4.86685e-19)
(2.24499 0.0515974 -4.69189e-20)
(2.33826 0.579332 4.25903e-20)
(2.03934 -1.09267 1.27637e-19)
(1.21731 -0.562483 8.94199e-19)
(1.78979 -0.529516 8.26226e-20)
(2.09351 0.0528952 2.51727e-21)
(1.99718 0.0170813 -6.44514e-20)
(1.12821 -0.52989 -8.05666e-20)
(1.65335 -0.170051 1.48444e-20)
(1.71693 2.1561 4.56508e-20)
(1.26776 -0.608196 1.30111e-19)
(2.53531 0.165333 0)
(1.37363 0.857423 3.67743e-20)
(2.19575 -0.043253 -1.99754e-19)
(2.9915 0.584003 1.42037e-19)
(1.36812 -0.380546 -4.43699e-19)
(1.84601 -0.667756 -2.93276e-19)
(1.99161 -0.0150713 5.94553e-19)
(2.40399 -0.0586659 -3.39383e-19)
(1.96464 -0.707209 5.78362e-20)
(2.77148 -0.133832 -2.03184e-19)
(1.14559 -0.145922 -9.66247e-19)
(2.1236 -0.0240538 -1.48983e-19)
(1.13123 -0.213816 0)
(1.25214 -0.743405 -6.22758e-20)
(1.937 0.00304193 5.41057e-19)
(1.75396 -0.0212008 -1.39244e-21)
(-0.856298 -0.507688 0)
(1.49274 -0.68744 0)
(2.06565 0.418906 2.09355e-19)
(1.01317 -0.141521 5.99719e-19)
(1.63224 -1.0585 -1.38926e-19)
(2.12276 -0.714186 -1.45831e-19)
(2.23764 -0.412748 3.4334e-19)
(3.25261 0.393795 0)
(2.07944 0.443291 1.10581e-19)
(1.41302 -0.481309 -3.11015e-21)
(2.58746 1.0184 1.52779e-19)
(1.97085 -0.274369 -3.49397e-19)
(-1.37343 0.393832 -1.14085e-18)
(2.21224 -0.471271 -2.93157e-19)
(2.35841 -0.545025 1.01483e-19)
(2.37449 1.21043 0)
(1.95698 -0.227176 -3.77349e-20)
(1.88269 0.0620133 5.81866e-20)
(2.02415 0.0050101 1.33114e-21)
(0.793928 -0.386175 8.19939e-19)
(1.94934 -0.272196 5.23168e-19)
(2.02799 0.226263 -1.44885e-20)
(0.184029 -0.731681 -7.47243e-20)
(2.14917 -0.100025 -1.07688e-19)
(2.25352 -0.0234719 1.32402e-19)
(-0.899456 -1.46167 -1.70098e-19)
(2.49304 0.982699 -1.55802e-19)
(-2.13645 2.15237 -2.58206e-18)
(0.937405 -0.459169 -2.71847e-19)
(2.02546 0.00186637 0)
(2.08213 0.0883503 -1.24923e-20)
(0.155022 -1.89284 -1.66901e-19)
(1.32642 -0.136591 8.79882e-19)
(2.06077 0.0245041 0)
(2.12327 -0.22721 3.2002e-20)
(1.18806 -0.504246 2.0277e-19)
(1.98978 0.0487566 -5.47538e-19)
(-0.263427 -0.292853 -1.33763e-19)
(1.52452 -0.330706 -1.13774e-20)
(2.20206 -0.211192 2.05541e-19)
(2.32113 0.0514482 4.97505e-20)
(1.6953 -0.782276 -3.56033e-19)
(2.10915 0.0449379 9.10423e-21)
(1.43585 -0.791787 -1.15744e-19)
(2.10751 -0.0459734 1.8742e-19)
(2.05918 -0.0632181 -1.67105e-19)
(2.15021 0.0846683 -6.33771e-21)
(2.14553 -0.0424477 -3.66616e-19)
(1.12498 -0.508768 -3.91622e-19)
(2.0943 0.0553493 0)
(1.0369 -0.934058 5.33721e-20)
(2.11023 0.067312 4.13318e-20)
(0.732564 -0.187999 -7.09077e-20)
(2.3616 0.0145607 -3.99388e-20)
(2.18015 -0.428637 -2.10695e-19)
(1.99848 0.0184299 -4.20376e-19)
(2.11127 0.301468 6.05467e-20)
(-0.414788 0.0280548 -2.11145e-19)
(2.41682 0.063916 0)
(1.8456 0.164474 -5.75853e-21)
(2.63679 0.103289 4.25475e-20)
(1.46646 -0.56056 0)
(2.14641 0.0698061 1.0523e-19)
(2.57471 0.16207 4.76277e-20)
(2.36629 0.0671932 6.35677e-24)
(2.35698 -0.792898 -1.72639e-20)
(1.83222 -0.0145409 0)
(1.78975 0.359545 4.47635e-19)
(2.06074 0.186958 1.75323e-20)
(1.24265 -0.602657 2.85118e-19)
(1.9994 -0.182497 0)
(1.48474 0.346398 -7.28516e-19)
(1.48169 -0.436672 -4.15598e-21)
(2.65311 1.48095 -3.71056e-19)
(1.15564 -0.170098 9.39172e-19)
(2.0689 0.00286371 9.47858e-21)
(0.431232 -0.287159 3.51053e-20)
(1.92962 -0.0855275 -3.64008e-19)
(2.42886 -0.46541 -2.77191e-19)
(1.79051 0.167955 -3.35844e-19)
(2.00605 0.00468227 0)
(1.99998 0.0363313 -2.43935e-19)
(0.105679 -0.118156 1.24755e-19)
(-0.979505 -0.25501 0)
(2.20686 -0.792444 0)
(2.01845 0.00431307 0)
(-0.392243 0.557212 0)
(2.06603 0.308865 0)
(1.08446 -0.138509 0)
(1.86077 -0.361809 -2.55652e-21)
(3.16426 -0.943933 -4.61232e-19)
(2.59275 0.291648 0)
(1.76006 0.363662 6.76297e-19)
(1.58227 -0.481518 -5.20766e-20)
(2.092 0.193043 6.39539e-21)
(0.149562 -2.08875 -1.48902e-19)
(1.10069 0.105035 -2.68058e-21)
(-0.351445 -0.0813034 1.34646e-19)
(1.93718 -0.0026212 -1.35582e-19)
(2.57804 -0.0735928 2.39034e-20)
(2.04262 0.292153 -1.46647e-19)
(1.87467 0.212463 -4.46413e-19)
(2.05781 1.0498 -1.31575e-19)
(3.46646 0.876475 0)
(1.25809 -0.607739 6.08639e-21)
(1.25141 -0.37564 -7.81737e-19)
(2.01366 0.0255438 -7.55797e-19)
(2.29944 -0.689817 -2.74207e-19)
(2.01775 -0.0129921 5.7529e-20)
(2.57923 -0.650421 2.46904e-20)
(2.12365 -0.32792 -4.55974e-20)
(2.06008 -0.540827 -2.90128e-19)
(2.02974 0.172633 1.62034e-19)
(2.35853 1.38106 0)
(1.79206 -0.11634 -1.79026e-20)
(1.70731 0.113466 -1.03609e-19)
(2.51344 -0.423058 0)
(1.78065 0.0342909 0)
(1.73919 -0.80052 -3.44463e-21)
(0.59321 -0.378587 3.47716e-20)
(1.84278 -0.371423 -9.17089e-20)
(1.88257 0.0468973 0)
(1.89704 -0.0247273 -4.76855e-19)
(1.82031 0.219232 -8.67643e-20)
(1.11297 -0.811406 2.74718e-20)
(2.45449 0.152147 3.23012e-20)
(-0.162434 -0.128736 0)
(1.22069 -0.593762 8.09386e-21)
(2.53724 0.157039 0)
(1.93743 -0.239206 3.95431e-20)
(2.61239 -0.257633 -6.40241e-20)
(2.00145 0.0316724 -5.22311e-22)
(2.42434 0.658261 5.18622e-20)
(2.86786 1.20452 -3.918e-20)
(1.73068 -0.496758 5.87525e-19)
(1.32789 -0.591327 0)
(1.64188 -0.730533 -1.04262e-19)
(1.54294 -0.481427 0)
(2.64406 0.263409 -5.8265e-20)
(1.0867 -0.785207 4.63521e-20)
(2.16395 -0.778004 1.88113e-19)
(1.82437 0.144255 3.74124e-21)
(0.809699 -1.59784 -2.21612e-19)
(1.06592 -0.526169 -3.29239e-19)
(1.29266 -0.383928 -4.53412e-19)
(1.9815 0.0586255 -2.76607e-21)
(1.67005 -0.712807 8.54978e-20)
(1.16761 -0.525159 3.2206e-19)
(1.35032 -0.413588 4.97874e-19)
(1.42244 -0.714564 4.82408e-20)
(1.75776 -0.781153 -5.93791e-20)
(1.83413 -0.588353 2.924e-19)
(0.292558 1.91872 1.15734e-18)
(2.11424 0.00652542 5.62142e-21)
(1.45582 -0.470115 4.66573e-20)
(2.35865 0.370043 -1.58261e-20)
(2.24491 -0.574706 0)
(-0.199049 0.313157 -2.33712e-18)
(2.10029 -0.0423233 -2.50854e-19)
(1.99733 0.122144 0)
(2.6108 0.253865 0)
(1.56369 -0.616005 -5.84593e-20)
(2.57974 -0.647268 -3.10015e-19)
(2.41832 0.172684 7.47921e-20)
(2.0394 -0.398968 5.2444e-19)
(2.03177 1.00655 1.276e-19)
(1.51566 -0.00368403 3.81609e-19)
(1.03566 -0.842218 -4.7845e-21)
(1.81742 0.65906 0)
(1.38328 -0.447188 4.76783e-19)
(0.90647 -0.354011 5.98815e-19)
(0.817342 -1.51674 1.60438e-19)
(1.72418 -0.670824 9.70434e-20)
(1.3966 -0.633202 -6.73506e-20)
(1.86825 0.00122726 1.95028e-19)
(1.79983 0.0830929 1.31441e-21)
(2.16454 -0.28747 1.95127e-19)
(0.991454 -0.854803 -3.38248e-20)
(2.39184 0.166891 -5.29895e-20)
(1.94372 0.0704327 1.88733e-19)
(1.1258 -0.201394 -3.85789e-19)
(1.87519 -0.0767585 2.97629e-19)
(2.04294 -0.723051 0)
(2.44106 0.331919 -5.78152e-20)
(1.97957 0.0613441 4.20356e-20)
(1.46759 -0.297828 -1.52862e-19)
(1.96892 1.92425 9.73685e-20)
(1.80393 -0.573421 2.1748e-19)
(2.04357 0.0107004 8.1162e-20)
(1.37934 0.169089 -5.71455e-19)
(2.49705 -0.427292 0)
(1.84779 0.133306 7.23425e-21)
(2.25466 0.0707825 6.38598e-20)
(1.94246 -0.052818 0)
(1.40749 0.0576576 3.27643e-19)
(2.46144 0.154112 0)
(1.85683 1.93282 -5.49797e-20)
(2.36092 -0.0373415 0)
(1.78851 -0.133989 0)
(2.53911 0.00228792 4.53159e-20)
(2.40196 0.123937 -2.18227e-20)
(2.87591 0.0140761 -3.74007e-19)
(1.92282 0.151202 -2.02786e-19)
(1.63587 1.26081 -1.21468e-19)
(2.00485 0.105885 -7.67669e-20)
(2.09214 0.310508 0)
(3.4139 -0.146314 -2.10258e-19)
(2.47825 0.118023 8.02781e-20)
(1.91408 -0.226585 -8.10361e-20)
(2.24381 -0.5698 0)
(3.02033 0.571426 2.13572e-19)
(2.32942 1.72394 2.47723e-20)
(2.10132 0.00241731 2.3621e-20)
(1.635 -1.62309 0)
(0.63083 -2.38872 8.41142e-19)
(2.05153 0.164973 0)
(2.19179 -0.25677 -9.87283e-20)
(0.447791 -0.373397 0)
(3.97887 -0.260273 0)
(1.77455 -0.558306 0)
(2.02811 -0.775724 0)
(-1.06555 -0.83617 -2.85996e-19)
(1.04006 -1.13322 -2.05952e-20)
(1.85049 -0.0105207 -3.49619e-19)
(1.24758 -0.698094 -2.89018e-20)
(1.24832 -0.553105 0)
(1.28096 -0.781851 -2.84258e-20)
(0.197945 -0.396488 -1.77323e-18)
(1.47851 -0.700286 0)
(1.46651 -0.523911 -5.09705e-19)
(1.98852 0.101381 2.77462e-21)
(2.33968 0.354068 2.99274e-20)
(2.37927 -0.814435 6.74316e-20)
(1.83593 0.189938 0)
(2.19015 -0.712447 0)
(3.33358 -0.060879 2.11309e-19)
(1.66024 -0.126139 3.42199e-21)
(1.9619 0.069546 5.37199e-21)
(1.5636 -0.612576 -4.13117e-22)
(2.00182 0.00819721 1.81363e-20)
(2.08029 0.0836499 4.07473e-22)
(2.02903 0.180165 2.33888e-19)
(1.87466 0.162634 -5.86456e-21)
(1.88027 -0.527798 0)
(-2.668 1.15543 0)
(2.10201 0.0343622 0)
(1.95328 0.00661201 0)
(1.7296 -0.312381 2.16043e-19)
(2.62121 -0.133836 0)
(-0.302577 -1.82339 2.53266e-18)
(1.95074 -1.0977 -1.41284e-20)
(1.31986 -0.432453 -7.47606e-19)
(1.50166 -0.499036 2.19496e-20)
(1.08631 -0.954983 -2.89766e-20)
(0.788004 -1.90467 -1.6198e-18)
(1.90982 0.0300002 6.48884e-20)
(0.835755 -0.958113 -4.05194e-20)
(1.8972 0.169109 -1.15857e-20)
(2.54107 0.0141548 0)
(2.35071 -0.397841 0)
(1.31999 -0.634222 0)
(2.1729 -0.444133 1.1146e-19)
(1.72482 -0.82812 0)
(1.85466 0.664357 0)
(1.9996 0.0139473 0)
(1.76056 -0.432494 2.27877e-19)
(2.08398 0.186414 -2.0949e-19)
(1.90616 0.0119538 0)
(1.90198 -0.371295 -8.99907e-20)
(1.98872 0.184634 -2.33481e-19)
(2.57943 0.916704 -3.19168e-19)
(1.52308 -0.717001 3.04495e-19)
(1.93054 0.705305 -2.90528e-22)
(1.64255 -0.252958 -3.02181e-21)
(1.75954 0.0565786 7.60747e-21)
(1.78956 -0.20218 -3.76734e-20)
(2.37629 0.134785 3.35053e-20)
(1.96249 0.0592758 1.25783e-20)
(1.8208 0.09772 -3.28635e-19)
(2.11356 -0.041544 0)
(0.871837 -0.248065 5.41428e-20)
(1.96174 0.0752772 3.37799e-19)
(1.44269 -0.488349 -5.27356e-21)
(2.11849 -0.312055 -1.32971e-19)
(1.04342 -0.162567 -6.539e-19)
(2.40042 0.102797 -6.45043e-21)
(3.124 0.215378 3.57582e-19)
(2.00079 0.0920119 0)
(1.89619 0.915096 2.04566e-19)
(1.85967 0.0571889 -1.15042e-21)
(1.79838 -0.212315 7.64192e-20)
(1.13247 -0.541108 -4.92011e-20)
(2.03507 0.0340042 1.76893e-19)
(2.09687 0.0491296 -2.69081e-21)
(2.05285 0.0026573 -7.09212e-21)
(2.09667 0.0310169 0)
(1.55468 -0.370139 0)
(1.33737 -0.644414 3.71875e-19)
(-0.157673 -0.230264 1.44002e-19)
(2.04837 -0.00483989 6.05014e-22)
(1.96638 0.071816 6.77296e-19)
(1.9606 0.580808 -6.4643e-19)
(1.45061 0.327956 0)
(1.79417 0.127684 0)
(1.59694 -0.350332 -3.11367e-21)
(2.49531 0.0173218 7.19112e-20)
(1.98825 0.681231 3.16505e-19)
(2.51317 -0.171155 0)
(2.04307 -0.00354898 0)
(2.08598 -0.612408 4.00911e-19)
(1.97295 -0.160981 2.80744e-19)
(0.0664318 -0.0575789 -9.71527e-21)
(1.83798 -0.0262293 0)
(4.14538 -0.13109 3.38191e-19)
(2.01111 -0.4815 -3.70307e-20)
(0.18926 -1.78041 -2.29069e-19)
(1.99449 -0.0151314 -3.80367e-19)
(3.18478 -0.77357 0)
(2.62461 -0.660031 2.4505e-19)
(1.7406 -1.5038 -2.62972e-19)
(-0.0125003 -0.0182221 0)
(1.97668 0.011951 1.02346e-20)
(1.90768 0.126509 -2.2001e-19)
(1.97571 0.00541462 1.42933e-23)
(2.63578 -0.27192 3.68446e-20)
(1.64047 1.36272 5.56966e-19)
(1.88425 0.0476919 0)
(1.0427 -0.384733 -4.27889e-21)
(2.01753 0.324604 5.89397e-19)
(2.75895 -2.32 -1.0146e-18)
(2.05779 0.292819 1.74043e-19)
(1.3369 -0.580389 5.75285e-22)
(1.99561 -0.00155742 -8.24537e-19)
(2.02798 0.239435 8.21784e-21)
(1.76989 0.110886 9.13953e-22)
(1.72569 -0.39223 0)
(1.86029 0.00532987 -1.92723e-20)
(1.09163 -0.510442 2.57284e-19)
(2.21733 -0.122549 -4.06968e-19)
(1.98177 0.0642462 -3.0628e-19)
(2.18098 -0.236467 9.13158e-20)
(1.662 -0.14708 7.90831e-19)
(2.10685 0.000485043 -6.35464e-21)
(1.78472 0.128276 1.91151e-19)
(2.00152 0.0725714 1.0715e-20)
(2.65411 -0.513851 -3.81712e-19)
(2.54075 1.04848 -2.30357e-19)
(1.66089 -1.10269 1.08074e-19)
(1.93715 -0.0265953 0)
(0.933977 -0.42749 0)
(0.977631 -0.205746 0)
(1.31632 -0.391501 5.78807e-19)
(2.14329 0.0713656 -4.97352e-19)
(1.8023 0.238897 0)
(1.5101 -0.31569 -4.54186e-19)
(1.79722 0.20776 0)
(1.73803 -0.284629 -3.54935e-19)
(1.8927 -0.23613 -8.44153e-20)
(1.857 -0.497338 -3.21427e-19)
(1.95926 0.0437525 0)
(1.94565 0.0630969 0)
(1.95 -0.0569803 4.88667e-20)
(2.54835 0.235455 6.21373e-21)
(2.53068 -0.0994789 1.6529e-19)
(2.53984 1.81269 -6.65988e-21)
(2.55017 -0.237733 0)
(1.73183 -0.65179 -1.63469e-19)