/*--------------------------------*- C++ -*----------------------------------*\
| =========                 |                                                 |
| \\      /  F ield         | OpenFOAM: The Open Source CFD Toolbox           |
|  \\    /   O peration     | Version:  2306                                  |
|   \\  /    A nd           | Website:  www.openfoam.com                      |
|    \\/     M anipulation  |                                                 |
\*---------------------------------------------------------------------------*/
FoamFile
{
    version     2.0;
    format      ascii;
    arch        "LSB;label=32;scalar=64";
    class       volScalarField;
    location    "2.3";
    object      p;
}
// * * * * * * * * * * * * * * * * * * * * * * * * * * * * * * * * * * * * * //

dimensions      [0 2 -2 0 0 0 0];

internalField   nonuniform List<scalar> 
5098
(
-0.726416
0.460222
0.296234
1.78308
-0.298165
1.99867
0.0900043
-0.446814
0.261922
-0.310951
-0.473356
0.720662
0.270565
2.25991
-0.168437
0.0175422
-0.483621
-0.572054
-5.9721
-0.492535
1.26139
0.0249778
0.787365
2.78801
-0.596016
1.9327
1.23644
1.27337
-5.72881
0.496269
0.543117
2.42954
1.43321
-0.332767
-0.252119
-2.13057
1.44005
1.37495
2.17309
0.958895
1.74746
-0.882759
1.90537
0.227316
-0.198997
0.554682
-0.509102
2.46712
0.542233
1.81951
0.177181
1.64775
-0.730824
1.32787
1.99981
1.91334
1.419
1.66819
2.43583
0.0301726
0.124428
-0.548208
-0.343981
0.292668
-0.794402
2.28699
0.0735704
0.185816
1.09993
1.58473
1.35806
-0.117913
1.10597
-0.220916
0.0792317
1.81972
0.0173824
1.95494
0.105116
1.84693
0.0173582
-1.41047
1.77699
-0.359261
-0.571693
0.432459
3.0892
0.0403162
-0.62913
0.100545
0.786944
-6.14996
0.755792
1.78479
2.18378
-1.14152
1.56098
2.0093
0.0733044
1.12742
-0.436861
1.94058
-0.0631863
0.149171
1.96197
-0.504647
1.27583
0.106922
2.50768
-0.491373
1.68509
-5.80025
1.37856
-4.56194
1.17662
-6.41634
-1.20234
-1.53386
0.0896061
2.76365
1.61027
0.370024
-0.234831
-1.11264
-7.42382
-0.499131
1.2887
0.830718
2.22356
-5.05745
-0.68336
2.36799
2.33786
-1.28232
-0.316771
-0.644906
-1.27921
1.25677
2.1956
1.32447
1.65546
-0.472413
1.19031
0.288411
0.589849
0.107985
1.13836
-0.233728
-0.617058
0.971508
-0.80833
-5.43595
-0.25009
1.45437
3.10506
2.71195
1.67306
-0.400761
1.7521
-5.68375
1.30753
-0.1963
-5.45063
1.60459
-0.593983
0.403333
-0.315547
0.456703
-0.592991
1.6675
-0.717043
1.82309
0.250908
1.28407
0.534975
0.686212
1.73293
-1.91077
1.70115
3.07553
-2.60405
-1.1244
1.57433
-0.596601
1.58112
-0.9574
1.92605
1.41448
1.79525
-3.5792
-5.59628
0.101043
1.05759
0.0443596
0.458643
-5.21146
-1.58128
-0.689404
0.013692
1.63486
-0.640548
1.63621
-0.173999
0.480511
1.25656
2.71047
-0.429768
2.22458
0.914771
1.04289
1.46417
1.60047
0.119591
0.526602
-0.342295
-5.5633
0.0194771
-0.510505
-7.17556
0.712829
0.715528
1.92293
0.14054
0.701478
-2.66652
1.39016
2.99013
1.32892
1.19816
0.0955951
1.33016
2.84709
-1.42584
0.0341963
0.314188
0.366306
1.02788
-1.19293
-0.965521
1.57436
-1.46232
0.170307
0.168581
2.54519
1.2197
0.781845
2.21706
-0.505435
-0.476798
0.685642
0.240708
1.22256
-7.32264
-0.793145
1.46363
-1.46811
-0.308918
-0.29689
2.42813
0.0784736
-0.912335
-1.05636
-0.579678
1.121
0.0262764
-0.565618
-5.70407
-0.472571
-1.73698
1.59112
-2.91361
0.0293937
-5.64634
-1.79435
2.39866
-0.0482828
-0.821753
-0.781912
0.557274
1.4232
-0.654391
-0.337842
-2.33108
-0.451345
-0.398535
-0.336027
1.45975
0.124542
0.424134
0.772722
-1.14712
-10.7016
2.53754
-0.206167
1.19085
-0.248357
-0.262965
0.505651
1.21119
1.41227
0.11431
-0.506453
1.88352
1.17406
-0.563465
1.41794
-1.87622
0.662688
1.5401
-0.505487
0.831043
-7.70934
1.95868
0.0122634
0.248014
3.07895
-1.32906
0.143377
0.977957
2.64515
0.118025
-10.4983
-0.853754
-8.362
0.0891093
2.20371
0.336729
1.26201
2.48003
0.0807372
1.56193
0.958594
2.19823
0.462225
1.54523
0.162786
0.506017
1.84341
1.07391
1.54448
1.1517
1.61429
0.16682
1.35827
-5.50633
0.124158
1.28708
-6.0705
-1.50823
0.675817
0.259637
2.61444
2.61986
-0.642655
0.00536
-0.625406
-0.563441
0.557103
2.18808
-0.0807563
1.34338
1.24063
0.972732
0.0975226
0.224523
2.42566
1.35302
0.753054
0.52963
-1.59923
2.34018
0.162039
-2.64788
0.0541038
-0.224389
-0.547792
1.59558
0.0199215
0.518514
0.0785637
1.34399
-0.497639
1.46289
-0.375992
0.273538
-2.31753
-0.288739
-1.06784
1.71839
-0.13595
1.21977
0.249179
1.36839
1.69035
0.937022
-2.36497
1.85026
-5.23902
0.419366
-0.299523
-6.05007
2.57999
1.87324
1.35276
-6.28925
0.386754
1.33719
-0.575963
0.0897412
-0.626017
1.31726
-0.14998
-0.989194
-0.0577189
-1.72925
0.0819826
1.18269
2.58703
-2.16651
0.601957
1.30175
1.93319
0.115
0.664138
-0.632072
-6.39457
-0.26291
-0.181697
0.108338
1.29714
0.0964673
-5.68013
0.00466404
1.42658
-2.05033
-8.66508
0.16097
0.82847
1.09457
-2.6574
1.68474
1.55012
0.89471
-0.482064
1.16902
-1.76655
-0.978743
-0.158186
-5.51273
1.30273
-0.490257
0.896137
1.35476
-0.458961
-0.46477
0.28788
-0.874247
0.553808
1.34292
-2.93418
1.8781
0.0780256
2.56669
-2.44289
1.72833
-0.534983
-3.36918
-0.9772
-0.559534
1.70906
-5.1787
0.485894
-0.282882
-0.93173
1.23951
-4.00982
-5.31766
1.95456
-3.05778
0.697458
0.835123
-0.871684
-5.88729
1.05838
0.118178
1.50078
0.209605
-0.280001
-0.437623
1.36545
-2.73465
-0.214498
-0.469899
-2.31169
-7.32043
0.00911331
2.07179
-3.65769
1.99438
1.40231
-0.564062
0.799362
-5.52732
-0.555702
-5.67685
-4.02607
0.966378
0.538024
-2.24802
-0.216364
-8.21082
1.33083
1.45963
0.397595
0.600722
1.29283
2.64419
-0.561207
-0.214
2.11727
-0.581081
-0.259227
2.57713
0.0820443
-3.21077
-0.0287823
-1.19647
-4.71571
1.2745
0.544205
0.293872
2.96444
-0.60537
-0.124031
-0.349686
-0.318841
0.198731
-1.66662
-4.17133
-0.458365
1.24578
-0.152164
-0.586135
1.58532
-0.474423
-0.553458
-0.186705
-0.357035
3.00767
-2.95785
-2.15057
1.54224
0.147343
-4.81785
-0.53689
-0.438143
-0.687246
1.97919
-0.483465
-0.550699
-0.458299
-0.206273
1.53644
-9.8542
-0.223494
-8.5394
-8.42419
0.0838761
-0.590718
-7.39964
0.648153
0.380441
-8.64163
1.22906
1.6118
3.03076
-0.211723
1.55169
2.24205
-0.459589
0.10193
-0.757977
0.572606
-0.408349
0.245874
-0.0385396
0.0951879
0.893134
0.53108
-0.562902
-9.37743
2.55971
-1.05028
-0.590312
-0.294028
1.53902
0.8273
0.804798
-2.55054
-2.24975
0.0789444
1.91655
0.525281
0.130537
2.36921
-0.340315
2.24293
-0.600898
-0.552417
-0.273272
-0.399386
-0.638459
-9.10718
2.29981
-2.30714
-2.29987
2.33325
-0.496424
-0.173895
-0.292411
2.53587
-6.39337
2.06974
0.16336
0.0738043
0.17437
-5.64127
0.993628
-0.230274
0.0810251
-0.63447
1.20911
1.7514
-0.583721
0.167552
1.6849
2.48167
-0.597728
1.55247
3.00055
-2.01344
0.863359
-0.366455
1.43518
2.08224
1.79836
-4.9588
1.31207
0.354651
-0.58754
1.21947
-0.153354
1.63702
-0.371074
1.38094
0.798271
-0.348554
0.081046
0.344771
1.36249
1.75139
0.0331451
-0.523636
2.45333
1.55916
1.89549
0.222514
-0.216748
0.0877147
0.0939973
2.38338
2.59237
-3.20454
1.49785
-0.576204
-6.75051
-0.0190226
1.41462
-5.2223
-5.65927
-0.580751
-0.537537
-0.0793721
0.583653
-3.70905
1.44971
1.81223
-5.75779
1.85957
0.0415794
1.43695
-0.938389
-0.465856
0.0904434
2.51025
-0.158654
-0.265649
-0.883531
-6.16656
1.2627
-0.359457
0.681703
2.31003
-0.585041
-0.585812
-3.39022
-0.68808
-5.21004
1.79324
-0.775848
2.56378
2.44729
2.28238
-0.600568
-6.96616
-5.319
-5.29925
0.0468837
-10.3248
-4.98618
-2.87615
-0.59511
1.90406
-5.34145
1.63691
-0.597622
2.25154
1.24184
-7.11441
0.167833
-6.04974
2.87509
0.106475
1.23672
-0.876353
-0.603667
-0.445684
-0.593508
-4.3278
1.80866
-0.206853
-0.257865
-7.14216
-3.96502
0.79949
-0.559932
-0.0599875
0.0594197
0.246683
0.277093
-0.656966
1.77412
2.28159
-5.83326
0.927613
-0.600947
1.68532
-5.42473
-1.19646
0.895167
-0.58687
0.10195
-4.72891
-0.191878
-0.718074
-0.32595
1.5647
1.08136
-4.5784
-0.111478
0.847117
1.22324
0.00139271
0.40546
-0.660571
2.92788
0.93676
1.66332
-0.161576
0.625897
-0.703241
-0.889718
-0.219096
-0.554664
-0.390476
2.36552
2.03405
-0.525202
0.788463
-0.555158
2.1015
0.547455
-3.63514
-1.10725
-3.65291
-5.56853
0.0876059
0.238316
1.48141
-1.37835
-0.126929
-9.70089
1.13088
-0.510156
-8.61931
1.87565
0.711757
2.41387
-0.250096
1.54754
1.85314
1.71681
-0.23627
1.55358
-0.0965407
0.260029
0.279256
-1.65947
0.809359
-8.49269
-0.614054
-0.433059
-0.738195
0.591282
1.33834
0.484549
-6.24669
0.287435
3.04709
-0.545223
1.6424
0.0343668
2.3079
-9.02364
1.34776
-0.401016
-0.625125
2.47788
-0.341427
-4.8363
0.545032
2.56959
1.59527
-0.326072
-0.528639
-1.84597
-9.11304
-2.98046
-9.68412
1.67776
-8.11531
-4.60675
-3.2805
1.04111
0.0377432
-7.35729
-0.637812
-5.67424
0.96062
-0.0447317
1.4693
-0.362294
-7.71077
2.32419
-2.02804
-1.63684
-8.98892
0.313281
-4.28109
-0.887386
-1.0107
-0.0695126
0.0542862
1.22841
-0.627643
-0.571532
-6.7854
0.202864
0.174072
0.285837
0.0969999
-2.0184
1.29815
-0.427688
2.26405
1.80388
0.492461
1.84048
0.554992
1.2292
2.747
1.84578
-0.927123
-0.46062
-0.0485243
-0.455396
-0.553853
-0.590426
1.59756
-4.51272
2.11032
2.19855
1.4154
1.39291
-0.844813
0.69754
-1.95575
0.00764502
2.35379
1.68166
-0.185825
-0.0704272
-2.00079
-0.540022
-0.447978
-6.35246
-1.74506
-0.488423
-0.105753
-0.489494
0.442874
2.4295
1.48214
1.73757
1.55764
1.75541
0.0547348
-0.12294
-0.227655
-8.02013
0.457141
0.136168
1.16852
0.917136
2.51431
-0.594418
-0.5681
0.0436918
1.41927
-0.44989
-0.0592132
-9.11519
2.83942
1.42843
-9.61703
1.37366
-0.4627
-0.82271
1.26394
1.623
0.772942
0.403916
0.575889
-0.447525
-0.0144463
0.152974
2.36549
-1.38716
2.08339
-0.548478
-0.434919
-0.883647
1.16309
1.74863
-0.747797
0.0818008
2.82041
0.417176
1.19214
1.24833
2.59094
0.1175
1.59377
-0.255674
1.63226
0.0873304
-0.0496571
2.11682
2.94429
0.353744
-0.411695
0.00852243
-0.525239
-6.63371
1.52994
0.682736
-2.61845
1.34185
1.80942
1.31812
1.42423
0.167768
1.52917
2.13301
-0.523002
2.67647
1.77321
0.71383
0.028437
-1.18772
0.131619
1.50482
0.274945
1.54981
1.77172
1.37834
-0.655486
-0.626728
1.82347
1.03083
2.03072
-0.185981
1.35641
1.62589
1.02713
1.87223
1.88368
0.0983522
0.161616
1.42601
1.83908
-0.596537
-0.286563
-1.02151
1.82153
0.295459
1.59985
2.60533
-0.597775
2.51768
2.78048
-0.234217
-0.463422
-0.00460764
3.00642
-3.89552
1.75626
2.62083
0.540188
-1.72146
0.745334
1.11301
2.75368
1.0709
1.00624
2.87608
2.05863
0.0959563
2.8547
2.30391
0.138926
-0.535316
-8.43603
0.0276837
0.255759
1.72467
2.27266
-3.9132
-0.00367508
0.845975
0.416483
2.00889
-1.5706
2.46224
-0.742441
-0.959464
1.1987
-2.33342
1.79608
-0.26876
1.16315
-0.573391
2.28005
1.50762
1.46677
1.54355
-0.723632
-0.103038
0.0202135
0.822813
0.91397
2.42134
1.65987
0.0211071
0.966077
0.374806
-0.58905
2.25456
0.140818
1.86782
-0.279676
0.067381
-0.583228
0.259543
0.745835
2.55858
-0.338067
1.0163
-0.578801
-0.374936
2.17652
2.14866
-0.604242
2.12498
0.507268
-0.591253
0.220425
0.870311
2.95676
-0.0879971
-2.98732
1.92303
-0.438516
1.59186
-2.83698
-1.11834
0.14903
-6.42343
-0.753105
0.373746
1.59262
-0.00866801
-0.648358
0.0168434
-0.330177
-2.11674
0.693555
2.45247
1.17106
0.960839
-0.410893
-0.426382
0.243788
1.13318
-0.28118
0.0252764
0.07398
0.00521089
-0.0833838
1.06218
0.462888
0.698262
1.05043
0.932652
-1.61638
-4.9888
0.275028
-0.51689
2.82087
0.922815
0.565498
-0.38299
-0.603423
-0.535532
-0.00966712
-0.549462
-0.99669
-0.154144
-0.481015
1.58971
0.302212
0.0427668
1.71231
-0.800068
-0.741819
2.39995
-1.71008
-1.97492
0.441722
1.41295
-0.523421
0.33358
-0.494
0.135505
-0.491079
-0.24715
1.77235
-0.598342
0.845852
0.0907216
-0.602391
-0.556674
-0.148571
1.26255
0.241394
-0.562735
2.39657
-2.17323
1.51771
-0.778736
-3.0068
-2.31822
-0.223098
-4.4361
1.44376
1.42183
1.50919
-0.119871
-0.772861
2.12701
-0.58803
-2.64849
0.0176981
-0.591395
0.072459
0.192183
2.16157
-3.05913
-5.78536
-0.410991
1.08241
0.89124
-0.871909
0.994239
0.149256
-0.304982
0.462549
0.827655
0.520543
-0.093568
-0.674298
2.25289
-0.0974635
0.060097
0.823072
0.0190019
0.98867
-0.714099
-0.188631
-0.318773
1.08879
0.0667304
0.110471
0.661342
0.0102312
0.180365
-0.383167
1.52413
-0.0294953
-0.329443
1.32787
1.27972
0.10785
0.741146
0.738563
1.45835
1.80295
1.58082
-0.460976
2.47256
1.19014
-1.7526
0.987415
-0.754867
-0.239621
0.0638126
0.640564
-0.705196
2.48652
0.320476
0.407384
-0.418342
0.545699
-0.365503
0.427742
-5.31097
1.17768
-0.376806
1.35415
0.884305
1.44201
-0.830384
1.87509
-0.543561
1.37462
1.49969
0.437499
-0.361268
-0.821029
-0.521248
1.6977
-0.622094
-5.75714
1.67861
0.896168
0.0602959
1.72051
1.21857
-0.504236
2.28711
-1.88254
0.127152
-0.602972
-0.925546
0.0713903
-0.075118
-0.368405
2.5386
0.025732
0.423273
-0.154411
-0.488339
1.49523
1.84761
0.011256
0.0511573
1.33648
-5.11576
1.30053
1.47349
-0.133592
-0.185337
0.949531
-0.0332716
2.57339
-7.16466
1.19059
0.0309005
-1.3576
2.52837
1.58162
0.165368
2.04284
-0.414524
1.85868
1.82466
-0.558562
1.39782
1.30958
1.01891
1.38434
-1.02418
1.50298
-0.0583131
0.66421
0.00710703
-6.13285
1.57779
-1.33178
-7.50622
-0.0694866
-0.0253573
1.03853
-10.5045
1.35035
0.205378
0.674852
1.3825
1.11185
0.233688
0.213236
-0.489402
1.37244
0.736721
-0.640821
-0.58374
-0.429829
1.52953
-0.584243
-0.564195
1.28407
-0.566952
1.80037
0.859067
-0.751941
-5.81451
1.65481
1.82475
-0.229322
1.21136
-10.5789
-0.537093
-6.37178
0.361669
-0.517409
-4.16145
2.74593
0.598145
-10.1972
0.0400989
-0.347317
1.38484
0.777241
-0.596839
-2.92969
-0.583214
-0.43845
-10.156
1.0208
2.26492
-0.279504
-0.635135
0.0503223
-1.39708
1.86635
2.78393
-2.13491
0.958547
1.48365
-2.02534
0.36784
2.48103
-4.00068
-0.535276
1.19166
1.22406
1.07063
-0.449129
0.748313
0.0199458
0.840321
-2.19706
0.0741285
1.5162
-0.179412
0.301581
0.819264
1.36914
0.955247
0.0874727
0.544152
1.49294
1.07344
1.26936
2.58912
-0.857477
2.41375
0.0651521
2.36071
2.92599
-2.15395
0.203639
0.35466
1.37694
-5.54513
0.686532
0.867512
0.0694619
1.54075
2.0997
1.59791
1.64716
0.419181
0.932517
-1.03485
2.84384
-0.539101
-0.362457
-0.566455
-0.502842
-1.16891
1.54382
1.64335
0.728558
1.72014
-2.40334
0.0948043
1.79376
1.3326
-0.111473
-0.237763
0.0123354
-0.0754388
0.367938
1.52238
2.70983
1.36114
1.93165
1.85706
1.56156
2.58825
0.927446
1.38141
0.140328
-0.508998
0.629525
1.07526
1.05348
2.88396
0.312053
0.673563
0.0048691
0.0839083
2.75246
0.843409
-0.211284
-0.801176
1.15385
-0.726749
0.0650493
2.0111
1.4377
1.27122
1.54004
0.15422
2.08042
-6.33321
1.25025
0.257081
0.0626601
-0.284013
2.25184
-0.310843
-0.429123
1.45795
1.34574
-0.379625
1.26533
2.31968
-0.0892364
-0.589048
-0.572933
-5.90466
-0.254695
-0.551519
-0.294596
1.32557
0.446226
0.0659452
1.49808
-0.142058
-0.217132
-0.711034
-3.67801
-0.669377
0.280424
-0.608667
-1.99025
1.36771
1.34408
1.94331
-0.508651
0.572332
-0.283851
1.30772
2.23205
-0.957594
0.0311095
0.0554057
2.34143
1.04981
-0.409837
-0.564676
-5.69391
0.0431553
0.12482
2.4798
0.0599472
0.00549032
0.710454
0.447208
0.0165849
0.743714
0.303198
0.655587
-1.11579
-0.564263
-0.391626
-0.949322
0.0226947
0.581176
-6.99728
1.57101
1.03413
2.65051
0.501764
2.38524
-0.678785
1.61779
-0.284817
-0.237915
-0.458277
2.19111
-0.222566
0.120727
0.206803
-5.49813
-0.551639
0.0168232
0.0606812
0.0785395
-0.0478013
0.0264766
0.238581
0.917202
1.74566
-5.15802
0.172705
0.26946
-0.0489652
-0.333708
1.55585
0.151883
0.737848
-0.0503294
0.071944
2.03602
-0.808344
0.614463
0.00325973
0.0601445
-0.154903
1.99647
-0.855629
0.0535983
0.0401389
-7.79389
-0.29265
0.0286679
2.36711
1.6941
0.0215156
-5.0086
-0.699555
1.42333
0.124149
-0.0633313
0.0105979
0.536643
0.115046
0.0569364
-0.355177
0.00680294
0.61207
-0.320891
1.47844
0.21705
-0.46084
0.130929
0.5471
0.141541
0.139063
1.47407
0.0767894
-0.107899
-0.188285
0.0395694
-0.452467
0.0449088
1.52058
-7.32935
-1.13618
0.132739
0.000113636
-1.94644
-0.219339
0.0350708
0.0227247
2.12436
0.911419
-5.89832
0.0827026
-0.571893
-0.496408
-0.252883
0.0276709
1.45405
0.738024
1.14187
1.41965
-0.0144378
-3.51077
-0.378604
-5.54034
-0.462427
1.62882
-0.00795503
0.492308
-1.21913
1.72507
0.062161
1.52015
0.132857
0.147612
1.90117
0.029507
0.0459281
-1.34801
2.07129
0.0438466
1.29117
1.47415
-0.544633
0.0428273
1.3582
-4.69912
2.02474
-0.210979
1.97121
-0.577506
0.0652139
0.168125
1.50598
1.91619
-1.53213
1.2125
0.588222
0.0334809
2.1948
0.488386
-0.601139
1.37798
0.0573207
0.133998
-0.403925
-0.600064
0.0639476
-0.540836
0.00341311
1.19456
0.964119
0.0565485
0.0669998
0.651173
0.138723
1.40026
-0.351113
0.0218817
-0.616126
-0.28237
0.089348
-0.503209
1.17997
0.139964
0.065115
-8.56811
1.55414
0.0379303
-0.515519
0.0174485
0.422319
2.34276
0.038782
0.009133
1.02656
0.0861955
0.00387373
0.0703567
-2.34774
-0.790868
0.0656518
0.00557799
1.47936
0.00759302
0.0795145
-2.06396
0.0530084
0.0463447
-0.106915
1.4334
-0.0804511
0.0196008
0.316648
-0.517903
0.142148
0.0407122
0.881183
-0.557049
0.188877
0.133699
0.124999
0.0755704
0.0216072
0.0150074
-0.610292
-0.222828
-0.281796
0.352015
0.810385
0.109412
0.673145
0.711016
0.060411
0.0322335
0.722152
-0.376115
0.0281875
-0.244829
0.156945
0.301439
-0.9349
-0.594267
0.0227652
0.270421
0.153504
0.952437
0.736418
0.13504
0.0308385
1.49961
0.0897223
-0.579466
0.0380391
-1.58695
1.92008
1.39037
0.164005
0.0513007
0.0622837
0.109237
0.0480581
0.0740012
-0.544446
0.141534
1.3808
0.255608
0.060555
1.38413
0.12472
2.19203
0.0629122
0.207486
0.222566
0.0380416
2.03952
0.0518964
0.0523471
-0.475931
0.0521176
0.899784
0.544259
0.0771755
1.46155
0.11766
1.09463
1.89293
0.759661
0.779359
0.0713151
0.846327
0.0868796
0.0153815
-1.76486
-0.540973
0.0802194
1.81426
0.53797
1.31963
0.738684
0.0036215
0.0664613
0.0845398
-0.340203
0.995396
-0.505275
0.0497372
0.00525401
0.0532117
0.0191876
-0.0787503
-0.598853
2.39129
-0.574499
-1.49767
2.2369
0.189585
0.0538698
0.0516663
0.0618746
1.28419
0.0650376
0.0608209
-5.81663
-0.481839
-0.0495243
1.44397
0.0779651
0.0628559
-0.907271
0.00842501
0.142606
0.0843974
0.0596397
0.0852114
1.42974
-0.710612
-0.446687
0.585498
0.0203599
-6.06748
0.122632
-0.602745
0.0213403
1.53372
-6.66317
1.80635
0.000933629
0.0891949
-2.99535
0.0326518
-0.00130121
0.0281825
-0.599908
-0.414
2.26952
-0.540865
-2.45512
0.00585291
-1.64692
0.0454431
0.103577
-3.86779
0.0155062
0.0253776
-0.00752803
0.0709969
0.0593869
1.75765
0.34508
0.013666
0.130936
0.0600175
-0.754045
0.115645
-2.60657
0.0896644
0.0209792
1.66904
0.127859
1.42749
0.0666253
0.0873359
0.0247367
0.00909534
0.0247057
-5.63179
-0.660779
0.0966354
0.81431
1.23388
0.572228
0.0448381
0.0470474
0.035527
1.66183
0.0474148
0.304346
0.884043
0.0275292
0.0647283
0.0651679
0.0295822
0.034942
0.0927505
1.43668
0.00866967
1.08228
0.0745259
1.49275
0.0660772
0.911714
0.0176668
0.0604738
-2.56629
0.0690772
0.0592927
-0.0700465
0.120732
1.07166
0.0291752
0.374251
0.0671912
0.0457125
0.280477
0.0667465
0.0729619
-0.811596
-2.3671
0.0566286
1.81811
1.27174
0.0439302
0.0561896
-0.506332
0.0264699
0.340341
0.068689
0.0576029
2.02507
-0.429335
0.0624103
0.0330814
-4.56684
1.44065
0.125828
0.0719522
0.0295449
-8.052
0.214296
0.0483552
-0.927872
0.588677
0.995562
0.0722964
-0.0381081
0.158109
1.36259
0.0732882
0.0286103
0.0679138
0.159163
-0.434473
0.0853376
0.0771097
0.0526902
0.0948993
0.0280681
0.085275
0.0145371
0.109564
-0.0605268
0.0899328
0.0533146
0.121499
2.66281
0.0412957
0.187944
0.018231
0.127432
0.567872
0.0710094
0.13218
0.246143
0.0555125
0.0317429
0.00403258
0.0271398
1.37518
0.0152122
0.0486885
0.144431
0.0299988
0.0298894
0.165733
0.062428
1.63935
0.0510101
-0.57504
1.17098
0.0298452
0.0395028
0.038348
0.136479
-2.21361
-0.080986
0.279167
0.0538952
0.179291
0.0186281
-0.674704
1.56022
1.63532
0.034466
0.0863131
0.0920299
0.0325465
1.35462
0.0192765
0.0596596
1.46913
0.0479287
1.45877
0.0663994
0.047754
0.15302
0.0572775
0.0190739
1.75991
0.0743181
0.00464389
-0.10857
-0.0702438
1.39332
2.06802
0.0119719
-0.0418183
0.0489985
0.036966
0.00196134
1.45292
-1.39637
0.00245868
0.0410063
0.130133
0.0229382
0.047718
0.0660363
-1.68822
0.00423249
0.0332686
-0.688277
1.40748
-3.64817
0.0445474
0.0650105
0.906578
0.912874
0.0269578
0.00519234
-9.96314
-1.06628
0.0144546
0.0453804
0.0082443
0.0426902
0.00466414
-5.44109
0.019872
0.183574
0.036891
1.43749
0.0228519
0.0799994
0.0508695
-0.387301
0.0232005
1.36875
0.178434
1.67822
0.144648
-0.531142
0.0443614
0.0853323
0.0539124
0.0620762
0.0954562
0.0252112
0.0303362
0.0932249
0.0351541
0.0405336
0.035064
0.0443462
0.063432
0.0480028
1.47698
0.0244248
-0.115495
1.73964
0.0300231
0.122918
-0.396078
0.48009
0.0385778
-0.439278
0.0376481
0.0391566
-8.06327
0.108227
0.0391354
-0.385202
0.0461916
0.11751
-0.217228
0.0198599
-1.05963
0.0312528
0.0492026
-0.499439
-0.217366
0.0358461
0.0357091
0.0498515
0.211958
0.114998
0.0772092
0.277073
0.019566
0.0234104
0.0502862
-0.334191
0.0144034
0.00939349
0.0447228
0.0397872
0.0694565
0.0508253
0.0440551
-0.509219
2.3376
0.0468206
0.0365764
0.0456558
-0.423218
1.61642
0.0713976
0.205453
0.00360329
1.64431
0.0373668
0.489597
0.128928
0.00754301
0.027406
0.152253
-5.62112
0.0927483
0.316364
1.26991
0.038279
-0.00662677
0.0329109
1.64438
0.0484462
0.0196191
0.0441717
0.0372718
1.15497
0.0693377
0.0406591
0.0189617
0.037666
0.0419327
0.0351732
0.635692
-0.433574
1.89997
-0.000215975
-0.52733
-0.0305791
2.38856
1.00517
0.0299168
0.0370266
0.0583665
0.0750824
1.32279
-0.0384964
0.0643079
0.0665952
-0.717462
0.0479732
0.0739307
0.0429131
2.9205
0.871752
1.317
0.047957
1.45481
0.0509361
-0.580588
-0.630852
1.8984
-0.576439
-0.589371
0.0311822
1.09184
0.00130932
0.0386145
-0.129106
0.00865402
-1.55817
-0.0624337
-0.544495
0.0397717
1.5119
0.0637548
0.280808
0.0359387
0.0407356
0.0659719
1.46964
0.0339389
-0.707632
0.0652568
-5.53883
0.00410295
0.0661455
0.0628675
2.38801
-0.575184
-0.0224423
0.0715086
0.0331888
0.0579886
0.932692
1.42487
0.0547694
0.0600056
-6.59193
0.0592273
0.711793
2.66087
0.7264
0.259905
0.0964759
0.0852187
0.038607
0.398333
0.0510444
0.0724612
0.035118
0.501232
1.38399
1.3337
-0.877174
0.945484
0.0661902
0.192032
-1.34601
0.139451
0.0608729
1.57896
0.0890356
-5.03014
0.0362518
2.29337
-0.248683
0.0146766
0.092743
-0.473517
0.0988127
-5.10942
2.43541
0.103157
-0.274242
-3.56136
0.0767517
0.11564
-0.620679
-0.0795618
0.0312639
-0.757077
-1.20553
1.43324
0.0551908
0.19359
0.063712
0.8125
0.081347
-1.72267
0.0392611
-0.257495
2.78088
0.0305278
-2.47888
2.49356
0.0065116
0.119758
0.0942128
0.0149081
1.54387
-1.06016
1.34616
1.41371
0.100402
0.0830447
1.44156
0.655986
0.143633
-0.811591
-0.607212
-0.455053
1.54492
0.043723
-0.296815
-10.2293
0.282023
-0.165797
0.0604684
0.0838833
1.3953
0.0960151
0.0573885
-6.43111
0.0367675
0.0343924
0.0668991
-9.43754
-0.642814
0.182086
0.0511629
0.144725
-0.244941
0.095654
2.67282
0.0969194
-1.30337
0.478158
0.0290399
1.51341
0.0498403
1.40354
0.076007
1.29286
-6.66834
0.13049
2.13059
-0.274645
-0.467171
1.64196
-0.365488
0.0484089
0.0123788
1.46569
1.5719
0.0625201
1.62712
2.45318
0.903084
1.6702
-2.26097
0.0505301
2.21958
-7.03856
0.349946
0.103119
1.38738
-1.91555
1.68446
1.60727
1.75863
-0.314986
0.0419395
-0.793947
0.0388384
0.146646
-0.582584
-0.565909
0.0472804
0.0388745
-0.552822
0.12076
-0.0954455
0.191831
1.82605
1.97208
1.89232
0.116441
1.00337
0.00137684
0.348281
0.12519
0.12272
2.59998
0.0205608
0.113919
0.192899
-8.88599
2.06316
0.0997207
-0.141333
-6.75374
0.197227
-0.214245
-0.37468
-0.570084
1.11732
0.068716
1.13939
1.54179
-0.838298
-0.363141
0.25026
1.52468
-0.9831
0.0103921
0.0307415
0.00274108
1.21154
-0.0989356
0.0691914
2.94255
2.08332
0.0500988
0.128076
-7.40763
2.36525
1.30326
-0.405152
2.63912
0.0308504
1.39081
0.435762
2.39425
0.224919
-0.993036
0.787584
-10.0983
0.0162532
0.0880143
0.205195
-0.600752
2.49096
0.178155
0.0655556
0.151403
0.246736
0.90734
2.76642
0.0985672
0.0868986
0.111779
1.0547
-0.0208052
-0.122382
0.12817
1.32569
0.111425
0.0190539
-0.4086
0.243503
0.314872
1.32403
0.108967
2.43026
0.0934249
0.023538
1.48252
0.0312041
0.0136947
0.178
-0.688568
0.727985
0.0255311
0.551451
-0.800783
0.0412397
1.21751
-0.499066
0.0362307
0.218991
0.0883135
0.0731832
1.22102
0.119501
0.109001
0.0178033
-0.275264
0.0290518
-0.0854335
-5.94418
0.0801451
0.645557
0.17116
0.101008
0.298517
0.0946594
-0.981272
0.066111
1.44566
-0.0888161
0.0240221
0.214505
-0.0431188
2.14846
0.0797618
0.539908
0.14324
2.92705
2.66638
0.108707
-0.58025
-6.61441
0.00485661
1.20107
1.46693
1.40906
0.058205
0.022318
0.216049
2.30114
0.238711
-0.205712
0.39411
-0.330081
0.241489
0.110027
1.20968
2.26581
0.106178
-0.378679
0.042663
1.13076
1.93616
-0.242253
0.410918
-0.824728
2.72577
0.00928057
0.0989973
1.0513
0.173716
0.0234513
0.0259411
1.4341
0.0153878
0.0132826
-0.378206
-4.73438
0.0604621
0.00534119
2.22463
0.639474
1.71663
-0.0118385
-0.593726
2.85179
0.0618815
0.186016
0.517317
-0.0762753
1.17113
1.23922
1.50453
0.00516472
-0.52449
-0.131461
1.40486
-0.139681
0.0175183
0.118418
1.45198
-0.0481151
0.0315795
0.0864769
0.335505
-0.023968
0.0218207
0.168712
0.0930182
-0.107164
0.00112052
1.06594
2.22033
-0.173652
1.60292
1.26627
-1.06798
0.0250328
-0.88162
1.48165
-0.307854
0.147145
0.164503
0.0607144
0.0499877
0.118721
2.88909
0.00927239
1.52183
0.995439
0.0204027
0.0919147
-0.401392
0.0720005
0.358664
-0.331613
0.090637
0.954424
0.056205
-0.0791673
1.70801
-0.0679096
0.330901
0.237833
-1.14372
0.209078
0.612712
0.140699
1.09131
0.230254
-0.458329
2.08387
1.79362
-0.0749063
1.2404
0.0184188
0.629793
1.35729
1.48034
-0.264762
-0.432687
-4.38278
0.0477135
1.42323
-0.60391
1.99836
0.0279089
0.735778
-0.565604
-5.64791
1.41288
-0.0866042
1.44307
0.24995
0.229975
0.219768
0.187226
-0.366542
1.17127
0.391845
1.41495
0.247788
1.93026
2.09612
0.0864757
1.82109
0.232785
0.00210817
0.555906
2.04928
0.674327
-1.26789
1.53481
0.114892
0.155514
1.99954
1.35676
1.94416
0.0297919
0.0174358
0.208466
-1.9209
0.0548761
-1.19259
1.24025
-0.63232
1.60169
-0.00940464
-0.139762
1.23653
1.53623
0.225444
1.45581
0.0363774
-0.539636
-0.148135
0.0726353
-5.74715
0.8188
0.809683
-0.61202
-0.116538
0.344725
0.00887896
0.983872
2.02758
2.18346
0.581953
0.395985
0.00899866
0.376184
1.30221
0.0196662
1.73557
-0.337382
0.102674
-0.156358
-0.123233
0.927042
1.44427
1.74881
1.12738
0.041976
0.0742884
1.4053
1.43586
1.53725
0.157577
1.80489
0.687689
1.46665
0.966299
0.221099
0.189392
1.50309
1.32209
-0.689014
1.47682
-0.0144751
0.140157
1.11575
-0.112218
-0.467642
2.38476
1.76747
0.179946
1.413
0.450459
0.88888
0.211554
0.20922
0.0435949
0.0388823
-0.0925986
-1.36566
0.32458
-0.183114
0.0171801
1.382
2.0352
0.232264
1.43978
0.252011
3.11567
-1.83073
1.69033
0.227125
-6.16019
-0.601513
3.11842
0.296485
0.00503199
3.0816
0.0766788
-6.93491
1.42648
3.04406
-0.106037
2.99002
0.791065
0.212783
-0.538321
2.88688
0.00805514
0.0525022
-8.50843
0.198612
0.169203
1.67796
2.73515
0.0125472
0.5037
1.76274
-0.1561
1.50151
1.2247
0.0988035
-0.496481
-5.13775
2.683
0.415081
-0.50448
0.294264
0.20349
2.63892
1.06463
-0.0352734
-0.523851
2.58998
-0.916744
-0.535308
2.54249
1.71033
-0.544255
-2.0195
-0.55947
0.636355
1.73846
-0.554995
2.4759
1.44077
0.151932
-0.555887
1.96677
0.165257
0.426056
-0.241411
-0.602873
1.32004
1.40621
-0.423087
1.47329
-0.892444
-0.671424
-4.48174
2.34445
0.918974
1.25501
-0.300665
-0.587854
-0.593813
-0.599914
-0.605335
-0.610721
-0.598017
-0.08586
-0.591143
-0.569194
1.83016
2.30387
0.901328
0.75214
0.331491
1.06765
-0.562113
2.27591
0.00156867
-0.548564
1.84229
-5.31023
-0.537141
0.159166
2.18798
1.28039
0.877149
0.361975
1.42875
-1.45405
-0.535207
2.15888
-0.517602
0.192165
0.288128
-0.937985
1.36654
2.12004
0.0306567
1.83635
0.0972203
1.15186
-0.546961
-0.145213
-0.135548
2.08195
-0.203988
-5.74411
2.04434
-0.0990706
-0.822721
-0.151299
-0.689105
2.0134
1.45311
0.465298
1.43046
0.149327
0.0451183
0.0287609
-0.837691
-0.578263
1.96984
0.520246
0.0720344
1.47755
0.637769
-0.627347
-0.146941
-1.05757
1.94004
-0.578779
1.46175
0.0772538
-0.00993997
-1.35675
1.90216
0.596217
-0.72002
1.85703
-1.74582
0.037565
-0.104167
-5.6423
-0.137205
1.83013
-2.23577
1.77141
-2.82471
-0.425435
0.89738
0.00350564
0.76105
0.0395913
1.73063
-3.58639
0.78468
2.28187
1.48254
-4.27723
-0.494421
1.69895
-0.337589
-0.509369
1.21531
-5.07128
1.42568
1.66856
0.0342756
-0.0746139
-1.93696
1.43024
1.00315
0.175699
0.0579126
-5.83595
-5.64484
1.61799
0.315227
-1.79432
0.360294
-1.84532
-3.79068
0.0649127
0.67951
1.58211
2.01427
1.45615
2.17743
1.51351
-7.10797
0.887505
-0.0191654
-0.5488
0.697961
0.0253195
0.157899
0.805872
1.18989
0.0332183
-7.49988
-0.576844
1.50445
-0.523988
-0.298024
1.76344
1.16888
-0.113791
2.5398
-0.724005
0.341928
0.339782
-7.68026
0.095615
-1.54517
1.45228
1.73116
1.57088
0.93569
-7.66667
1.40117
1.33789
1.30568
1.24107
1.19711
1.12561
-5.13543
1.35768
1.07281
1.59793
0.959598
-1.12412
2.07608
-7.51697
-0.575932
-1.21526
1.09098
-6.79265
1.97144
-7.28827
0.217628
-7.06144
-0.638469
-6.7847
1.39082
-0.719462
-0.187174
-6.59889
-5.29067
-0.396547
1.4486
-1.68533
-6.11848
1.5493
1.52903
-0.295158
-0.67288
1.62684
0.296647
-0.976634
-0.215959
0.478948
1.30492
-2.51025
0.13329
-0.438648
1.60773
-0.487255
-1.50693
-0.586446
0.667616
1.4464
-0.507859
-5.96918
0.658387
1.66813
1.11579
-8.22692
1.45777
0.606336
1.18569
-0.100003
1.46053
-0.198642
0.013234
-0.0206245
0.623826
-2.86663
2.17523
-0.0575725
0.0819322
-0.0730005
-5.86368
1.90134
1.56038
1.28077
1.44593
0.316453
-0.0205765
0.223158
-1.43748
0.604898
-0.820936
0.0470593
1.02925
-4.30388
0.302249
2.70474
0.0247832
0.755273
0.782181
-0.627546
0.135689
1.05182
0.179647
0.685242
1.2323
1.40094
1.51608
1.47198
-0.0172331
1.68655
-5.73403
0.119347
0.361956
-0.394474
-0.255039
0.0245935
1.68369
-0.608338
1.43602
-1.4015
-0.783698
0.360173
-2.45277
0.264447
-0.456104
0.333624
1.57905
0.188993
-0.149789
0.100806
0.291107
0.147642
-0.375362
0.0395465
1.46137
-0.239046
-0.449271
1.10559
-0.451824
1.10915
-0.468164
0.168211
0.16243
0.149861
-0.0191706
-0.606384
-0.230382
0.0621576
0.0667393
0.809247
2.20564
0.939873
-4.91521
1.44323
-0.312547
1.07444
0.0605109
0.0718049
1.20482
-1.14608
0.0417947
-1.1348
-0.61214
-0.693117
1.46695
-0.010742
1.76258
0.274646
0.0126199
2.29449
2.16562
-0.362915
0.551141
-0.303549
-0.355522
1.62706
-1.01919
-0.773375
-3.80662
0.0341418
-3.12483
0.383012
0.834694
-0.389708
0.014403
0.15045
1.38661
-0.644336