/*--------------------------------*- C++ -*----------------------------------*\
| =========                 |                                                 |
| \\      /  F ield         | OpenFOAM: The Open Source CFD Toolbox           |
|  \\    /   O peration     | Version:  2306                                  |
|   \\  /    A nd           | Website:  www.openfoam.com                      |
|    \\/     M anipulation  |                                                 |
\*---------------------------------------------------------------------------*/
FoamFile
{
    version     2.0;
    format      ascii;
    arch        "LSB;label=32;scalar=64";
    class       volVectorField;
    location    "2.3";
    object      U;
}
// * * * * * * * * * * * * * * * * * * * * * * * * * * * * * * * * * * * * * //

dimensions      [0 1 -1 0 0 0 0];

internalField   nonuniform List<vector> 
5098
(
(2.61115 0.693967 0)
(2.16625 0.136602 -2.21995e-20)
(2.06063 0.00560332 -2.95391e-21)
(1.63776 -0.73757 6.89734e-19)
(1.85395 -0.304387 0)
(0.961044 -0.466092 0)
(2.29453 0.0201159 1.77352e-20)
(2.1843 -0.0721405 7.38557e-22)
(2.27276 -0.010421 -5.39793e-20)
(2.75085 -0.307305 -1.14277e-19)
(1.55135 -0.763268 0)
(2.3854 -0.0318468 1.61828e-19)
(2.61428 -0.428367 -6.75358e-21)
(1.02826 -0.505366 0)
(1.8971 -0.0612974 3.22785e-20)
(2.02127 -0.0225252 7.66767e-22)
(1.30235 -0.693708 -8.06815e-20)
(1.61297 -0.760844 0)
(-0.759091 0.0349903 5.86867e-19)
(1.1951 -0.629929 9.10683e-20)
(1.88875 0.485474 -6.87054e-20)
(1.95392 0.0068184 2.56344e-21)
(2.19989 -0.844452 0)
(0.912624 -0.0915786 2.69033e-20)
(0.855096 -0.393005 0)
(1.58355 -0.651666 0)
(1.97527 0.0522015 1.16405e-19)
(1.94583 -0.822454 1.78757e-19)
(-0.40093 0.20209 -1.76639e-18)
(1.84497 -0.806775 0)
(2.42742 -0.0878253 -9.5502e-20)
(0.801784 -0.393769 0)
(1.93163 0.123247 -1.24839e-19)
(1.4106 -0.770315 0)
(2.39199 0.214171 -3.07451e-20)
(2.94987 -0.518145 1.02116e-18)
(1.95483 -0.482799 1.33671e-19)
(2.05459 0.0273523 -2.57097e-21)
(1.43087 -0.495416 5.08314e-19)
(1.50878 -0.697731 0)
(1.64973 -0.752178 -3.24177e-19)
(1.72577 -1.00097 -1.91551e-19)
(1.59888 -0.657792 0)
(2.32207 0.282835 6.57882e-20)
(2.40661 0.376128 3.74008e-20)
(2.14413 0.0620688 6.22651e-21)
(1.37045 -0.71522 2.99093e-20)
(1.20158 -0.430228 0)
(2.45043 -0.12943 0)
(1.64252 -0.707825 7.35488e-20)
(2.32279 0.08552 4.56673e-20)
(1.65074 0.383838 -4.20143e-19)
(0.224462 -0.255293 -5.36686e-21)
(2.02891 -0.0613008 1.62507e-19)
(1.02635 -0.514539 -3.08482e-19)
(1.63698 0.0221278 0)
(1.8233 0.244529 -2.28572e-19)
(1.73613 -0.722255 0)
(0.949177 -0.471659 0)
(1.95391 0.0475457 2.19944e-21)
(1.865 0.212839 -3.37012e-20)
(0.710684 -0.35879 -1.00009e-19)
(2.49244 0.288406 0)
(2.61302 -0.431915 0)
(0.17412 -0.318569 3.02644e-19)
(0.889943 -0.448972 3.8743e-19)
(1.94114 -0.0283601 9.15194e-21)
(2.13814 0.159131 8.10943e-21)
(2.16964 -0.264737 1.59628e-19)
(1.77085 -0.752913 2.14318e-19)
(1.92372 0.212353 1.59151e-20)
(1.11412 0.0706783 -1.63078e-20)
(2.02195 -0.836874 0)
(1.47142 -0.699338 0)
(1.93841 0.140979 -1.5372e-20)
(1.20973 -0.591894 -3.52523e-19)
(1.99384 0.0282792 0)
(1.59964 0.104796 3.92941e-19)
(2.66029 0.183724 1.85959e-20)
(1.67926 0.0690445 0)
(1.76018 0.00756348 0)
(2.19939 -1.04844 1.85724e-19)
(1.76574 -0.357015 4.77048e-19)
(1.4719 -0.745799 -1.32991e-20)
(1.58791 -0.75426 5.36846e-20)
(1.66881 -0.732999 1.4397e-19)
(0.196182 0.140957 -2.5379e-19)
(1.99641 0.0387256 4.0773e-21)
(2.31053 -0.171594 3.28032e-20)
(1.87683 0.281853 -2.10326e-20)
(2.35589 -0.2756 -6.92191e-21)
(-2.15946 0.962302 1.04882e-18)
(2.23449 0.00959032 -1.98894e-19)
(1.6584 -0.724591 -3.67786e-19)
(1.42028 -0.521677 8.96914e-20)
(0.698968 -0.085703 2.59112e-19)
(1.12959 -0.565375 -2.94169e-19)
(1.54908 0.220279 2.91749e-19)
(1.85947 0.0907749 -6.61115e-21)
(2.13232 -0.513401 -1.07626e-19)
(1.72859 -0.564333 -4.03127e-20)
(1.0861 -0.535619 -3.65899e-19)
(0.144941 -0.090702 -2.77227e-20)
(2.06549 0.0666799 -2.21812e-20)
(1.61091 0.101267 -4.46637e-19)
(2.47017 0.901315 0)
(1.90418 0.262607 2.4068e-19)
(2.11748 0.0768142 1.13777e-20)
(1.14921 -0.477675 6.96599e-20)
(1.56655 -0.779406 0)
(1.13294 -0.545367 -7.90398e-19)
(2.33349 0.69838 8.54893e-19)
(1.89347 -0.056677 -2.33287e-19)
(-1.5882 0.0204661 1.52075e-19)
(1.87015 0.588604 9.53867e-20)
(-0.475314 0.617605 0)
(2.0925 -1.0087 3.05865e-19)
(2.78823 1.11361 0)
(1.98642 0.0781519 1.78736e-20)
(0.94746 -0.127768 -4.12977e-19)
(1.72423 0.334266 3.45044e-19)
(1.69189 1.71792 -1.26368e-19)
(2.72795 -0.150257 7.58746e-20)
(1.50016 -1.28133 -1.64921e-19)
(-1.83679 0.394277 -1.6982e-18)
(0.69318 -0.35606 1.00257e-20)
(2.12181 -0.116192 1.41365e-19)
(2.18235 -0.808247 -2.02296e-19)
(1.43738 -0.199194 -1.07132e-19)
(-1.66803 0.133503 -3.62865e-19)
(1.36022 -0.873497 -1.11524e-19)
(1.23827 -0.560816 -5.11838e-19)
(1.26264 -0.558699 4.28435e-19)
(2.66124 1.19584 -1.31402e-19)
(1.5467 -0.520939 -1.13938e-19)
(2.13981 -0.45136 1.39528e-19)
(2.11623 2.23527 4.67631e-19)
(1.92505 0.265426 1.65129e-19)
(0.948839 -0.46798 0)
(2.06531 -0.0583525 -5.21506e-19)
(1.61916 0.480399 -2.78746e-19)
(1.47381 -0.349139 6.4284e-20)
(1.86998 -0.847137 3.38951e-19)
(2.2774 0.0433727 -1.4237e-20)
(2.04506 0.00568032 -4.23868e-20)
(2.06238 0.0793152 0)
(2.19495 -0.275122 1.64765e-19)
(1.75953 -0.302613 0)
(2.38758 -0.131149 2.24896e-19)
(1.7705 -0.809475 1.24866e-19)
(1.87431 -0.824419 -9.72593e-20)
(3.18359 0.309476 0)
(1.73651 -0.330874 3.16905e-20)
(1.96885 0.0410866 0)
(0.18281 0.0691775 -3.14453e-19)
(0.929108 -0.368988 -1.71315e-19)
(1.73599 -0.713537 -3.84788e-19)
(1.70084 -0.529949 -2.7433e-20)
(1.59946 -0.747269 -2.6558e-19)
(-0.0772468 -0.096205 1.8428e-18)
(2.02591 -0.449576 -3.61502e-19)
(1.91856 -0.0850666 -4.70877e-20)
(3.05302 0.417076 -5.73241e-19)
(1.8413 -0.20286 -2.91004e-19)
(1.57776 -0.732788 -5.29606e-20)
(2.49778 -0.0503081 -8.93974e-20)
(1.7786 -0.307205 -1.14251e-19)
(2.45162 -0.588827 0)
(1.13942 -0.524168 6.69713e-20)
(1.76315 -0.602386 -4.21852e-19)
(0.672207 -0.0180878 -1.86201e-19)
(1.65074 -0.683979 -2.50666e-19)
(2.20067 0.51153 8.07623e-20)
(1.93989 -0.793056 3.18737e-19)
(2.39927 -0.0553802 0)
(1.95359 0.0231349 0)
(1.80357 -0.350006 -1.83532e-19)
(2.89278 -0.425688 -5.18364e-20)
(1.77055 -0.176923 4.05839e-19)
(0.377795 0.00551402 0)
(2.03913 2.39683 0)
(2.1568 -0.867882 -2.66511e-19)
(1.83901 -0.587715 5.17716e-19)
(1.56097 -0.725886 0)
(1.86369 -0.197261 0)
(2.69126 0.473627 5.07949e-19)
(1.60887 0.231125 0)
(1.94758 -0.452506 4.59704e-19)
(1.06296 -0.519693 6.84069e-19)
(0.44366 -1.94147 -2.35203e-19)
(2.74099 0.908589 0)
(1.68892 -0.46371 4.68775e-20)
(2.04338 -0.852342 0)
(1.84731 0.0179623 -7.2985e-21)
(2.48262 -0.0214761 1.00144e-20)
(-1.93338 0.676764 -9.00667e-19)
(2.42897 -0.932522 2.12996e-19)
(2.14832 -0.532326 0)
(2.0644 0.0194723 -2.51695e-21)
(1.78736 -0.583408 -7.65346e-20)
(1.3213 -0.823231 -1.88347e-19)
(1.74826 0.260187 5.24462e-21)
(2.40983 0.439889 3.54868e-21)
(2.14476 -0.002015 4.65138e-21)
(1.70445 0.0156726 1.86509e-19)
(0.897236 -0.374858 -1.22595e-19)
(2.45823 0.0789201 -1.03651e-20)
(1.29486 -0.604826 0)
(2.27936 -0.126402 0)
(1.37547 -0.665164 -3.47312e-19)
(2.00343 -0.229671 -1.49178e-19)
(1.75492 0.210619 2.78725e-19)
(1.89653 -0.396911 -4.85091e-20)
(2.15598 0.0119501 -1.55909e-19)
(2.03078 -0.0348735 -1.01151e-19)
(1.34231 0.190723 -4.59281e-19)
(1.90814 0.0742336 0)
(1.58223 -0.77257 -1.02072e-19)
(-2.01204 0.854446 2.29702e-19)
(2.07341 0.0741717 1.13211e-19)
(2.38368 -0.21645 -2.56868e-20)
(1.66788 -0.368601 0)
(2.04709 0.0465873 1.872e-20)
(2.3902 -0.278545 1.31961e-19)
(-1.11208 0.0782044 1.13224e-19)
(2.06397 -0.183843 0)
(0.490539 -0.150302 0)
(1.93371 0.0703396 0)
(2.09807 -0.524411 0)
(1.87515 -0.739666 9.67783e-22)
(1.85528 0.382089 0)
(0.690796 -0.299689 -4.4959e-19)
(2.36573 -0.887382 -2.08689e-19)
(1.92936 0.0447554 1.81038e-22)
(2.42075 0.119129 -6.22499e-20)
(2.21386 0.130506 0)
(1.59217 1.27389 -1.58354e-19)
(0.888107 -1.32584 -4.34234e-19)
(2.4081 -0.477718 0)
(1.84722 -0.0478567 2.88895e-19)
(2.09798 -1.20157 -6.14795e-19)
(2.2599 0.456388 0)
(2.05895 0.0212702 0)
(1.15167 -0.304461 7.51099e-19)
(1.82501 0.456198 -3.55076e-19)
(2.28892 -0.0542851 -1.80832e-19)
(1.15334 -0.55575 8.2614e-20)
(1.57482 -0.765299 -7.70238e-20)
(1.4488 -0.763446 0)
(2.29083 -0.0032284 4.55898e-20)
(2.16282 0.626893 -4.26433e-20)
(1.95469 -0.82048 3.27888e-19)
(-1.5641 1.89168 9.75021e-19)
(1.09184 -1.03433 1.2748e-19)
(1.98227 -0.00092066 -2.17532e-19)
(0.868464 -1.49655 4.29196e-19)
(1.57722 -0.484067 9.89579e-20)
(1.47587 -0.601386 7.15694e-20)
(1.22965 -0.448784 -3.1485e-19)
(1.93602 0.0708279 -1.20389e-20)
(2.6947 0.400694 7.04501e-20)
(-0.101106 -0.31576 1.90614e-19)
(0.8148 -0.367542 9.99137e-20)
(1.97666 -0.85143 0)
(2.00485 -0.0111666 -1.06796e-21)
(1.14938 -0.56797 3.60196e-20)
(0.0498067 -0.0995586 -2.16861e-18)
(1.5538 -0.749608 0)
(1.08276 -0.0191157 0)
(1.865 -0.0345628 -2.65112e-20)
(0.470615 -1.67025 2.92269e-19)
(1.97928 0.0616478 -1.71851e-20)
(0.0396555 -0.218284 -9.75139e-19)
(1.86576 0.639454 0)
(1.24394 -0.513245 2.41525e-21)
(0.566265 -0.351556 1.86677e-21)
(1.70303 -0.955221 -1.69226e-19)
(1.92461 -0.75524 0)
(2.3481 -0.743145 0)
(2.00346 -0.141577 0)
(1.38863 -0.820962 -6.63896e-20)
(2.11547 -0.0055987 7.28945e-20)
(-0.907557 -0.116348 -4.42414e-19)
(2.07821 -0.0667522 -8.10569e-20)
(2.22735 -0.577276 -6.03425e-20)
(1.19821 -0.741447 0)
(1.91404 0.00549664 0)
(2.05712 0.0724707 -4.93589e-20)
(2.46896 0.0167278 7.18553e-20)
(1.96584 -0.0529122 -2.47452e-19)
(1.64335 -1.2857 0)
(0.432398 0.0132086 1.37425e-18)
(1.13441 -0.104833 -2.20196e-19)
(2.42662 0.281603 3.87379e-20)
(2.03665 -0.646093 3.43106e-19)
(2.34577 -0.259819 3.24215e-20)
(2.40898 0.0982146 0)
(2.45707 -0.0295458 -8.32542e-20)
(2.04958 0.0119575 0)
(2.04707 -0.0853924 -1.31882e-19)
(2.02796 0.0615062 3.95101e-20)
(2.30243 -0.115188 7.46762e-20)
(1.66944 -0.453692 4.91772e-19)
(1.92544 0.378636 1.96975e-19)
(0.994253 -0.497656 -5.73343e-20)
(1.87021 -0.763528 -2.03401e-19)
(2.65293 1.66433 -1.51683e-19)
(2.10903 -0.0415602 0)
(1.89165 -0.460041 0)
(1.4503 -0.750512 0)
(2.33219 -0.259338 3.41343e-20)
(-1.00307 1.75914 1.07168e-19)
(0.88218 -0.438773 4.05102e-19)
(1.92341 0.0567299 4.32501e-21)
(2.63581 -0.415705 -2.72438e-20)
(0.251723 -0.00200399 6.18592e-19)
(1.97877 2.15776 -4.78423e-20)
(2.02916 -0.0424055 -1.64439e-20)
(2.23669 -0.146511 4.92742e-19)
(0.980116 -0.42231 0)
(2.64363 0.177964 -2.79655e-20)
(0.26046 0.716511 -2.83773e-18)
(2.45522 -0.371254 -2.59902e-19)
(-2.29769 1.32002 -9.92582e-21)
(1.95871 0.0330622 -7.55788e-21)
(1.41123 -0.470151 3.42359e-19)
(2.18135 0.632889 0)
(2.00481 0.145157 -8.41197e-20)
(1.15668 -0.483039 -7.36062e-19)
(1.99094 0.06468 -1.6624e-20)
(1.36295 -0.659476 0)
(2.20943 -0.153431 -1.43684e-19)
(1.1112 -0.540891 2.29836e-19)
(2.39052 -0.741646 -8.21662e-20)
(1.79641 -0.757684 -2.8961e-19)
(2.29429 0.110722 -4.0136e-20)
(2.49794 -0.328684 8.66151e-21)
(1.01513 -0.502335 4.46138e-19)
(2.15976 -0.09283 1.91995e-19)
(1.87745 -0.400728 0)
(1.88655 -0.855415 -3.20744e-19)
(1.75567 -0.754144 -8.76108e-19)
(2.64665 0.0982609 1.19015e-20)
(1.99738 0.023514 3.46511e-20)
(2.95224 1.50024 0)
(1.82655 0.161226 0)
(2.02053 -0.0630381 -1.69497e-19)
(1.20077 0.635684 4.4128e-19)
(2.80474 1.03882 0)
(2.30913 0.0487547 1.41827e-19)
(1.6607 -0.735826 -4.04789e-21)
(1.00548 0.235262 -5.43689e-19)
(0.968481 -0.424162 -3.95205e-19)
(1.35482 -0.823802 6.80767e-20)
(1.89278 0.00276673 -2.78665e-21)
(1.44327 -0.781381 2.36904e-19)
(2.07738 -0.395702 -1.17444e-19)
(2.19704 -0.0202286 0)
(1.45056 -0.149903 -9.23e-20)
(1.26398 0.0940018 0)
(1.93543 0.0706802 -4.0678e-19)
(2.07216 -0.471779 0)
(2.20271 0.038124 -1.3959e-19)
(1.98283 0.0677293 -1.37695e-20)
(2.35476 0.310588 -6.09482e-20)
(1.21885 -0.488717 4.15359e-19)
(1.95471 0.110603 -3.20876e-19)
(1.94925 -0.154958 -3.10275e-19)
(2.1164 -0.906012 0)
(1.00816 -1.5907 0)
(1.2904 -0.529218 -4.08888e-19)
(2.47924 0.321346 0)
(3.24985 0.00771377 -8.28783e-19)
(1.91353 0.17972 0)
(1.04349 -0.0811087 2.18529e-20)
(0.898237 -0.450366 8.83181e-20)
(1.81315 -0.611604 6.14864e-19)
(1.27752 -0.638146 2.87837e-21)
(2.4236 -0.554097 0)
(2.00344 0.0784877 1.35025e-20)
(1.85838 0.0555143 -2.13907e-19)
(0.74252 -0.388148 -1.19352e-20)
(1.94163 0.0513835 -1.83803e-19)
(2.18363 -0.0411279 -3.44605e-20)
(2.25284 0.14696 -4.03743e-20)
(3.17526 0.536718 3.50432e-19)
(2.45311 0.342905 -4.7232e-20)
(0.90078 -1.28311 -6.24459e-20)
(1.7304 -0.550374 0)
(0.239913 -0.215627 1.60207e-20)
(1.9674 0.168651 -1.4222e-19)
(2.62364 -0.0133715 0)
(1.97276 0.0619449 1.22589e-19)
(1.20892 -0.583433 -2.96996e-19)
(1.75819 1.09325 1.29419e-19)
(2.79848 -1.11306 0)
(1.46655 -0.695816 1.08604e-19)
(3.39207 -1.79418 0)
(1.92745 -0.0303202 3.33638e-20)
(2.00444 -0.211041 -5.59938e-20)
(1.90205 0.692886 1.5132e-18)
(1.11048 -0.13474 0)
(1.67967 0.185224 2.0043e-19)
(1.88515 0.0854383 1.34728e-19)
(-0.159894 0.240301 0)
(1.83431 0.0798033 0)
(2.06093 -0.172904 0)
(0.16483 -0.0794108 1.20684e-19)
(0.877122 -0.379217 -1.15132e-20)
(2.3375 -0.144369 0)
(1.96204 -0.0180673 0)
(1.42034 -0.252168 3.68557e-20)
(0.22744 -0.771603 0)
(2.37205 0.270566 -1.20947e-21)
(2.93739 0.863521 1.92532e-19)
(2.01885 0.0463798 1.06061e-20)
(1.91385 0.337467 -4.31506e-21)
(1.00068 0.308379 6.24985e-19)
(3.00753 1.06608 -2.10122e-19)
(2.39541 -0.194496 5.96707e-21)
(2.06811 -0.168 1.40048e-19)
(1.65613 -0.204923 -2.22801e-19)
(1.934 0.534164 1.75645e-22)
(2.03157 0.0457818 0)
(1.45095 -0.785983 -2.305e-19)
(-2.07883 0.684224 0)
(1.00384 -0.658151 -1.00347e-19)
(1.69874 -0.286319 0)
(2.38632 0.450139 0)
(1.36955 -0.653821 -2.4075e-19)
(2.03323 0.0266439 -1.88884e-20)
(-0.253105 0.127707 -1.92947e-18)
(2.12096 -0.00900873 3.22712e-21)
(1.8741 -0.736547 3.2854e-19)
(3.06516 0.735591 2.221e-19)
(-2.14691 1.46623 2.35289e-18)
(2.08511 0.0214898 2.5794e-20)
(2.16069 -0.859637 1.16037e-19)
(1.92729 0.00189918 -2.32762e-19)
(2.86673 -1.3442 0)
(1.78707 -0.127582 -4.22093e-19)
(1.86765 -0.508169 3.4299e-19)
(2.06376 0.0963452 -4.6892e-19)
(1.04361 -0.560857 -6.65674e-20)
(1.68422 1.07251 -1.2664e-19)
(2.91461 0.960203 2.96067e-19)
(2.39802 -0.532771 0)
(1.84112 -0.0409382 0)
(1.788 0.674069 -7.59073e-19)
(2.00719 -0.102032 8.82887e-20)
(1.46611 -0.759552 0)
(2.25853 -0.173943 -1.25783e-19)
(1.97991 0.0326219 -2.70897e-19)
(1.29655 -0.71301 -4.12462e-20)
(1.53018 -0.778983 1.62086e-19)
(2.27341 0.239169 -2.7378e-21)
(1.66429 -1.01426 4.87229e-21)
(2.46359 -0.322399 -2.37766e-19)
(2.01546 -0.475772 2.3721e-19)
(3.34676 0.505993 7.84969e-19)
(1.614 -0.675406 3.17969e-19)
(2.00332 0.0351534 -1.63532e-21)
(1.05667 0.178473 4.53165e-19)
(2.14432 2.1233 0)
(1.72942 -0.526375 1.99384e-19)
(1.60074 -0.762801 0)
(-1.21711 -0.127213 -1.68275e-18)
(1.84524 -1.00082 0)
(0.679452 -0.324609 -2.23627e-19)
(1.70398 -0.734889 -4.4462e-19)
(3.09057 0.679198 -3.41154e-19)
(2.16862 -0.888802 0)
(1.39579 -0.650135 0)
(2.47066 -0.463306 0)
(1.97138 0.026562 1.07775e-19)
(3.12928 -1.63866 -1.40706e-18)
(0.309497 -0.00157394 1.34725e-18)
(1.65272 -0.349922 -7.24698e-21)
(3.45936 0.49104 -8.67877e-19)
(1.99498 0.136714 0)
(1.31351 1.72079 2.5773e-19)
(2.55116 1.07142 1.27852e-19)
(2.51187 -1.78542 -4.49474e-19)
(1.64726 -0.765449 2.65673e-19)
(2.47768 0.443634 2.1146e-21)
(1.2297 -0.596635 4.95501e-19)
(2.29113 0.40607 0)
(1.88318 -0.122212 5.27437e-20)
(1.68424 -0.721567 -1.24201e-19)
(1.88159 0.0609158 2.24074e-20)
(3.29824 0.14666 -4.46993e-19)
(1.71447 -0.288009 0)
(2.51305 0.455938 0)
(2.64869 -1.32181 0)
(-2.37072 1.24413 0)
(2.01267 -0.0266681 0)
(1.49589 -0.574183 1.37412e-19)
(3.84179 0.22667 7.00593e-19)
(1.53753 -0.651959 3.79095e-19)
(2.00346 0.0826317 2.15361e-19)
(1.61568 -0.754323 0)
(2.13979 -0.891264 2.69692e-21)
(-0.514892 -0.251068 0)
(1.58627 -0.74915 -9.98582e-20)
(-0.392847 0.125551 7.99591e-19)
(3.85939 -0.278016 -4.05819e-19)
(1.93106 -0.075302 2.39434e-19)
(2.11542 0.299342 -6.05007e-20)
(2.8507 -0.817966 -2.76302e-19)
(2.31712 0.092234 0)
(-1.48914 0.374554 1.6011e-18)
(2.03188 0.0829336 0)
(1.59684 0.804499 1.7045e-20)
(2.49236 0.0332394 0)
(2.01322 0.182624 -9.88449e-20)
(2.10109 -0.173942 0)
(1.01639 -0.395581 -2.78518e-19)
(0.82657 -0.601393 1.78304e-19)
(1.97494 -0.103923 -4.09903e-20)
(1.36076 0.312827 4.04993e-19)
(0.301553 -0.149035 -2.47705e-19)
(1.86753 -0.311586 0)
(1.12356 -0.278453 -1.06276e-18)
(1.98808 0.101378 7.75577e-21)
(3.3761 -0.624259 -1.08212e-18)
(1.96422 0.00395958 -2.23845e-22)
(2.23333 -0.873753 4.77674e-19)
(4.18563 0.351904 0)
(1.8517 -0.830312 -6.9861e-20)
(1.55909 -0.709777 0)
(2.58074 0.0116411 9.3439e-21)
(0.545512 -0.181331 6.91078e-20)
(1.53986 -0.767868 0)
(2.39252 0.209056 0)
(1.58867 -0.545127 -7.0743e-20)
(2.45474 0.452063 0)
(1.82072 1.57211 1.10914e-19)
(2.98261 0.565168 -3.49283e-19)
(-1.66665 0.337786 -5.881e-19)
(1.46063 -0.771871 -6.73448e-20)
(1.87929 0.00541316 -4.54651e-21)
(1.2635 -0.777659 -6.5416e-21)
(0.563497 -0.413424 -1.15765e-19)
(1.93273 -0.0121409 4.50531e-19)
(1.24314 -0.66976 4.683e-20)
(0.508644 -0.251098 0)
(2.32857 0.0482768 -6.0152e-20)
(1.55263 -0.595574 1.01523e-19)
(0.516781 0.110203 7.52818e-20)
(3.35544 -0.384255 8.7415e-19)
(2.91904 1.37801 0)
(1.87186 -0.541409 -3.44672e-19)
(1.96852 0.259136 2.14584e-21)
(3.77614 0.569135 -1.048e-19)
(2.2444 -0.0157074 -2.01206e-19)
(1.52254 -0.763095 4.08304e-20)
(1.40678 -0.859119 1.46961e-19)
(1.55249 -0.638509 -9.15023e-20)
(1.53053 -0.787591 2.17686e-21)
(2.20136 -0.108738 -1.6727e-19)
(1.54113 -0.775179 -4.57439e-20)
(1.80374 -0.231305 0)
(1.96241 -0.197416 -4.08052e-19)
(0.741384 0.757954 0)
(1.39392 -0.751956 -5.55942e-20)
(2.32972 0.303441 4.09076e-19)
(-1.37383 1.74288 1.682e-18)
(2.00213 0.0698463 -4.13916e-21)
(0.714378 -0.329567 1.32958e-20)
(-1.06321 1.8431 0)
(2.26763 -0.829045 2.99373e-19)
(2.27067 -0.888546 6.44685e-20)
(-0.405192 1.53474 -1.45162e-18)
(1.87378 0.462988 0)
(1.67449 0.422269 0)
(0.304416 0.221497 0)
(1.43041 -0.378947 -3.59777e-20)
(1.93673 -0.105069 -3.97342e-19)
(1.37954 0.0929007 0)
(1.73708 -0.584942 0)
(2.21539 0.18403 -9.42548e-21)
(1.81653 -0.792348 2.11689e-21)
(2.1174 0.263499 -2.72915e-19)
(1.82947 -0.380175 -9.65285e-20)
(1.85096 0.00886953 3.75529e-20)
(1.99226 -0.0269136 -9.1016e-21)
(1.99298 0.0695261 -2.69007e-20)
(2.03013 0.473936 -2.21991e-20)
(1.96518 1.04688 0)
(0.634888 -0.416047 4.70903e-21)
(-0.775657 -0.0621838 0)
(1.08041 0.0603528 0)
(2.67655 -0.0712085 -3.62578e-19)
(1.60261 -0.755555 0)
(2.42989 0.315748 0)
(1.91973 -0.162977 6.28096e-19)
(1.9722 -0.866146 0)
(1.94867 0.120354 3.26822e-19)
(3.25943 -0.0800393 4.44243e-19)
(3.15957 0.144583 1.41719e-19)
(2.00799 0.0403435 1.77873e-21)
(1.3026 1.07951 2.31924e-19)
(2.29396 -0.875195 3.22109e-21)
(2.10477 -0.833307 -3.54666e-21)
(1.26658 -0.508691 3.99791e-19)
(1.2959 -0.783584 0)
(1.0198 -0.507439 0)
(1.37615 -0.63229 -1.70885e-19)
(0.863403 -0.601789 -2.35231e-19)
(1.37664 -0.687234 0)
(1.2771 -0.747308 8.76463e-20)
(0.379303 -0.324471 0)
(-1.66559 0.899458 2.10954e-18)
(1.21896 -0.57437 -5.17269e-19)
(3.12579 -0.22839 -1.82706e-20)
(3.14565 0.325047 3.6314e-19)
(1.31018 -0.471319 8.08227e-20)
(2.23778 -0.0426347 8.59113e-20)
(2.32718 0.772595 0)
(2.42591 0.612909 0)
(1.13271 -0.05532 0)
(-0.590035 1.09563 -8.57536e-19)
(1.49891 -0.58331 0)
(2.22077 0.513171 0)
(1.96181 0.03497 0)
(2.64366 -0.454545 -3.50309e-20)
(-1.30256 -0.357501 4.15929e-19)
(2.09898 -0.802346 -1.72732e-19)
(1.42764 -0.425325 8.3277e-20)
(1.90288 0.113743 0)
(1.48647 -0.799681 0)
(2.03869 -0.615862 -3.12958e-19)
(1.58782 0.509106 5.94999e-19)
(1.08627 -0.501864 -8.76757e-20)
(2.03705 0.084195 -9.75173e-21)
(1.78116 -0.491782 3.64982e-19)
(1.06403 0.347488 -9.81017e-19)
(0.825303 -0.693014 0)
(1.33971 1.15381 -5.62148e-19)
(0.493189 0.22609 -6.25945e-19)
(3.03233 -0.0614418 0)
(2.48182 -0.0302575 0)
(1.74528 -0.0871687 0)
(2.03475 0.005844 -3.98742e-19)
(1.45534 0.237759 -4.15024e-19)
(1.69449 0.0873684 0)
(3.80591 1.23055 1.79869e-18)
(1.87993 -0.838202 3.2779e-19)
(2.60345 -0.320802 5.33091e-20)
(1.17983 -0.575412 7.46513e-20)
(2.10922 -0.26638 0)
(2.22468 0.00517435 2.35748e-20)
(1.82978 -0.443946 0)
(1.52778 -0.617154 -9.75395e-20)
(1.82022 -0.823514 0)
(2.20815 -0.788736 3.73835e-19)
(1.72774 -0.318415 9.80886e-22)
(2.02856 0.0487218 -1.25138e-20)
(2.58816 -0.344019 0)
(1.89335 -0.809006 0)
(1.68229 -0.724184 -4.65358e-19)
(2.33788 0.339023 1.33535e-21)
(1.58058 -0.742319 4.76547e-20)
(0.949665 -0.461164 4.06756e-19)
(1.9189 -0.129155 0)
(1.63259 0.138306 -6.25679e-19)
(2.26252 0.0317079 -3.7967e-20)
(1.48136 -0.374879 -3.25295e-20)
(2.02149 0.0394446 -1.5367e-20)
(2.02568 0.0416708 0)
(1.28563 -0.404962 5.68123e-19)
(1.04676 0.099534 -6.24855e-19)
(3.59061 0.0293287 1.00379e-20)
(1.81399 0.218845 -6.99327e-19)
(1.2049 -0.594999 6.63593e-20)
(2.33081 0.40954 -2.45395e-18)
(1.80302 -0.254366 2.92192e-21)
(2.07612 -0.170488 -3.75415e-20)
(2.37928 0.273934 1.46819e-18)
(-0.27876 0.0518133 -6.17755e-22)
(1.46297 -0.702836 1.21879e-19)
(1.58523 -0.749801 1.02677e-19)
(1.86187 0.0264827 1.09831e-20)
(2.41605 -0.114576 0)
(3.34907 -1.42994 1.3293e-18)
(1.23078 -0.598716 2.23705e-19)
(1.73705 -0.283408 2.19443e-19)
(-0.81875 0.126166 0)
(1.67801 -0.417211 -5.87462e-20)
(1.93048 0.0428619 1.19603e-21)
(1.96131 -0.0419 0)
(0.177173 -0.637573 1.22736e-19)
(1.57782 -0.691276 2.8349e-20)
(1.98961 0.231814 0)
(1.15282 -0.44611 0)
(1.50432 -0.277908 -3.56491e-20)
(1.56629 -0.465328 -9.80929e-21)
(2.61226 -0.0294868 1.28591e-19)
(-0.00087583 0.131835 0)
(2.09221 -0.0670793 -3.59622e-19)
(1.88253 -0.332407 -3.80264e-20)
(2.27905 -0.762633 2.0578e-20)
(1.31368 -0.528573 5.02337e-19)
(1.5932 -0.746587 -9.66888e-20)
(1.57577 -0.754074 6.20022e-20)
(3.60381 -0.0826651 -8.69396e-21)
(1.87984 -0.717852 0)
(2.97954 0.56761 -1.38643e-18)
(1.6724 -0.676161 2.33238e-19)
(2.13228 1.79041 1.64597e-19)
(0.939696 0.457738 0)
(1.24859 -0.280111 -5.03145e-19)
(1.3209 -0.574297 -6.09382e-19)
(1.57043 -0.728885 1.17302e-19)
(-1.45984 0.0940909 -1.43951e-18)
(2.71153 1.67934 0)
(-0.0921904 -0.215996 -8.43922e-19)
(2.32169 0.412291 0)
(0.240054 -0.576293 -1.64534e-18)
(0.517488 0.666054 1.47822e-18)
(0.829765 -2.03513 0)
(1.60214 -0.755563 4.16429e-20)
(1.67869 -0.181815 -9.09668e-20)
(-1.87917 0.427204 3.93873e-19)
(1.75784 -0.705542 4.21319e-19)
(1.27842 -0.587729 -2.77973e-19)
(1.28888 -0.598521 0)
(2.05413 0.0539995 1.21105e-19)
(3.7663 -0.0175855 0)
(2.2345 0.174881 -2.43662e-21)
(-0.477048 1.22022 -1.78936e-18)
(0.645889 -0.263166 2.6801e-19)
(2.02212 0.0634095 0)
(1.96983 -0.786481 -3.12259e-19)
(2.44432 -0.352266 7.37969e-20)
(1.55102 -0.763925 1.5882e-19)
(1.55189 -0.683019 0)
(1.56729 -0.761153 -1.41336e-19)
(3.73139 0.0811553 -1.06369e-18)
(1.68866 0.151071 7.99793e-19)
(1.80579 -0.157569 0)
(2.07795 -0.110813 1.06061e-19)
(0.864153 1.47931 1.37689e-18)
(-1.11602 -0.354198 -2.29032e-19)
(2.2724 -0.58763 1.17351e-19)
(1.28948 -0.640954 0)
(1.76245 -0.0567494 -9.06248e-21)
(1.99989 0.0459494 6.89679e-22)
(2.66321 -0.316517 6.97999e-20)
(2.23366 -0.0265176 0)
(1.4589 -0.822954 7.51836e-20)
(1.70456 -0.506393 -2.39e-22)
(1.35913 -0.436145 6.23232e-20)
(4.02189 0.190353 0)
(2.12597 -0.819649 -1.33202e-19)
(1.51737 -0.704496 1.99498e-19)
(1.79167 -0.446715 -4.56555e-19)
(0.22812 0.0150937 0)
(2.7908 0.64071 3.39749e-19)
(2.15186 -0.794769 1.10193e-19)
(1.39447 -0.670154 -1.24321e-19)
(1.91153 0.174022 0)
(-1.83735 0.618962 1.43921e-18)
(1.5112 -0.323234 0)
(1.33202 -0.90848 1.43674e-19)
(1.63112 -0.487317 0)
(1.95174 -0.14478 -2.32174e-19)
(2.12009 -0.25127 -2.37858e-19)
(3.36124 0.960045 -9.13622e-19)
(1.42434 -0.186769 0)
(2.10484 -0.896757 -2.04509e-19)
(1.98695 0.0509508 0)
(2.36173 0.274064 0)
(2.22061 -0.909905 5.02711e-20)
(1.43478 -0.832659 7.89026e-20)
(0.685385 -0.13195 1.68936e-19)
(2.19958 -0.573728 -7.13096e-20)
(1.70655 0.246986 2.61601e-19)
(1.3235 -0.783974 -3.22509e-20)
(2.11519 0.440125 1.25927e-19)
(0.666674 -0.780791 -2.35066e-20)
(1.80599 -0.956881 0)
(2.37271 0.153709 0)
(0.996313 -0.636949 0)
(1.50362 -0.747038 1.72554e-19)
(1.28141 -0.469019 -3.53094e-19)
(1.56223 0.0783063 0)
(0.956152 -0.492114 1.94723e-19)
(2.2152 -0.111794 -1.60843e-19)
(1.19787 -0.602657 -7.35542e-20)
(1.47967 -0.547595 -1.14333e-19)
(2.27615 -0.899612 0)
(-1.43705 0.194688 9.88572e-19)
(-0.0718197 -0.483962 -3.66395e-19)
(0.822755 -2.18188 0)
(-0.595863 0.293623 -1.20122e-18)
(1.996 -0.0323744 1.31669e-20)
(2.25546 0.287546 1.07733e-19)
(1.95849 0.0747849 2.35431e-19)
(2.84519 0.726664 -3.76339e-19)
(2.37067 0.147671 4.64192e-21)
(2.04286 0.322759 0)
(2.02692 -0.793022 0)
(0.803188 -0.413737 1.92743e-19)
(-1.36763 0.0758809 0)
(1.68535 -0.377567 -5.94599e-20)
(2.24919 -0.797339 -1.90865e-19)
(1.0883 -0.518636 4.26059e-19)
(1.90682 -0.0304309 -4.5273e-20)
(1.77727 0.251026 -2.55852e-19)
(1.63499 -0.664734 -2.29733e-19)
(1.71497 -0.692509 -4.24655e-19)
(1.50301 -0.442684 0)
(1.80425 -0.713136 4.00859e-19)
(1.91431 -0.0111678 0)
(2.64625 -0.379865 -8.65089e-21)
(2.10046 1.11495 9.63089e-21)
(2.58562 0.209986 -4.05324e-19)
(2.31334 -0.390853 -1.938e-19)
(-1.90655 0.744327 -1.53578e-18)
(0.625589 -0.532825 0)
(1.62698 -0.638738 -2.79128e-20)
(1.58428 -0.939214 -1.3625e-19)
(2.18044 0.485154 -1.29578e-19)
(1.91621 -0.771213 3.66991e-19)
(2.11166 0.101771 -4.313e-21)
(-1.67288 0.192358 6.02949e-19)
(1.95353 -0.817028 -5.11123e-20)
(0.464607 0.037342 0)
(1.29618 -0.65763 2.15287e-19)
(1.81316 -0.40491 2.41665e-19)
(2.07005 0.0101612 -1.61511e-22)
(1.29523 -0.57914 8.94321e-19)
(-0.485961 1.46289 2.57322e-20)
(1.73021 0.505603 0)
(1.49396 -0.7575 -7.13035e-20)
(1.49011 -0.792679 -1.0681e-20)
(1.20273 -0.393188 -6.75813e-19)
(1.47714 -0.735574 8.07046e-20)
(3.38083 0.543556 -3.91785e-19)
(2.17187 0.470931 4.89203e-21)
(1.07161 -0.44666 3.07186e-19)
(1.85395 -0.40436 0)
(2.41604 0.0956542 -8.89215e-20)
(2.18018 -0.117341 -2.80393e-21)
(3.05611 0.442558 -3.69198e-19)
(3.11699 -0.88259 0)
(3.40959 0.374123 4.38009e-20)
(-0.321667 -0.387886 1.56954e-18)
(1.71483 -0.745936 8.99893e-19)
(3.15918 -0.303613 2.3653e-20)
(2.88493 -1.85637 -6.91115e-19)
(-1.16073 -0.141195 1.74936e-18)
(2.08081 -0.781792 3.57047e-19)
(2.06154 -0.0384645 -5.46738e-21)
(-1.46996 1.61069 -2.31721e-20)
(2.35866 -0.15006 2.40303e-20)
(2.03484 0.345652 0)
(1.99511 0.0986667 0)
(2.34372 0.400003 0)
(1.85214 -0.720359 -3.47098e-19)
(1.641 -0.502039 6.23241e-20)
(-0.18317 1.76916 0)
(1.32956 -0.436427 -1.46124e-19)
(1.10378 -1.78308 0)
(2.58495 -0.856063 0)
(0.936018 1.22821 0)
(1.96362 0.0638385 0)
(-1.66641 0.412982 -4.41195e-19)
(0.446047 -0.866985 0)
(2.08826 -0.869857 2.11011e-19)
(1.76931 0.0861174 0)
(1.98198 0.0535372 0)
(1.95694 0.261052 -2.2331e-22)
(0.682054 -0.678672 0)
(1.87995 -0.617645 0)
(-0.708912 1.7162 0)
(2.0924 0.0212223 2.54435e-20)
(2.05677 0.222785 0)
(2.31172 -0.89202 -6.12309e-21)
(1.80743 0.550133 -2.73912e-22)
(-0.795341 0.073764 -1.70026e-19)
(2.03356 0.0418159 5.76408e-19)
(-0.260666 0.0216589 -6.34506e-20)
(1.14759 0.698671 -5.23969e-19)
(1.51333 0.64109 0)
(2.50686 -0.29784 8.7684e-21)
(1.72725 -0.235962 -2.1428e-19)
(1.71729 1.44044 1.31191e-19)
(1.87439 0.323824 3.60265e-19)
(0.891556 -0.329878 -6.48185e-19)
(1.61994 -0.715136 -3.54369e-19)
(1.92584 -0.933153 2.77372e-20)
(1.59453 -0.667339 0)
(2.51386 -0.483894 -9.58335e-21)
(1.62073 -0.654135 3.29279e-20)
(2.47539 0.0620655 -6.21894e-20)
(1.22345 -0.562541 0)
(1.85361 0.0228604 -2.66422e-19)
(3.41089 0.437254 -1.16712e-18)
(1.4593 -0.598872 4.61291e-19)
(1.34719 -0.619328 -5.57693e-19)
(1.76687 -0.813862 0)
(1.86135 -0.817903 0)
(1.99539 -0.771414 1.96065e-19)
(2.37053 -0.386424 -1.18055e-19)
(2.97609 -0.261805 -4.47863e-19)
(1.89712 0.015585 -1.43678e-21)
(1.3098 -0.402937 -1.35772e-19)
(1.76163 -0.55047 3.8589e-19)
(2.38755 0.178458 0)
(2.35408 0.215317 1.60155e-20)
(-0.480649 -0.546261 -7.83284e-19)
(1.7276 -0.672988 1.54819e-19)
(1.21084 -0.258818 -6.49209e-20)
(-0.832727 1.65791 1.05558e-18)
(2.92252 -0.188417 3.73922e-19)
(2.52755 0.394937 7.6702e-20)
(2.40511 0.427066 0)
(1.56359 -0.741291 0)
(2.34121 -0.880563 -9.2082e-23)
(1.25827 -0.308638 0)
(1.93944 -0.40581 1.59929e-19)
(1.73437 0.198685 4.51487e-19)
(1.69834 0.362845 -1.30136e-19)
(1.6913 -0.697711 9.20669e-19)
(2.0181 0.0431518 -3.26747e-22)
(1.87999 -0.0180222 0)
(1.97747 0.0191141 -2.54203e-21)
(1.24567 1.09466 -1.47037e-18)
(2.12607 0.262043 0)
(2.78816 -0.367386 0)
(1.99959 -0.804718 1.32482e-19)
(1.92364 0.468799 1.86145e-19)
(1.18092 -0.222554 0)
(1.98916 -0.539989 -3.52621e-21)
(2.22446 -0.0310234 1.07112e-19)
(2.32068 0.257468 1.75727e-20)
(1.81077 0.388022 3.866e-19)
(1.50943 -0.791863 -8.91201e-20)
(1.34847 -0.0168496 0)
(-1.87194 1.04584 -4.29443e-18)
(0.602145 -0.268459 9.72414e-19)
(2.13971 -0.00299632 1.44883e-20)
(-1.25152 0.379359 -1.79312e-18)
(1.88995 -0.783758 2.60604e-20)
(2.45216 0.0580071 1.63198e-19)
(1.78305 -0.881234 0)
(1.90925 0.149471 2.16892e-21)
(1.83201 0.00678312 8.20481e-20)
(2.30686 -0.0546099 -1.36032e-19)
(2.11502 0.555736 -8.94908e-20)
(2.30781 -0.830102 0)
(1.44785 -0.781072 0)
(2.32475 -0.00958269 0)
(2.28673 0.364023 -4.81778e-20)
(1.16452 -0.55298 6.67482e-19)
(2.51009 1.53457 -1.0708e-19)
(1.56132 -0.123113 0)
(1.09331 -0.596283 -3.9866e-20)
(1.5301 -0.749263 7.60945e-20)
(1.03163 -1.12943 0)
(1.92098 0.261286 -1.18052e-19)
(1.67432 0.216897 -1.50781e-19)
(2.31129 -0.339037 -3.83276e-20)
(2.0168 0.0564387 -1.07399e-20)
(0.782893 -0.289751 0)
(2.08303 0.0618405 -1.31964e-19)
(2.07806 -0.44232 0)
(2.10136 -0.309682 8.66379e-21)
(1.06187 -0.0185828 0)
(2.20049 0.703715 4.76153e-20)
(1.77746 -0.725055 -4.0985e-19)
(2.39195 0.548398 0)
(1.81756 -0.136732 -4.05397e-19)
(2.0185 0.0542366 1.60193e-20)
(1.74167 -0.0710553 0)
(1.23322 -0.589999 0)
(0.661752 0.0727762 -8.35667e-20)
(2.5547 -0.0287671 -9.82737e-21)
(1.56478 -0.641757 -4.09492e-20)
(1.0672 -0.652037 2.73835e-22)
(2.11851 -0.0872371 3.41909e-21)
(3.13152 0.113517 1.00496e-18)
(1.80878 0.286441 -1.66744e-21)
(2.14578 0.415465 0)
(3.35775 0.186761 4.89139e-19)
(1.81581 -0.825424 0)
(1.60999 -0.737258 -3.87319e-19)