/*--------------------------------*- C++ -*----------------------------------*\
| =========                 |                                                 |
| \\      /  F ield         | OpenFOAM: The Open Source CFD Toolbox           |
|  \\    /   O peration     | Version:  2306                                  |
|   \\  /    A nd           | Website:  www.openfoam.com                      |
|    \\/     M anipulation  |                                                 |
\*---------------------------------------------------------------------------*/
FoamFile
{
    version     2.0;
    format      ascii;
    arch        "LSB;label=32;scalar=64";
    class       surfaceScalarField;
    location    "0.8";
    object      phi;
}
// * * * * * * * * * * * * * * * * * * * * * * * * * * * * * * * * * * * * * //

dimensions      [0 3 -1 0 0 0 0];

oriented        oriented;

internalField   nonuniform List<scalar> 
20045
(
0.272973
-0.313215
0.0402424
-0.577191
0.236501
0.34069
0.11342
0.830335
-0.943756
0.132422
-0.15954
0.0271176
-0.493956
0.444178
0.049778
-0.240274
0.997691
-0.757416
-0.556965
0.148453
0.408512
0.0313334
0.249159
-0.280492
0.262247
0.222141
-0.484388
-0.344694
-0.124673
0.469367
-0.106698
0.324526
-0.217828
0.959501
-0.504469
-0.455033
0.214739
-0.211594
-0.0031448
-0.626867
0.45269
0.174176
-0.0968199
0.520133
-0.423313
-0.53146
0.186766
-0.010543
-0.108577
0.11912
0.526036
-0.163882
-0.362154
-0.759261
1.12978
-0.370524
-0.388408
-0.000596554
0.389005
0.169019
-0.183903
0.0148843
0.0765304
0.138208
-0.110705
-0.466487
0.31366
0.235748
-0.549408
0.457756
0.0293272
-0.487083
-0.269577
0.583237
0.156328
-0.162464
0.00613615
-0.44966
0.921956
-0.472297
0.868797
0.127696
-0.996493
-0.944508
0.604161
0.340348
-0.00801296
-0.116621
0.124634
0.662899
-0.570296
-0.0926025
-0.298214
0.568575
-0.27036
1.07261
-0.626188
-0.44642
-0.317881
0.349215
1.14746
-0.573179
-0.57428
0.716849
0.157175
-0.874024
-0.0362688
0.222649
-0.18638
-1.0838
0.441821
0.641983
0.323559
0.268895
-0.592453
0.00976658
0.26832
-0.278086
0.0881742
-0.125148
0.0369736
1.06259
-1.07626
0.0136645
0.731471
-0.220675
-0.510795
0.300516
0.430954
0.480964
0.478537
0.312156
-0.244694
-0.0674623
0.627109
0.282362
-0.909471
0.944584
-0.227735
0.0524804
0.792177
-0.844657
0.641262
-1.07137
0.430107
0.97674
-0.724816
-0.251924
-0.393395
-0.449625
0.84302
-0.0510796
-0.172156
0.223236
0.277753
0.1096
-0.387353
-0.378915
-0.115041
0.0818545
0.688223
-0.770077
0.869831
0.0454928
-0.915323
0.349262
-0.647477
1.08072
-0.758814
-0.321903
-0.0630562
0.281851
-0.218795
0.398484
0.682233
0.368867
-0.631054
0.262187
0.177102
-0.0080829
0.177821
0.243018
-0.420839
0.80298
0.162862
-0.965842
-0.039512
0.150007
-0.110495
-0.349446
0.0456391
0.303807
0.464538
-0.202291
0.96759
-0.989925
0.0223357
-0.108688
0.0691759
-0.305547
0.5833
-0.152201
-0.528308
0.680509
-0.375896
0.350461
0.0254351
0.877983
-0.128229
-0.749753
0.684387
-0.602532
-0.0722215
0.950204
0.307963
-0.404783
-0.304427
0.315063
-0.010636
0.403245
-0.714821
0.311576
0.505105
0.580674
-1.08578
0.452934
-0.396441
-0.0564939
0.514277
-0.14541
-1.00338
0.15704
0.846339
-0.00547063
0.278443
-0.215199
0.305451
-0.0902521
0.543684
-0.814581
0.270897
-0.819329
0.0206789
0.79865
0.49434
0.114856
-0.609196
-0.46372
0.366579
0.0971413
-0.725702
0.050348
0.675354
0.416933
-0.0883287
-0.328604
0.221005
-0.331354
0.110349
-0.123038
-0.398271
0.521309
0.32889
-0.352248
0.0233584
0.737029
0.206831
-0.94386
0.134859
0.0214691
0.0122682
-0.157029
0.14476
0.649149
-0.325591
0.015865
-0.160403
0.144538
0.787968
0.359491
-0.29222
-0.334647
-0.174622
0.18689
-0.161338
1.03117
0.0539968
-0.269196
0.203182
-0.187317
0.198346
0.622869
-0.821216
0.662516
-0.996868
0.334352
0.00772911
-0.268148
0.231203
0.0369452
-0.141012
0.178888
-0.0378766
0.595253
-0.553815
-0.0414374
-0.280683
0.229603
0.665488
-1.0286
0.36311
-0.127165
0.194252
-0.067087
0.0294243
-0.172427
0.143003
0.554837
-0.0970808
0.825356
0.247251
-0.620918
0.468717
0.688267
-1.03084
0.342568
0.120073
0.405962
0.211375
-0.274431
-0.43368
0.351556
0.0821242
-0.421287
0.0580442
-0.331251
0.273207
0.696701
0.280039
0.555159
-0.752432
0.197273
0.788751
0.0692268
-0.857977
-1.05744
0.837763
0.219679
-0.353545
-0.174129
0.527674
1.02474
-0.328041
-0.34345
0.0987563
0.468054
-0.529217
0.0611627
-0.187633
0.154305
0.033328
0.560995
0.40651
-0.967505
0.63519
-0.559679
-0.0755108
-0.164611
0.0561049
0.108506
-0.190448
-0.0777007
1.14634
-0.458068
-0.368088
0.384401
-0.0163123
0.504255
-0.842015
0.33776
0.234561
-0.627956
0.401192
0.315835
-0.717027
0.772995
-0.36975
0.965707
-0.124301
-0.841407
0.137875
-0.466825
0.32895
0.92141
-0.626863
-0.294547
-0.159029
0.208016
-0.0489872
0.010001
0.845523
-0.855524
1.05666
-0.187859
-0.829852
0.0103758
0.819477
-0.54621
0.418159
0.128051
1.00167
-0.496567
0.123393
0.329541
-0.649625
0.745743
-0.0961179
-0.653659
0.767079
0.0124231
-0.218063
0.20564
0.277529
-0.349166
0.071637
-0.0205955
-0.210584
0.231179
0.828447
-0.00202032
-0.826426
1.13906
-0.559587
-0.579475
-0.250832
0.230236
0.547636
-0.672591
0.124955
0.104076
-0.0159019
-0.886153
-0.51479
0.609364
-0.0945744
-0.61977
0.525773
0.0939969
-0.00836112
-0.0538517
0.0622129
0.353188
0.568223
-0.0419634
-0.14567
0.485938
-0.0178838
-0.673928
0.0243028
-0.725402
0.945092
-0.21969
-0.702363
0.746401
-0.044038
-0.595829
-0.424464
1.02029
0.0790054
-0.276703
0.197697
0.362364
-0.48206
0.119695
0.611179
0.113226
-0.724406
-0.0114215
-0.735024
0.746446
-0.426962
0.828154
0.205984
-0.579844
0.37386
-0.381261
1.04675
-0.769569
0.574629
0.19494
-0.108934
0.124092
-0.015158
0.367488
-0.968823
0.601335
-0.765667
0.316007
-0.609606
-0.391838
0.897833
-0.600463
-0.29737
-0.334559
0.344326
0.172078
-0.182195
0.0101164
-0.755161
-0.218784
0.973944
-0.739285
1.04828
-0.308991
1.00683
-0.692204
-0.314622
0.00922027
-0.213604
0.204384
-0.234026
-0.542476
0.776502
-0.267515
0.160817
-0.427093
0.0735481
-0.592502
-0.199216
0.791718
0.12142
0.0314627
-0.152882
0.0128126
-0.527603
0.126323
-0.134336
0.83663
-0.0478798
-0.179294
0.143025
-0.189793
0.233164
-0.0433716
-0.183955
1.0124
-0.825744
0.591718
0.469657
-0.223083
-0.246573
-0.717144
0.154735
0.562409
0.347618
0.659208
1.0233
-0.655809
0.63658
-1.00788
0.371296
0.334658
-0.625236
0.290579
0.0640736
-0.452482
-0.50336
0.701706
0.622908
-0.863182
0.116414
-0.656538
0.540124
-1.01256
0.506556
0.506002
-0.093577
-0.370143
0.192896
0.169011
-0.361907
0.500456
-0.0479956
-0.45246
-0.170946
-0.580573
0.590574
-0.280379
-0.0877094
0.546559
0.777518
-0.720183
-0.0573348
-0.012266
-0.154994
0.16726
0.64049
0.0329335
-0.673423
0.103442
0.153113
-0.256555
0.0265297
0.575258
-0.601788
-0.326537
0.870222
0.603846
-0.397862
-0.0779632
0.28958
-0.211616
0.691163
-0.186907
0.120171
-0.0106821
-0.109489
0.155525
0.0479972
-0.203522
-0.140058
0.145832
-0.0057745
0.917253
-0.619464
-0.297789
0.226179
-0.965465
-0.153624
0.013566
-0.808102
0.222016
0.586086
0.818684
-0.250109
0.258536
-0.983938
1.20783
-0.579675
-0.628158
-0.0166754
0.138095
0.97476
-0.432206
-0.542554
-0.606584
0.105545
0.501039
-0.933548
0.920755
0.0127929
0.339355
-0.672381
0.333027
0.165168
-0.0914906
-0.0736772
-0.500401
0.607583
-0.107182
0.0371895
-0.200969
0.16378
-0.179408
0.0522423
-0.165576
0.0245644
-0.679103
-0.317766
0.562278
-0.809693
0.247416
0.145582
-0.28165
0.136067
0.489853
0.173045
0.544231
-0.427817
-0.04131
0.318839
0.464032
0.354652
-0.526365
0.053074
0.473291
0.337947
0.636813
0.438226
0.0819061
0.255765
-0.110183
-0.317168
-0.0391892
0.356357
0.0202988
-0.129233
-0.616073
0.642602
-0.142437
0.189838
-0.047401
-0.889478
0.833512
0.0559665
-0.217004
0.688648
-0.471644
-0.154947
-0.166902
0.321849
0.749704
-0.823125
0.0734207
-0.550408
-0.462151
1.04785
-0.733877
-0.313978
-0.119487
0.107221
0.744954
-0.405599
-0.287644
0.849922
0.138131
-0.38565
0.247519
0.915686
-0.133431
-0.782254
0.944247
-0.214223
-0.730024
-0.299086
0.437217
0.852522
-0.504724
-0.347798
-0.184387
0.80675
-0.622364
0.28414
-0.512226
0.228086
-0.267344
0.0632209
0.204123
-0.226181
0.0233118
0.202869
0.947097
-0.736089
-0.211008
-0.585606
-0.471837
0.61333
0.164188
-0.815503
-0.0739755
-0.0439743
0.1995
0.251719
-0.850973
0.599254
0.00434748
0.167731
-0.547119
1.10811
0.300144
0.617109
0.989926
-0.64937
-0.340556
-0.876985
0.677769
0.65611
-0.999115
0.343005
-0.614607
-0.0751037
0.689711
-0.31702
-0.167692
0.484712
0.605159
-0.0575232
0.303492
0.166165
0.317384
-0.136425
-0.433871
-0.703131
1.01387
-0.310741
-0.22117
0.0313769
-0.153354
0.0753913
0.0802156
-1.01376
0.594472
-0.921009
0.189423
-0.301914
0.455021
-0.153107
-0.0024529
0.134875
-0.513303
0.302508
0.210795
0.445226
0.150027
-0.015751
0.286294
-0.270543
0.471023
0.164167
-0.598743
0.850462
0.580035
-0.0856948
-0.230347
-0.486796
1.01315
-0.658857
-0.354289
0.960154
-0.982699
0.374658
0.608041
0.778889
-0.861914
0.0830254
-0.473253
0.350215
-0.150841
-0.0137693
-0.226385
-0.499317
0.336048
-0.579782
0.243733
0.420781
0.431741
0.597185
-0.898067
0.300882
0.280661
-0.576144
0.295482
-0.982156
0.162827
0.0248394
0.392094
-0.616984
0.72748
-0.110495
-0.227743
0.331626
-0.103883
-0.52389
-0.0330746
-0.137082
-0.252286
0.389367
0.114267
0.000711567
-0.114979
-0.325721
-0.220489
0.348113
0.460024
-0.808137
0.924562
-0.586615
0.397074
-0.45194
-0.0213134
0.510625
-0.229963
-0.672872
-0.0966977
-0.149184
0.210262
-0.0610774
0.972088
-0.344979
-0.502766
0.764072
-0.261307
-0.142748
0.170328
-0.0275803
0.639065
-0.138609
-0.317478
-0.533494
-0.518335
0.924476
-0.406141
0.561343
-0.918098
0.356755
0.418102
0.629753
-0.140395
0.124401
0.0159939
0.126365
-0.740972
0.704367
-1.05602
0.351656
-0.379233
0.00333725
-0.0980426
0.653202
-0.230329
0.824801
-0.283792
0.61845
0.194775
-0.954036
-0.727727
0.513252
0.214475
0.668502
-0.141362
-0.527141
0.934815
-0.18511
-0.437952
-0.518654
-0.481628
0.370462
0.322966
-0.355937
0.0329711
0.327066
-0.327662
-0.76074
0.662697
0.86111
0.201483
-0.801189
0.298424
0.791998
-0.178668
0.146173
-0.207867
0.0616942
-0.0712204
-0.52168
0.592901
-0.927725
0.201856
0.725869
0.805714
-0.805714
-0.341894
0.929231
-0.587337
0.302869
-0.31862
0.546864
-0.451162
-0.0957023
-0.913944
0.962863
-0.048919
0.375233
-0.0389912
-0.336242
0.29325
-0.0997772
-0.193472
0.152571
-0.307519
-0.0204844
0.577876
-0.86552
-0.805829
0.934834
-0.129005
-0.308419
0.656532
0.104741
0.0127847
-0.117525
-0.118492
0.0989172
0.019575
-0.38283
0.446903
0.900827
-0.681646
-0.219181
-0.114815
-0.499794
0.614609
-0.26767
0.284328
-0.0166578
0.172542
-0.299442
0.1269
-1.06757
0.459063
0.608511
-0.117343
-0.0421966
0.206268
-0.0600951
-0.00815685
-0.123354
0.131511
0.395703
0.551393
0.125882
-0.0211415
-0.128219
-0.228273
0.356492
-0.502643
0.80478
-0.302137
0.00232812
0.143843
-0.146171
0.466587
-0.318134
0.820459
-0.121827
-0.698632
0.055179
-0.45345
0.0145898
0.596589
0.455092
0.274758
-0.72985
0.502435
-0.401998
-0.100436
-1.0152
0.185343
-0.416414
0.234719
0.181695
0.302211
0.493095
-0.795306
-0.657882
0.582779
0.0760346
-0.921214
0.84518
-0.166253
0.175474
-0.108439
0.121273
-0.0128345
0.036501
-0.353669
-0.471555
0.0281434
0.443411
-0.658381
-0.149721
0.611448
0.523055
-0.229945
-0.29311
-0.158195
0.0154465
0.139932
-0.694879
0.554947
0.117456
0.521881
-0.639337
0.248463
-0.715668
0.832622
-0.116953
-0.719813
0.535426
-0.0796546
-0.0828092
-0.419016
-0.200754
-0.292793
0.0672845
0.225508
-0.872546
0.369903
0.644933
-0.759747
0.244804
0.547194
-0.351641
0.339476
0.012165
0.168762
-0.67056
0.501798
0.19134
-0.301691
0.110351
0.533627
-0.851105
-0.632713
-0.0696502
-0.3544
0.00495426
-0.245653
-0.0343045
0.279957
0.350419
-0.111798
0.130897
-0.0190998
0.740821
-0.43861
-0.734766
0.982984
-0.248219
0.273442
0.205505
-0.478947
-0.371862
0.205609
-0.257005
-0.0357882
0.164752
0.382112
-0.285359
-0.745477
-0.221962
0.0727776
0.599957
0.45052
0.129515
-0.741203
0.793683
-0.0305023
-0.349562
0.380064
-0.0899432
-0.833098
0.923041
0.11704
-0.1219
0.00486084
0.299133
-0.220128
-0.213542
0.497682
0.520426
-0.382551
-0.35592
-0.157383
-0.00844716
-0.427632
0.436079
0.402357
-0.998186
-0.0202223
-0.500079
0.520301
0.00896174
-0.168294
0.159332
-0.634018
0.0213401
0.612678
0.938992
-0.65663
-0.00324687
0.108742
-0.105495
-0.241386
-0.0262842
0.191976
0.36852
-0.560496
0.139833
-0.17399
0.0341568
0.664866
0.368292
-1.03316
-0.410139
1.14717
0.108825
0.00544212
-0.254941
-0.600477
0.855418
0.425764
0.720571
0.766719
-0.649264
-0.383939
0.246857
-0.20547
-0.020711
-0.305029
0.961139
0.129859
-0.776478
0.646619
0.91645
-0.124727
-0.791723
-0.310484
0.632568
-0.322084
0.39173
-0.188793
-0.471028
0.659821
0.140912
-0.134748
-0.00616424
-0.285209
-0.483399
0.768608
-0.00114668
-0.117345
0.0634053
-0.0717664
0.492267
-0.777476
-0.701972
-0.192351
0.894323
-0.0245843
-0.513245
0.537829
-0.0209374
1.04584
-1.0777
0.0318553
0.228811
-0.116079
-0.112732
-0.0101532
-0.341488
0.25432
0.266989
-0.365854
0.0488342
-0.762807
0.981913
-0.219106
0.0367543
-0.179191
0.522971
0.250024
-0.844346
-0.231911
-0.0284902
-0.197625
0.226115
0.535163
-0.0846428
-0.230083
0.25303
-0.0229468
-0.167914
0.205103
-1.14406
0.534453
0.868035
0.129656
-0.0976948
0.270237
-0.220888
0.49433
0.855765
-0.277889
-0.236709
0.00662562
-0.129324
-0.631416
0.298881
0.264156
-0.251733
-0.938156
0.0104312
0.0143833
0.233497
-0.0421569
-1.01234
0.618055
0.394289
0.807999
0.15959
0.223376
-0.0806243
-0.142751
0.318466
-0.289445
-0.0290211
-0.911391
0.338212
-1.03628
0.517945
-0.220997
0.147957
0.07304
0.0166147
-0.112178
0.0955633
0.990792
-0.00822621
-0.982565
0.199914
0.0117098
-0.211624
-0.148867
-0.284813
0.254899
-0.0338943
-0.10018
0.101409
-0.00122853
0.435053
-0.0475008
-0.387552
0.011847
-0.112027
0.835421
-0.628591
-0.0306598
-0.163396
0.194055
-0.968905
0.206097
0.0156535
0.0424356
-0.217057
0.164159
0.358896
0.136678
-0.177988
0.25569
0.185384
-0.441074
0.376884
-0.199063
0.335717
-0.36622
0.240939
-0.211515
0.106689
-0.334432
0.810805
-0.21132
-0.599485
0.566412
-0.0798267
-0.486586
-0.362906
-0.103919
0.164157
0.0376405
-0.201797
0.289215
-0.433523
0.144308
1.03481
-0.0261285
-1.00869
0.180846
0.0479117
-0.228757
-0.498214
0.681558
-0.183344
0.448074
0.503365
-0.951438
0.0715838
0.210267
-0.296162
0.460351
-0.164189
0.238179
0.0999929
-0.338172
-0.704133
0.386332
0.317801
0.0951641
0.00624452
-0.845015
0.143043
0.338896
-0.199783
-0.139113
0.406497
-0.584823
0.178326
-0.109065
-0.20415
0.12781
0.918033
0.81548
-0.127969
-0.687511
-0.80091
0.0852413
0.326458
-0.556805
0.640669
-1.04942
0.408755
-0.118123
0.311019
-0.0055368
-0.404898
0.276679
-0.176192
0.234236
-0.110977
-0.766871
0.877848
0.42255
0.322403
-0.686067
0.744665
-0.0585984
0.0107271
-0.25638
-0.581013
-0.219291
-0.135216
0.151155
-0.0159393
0.0126827
-0.267541
0.254858
0.075442
0.378026
-0.453468
-0.145893
0.552391
-0.546244
-0.197112
0.743356
-0.768133
-0.250616
1.01875
0.454462
-0.395103
-0.0593587
-0.242115
0.0212017
0.220913
0.160616
0.0739852
-0.234601
-0.922931
0.0382602
0.884671
0.0232302
0.214709
-0.237939
0.770056
-0.857516
0.0874603
-0.439238
0.246486
0.243194
-0.48968
0.0133426
-0.148558
-0.359159
-0.26127
0.620429
0.623513
-1.00477
-0.958436
0.834564
0.123872
0.163527
-0.0236943
0.76547
-0.242499
-0.0998065
-0.187684
0.28749
-0.0118093
0.174461
-0.162652
-0.20679
0.738146
-0.531356
0.866204
-0.637777
-0.228427
0.958888
-0.911067
-0.0478218
0.723943
-0.391941
-0.332002
0.0421731
-0.251929
0.209756
-0.317617
-0.0136334
-0.969519
0.821618
0.1479
0.0299948
-0.999514
-0.247367
0.678997
-0.43163
-0.483947
-0.252142
0.225119
-0.182612
-0.0425074
-0.748129
-0.220776
-0.211029
0.147626
0.0634036
0.210324
-0.106883
-0.917823
0.883413
0.0344103
-0.246525
0.116532
0.233929
0.216537
-0.0166232
-0.578057
0.0776565
0.173268
-0.190524
0.0172558
-0.285724
0.357302
-0.0715778
0.407978
-0.0327451
-0.240095
0.427319
0.211745
0.386908
0.323763
0.116685
-0.440448
-0.189676
0.55204
-0.64266
0.415901
0.226759
0.0993353
-0.00417125
0.747894
-0.325344
0.53858
-0.369819
-0.147085
-0.236371
0.383456
0.229182
-0.744302
0.51512
0.582836
-0.60742
0.999316
-0.434878
-0.564438
-0.00497676
-0.537506
-0.105154
-0.700816
0.985862
-0.285046
-0.0437106
-0.256737
0.893318
-1.00795
0.259824
-0.229857
-0.0374872
-0.179552
0.174692
0.149898
-0.00406591
-0.497048
-0.513106
1.0946
-0.410214
0.159082
-0.268776
0.109694
0.0520402
0.24121
-0.661619
-0.364803
1.02642
0.450396
0.154763
-0.00558006
-0.162048
0.167628
0.843118
0.141636
0.011744
-0.15338
0.618558
0.192247
-0.346097
-0.972509
0.16668
-0.240947
0.013128
0.227819
0.555869
0.651964
0.111638
0.19252
-0.304158
0.925655
0.0332338
0.604102
-0.857263
0.253161
-0.814892
0.00452668
0.810365
-0.771503
0.999115
-0.227612
0.159017
-0.00647099
-0.152546
-0.359058
0.982571
0.0786757
0.218985
-0.297661
0.0610998
-0.747167
0.647407
-0.333793
-0.313613
-0.858019
1.11046
-0.252441
-0.232106
0.568628
-0.336522
1.16468
-0.506146
-0.658536
0.043329
-0.612065
0.568736
0.111189
0.0100841
-0.398497
0.846571
0.55258
-0.894474
0.879977
-0.318634
-0.201392
0.170732
-0.838484
0.0235923
0.946518
-0.349332
-0.0032369
-1.00014
0.284547
-0.0162274
0.273399
0.58937
-0.86277
0.562883
-0.162041
-0.400842
0.602588
-0.958269
0.355681
-0.173755
0.01155
0.162205
-0.203275
-0.486876
0.690151
0.375357
-0.268668
-0.536021
0.418616
0.117405
0.199189
0.209133
-0.408322
0.0813873
0.143732
-0.822785
0.975873
-0.153088
0.107823
0.00921643
0.448281
0.212925
-0.661206
0.322856
0.393173
-0.716029
0.19155
0.476952
-0.0325496
0.998257
0.0153509
0.793298
-0.808649
0.0134628
-0.0111346
-0.177828
-0.0313065
0.209135
0.627546
-0.475584
-0.151963
0.455413
0.543902
-0.141662
0.108535
0.0331267
-0.248288
0.79757
-0.549281
-0.00169962
0.191099
-0.1894
0.231223
-0.681305
0.450083
-0.35011
-0.190494
0.540604
0.705781
-0.0652911
0.266651
0.296232
-0.329469
-0.360879
0.690348
0.305884
-0.805678
0.0871506
0.189789
-0.27694
0.203029
-0.0531891
-0.149839
0.00411801
0.107071
-0.0782426
0.841141
-0.762898
-0.0958176
0.887994
0.739304
-0.628057
-0.111247
0.64628
-0.531424
-0.527825
0.223417
0.304408
-0.140514
-0.310648
-0.150479
0.167072
-0.0165938
0.0732736
0.150102
0.129835
0.748466
-0.878301
0.249318
0.185735
0.131273
-0.899406
-0.497699
0.155588
0.342111
-0.346861
-0.231779
0.57864
0.515382
-0.259692
-0.853148
0.544729
0.393451
-0.36917
-0.0242809
-0.579806
0.830361
-0.250555
-0.429822
0.485001
-0.559155
0.588194
-0.0290391
-0.704112
0.986236
-0.282123
-0.0238036
0.23194
-0.208137
0.153387
-0.136773
-0.425315
-0.645525
0.997181
-0.351656
-0.538491
0.693225
0.497235
-0.543979
0.0467438
-0.0655399
-0.173853
0.239393
-0.954901
0.656107
0.298794
0.00535787
-0.104772
0.0994143
0.0266234
0.519754
-0.726543
0.684294
-0.455112
-0.17747
-0.550257
-0.672343
0.687694
0.457129
0.0686438
0.268628
0.220552
-0.48918
-0.353247
0.329441
0.0238064
0.171908
-0.0244672
-0.147441
0.266568
-0.44664
0.180072
-0.415519
0.545459
-0.12994
-0.716981
-0.121698
0.838679
0.163819
-0.229359
0.389911
0.237636
-0.981388
0.704395
0.276993
0.199921
0.0911649
-0.291085
0.00513349
0.205098
-0.257319
0.0522218
-0.641809
-0.188634
0.455202
0.153437
0.218247
-0.176074
0.204153
-0.19147
0.3138
-0.487929
0.0298331
0.299057
0.0519062
-0.351401
0.299495
-0.533884
-0.409651
0.943535
0.158197
-0.487666
-0.521971
-0.0275472
0.549518
0.113773
0.216983
-0.330756
-0.000749969
1.0807
-0.688603
-0.392099
0.181263
0.634217
-0.0112002
0.534957
-0.330944
-0.204013
-0.29557
0.60176
-0.30619
-0.55468
-0.163705
0.718385
-0.474703
0.178542
-0.347747
-0.180078
1.15644
-0.485753
-0.670684
-0.228093
0.0423789
0.185714
0.33301
0.102192
-0.435202
-0.186265
0.209496
0.0672669
0.239842
-0.307108
-0.0817292
-0.0267843
-0.224048
-0.00895022
0.696276
0.460161
-0.496906
0.938726
-0.237648
0.841809
-0.2195
-0.00859271
-0.791486
0.236806
0.726497
-0.600132
-0.129642
-0.640311
0.142098
0.405404
-0.652771
0.617054
-0.688275
0.811021
-0.0321323
-0.199897
-0.131457
-0.219272
-0.125633
0.344905
-0.315905
-0.0363428
0.727852
0.122671
-0.850523
-0.0136665
-0.25361
0.267276
-0.0925675
0.390146
-0.996704
0.606559
0.82297
-0.0529148
-0.89583
0.925389
-0.0295589
0.211699
-0.16606
-0.852035
-0.102866
-0.319078
0.844498
-0.0228797
0.275959
0.955838
-0.378155
-0.577683
-0.541963
-0.0844127
0.626376
0.0473339
0.448659
-0.495993
-0.696486
0.0624685
-0.214572
-0.0819263
0.296498
-0.453949
0.583809
0.180104
0.48056
-0.660664
-0.381229
0.0520988
0.329131
-0.814381
0.049973
0.764408
0.112477
0.571817
-0.265142
0.410747
0.313196
-0.2278
-0.188614
0.675689
-0.79999
0.145606
-0.361691
0.216085
-0.227876
0.299459
0.671014
0.0281587
-0.699173
0.601529
-0.839177
0.0174352
0.147733
-0.21153
0.483274
-0.271743
-0.598196
0.239037
-0.0236921
0.301272
-0.27758
0.18776
0.0686414
-0.256401
0.202538
0.096595
-0.275813
0.602271
-0.0515659
-0.169431
-0.167954
0.181297
0.292578
-0.139465
-0.0231517
-0.0683389
-0.209026
0.199957
0.00906942
0.219276
-0.243708
0.0244317
-0.696728
0.568499
0.0524472
-0.574418
-0.033703
-0.300856
-0.0126087
0.562565
-0.549957
0.339777
-0.378967
0.285415
-0.581374
0.295958
-0.464826
0.756768
-0.291942
0.269372
-0.972502
0.235872
-0.0270107
-0.931425
0.414822
0.67978
-0.7342
-0.118948
-0.652977
-0.329722
-0.433678
0.181393
-0.148865
-0.0592794
0.208144
1.08793
-0.532058
0.936306
-0.231939
-0.2362
-0.163431
0.399631
-0.853722
0.340848
0.512874
0.261088
0.0634374
-0.210708
0.457194
0.172839
-0.0963083
-0.577883
0.268144
-0.189468
0.0332009
0.242518
-0.275719
-0.10455
0.832402
0.152231
-0.221831
0.0695996
0.908285
-1.07623
0.504624
0.571609
0.176343
0.262412
-0.438755
0.678755
-0.493959
-0.184796
-0.538539
0.306433
-0.184075
-0.0501572
0.383167
0.87268
-0.962624
0.423203
-0.185024
-0.375514
0.681398
-1.0092
0.719593
0.289603
0.26354
-0.718865
0.455325
-0.678658
0.732347
-0.0536888
0.324143
-0.513819
0.0136228
0.166431
0.288031
-0.0574223
-0.657399
0.236583
-0.956146
0.365044
0.591102
0.253953
-0.795917
0.728513
-0.0154472
-0.591137
0.123748
0.417462
1.01265
-0.346948
-0.665703
-0.469429
0.245302
-0.592163
0.171569
-0.889651
0.805239
-0.53819
0.349397
0.491142
-0.81866
0.577967
0.240693
-0.942298
0.611402
0.330896
-0.380888
-0.126476
0.135438
-0.982894
0.686433
0.296462
0.60763
-0.966688
-0.799564
-0.0232211
1.04091
-0.400246
0.60135
-0.0945015
-0.506848
-0.0253066
-0.15688
0.182187
0.146994
0.483018
0.509291
-0.639332
-0.179329
0.140928
0.234429
0.189516
0.368694
-0.55821
0.395834
-0.226823
-0.0493383
-0.89159
0.940928
-0.365029
0.282449
-0.709411
-0.552373
-0.370692
0.923065
0.251069
-0.339398
-0.670911
0.207197
0.463714
0.0158935
0.0651495
-0.081043
0.83859
-0.949567
0.242613
-0.454143
0.5401
0.131267
-0.671366
0.251957
-0.0928746
-0.782283
0.228763
0.553519
-0.559515
0.209405
0.303206
-0.598777
0.382846
-0.23724
0.0535993
-0.0377058
-0.0576659
0.974116
-0.573907
0.734964
-0.161057
0.963421
0.000485839
-0.963907
-0.566636
0.0231262
-0.32504
0.0506851
0.755029
0.138109
0.0322196
0.181128
0.0554619
0.247407
0.491016
0.216029
-0.0441208
-0.840617
-0.0772056
-0.884771
0.422552
-0.854758
0.183497
0.19086
-0.374356
0.878105
0.0496128
-0.927718
-0.117325
0.110854
-0.357612
-0.678668
-0.7445
-0.117414
-0.262607
0.864135
-0.324468
0.464438
-0.139971
-0.811596
0.277711
-0.298988
0.488505
-0.415479
-0.596865
-0.240101
-0.240309
0.360005
-0.442237
0.156513
1.00496
-0.16046
0.660924
-0.485765
-0.17516
0.123126
0.166454
0.272382
0.949633
-0.873599
-0.0291304
-0.22578
0.336129
-0.464815
0.517889
-0.457088
-0.54638
0.221545
0.177423
-0.398968
-0.809611
0.00389658
-0.135734
0.740013
-0.604279
-0.120549
-0.775281
-0.637314
0.670247
1.01746
-0.449664
-0.567798
-0.071226
0.305945
0.726704
-0.301313
-0.425391
0.269612
-0.296396
-0.267387
0.0895586
-0.167392
-0.00455395
0.171946
-0.196544
0.465172
-0.378807
0.986437
-0.0119143
-0.170697
-0.269116
-0.100001
0.369117
-0.0131498
0.85174
0.286766
0.0569363
-0.343702
-0.36773
0.559706
0.371027
0.426543
-0.412882
-0.0848172
0.526669
-0.194499
-0.33217
0.155421
0.163918
-0.319339
0.0157659
-0.647582
0.631817
-0.884113
0.139613
0.220773
-0.431133
0.853684
-0.00740536
0.277018
0.143255
-0.467723
-0.983368
0.501741
-0.842362
0.282776
-0.453423
0.0705931
-0.333662
-0.541531
0.875193
-0.96426
0.000125499
-0.191423
0.191298
0.741583
-0.584542
0.559435
-0.512101
0.112947
0.52376
-0.636707
0.141185
-0.355757
-0.683705
-0.272249
0.955954
-0.187549
0.199382
-0.0118326
-0.437571
0.743954
-0.306382
0.72361
-0.569308
-0.154301
0.834285
0.0180212
-0.852306
-0.430344
-0.645889
-0.309563
-0.0448372
0.379326
0.645416
-0.00946428
0.105699
-0.0962351
-0.619539
-0.162744
0.639658
0.490127
-0.513096
0.630244
-0.117148
0.179507
-0.167764
0.38332
0.176916
-0.560236
-0.0606166
0.212848
-0.105257
-0.877638
-0.928038
0.487329
-0.0938775
-0.0360654
0.162388
0.0724035
0.695912
-0.768316
-0.507464
-0.0705929
0.617127
0.307435
0.0730086
-0.263456
0.347624
-0.387846
0.0402218
0.0489328
-0.347807
0.298874
0.535145
0.153503
0.276254
0.801693
-0.380913
0.754101
-0.471651
-0.119661
-0.246131
0.365792
0.701732
0.105018
-0.00881572
-0.649853
0.446578
0.763002
-0.776151
-0.355665
-0.374013
0.729678
-0.484319
-0.369403
-0.840327
0.855974
-0.0156475
-0.155903
-0.35292
0.227287
0.529077
0.272616
0.102828
-0.216432
0.113605
-0.332062
-0.657863
-0.197501
-0.685555
0.883055
0.607488
-0.157092
-0.213741
0.300892
0.52758
-0.885191
0.398376
-0.369049
-0.423627
0.927766
-0.504139
0.310323
0.412855
0.331089
-0.743943
0.876071
-0.547461
-0.32861
-0.347703
-0.588742
0.87613
-0.287387
0.502098
0.158826
-0.289046
0.281641
0.399175
0.765506
-0.22034
0.195034
0.00374475
-0.115542
0.913321
-0.506811
0.428386
0.65954
-0.406944
0.221994
0.184949
0.26179
-0.408875
0.698278
-0.0272633
0.63127
-0.0299207
-0.635022
-0.0223221
0.657344
0.190362
-0.0228944
-0.167467
0.164161
0.0646497
0.125147
-0.896651
-0.284972
0.321473
0.644672
-0.582757
-0.0619151
0.163405
0.363264
-0.157767
0.0771422
0.262644
0.219098
-0.481742
-0.34722
0.696482
-0.0789868
-0.388024
0.910854
-0.52283
-0.206782
0.405971
-0.0848937
-0.296336
1.00032
-0.480922
-0.334581
0.514505
0.16425
0.305705
-0.339408
-0.178929
0.155125
-0.268444
-0.148643
-0.00955141
0.329932
-0.161933
0.772899
-0.610965
0.16796
-0.176117
-0.309464
0.121781
-0.331402
0.0218383
-0.893418
0.638477
0.241168
0.219183
0.205255
-0.313682
0.108427
0.204636
0.100814
0.684835
0.403273
-1.08811
-0.116573
-0.012835
0.129408
0.0293133
-0.764079
0.678101
0.339361
0.736046
-0.663643
-0.893771
-0.041116
-0.111966
-0.415948
0.425051
0.559702
0.305254
-0.864957
0.389444
-0.0496669
-0.0264212
-0.30316
-0.103783
-0.552345
-0.471538
0.331024
0.37479
0.608194
0.545167
-0.495034
-0.0501328
0.193138
0.00681844
-0.0804316
0.251168
-0.0318913
0.712609
0.167229
-0.879838
-0.288548
0.321749
-0.230535
0.141897
0.0886374
-0.33939
-0.00378298
0.343173
0.358793
0.261517
-0.62031
0.213262
0.30212
0.633672
-0.0166245
-0.264058
0.341369
-0.285907
-0.159482
0.176737
-0.0172553
-0.894742
0.502904
0.787808
-0.639244
-0.148563
0.0155056
-0.145719
0.130213
0.764775
-0.843017
0.563809
0.0436793
0.164581
0.394854
-0.14237
-0.00627283
0.22678
-0.289546
0.0627652
-0.446312
-0.128007
0.99927
-0.510493
-0.488778
0.767362
-0.261847
-0.505515
0.407939
-0.668545
0.260606
0.0326632
0.485272
0.0253526
-0.00337995
0.434804
-0.431424
-0.0497506
0.276531
-0.364261
-0.180235
-0.0415964
0.827958
0.000292968
-0.828251
-0.417765
0.306278
-0.254372
0.123351
-0.0148157
0.122373
0.360901
-0.505765
0.581207
0.00252774
0.00529886
-0.0909131
0.14491
-0.382808
0.495755
0.0113714
0.252784
-0.00831295
-0.155154
0.645008
0.0232531
0.521914
-0.111804
-0.126037
-0.218373
0.481017
-0.163439
0.667172
-0.503732
-0.759243
-0.0857726
-0.292332
0.72351
-0.431178
0.0617474
-0.241982
0.309307
-0.0601481
-0.0195596
-0.238534
0.258094
-0.751089
0.270168
0.133852
-0.137099
0.410355
-1.07197
0.287999
-0.888476
-0.279103
0.514851
-0.312716
0.493253
-0.274155
0.0120835
-0.577036
0.592802
8.34504e-06
-0.155002
0.0701065
-0.46521
-0.0947287
-0.542129
0.636858
0.184711
0.300644
1.06838
-0.679396
-0.388989
-0.212133
0.075997
0.224608
0.021678
-0.246286
-0.729379
0.155472
0.196673
0.00635511
-0.00619064
-0.130712
0.136903
0.448473
-0.740805
0.0838756
0.403351
0.0583987
-0.46175
-0.749706
0.586267
0.147214
0.0377741
-0.184988
0.340765
-0.986289
-0.145934
-0.000271239
0.146206
0.189996
-0.0427822
0.0119027
0.671949
-0.480399
0.551131
0.476971
-0.263709
-0.814799
0.262427
-0.593162
0.510246
0.0829161
0.373899
-0.729564
-0.462371
-0.269044
0.731415
0.0171814
0.400978
-0.289963
0.250972
0.918061
-0.115289
-0.802772
0.00376214
-0.844379
0.766398
0.0678865
0.43465
0.292055
-0.160249
-0.00179931
0.147827
-0.241045
-0.338736
0.0277854
0.0706685
-0.0984538
0.0160424
-0.832623
0.81658
-0.0796688
0.31705
-0.237382
0.270645
-0.846564
0.575919
-0.0482727
-0.511406
-0.0266764
0.158683
0.590763
-0.323541
-0.177214
0.500754
-0.346141
-0.31224
0.42448
-0.247057
-0.231925
0.0389571
0.192968
-0.107522
0.312778
-0.881206
-0.104871
-0.0660025
0.170873
0.211893
0.198141
-0.410034
0.57398
-0.902527
0.328547
0.0653976
-0.531884
0.118359
-0.976378
-0.474781
-0.528576
1.00336
-0.860626
0.0340582
0.826568
-0.969037
-0.708619
0.0299609
-0.284553
0.286628
-0.00207428
-0.86307
-0.305498
1.01811
0.364411
-0.179027
0.0928269
-0.3112
-0.148055
0.450175
0.148592
0.102744
-0.371861
0.016486
-0.13631
0.119824
-0.173386
0.0143568
-0.0893485
0.104854
-0.288292
0.464635
-0.98332
0.616113
0.367207
-0.108381
0.411874
0.509767
0.202564
-0.0122026
-0.123791
0.226618
-0.436105
-0.234806
-0.507377
0.176444
0.330933
-0.0272869
-0.169915
0.197202
-0.402797
0.45173
-0.0925335
0.654942
0.520505
-0.233739
0.420071
-0.766212
0.420604
-0.492791
0.0721871
0.118925
-0.0101832
0.130118
-0.0057165
-0.88101
0.547348
0.306456
0.460906
0.0139172
-0.194316
0.180399
-1.06627
0.412608
-0.147947
0.195944
-0.184046
-0.0153366
-0.211563
0.226899
-0.521763
0.198222
-0.910487
0.80523
0.775746
-0.235647
-0.213475
0.194325
0.0191498
-0.222353
0.0247285
-0.152125
-0.979552
0.397497
0.582055
-0.144968
0.132133
-0.0610377
0.324102
-0.263064
0.52405
0.0397587
-0.128712
-0.151516
0.280228
-0.262845
0.274216
-0.357319
-0.0219143
0.55001
-0.837544
0.858702
0.0669528
-0.523547
-0.291034
0.835627
-0.0302523
-0.805375
0.0496507
0.15305