/*--------------------------------*- C++ -*----------------------------------*\
| =========                 |                                                 |
| \\      /  F ield         | OpenFOAM: The Open Source CFD Toolbox           |
|  \\    /   O peration     | Version:  2306                                  |
|   \\  /    A nd           | Website:  www.openfoam.com                      |
|    \\/     M anipulation  |                                                 |
\*---------------------------------------------------------------------------*/
FoamFile
{
    version     2.0;
    format      ascii;
    arch        "LSB;label=32;scalar=64";
    class       volScalarField;
    location    "2.5";
    object      p;
}
// * * * * * * * * * * * * * * * * * * * * * * * * * * * * * * * * * * * * * //

dimensions      [0 2 -2 0 0 0 0];

internalField   nonuniform List<scalar> 
13486
(
9.64051
7.61862
0.436154
-0.535812
3.33899
-1.25479
1.589
5.65232
6.63426
3.04774
-52.5568
1.50405
10.2131
-1.45597
2.63777
3.47277
-23.5767
0.149918
2.11098
8.65703
-0.542405
10.0951
7.43599
-7.50737
2.98789
-6.9022
-31.0499
-3.7286
0.00543658
-3.16045
-0.530724
1.8693
-7.63284
-2.29661
5.65805
0.017031
-0.00381103
8.01159
-0.4492
6.57545
1.43084
10.614
0.135428
2.95208
2.77463
1.39366
-26.3234
0.00671634
0.00152498
-3.93459
5.39683
-0.544997
1.01645
8.10967
-0.072428
3.62335
0.191784
-0.554871
-7.23867
0.0466239
-44.9672
0.0661217
-15.4915
-0.523896
-3.25172
0.0128405
-0.59478
9.59931
6.59165
-0.149058
-0.599144
-0.0190986
6.55284
-21.0783
0.053764
0.210072
0.0345018
2.59347
-33.0181
-0.972842
0.0262845
7.6637
-17.0356
0.4747
9.68798
2.76983
-1.89733
5.05698
6.19936
3.39182
1.31631
4.93443
9.28091
8.18749
6.92164
0.00536453
-31.6184
-0.80334
6.46224
-24.2292
0.0570691
-1.12488
-0.858857
-0.516213
3.42063
-24.8552
6.30255
-0.490143
-30.8891
4.5797
6.47893
1.56741
8.10658
0.182205
11.2946
6.7606
2.99838
-2.16243
6.61589
-0.00169459
0.142649
-44.0168
7.21535
-0.48647
6.41743
-0.489692
4.68702
1.21085
-1.91265
-2.78261
-0.47051
-23.5874
-20.0586
-18.7477
5.67091
4.98711
11.089
4.74962
0.0125268
5.75804
-6.06035
1.03432
1.77458
-0.979869
0.182635
-20.242
-1.56562
6.26393
-4.22891
0.00386848
3.3647
2.4951
0.0370354
7.81796
1.47843
0.417719
3.88456
0.236277
7.2941
0.0534377
-3.09608
7.28664
0.917806
10.5559
-0.545374
-2.5496
-0.524153
12.9904
-1.53641
-18.46
-21.8907
1.54447
4.17227
3.48417
0.00418883
-5.19163
-2.27557
-7.17978
6.32269
1.82639
6.17096
0.179614
2.81137
-14.8622
0.335709
-3.73619
0.0073246
-2.91952
1.68508
7.0643
0.0118523
0.323853
-0.666275
7.98192
-0.774212
-50.8488
-2.86207
-3.34296
8.80305
-2.21442
-0.595702
1.10206
8.02172
2.92668
0.0674185
-0.803
0.0851567
7.02274
-0.614828
0.388309
-3.21565
-4.76767
8.52823
6.30263
-1.23625
-1.67539
-3.29333
3.58322
8.81644
-8.6318
-23.6883
-4.36464
5.90182
-3.33895
0.42106
9.52392
-2.42548
-1.44228
-1.37885
-1.6846
6.09529
-0.69559
-6.33261
10.8259
-0.822589
9.13358
-2.50867
0.340196
9.22047
2.88906
-7.60053
4.06496
0.212402
8.73683
-0.405491
7.28469
2.9395
-4.68866
-19.6704
3.39266
-3.47885
11.4149
6.52302
-0.520252
-1.11542
-7.83511
1.79502
-1.61661
0.292269
-7.18194
6.90427
-0.367828
2.56678
-6.95994
3.84888
-15.7029
-1.4041
-0.607524
6.1316
-0.109276
6.15526
6.13623
-3.42842
1.02928
9.53819
-4.40455
-1.11417
-0.849535
-0.590099
-1.35574
-0.968781
5.41447
6.37435
-14.461
-38.7263
-30.0164
-5.86723
-2.02012
0.413036
6.17047
-0.739875
-0.0709829
6.96333
5.73209
-2.38975
-2.69303
-3.24074
0.918595
6.52944
1.49036
0.837064
0.0736701
-1.40661
1.99464
-0.0258926
2.99924
-0.549415
3.14151
-1.39117
0.0147961
-17.2671
-0.526017
-1.20181
1.55227
-42.4437
5.10929
-0.0632482
6.21603
7.04916
-1.58688
0.0120755
-0.132045
6.28027
8.23174
10.9949
1.41499
4.2372
5.28876
0.448043
3.92431
5.10476
4.69343
1.18513
8.75221
1.54486
6.54465
11.7699
2.66777
3.66075
-0.356401
-1.49268
8.13831
3.77128
2.89156
-16.2699
0.00442457
4.39309
11.3523
-8.6769
-0.0996782
4.14653
0.592732
0.951456
-31.5546
6.47144
0.00598636
-20.7076
4.55993
-1.28787
-4.61572
2.22472
1.14438
7.04439
6.15235
-3.29579
0.00253832
-2.57524
-17.8494
8.75518
4.6098
0.0585524
4.47082
0.333066
-5.03412
-1.02838
5.51915
6.27211
-0.205049
-39.7119
-13.5088
6.018
4.64907
10.1453
6.54489
-20.0331
-1.16106
0.0988797
3.55056
-23.2381
-0.287861
8.3872
-3.78986
2.42553
9.26648
9.3295
0.0188952
-0.561311
-4.50592
-23.0618
-6.10464
-23.136
1.32333
5.72392
-0.575743
1.74929
-0.925215
8.0437
-6.84787
4.68679
7.13743
3.46316
-4.95038
-4.1846
6.53643
6.23349
7.69597
-12.4041
3.94934
-19.2127
3.00813
6.3132
0.899636
11.3895
3.85458
-2.83288
-2.77848
1.03957
6.3633
-31.3464
-0.0524192
9.98122
5.75085
2.36274
0.318331
3.26497
-5.32813
10.0894
-0.117932
3.68315
9.43014
-23.2752
-3.51301
-19.4506
-4.24913
-2.46834
7.70145
7.31804
10.0405
-13.6153
-0.0144814
-17.4471
3.73744
6.33347
-3.8605
-5.93749
6.10422
-2.90722
-5.308
-14.956
-18.1733
-0.707967
8.10875
0.0143054
0.0819327
-0.532952
5.96159
0.0126095
12.3639
9.42619
6.59375
5.49008
0.0290993
-0.00206936
11.6945
-1.12589
0.00290075
-2.74591
6.60556
-30.141
0.817577
4.27084
0.0252988
-3.16059
7.35573
-8.07146
-23.1594
3.89385
-0.337355
12.941
3.98182
5.44945
6.9453
-5.82702
0.554959
10.3193
3.51537
8.30929
1.7122
1.50579
-0.6977
-0.958222
0.130751
-27.717
6.47647
6.62788
-3.64931
0.0041223
-1.46706
9.43248
7.72756
-1.1589
6.73883
4.78487
-3.0199
3.94025
5.5541
-20.9985
9.97026
0.0590703
-0.125426
10.5046
4.74168
0.0133424
4.22733
-0.889526
-1.94879
2.5902
4.40358
7.31185
9.30757
-24.4453
3.19855
-25.7354
-0.000356949
9.11972
1.55034
-13.3682
-0.994707
0.822674
0.239254
5.39212
-2.96156
-5.59521
6.75772
8.65442
-0.857481
6.89409
-20.8855
-6.96548
-7.38392
2.29549
-20.8069
7.08562
0.516731
-41.681
5.62889
7.69988
-7.08374
-22.6796
5.47203
9.07856
1.72464
9.71923
0.538663
4.05077
1.15869
7.13089
0.160365
8.84323
-31.2971
1.19474
6.39996
-1.76035
-4.14281
6.26516
-22.9179
0.981662
7.17834
10.0988
-1.34099
0.21019
1.45838
0.779707
5.78365
4.36996
2.58679
-36.903
-0.199449
9.64343
0.719797
0.213985
-7.44623
10.1663
-2.00102
0.181216
5.99552
5.36566
-0.958798
-2.12478
5.77882
0.309428
-3.09353
2.21397
-6.60708
9.82071
6.56917
4.4082
4.57128
-0.199094
-5.93216
10.9586
1.66379
11.0077
-1.26362
6.20001
0.020044
-21.7176
4.24946
3.3905
11.4935
-4.52306
4.45771
4.09059
-9.31686
3.19863
0.169482
-2.93954
6.36152
-21.7991
-3.95703
-5.47521
-1.38712
-1.91919
6.88417
0.00974927
10.7419
6.51358
0.0483184
-6.12618
-3.12671
1.78393
-40.6287
-1.72875
-26.2549
9.06882
0.0050376
0.208268
-21.2296
10.1876
-0.00267368
0.84426
10.5209
5.4745
-9.47658
-0.854619
4.60115
0.247008
6.40653
0.207944
-1.74217
2.11036
5.87086
1.57829
5.25574
10.6783
0.196885
-2.74373
6.25693
0.983656
-1.50567
4.50245
4.52993
2.54443
-11.014
0.521105
-0.230277
0.50704
9.10089
1.66403
0.340087
0.484687
1.07165
-0.87918
6.33123
0.141414
6.29887
6.137
8.76613
0.22842
-5.27108
10.908
0.0772623
-2.5606
6.74986
-5.46575
7.16896
0.168463
6.0068
-0.565637
-20.0385
-5.96403
0.0175739
-23.344
3.17638
11.2089
-1.87482
-16.4054
-2.74312
6.49771
-0.290382
2.53964
-27.4365
11.0398
-10.2415
3.41548
-4.12034
3.49544
6.26936
2.06942
-12.7021
-0.448948
10.3777
6.2282
3.04188
5.8376
0.666877
5.13588
5.3005
3.47011
-17.7121
-1.09276
7.97294
1.58647
-0.61397
5.66132
-1.9449
-1.80739
-0.330199
6.93699
6.73365
-1.77351
0.396414
-8.1428
-0.482808
0.371125
-1.86125
1.17909
6.00098
-0.769726
-6.42274
7.63772
-0.112688
-2.08965
-0.661782
-3.33643
-1.64539
-5.27516
-0.268535
-10.9202
6.38832
10.176
0.0196852
-2.12309
10.5503
9.87873
-1.22743
-3.02083
6.79822
-19.6843
0.210853
-0.303419
-0.0890665
3.83957
-23.1877
2.52573
4.10617
-3.0046
-1.17441
-7.6609
-1.13665
5.66464
2.51016
4.15503
-2.04267
5.32791
9.7039
-55.5127
-9.53837
7.36536
2.72047
4.10163
-0.418513
-3.0438
-2.17349
-0.951783
6.46441
11.0159
7.0647
-0.260276
-1.02813
6.29328
9.40241
-2.02073
7.02056
6.29397
9.65502
1.72095
-0.235838
0.631808
-1.48903
9.68029
0.383668
-0.963783
4.32467
-1.1122
1.42251
-0.866272
-6.53891
5.94652
4.29113
4.20345
2.7737
-33.4709
-1.88654
-1.7278
3.85182
-7.02118
-3.65953
0.174341
-12.5509
-41.7932
3.11566
-3.05064
-19.1018
-23.1688
-1.99911
5.06202
-50.4961
-4.65442
7.20561
-0.93679
10.1395
-1.49502
-20.2721
7.76465
9.15368
0.0644678
0.0679853
1.98634
6.4843
3.93296
-11.3298
-0.921482
-0.022669
-1.12579
6.02038
0.197374
3.49209
-0.155965
6.61164
-33.5632
0.193754
0.00230916
7.88798
-5.01233
-51.06
-6.9946
10.0096
-0.175842
-2.88851
-59.7081
6.27698
-3.30669
-0.113973
1.35029
3.20187
-0.618365
4.52541
-3.2201
5.02765
6.07198
7.54582
2.61337
-0.186825
-2.07672
4.64022
-2.58726
7.88721
4.15712
-0.998672
-0.540306
-1.24429
-0.721797
-0.0255238
7.21269
2.27255
0.958739
6.25727
0.0769509
5.20875
11.371
-0.84515
-8.26511
4.14481
-2.34851
-0.329151
-1.31036
-0.532874
6.32328
0.192032
0.0852294
0.149739
0.289191
8.36879
-8.25211
0.0104523
6.27593
-1.80929
9.01878
7.30904
8.65568
1.5116
3.77381
1.93954
0.334312
5.02019
6.32113
-0.608934
-1.78198
-22.8482
-2.88212
-18.9075
6.36591
-15.173
-8.23513
-11.4635
-0.592412
0.00371353
6.31705
0.0273712
1.2662
-17.9969
6.27532
11.2656
-1.34165
-34.78
3.35904
-0.0644203
6.23066
0.0443212
-0.431196
7.83506
-0.583639
10.705
4.39588
6.23029
-2.98112
8.3631
0.210302
7.35537
0.0590318
-7.32711
-2.19676
-5.11581
4.26559
-0.961581
-0.571692
10.0514
6.24423
6.81373
9.1579
6.94837
7.86866
-1.69625
6.8314
6.26457
6.49614
-1.55611
-2.40231
-4.1509
-6.25502
1.62943
7.35739
-20.6465
9.30341
-6.48082
0.185996
10.9223
9.19848
-1.73953
-5.36186
6.501
3.06302
0.631208
6.1676
-21.0514
-2.92164
6.19132
8.96225
-0.409818
7.25057
8.26476
0.0155333
-3.01726
8.26357
2.82114
-0.00267702
-32.8381
0.444429
-6.2843
5.83998
4.14891
-0.0156813
-0.345293
-3.57075
1.66878
-0.265656
1.40117
9.32539
-0.445406
12.1774
6.40183
2.00039
7.20718
-9.72573
-19.7611
-2.83815
6.32163
-0.430468
-17.4994
-0.590084
2.86847
3.55579
-0.31721
4.89819
-13.787
3.41656
-0.144613
-0.165772
5.16478
1.97012
8.41606
6.41544
6.61882
6.21592
-1.77205
-6.14626
-5.00021
0.515976
-1.53569
-1.3426
5.05665
-0.870958
-0.171863
-0.00451034
0.827333
-27.5933
4.46101
2.79556
-0.0208366
-3.73695
3.12322
-4.24478
-5.606
0.695882
-1.06711
7.23854
4.53164
8.37874
-19.282
5.60435
0.183547
9.02862
-1.09457
3.11937
0.176033
-1.22714
10.4795
10.6333
5.34661
3.86147
4.12224
6.03054
10.6094
4.56324
-6.75715
-24.3449
1.10725
-6.08075
-30.4536
6.26083
6.20273
-0.630201
2.15345
5.66581
5.84146
11.5156
-17.9265
4.85789
-22.9976
-1.82276
9.1388
-1.1612
5.48504
-1.00226
1.44846
2.47485
11.9868
-3.53762
-4.1528
2.94102
0.786569
-19.1321
-20.7057
0.232942
7.01799
-0.546007
3.83156
9.8589
9.03774
-0.853034
-11.8426
-2.1163
0.846975
7.68694
6.09728
9.0377
3.93085
-59.6011
9.45899
6.01415
-10.0486
5.10159
6.44239
8.21578
-31.9799
-0.538391
0.0146021
5.27534
10.3839
3.43036
0.854473
-6.23476
11.5624
-59.0132
-5.94178
10.8204
5.46126
-0.366032
5.19466
-0.568924
3.63351
-2.38686
-58.9751
-0.302869
-3.86523
-0.0562555
-2.0079
-21.5156
-23.2005
-25.1626
0.653444
-23.1454
-3.87193
4.65323
5.77989
3.7739
-15.7155
1.70993
0.712509
-1.84015
12.1106
4.40477
-4.54201
5.42971
-2.45166
-4.56086
5.51775
5.52296
6.20398
12.211
0.0167402
-1.14631
-7.5934
0.341686
4.53567
6.50753
-2.87736
9.60398
4.24452
6.70155
-0.767076
-0.925575
0.254113
6.78192
6.29506
7.06627
6.26595
11.1966
11.0883
-2.53514
5.48264
8.13601
-4.39963
9.02369
-0.343215
10.9617
8.94998
-0.0507512
7.19596
2.8913
5.05429
0.271979
6.35277
-5.95647
5.65374
2.50434
4.61135
-1.24166
6.24787
-0.240888
1.60081
10.5961
10.5936
4.38446
-19.7945
1.46878
0.956941
-1.11001
5.02391
9.49368
-20.1705
6.49936
6.22206
3.1456
6.73356
-12.7779
-1.05195
-0.017441
11.288
1.99525
-1.88811
7.2745
-1.24963
0.219591
2.84634
1.10119
4.68137
3.00225
-3.02441
3.81728
5.33064
4.37054
4.96726
11.0971
9.09214
8.12737
6.97487
10.3873
3.21453
-0.393193
-0.0140158
-7.36381
10.4486
-0.921802
6.40588
5.8503
-8.96387
3.45991
7.06774
-5.26798
3.20242
3.85336
12.3769
-31.0627
2.8034
-0.473498
7.50762
0.402329
-0.895279
10.2701
8.82945
6.27334
6.28284
-2.7268
3.40837
-27.6564
11.0638
0.0727973
11.8925
0.0302504
0.841531
-24.2887
3.82355
-20.4893
1.1411
-0.626664
2.00117
-1.65663
1.89229
-1.0144
-0.00125051
-1.49069
-18.595
-3.70943
-12.0297
-4.35591
-0.795345
-0.54326
-39.6667
6.72929
6.85001
7.97311
6.11923
2.60218
2.48885
12.8746
6.25123
-34.3103
0.00975011
-1.01532
4.73106
5.69313
9.62769
-5.85624
-5.79112
5.51981
-0.000396332
1.54392
7.95205
-19.9873
-13.2384
-25.6819
11.1912
-0.740175
4.37782
8.21928
-0.2905
5.21138
-0.213714
-34.9644
-28.8781
0.0894356
4.06495
7.73975
8.04641
-12.6414
-18.7634
4.51935
-38.5526
-3.22439
-1.81314
1.27818
-2.27998
-1.1158
-1.07223
-30.8452
-7.3373
9.93768
-0.576948
10.7542
-21.6363
-1.24981
2.47851
-0.25387
9.182
6.50054
7.43858
-2.63089
-2.43931
-38.4893
8.88598
-18.7377
4.453
-0.224434
7.65224
9.12822
-0.259455
6.2852
10.3716
7.14133
6.8694
-13.4224
-0.334441
2.69495
-5.13752
-0.62225
4.08733
4.89047
0.412264
-47.5679
1.38111
0.153033
5.80192
4.99902
-3.39904
10.9257
0.380976
0.00739832
0.65687
6.07023
-2.9214
0.0172819
7.0637
-3.73254
0.332791
-1.72009
6.95567
6.09282
5.80684
-1.00575
5.8636
7.31866
7.29294
-2.4497
0.198151
1.17806
5.59954
-6.01705
-17.7471
-2.57452
-8.35819
-0.576394
0.0864194
-0.557948
0.178476
-21.239
-4.39699
-30.4405
0.130909
-2.42084
2.12636
-21.0801
6.70025
13.064
1.9293
-1.49722
2.63077
0.480395
1.49062
0.0470243
-3.03496
-9.96163
0.557152
8.5271
0.0122226
10.1958
0.0821825
5.78119
5.40766
2.83539
-23.9633
4.07467
11.0916
-0.553982
6.13913
5.9978
9.58017
0.627153
8.78785
7.0677
-24.2655
7.4965
-32.6345
-43.6861
8.99759
5.48334
-10.803
-0.204428
8.25187
1.22332
-4.45834
0.159417
0.171691
4.78807
3.12985
6.26501
6.18378
5.471
-12.8299
-3.81571
-2.30533
6.11851
11.9182
-3.37543
-56.8831
-23.5159
6.63085
0.513116
0.52452
3.11975
0.249213
5.07609
-0.568841
1.53394
9.60342
2.43858
0.0140209
-0.545433
-1.26873
-5.21898
-23.0057
-7.25375
-13.6442
7.51463
3.12963
-4.21613
10.1751
0.00207305
-34.5737
-1.67238
-46.3028
7.03189
-17.5272
1.86471
6.4787
-1.93394
-2.52306
-0.897149
-35.8062
-1.13541
6.86405
-30.9056
-0.262073
-25.8704
5.99659
6.82417
-0.797483
8.11384
7.55081
9.85227
10.0005
7.22142
0.898453
11.2719
-27.0626
6.38385
1.41875
-17.8951
7.71684
-2.08436
9.68315
2.77667
-7.47625
-11.5527
-18.2158
6.72754
-2.67602
-2.42118
-1.29792
-5.38699
0.0275806
3.73451
0.946387
4.77116
11.1793
-19.4766
-6.81889
-3.93368
6.8554
4.66583
-4.44639
12.8742
-0.346388
0.164458
3.94091
-6.92516
5.91848
6.68022
7.4096
7.5981
0.109539
3.55035
6.15639
1.32182
-0.689919
0.0302849
7.05504
7.16013
8.95384
-0.521019
0.428608
3.66429
3.63978
1.04727
-12.6618
5.15608
-1.29321
5.39667
6.47995
-23.361
10.2164
-4.86135
10.887
7.37791
-24.0805
0.0186232
0.0338351
2.17568
6.61761
-15.1833
8.77775
5.91349
3.61259
0.152199
1.22805
-1.81741
3.64192
-23.8419
4.22658
-1.07027
6.07054
-15.23
-0.205619
-2.20559
7.82438
9.29859
2.81612
-13.3641
2.90331
-0.920469
0.324616
3.27911
-0.569404
-0.436222
10.7752
-3.6194
-0.611031
-5.65155
-48.3149
-0.271899
6.25583
-23.5094
-1.91059
6.5849
4.21516
6.82034
-3.27883
2.89256
10.8213
-12.218
6.02665
2.00142
-0.527515
1.97267
1.36864
-4.7414
11.0841
7.39642
-1.20596
10.6599
8.39943
7.74844
-35.5325
-15.8224
4.43666
-7.98249
-0.292295
-16.0006
-6.92434
-14.7102
5.12848
2.41223
4.04346
4.39296
-0.480951
5.09406
6.16845
-61.6758
6.88868
3.7753
6.14323
-0.945783
0.0255669
-0.851551
-22.8876
-2.25211
-2.20452
6.07292
-19.6691
9.91852
-8.68604
5.94424
4.22126
0.000123481
1.27802
6.54748
2.72396
1.24582
5.82854
0.29187
0.0790971
9.41573
7.48158
-4.6558
-16.9928
0.0699818
5.47903
-0.218643
3.21871
-12.0673
-0.227941
-1.02489
-1.4057
5.60467
5.65715
0.737338
2.68051
-0.432285
-0.220808
-14.5137
7.84034
-1.09965
6.23493
0.00976444
5.33178
6.78965
3.40943
5.99118
0.329472
-1.10217
-0.0337963
-19.9663
-2.24386
-4.69572
-0.317244
-0.541174
4.96949
-0.605507
6.03575
-0.151396
0.172932
-10.0833
-0.318509
6.64413
-29.7315
6.23926
1.49945
-9.22652
0.111501
-1.28611
4.47512
6.34226
-0.208289
1.05039
-20.2021
7.66665
0.546494
1.96347
-14.7049
8.02714
3.13079
0.0371809
6.7663
6.71076
7.80904
0.747687
7.75799
-12.9494
0.118167
-0.999223
6.41075
3.87667
1.60557
0.98271
-10.6711
-14.1734
3.6027
0.36542
-15.3375
9.77135
-14.6112
7.71704
4.6244
-2.42572
-0.432248
-0.128039
-0.873811
0.447633
0.757691
5.84559
-0.00429142
6.29109
-10.4135
3.02424
-0.406703
1.6408
-11.5331
8.12242
10.8797
6.91109
3.96205
1.7624
4.00835
-32.337
0.179714
-1.0469
-1.0642
-5.08739
-26.8559
-11.6952
-4.03052
5.7573
6.48756
-18.7673
1.56151
7.15557
-3.94213
-9.66246
6.74648
-0.431158
-44.3652
0.15106
-1.70761
0.0124892
10.0523
-1.01954
6.2919
-6.57408
-4.43672
-3.84854
6.29202
1.71931
5.42908
-5.51117
-4.96067
-0.0761677
1.37256
7.31946
5.65082
0.835246
-0.726808
-2.36105
11.3323
-0.485529
7.30805
8.11623
-0.668183
-0.547753
2.92472
-22.3441
-3.86311
5.40938
3.51698
6.17116
-3.15701
6.87985
0.501655
9.05069
1.39453
5.47846
8.02798
5.14445
1.13249
-10.4425
1.80809
-39.8306
5.79254
2.68094
7.76898
0.294819
9.81731
0.960601
10.4552
-0.529268
8.18955
-1.23582
4.82046
-36.2426
5.95414
3.10635
2.42647
9.40821
6.19366
1.52271
-3.73316
3.68154
5.83047
-0.297105
-23.1378
4.58676
-0.434135
8.30247
-0.826506
9.96588
1.33724
13.0106
9.91001
4.9685
4.48894
-39.0049
0.122041
10.6366
-1.21737
-0.627272
-0.95562
10.2459
2.96023
5.55126
8.70574
-4.59477
6.87307
-1.8673
7.71987
0.221035
7.34509
6.47385
8.98707
-0.405534
-32.9251
1.78404
-1.47801
3.00989
1.57741
-2.41723
8.07204
9.37233
0.0741193
2.49974
-1.70615
8.49188
5.28266
5.92098
3.72227
-0.932573
-17.0451
-0.638517
6.42314
-10.3253
-0.246498
0.0742724
4.60651
3.02844
-3.89109
11.1998
-0.365387
9.91528
2.31348
9.78536
-2.97302
1.50356
0.031545
0.236193
5.39623
6.13694
-0.0677369
-0.252129
-0.489602
-0.259762
9.39419
-2.4239
-0.259454
-0.499223
-0.307083
2.66371
7.95556
3.2075
0.0637765
0.0726678
6.21428
11.9329
-1.66944
-0.0687435
6.30525
0.18636
2.90877
-0.256158
4.88601
-0.267238
-10.3486
-2.03935
-1.23416
-1.2277
-3.44459
-15.2207
-4.53927
-0.369252
4.78286
6.79768
5.37778
11.6114
-49.38
10.2258
-18.8631
9.68881
-14.9668
-5.12457
11.2337
2.39708
-2.03415
6.65417
-0.430278
7.15903
-0.797818
-24.7503
0.928731
-3.82749
-4.56412
0.0151719
-1.17458
2.29426
8.10129
-14.2503
2.5484
-10.2855
1.60623
-0.458478
-0.290406
0.70783
-0.343361
-8.43371
8.15107
-0.139551
9.02682
2.39656
-30.1499
1.9168
-5.82417
0.0442076
5.31378
8.0205
11.496
4.63609
5.23028
3.1689
-19.001
11.095
11.9981
6.86038
-4.28087
-2.99069
-41.8897
5.96442
4.38024
2.39834
4.9959
-0.679527
-0.205594
-61.3736
9.37888
0.683389
0.474311
-1.03278
6.32341
1.07601
12.7358
11.8945
5.6471
0.286087
1.85725
-14.9141
2.29908
12.2313
0.875032
0.0420268
4.88107
0.0310102
1.18153
-1.27289
-2.00939
1.29245
0.734582
2.81859
0.0491722
1.77486
8.98435
2.50237
6.7486
-1.29676
-2.35893
10.8827
-15.0876
1.14402
2.04502
2.53214
0.780905
-0.920364
1.78649
0.0877435
0.995314
12.7978
-24.4231
-17.0847
-6.63113
-4.63935
0.554018
2.05454
-0.683909
-13.8549
0.036865
-14.6278
-5.41851
-5.04681
0.779545
-0.0500401
0.312796
12.5159
0.374839
1.77107
-1.22314
1.05752
-19.3064
-2.27846
8.65695
6.27634
1.82744
-0.352486
6.0203
6.76374
0.244988
-24.4519
-0.845411
8.60547
-4.05006
5.75235
-0.0455838
9.85118
0.431637
-1.61848
0.229481
6.86275
-3.27352
5.51725
-4.68073
12.1639
-0.691355
-1.83623
-52.2374
2.6906
-1.09146
-5.40683
-0.813782
0.604079
3.29751
-3.94643
-0.471428
-0.758107
1.20199
-4.30876
-5.50181
5.04113
-42.0223
5.62591
-0.997002
6.96236
11.0664
6.16229
-20.3738
6.58407
0.614615
1.2144
-0.829102
-2.59634
-26.5348
-4.231
-2.50732
3.24282
-0.315683
-4.65093
-0.336973
-32.3631
3.2973
6.22324
-7.02696
-1.14667
-2.56154
0.0207973
-0.392067
3.87553
-12.8597
-1.37599
6.31115
-0.213294
4.03692
-6.4734
-43.044
-23.1211
-49.2119
12.4333
2.08369
-4.78912
1.50945
10.3541
10.9071
-1.97539
-1.92447
6.15716
-0.185924
-5.44765
10.6773
3.61465
5.9237
12.6884
-2.23332
2.30002
0.678642
9.55982
6.47224
6.7576
7.89863
4.29642
0.130039
0.249752
2.72023
1.43139
-22.8298
11.009
-3.53147
-3.79897
0.0618964
-4.16095
3.24211
-1.11508
-2.10184
1.50431
6.78333
6.78309
7.46878
-30.4976
9.34751
10.7163
-17.2024
3.97016
-0.978405
-0.790455
1.1855
3.55611
-0.508964
-4.00037
-4.39013
11.9131
-33.7373
7.47612
6.36642
8.62043
5.02057
5.07542
-0.338999
0.107494
4.14658
-0.541815
-56.2599
-9.94327
0.380814
-0.6104
7.89477
-3.44091
-0.112924
1.08553
-18.6256
-1.29164
-23.7836
5.65931
-1.87436
-1.74548
2.54717
-8.68891
2.32788
-20.4468
-0.972146
6.81483
-33.4759
10.8886
0.0375287
11.5124
0.0125531
-1.24623
0.870688
5.41844
5.55576
-12.2819
-1.04221
-1.60247
0.761438
4.60998
12.6558
8.65694
2.30145
-3.83942
3.50888
-0.0520493
7.47651
-0.513423
3.60153
-0.724674
-0.884382
-18.0513
2.843
0.125197
-18.2645
3.96758
4.021
10.6407
11.2959
-22.9052
-26.2695
-0.0752247
-6.23106
11.1302
0.576686
-2.89663
2.52396
4.38863
-1.05639
0.573115
0.358408
-0.397829
6.07216
-0.842054
2.27579
-0.952407
-4.86058
-11.4875
-2.04364
-11.3161
-10.7008
7.1805
-2.3879
-1.38989
-2.02899
0.253902
12.0658
5.07352
5.82315
-2.12878
3.34917
-0.561855
2.7805
1.7039
-0.699948
-13.946
11.1061
6.71395
-0.402072
-23.0783
12.4897
-1.26658
-16.3563
-0.651378
3.44728
-1.29225
-0.94643
9.51086
-0.782352
5.99377
2.32801
-0.561103
0.645252
-5.26948
3.13556
-11.7972
-0.212212
1.74158
6.3143
-1.4939
-20.8896
0.570187
-2.78598
-7.24816
-6.591
11.6791
4.01521
-17.8681
3.26564
1.38004
10.3811
3.7498
-17.7184
4.15078
8.05184
7.16141
-3.92523
5.51045
-0.305164
11.0195
0.12437
6.41978
-26.0947
-3.56627
0.0383401
-0.852699
4.11382
1.9639
-21.7616
-1.7218
7.60284
-0.124836
-0.816507
8.94242
4.85842
8.7025
5.75691
-5.20742
0.0595537
-0.0437405
6.41983
0.00674122
8.0568
5.24924
10.8826
-0.632429
8.46632
3.65092
10.8881
-0.54363
-4.49701
11.207
-0.727199
5.21325
-36.5993
9.77002
10.7579
6.83881
-10.4993
6.1348
8.32675
-4.09463
2.58872
-1.60096
8.92099
-0.868272
-0.366142
-28.2669
-29.8623
8.17503
3.48568
-44.4114
3.384
10.7676
-3.57113
-1.28094
-31.9233
-5.5216
5.66406
-1.2959
5.92458
6.03891
-44.4988
12.0325
-0.537812
9.07565
9.2062
0.068914
0.0136242
5.80146
-9.63754
-1.61354
5.81674
4.98043
-2.61236
6.07481
-0.568665
9.29164
6.82193
2.58118
0.675874
7.3041
-0.615309
3.73925
8.61512
1.31748
0.048328
8.31321
6.94613
-4.25017
-19.3272
5.1547
7.26345
10.9945
-23.3322
11.5822
11.165
11.744
-0.676732
8.02014
-22.8159
6.27521
8.76408
8.32296
7.19113
9.512
12.7399
5.39125
-23.003
1.20141
-11.4367
12.5885
3.50261
-0.301858
-1.00007
5.88994
9.40056
6.03402
2.29376
-0.957384
9.40685
-15.401
6.96817
-1.18065
2.65784
-0.221302
2.58208
4.20826
-12.3839
-10.3307
-0.448705
-2.67804
-0.641769
7.85409
-1.6442
0.510535
6.00932
-29.5778
4.34938
0.0378333
-23.7003
-26.5018
-21.2024
9.06164
9.64842
-1.08484
2.2704
8.23608
7.33826
0.0846475
-7.91566
7.0857
-23.04
8.83756
-19.3252
8.60456
3.86418
0.657293
7.96156
4.22649
8.45739
2.41881
2.74804
-3.2914
-20.6713
-52.9505
-0.800758
8.28362
-11.4842
-1.33567
-11.0237
8.99551
8.41352
2.07372
4.86344
9.25328
-10.5741
6.14227
-0.950379
-3.80704
6.1093
-1.69817
-34.3734
-6.19644
-23.1975
-2.08341
-20.6214
-0.957803
-49.3622
-20.0295
5.32948
11.0461
12.057
10.5084
-11.821
7.04385
-29.4668
5.95192
9.17559
0.727071
8.1377
-10.5893
2.35053
-3.61411
-0.747619
8.88297
-4.97828
7.34719
-33.2757
-1.98024
-24.2155
7.33965
7.29102
6.17219
-37.1159
6.07995
-0.561342
-38.9088
-33.718
2.19792
11.1534
-12.122
-2.09948
-1.44395
6.18233
5.95435
-0.509414
3.76624
-40.1337
9.38479
8.36234
-1.13747
-1.67629
9.2333
-1.84074
-45.1399
-0.245508
8.3617
9.4885
-19.8456
4.84743
-1.15045
10.8417
-51.829
-4.1652
-0.815045
10.2302
-0.285205
-3.14099
-0.309008
8.86508
4.87854
8.74088
-1.03069
-11.3649
7.1953
12.4683
-21.0818
6.04379
-0.484682
-43.5191
-0.398853
2.39961
-1.45724
4.77719
-0.543923
3.96645
-0.70964
-4.87469
7.98166
9.65184
6.03585
-8.9918
-4.22838
7.59026
-36.9871
2.66468
-3.90963
3.23657
-59.5046
6.79781
7.58059
-0.610105
7.17618
10.7979
-1.53331
5.47329
7.24202
-29.1874
3.76406
-2.94049
3.25505
2.69814
4.84739
0.0168914
2.2567
-1.54901
-12.9451
9.08753
2.91124
0.898564
-2.18409
-1.51389
6.53323
-49.0642
11.7047
-32.5497
-24.7646
-0.268078
8.11464
7.32935
8.70597
-13.1147
10.4033
-19.3542
5.38102
-0.0549775
-28.4032
5.76216
2.98586
-1.82561
4.50157
-13.3898
4.95988
-23.0936
-2.06187
-0.000533061
-16.1645
-19.5919
5.89898
10.6273
-5.54163
-25.2831
8.30949
-13.3452
9.69155
3.39707
-0.0569555
3.41664
6.30715
3.38123
-0.447005
0.729609
-0.434116
1.3719
2.15505
-34.027
-1.6308
0.262548
4.18025
-1.05376
12.6086
7.0103
6.25965
9.82204
0.85494
7.08279
-9.78296
-15.9618
-3.10762
6.22388
12.3205
5.98029
-4.91538
9.05939
6.28678
6.31591
-1.58034
-0.573569
3.44544
11.7771
0.639927
-4.86547
8.44914
9.28524
6.95784
6.32576
7.80976
4.3873
-0.563213
-6.4159
7.0901
-20.7815
-19.649
6.22267
-4.11144
0.650785
2.52358
7.11075
7.39109
7.40765
-0.869581
8.66003
8.8904
1.37881
7.81826
6.80846
4.97633
4.70488
4.70036
3.34312
-0.556453
8.13257
7.78244
0.0988331
6.02118
-0.938457
-0.0323191
10.518
8.05371
0.0324083
-15.8609
0.705706
8.2941
4.77259
1.20359
-0.233078
0.627051
-1.86336
1.08694
-2.98421
-1.46793
5.0641
-1.28047
-15.3507
-38.8594
10.0105
-1.35442
-16.5145
-4.4725
10.621
-1.02681
1.53995
1.08682
-37.1437
4.90608
5.8206
4.27721
9.47389
5.12502
-0.182582
-14.7879
-12.0707
0.0660066
7.30513
0.307886
-23.8384
-49.9983
-2.19822
-14.9422
-3.21812
-16.3558
-1.42911
2.16369
6.12204
8.46597
-1.8305
-0.756699
9.47931
7.09392
-18.1909
-1.11104
-11.9936
4.05611
0.04869
3.55228
5.23718
-0.07947
-1.18356
-1.49308
1.47984
-16.3385
-19.3823
0.333976
-8.00051
-22.7959
-42.7708
-8.4559
0.491909
-9.68258
3.30328
-24.4874
6.1621
5.47827
1.83423
8.21251
-17.9089
10.7233
-4.0015
0.0951503
-5.84406
6.32913
3.85758
-19.2343
-11.4839
6.38608
7.64657
11.0956
-20.04
-22.881
-12.6648
-1.22616
0.035098
-35.2519
2.66944
-28.4364
3.76471
-26.979
5.2282
0.895627
-0.727774
9.62437
5.72658
-4.77043
-0.102588
-8.26249
-23.7769
8.19379
12.117
-20.6325
7.99087
5.9766
0.000626006
-0.443978
7.9938
7.62357
-18.53
-0.933422
-3.52763
-17.091
-5.46837
-36.5818
-4.91554
4.05159
-0.551619
6.93375
-37.3865
-45.6061
5.81902
-5.01364
-30.03
0.114878
4.74027
-32.0334
-3.18307
-46.2589
-31.6476
-28.1365
11.2737
-13.2286
-1.43288
-29.0153
6.94641
-26.5897
-0.55795
-14.4145
-51.9727
-3.5235
7.28932
0.0285049
-33.4215
5.53439
0.014362
-3.65066
-27.614
-43.225
4.74341
5.39529
6.27539
-22.037
9.69849
-2.63091
0.00457633
0.0444894
-10.5888
-7.76913
-38.5635
-10.5002
1.47021
2.40342
-1.39568
-1.6728
-6.5644
6.08572
-39.9187
6.31114
-30.9867
3.79472
-2.04457
-0.27748
-0.0966959
12.2768
-0.145711
-34.2855
-18.7263
-6.02306
6.18341
-0.647091
-0.018212
0.16443
-48.1593
-17.8352
-19.404
-32.9578
7.19352
-60.4698
0.632722
-46.1201
-0.571205
5.54172
0.112778
3.07089
-2.80282
8.53217
-23.3131
-5.75114
9.11713
2.65335
-24.4194
-1.74389
-26.0041
-6.10992
-2.11358
8.27401
-2.19454
2.56881
-22.9901
-21.0907
-60.3872
-60.132
-14.4105
4.11903
-1.38588
6.2651
2.23575
-27.636
-3.3216
-10.9605
7.80201
9.62922
-37.155
0.223684
6.79309
6.03456
5.28756
-8.00378
-14.4164
-14.1549
6.25309
1.61736
-6.57998
-37.0818
3.85234
7.50941
-1.39309
0.169254
0.0600332
8.98981
-7.35048
-7.80784
-0.116146
5.31522
0.269055
-0.159745
9.75261
7.89409
-1.03612
-10.6149
8.19006
2.97132
-0.73991
6.17715
-2.82356
-11.3269
-17.4538
-10.2765
7.69513
6.99972
-0.963938
-3.95011
-0.359596
-0.00182034
7.08934
-10.9257
5.16276
8.58471
9.19419
-1.65455
6.35469
5.80992
7.29059
7.68536
-1.01847
7.71383
0.0109337
6.26472
3.37107
6.85901
-11.2114
8.0066
7.6856
5.56546
4.04842
-4.97174
4.65567
0.134004
-4.89971
8.80696
8.39235
-7.1744
6.99975
-9.7442
-21.2816
6.9884
6.90055
-12.8321
-0.80496
-22.6318
-9.66635
-5.58157
-1.39872
-14.0561
-2.02793
5.88889
11.511
8.21139
-1.99659
-0.754312
6.91193
3.06056
-0.412274
-11.3118
-3.99454
-7.7709
-20.237
-20.4979
5.92311
-0.580808
2.71179
0.106289
0.0846108
-0.262317
0.142717
1.49989
3.4564
4.17088
-3.81192
3.4921
-13.2555
-33.402
4.46685
3.30287
-0.780304
0.576738
4.08496
-0.37437
2.29283
-3.92914
6.28583
5.33987
10.2554
6.28906
-7.83283
-2.03272
-3.91789
-3.58388
-0.21033
-0.0599356
-1.32864
-7.44382
11.7331
0.413159
0.077201
9.5626
-1.55077
-4.25086
-0.767073
-11.6771
-17.1697
2.26267
-6.51571
6.39924
-1.61315
-6.88879
0.030307
-2.00462
-5.35548
-0.439613
-3.0381
4.79711
-0.724423
-1.38272
-7.02324
2.52954
-6.45801
6.83307
9.84058
-3.38423
6.97231
3.75897
4.44904
10.7681
-2.24091
3.72761
3.37813
2.61633
9.3213
-2.00543
-1.21119
-0.488712
6.75146
9.83737
-2.45009
-0.752294
-7.42304
-5.70527
3.10891
-5.52843
-11.2156
-3.89309
2.35234
-23.3089
1.39051
2.11939
5.41399
1.01675
-22.9193
-1.47695
-0.328835
-1.05202
10.4699
11.6809
8.73928
12.1733
5.52177
1.77903
7.41027
6.47949
5.66943
-6.36027
6.59331
-1.94687
-20.0876
9.51548
-1.6226
-6.32446
11.1206
-0.135421
-21.2394
3.21046
2.65409
7.73925
-23.4833
5.77746
10.1513
-1.69508
-20.9841
-8.98001
4.52667
-27.4079
8.36898
-1.00909
7.73472
6.21401
-1.35667
7.53517
-3.70949
-18.8754
-21.6964
-4.71012
7.88434
-6.22658
6.26896
-0.466567
-35.9768
-0.951456
-0.409201
-6.3985
-4.62311
-21.0608
7.96684
1.05533
-26.3958
-2.93437
3.95519
1.62613
-9.42996
2.94339
-0.595936
2.9904
-29.4826
3.57866
1.44294
4.27582
-0.948643
5.99217
3.91048
1.7318
-23.4634
12.1831
-5.25097
-41.0186
6.00257
5.32006
-31.614
-5.88201
-8.97555
4.25343
3.52312
-5.55565
-0.846034
-1.69702
12.006
-0.556735
-1.82742
-0.882494
-3.42156
4.597
-1.85721
5.90174
3.91136
-27.7595
4.08175
-23.0962
5.36044
2.55986
6.52536
4.34563
0.0118128
0.0161774
3.32341
6.90431
1.31114
0.347035
-31.0617
-3.41469
-2.88516
5.3702
-35.6903
3.32367
-24.6237
7.88496
-39.1949
-1.65043
8.49948
7.64064
2.64102
-3.45058
-10.6985
7.02775
0.240864
7.91609
3.32492
0.103884
6.37706
1.90595
1.64468
1.14471
-3.19988
-5.10157
4.12816
-0.16998
8.6922
1.99239
12.2241
-0.387278
1.63003
7.71522
0.636429
1.68499
6.76731
5.57273
3.9804
-6.88134
-0.391726
6.08556
4.17789
2.42016
-13.4261
-1.28915
-9.62228
-35.0728
-3.67118
5.60372
0.0658355
5.02549
-0.672636
10.4791
7.72794
2.26256
5.34561
2.08798
-25.096
5.6934
4.73063
0.220946
2.73338
7.89668
7.10321
-0.647357
-12.3775
-9.79174
5.77272
3.08128
0.143452
6.74069
-20.0852
6.04006
-14.0612
6.24787
2.90051
-0.651836