/*--------------------------------*- C++ -*----------------------------------*\
| =========                 |                                                 |
| \\      /  F ield         | OpenFOAM: The Open Source CFD Toolbox           |
|  \\    /   O peration     | Version:  2306                                  |
|   \\  /    A nd           | Website:  www.openfoam.com                      |
|    \\/     M anipulation  |                                                 |
\*---------------------------------------------------------------------------*/
FoamFile
{
    version     2.0;
    format      ascii;
    arch        "LSB;label=32;scalar=64";
    class       volVectorField;
    location    "2.5";
    object      U;
}
// * * * * * * * * * * * * * * * * * * * * * * * * * * * * * * * * * * * * * //

dimensions      [0 1 -1 0 0 0 0];

internalField   nonuniform List<vector> 
13486
(
(2.79545 -0.364931 2.34276e-18)
(3.31494 0.602564 1.09276e-18)
(4.73528 0.0766595 0)
(1.36651 -0.703734 -1.80413e-19)
(4.48872 -1.08456 8.05346e-19)
(4.86001 0.261319 1.21643e-19)
(4.92805 -0.941429 1.41278e-20)
(3.82024 -1.40094 -1.29106e-18)
(3.72977 -0.745545 0)
(4.04882 1.55253 0)
(-2.83568 -0.707309 -9.27006e-18)
(5.05319 -0.133499 0)
(2.47915 -0.7636 -2.34289e-18)
(5.00053 1.42806 1.97767e-19)
(4.72058 -0.789343 4.285e-19)
(3.95006 1.5401 -5.94044e-19)
(0.702617 -0.0307942 3.74291e-18)
(2.65315 -0.825923 7.62314e-20)
(4.57321 -0.0523829 1.05551e-20)
(3.20112 -0.0397439 -2.36949e-18)
(1.82182 -1.14928 -8.58062e-20)
(2.5174 -0.79121 3.0478e-18)
(3.37972 0.582432 -8.69673e-19)
(5.22646 -1.94545 0)
(4.08972 1.23252 1.91953e-19)
(5.14176 -1.80203 -6.10833e-19)
(-5.18036 3.14937 5.97111e-18)
(5.03253 -0.246694 1.66701e-18)
(4.03985 0.0618699 0)
(4.55049 -0.716915 -9.59768e-19)
(2.02011 -1.24901 -6.80386e-20)
(4.93427 -0.578524 -5.17024e-19)
(5.91531 -0.698977 1.62397e-18)
(4.16366 -0.189135 0)
(3.8377 -1.34443 0)
(3.76058 0.0151354 -4.17085e-21)
(3.82971 0.245719 -1.01931e-22)
(3.00832 -1.41316 1.20601e-18)
(3.41013 0.056275 -3.57667e-20)
(3.78895 -0.449192 1.19864e-18)
(4.63876 -1.66149 0)
(1.95785 -0.953577 -2.71293e-18)
(4.06019 0.0192404 0)
(4.13441 1.03405 -9.20377e-19)
(4.18369 0.995485 3.83124e-19)
(5.06083 -0.136032 3.12874e-19)
(0.280997 5.15478 7.83953e-18)
(4.03051 0.0682398 -8.78199e-22)
(3.83874 0.238135 3.9984e-22)
(5.26362 -0.0238331 8.46686e-19)
(3.98549 0.0732098 1.29166e-18)
(3.56388 0.0449898 0)
(5.23018 -0.334201 -4.00347e-19)
(3.1468 -1.17033 -1.75889e-18)
(2.70632 -0.971816 0)
(4.42307 -1.09616 -5.38873e-19)
(4.17572 0.299457 -3.67092e-20)
(3.56624 0.0292268 -1.57667e-19)
(5.82983 -0.686478 1.85654e-18)
(3.86464 0.378442 0)
(-1.96475 -2.76034 -8.95301e-18)
(3.8498 0.352526 0)
(7.57322 0.627392 -2.21192e-18)
(1.88271 -1.15463 -9.56393e-22)
(3.21642 -2.2635 0)
(3.84393 0.277614 1.75837e-21)
(1.2131 -0.712237 -1.83969e-19)
(2.75422 0.219409 7.90911e-19)
(3.73762 -0.809352 -7.03019e-19)
(3.75972 0.0172671 2.36633e-20)
(1.10378 -0.572649 2.11211e-19)
(2.74208 -0.894591 -8.96822e-22)
(3.88338 -0.199196 8.82667e-19)
(-1.65948 -1.83328 -2.95913e-18)
(3.88098 0.29314 2.40182e-21)
(4.17018 0.296815 8.573e-21)
(3.89111 0.284612 -5.68294e-21)
(4.72435 -0.830537 -1.75315e-19)
(0.652083 5.07227 -5.50634e-18)
(3.36133 -0.667862 0)
(3.99206 -0.00399645 8.00857e-21)
(3.17259 0.821184 -6.81619e-20)
(8.57121 0.468519 2.17887e-19)
(4.92758 0.130285 -3.52352e-20)
(2.78153 -0.379242 -4.60963e-18)
(2.6282 3.61248 0)
(2.49585 -1.2455 -4.03016e-19)
(3.98968 0.0954305 -1.91678e-18)
(3.70946 0.478671 -8.61315e-19)
(3.76403 2.10138 -6.14198e-19)
(5.06121 -0.567622 -2.7539e-19)
(4.05183 -1.22991 -6.76947e-19)
(2.90576 -0.57127 6.10914e-19)
(3.25305 0.211084 6.15433e-20)
(3.56706 -1.11687 2.84444e-19)
(4.0245 0.0528921 1.60855e-22)
(-5.9679 3.44228 0)
(0.99394 -1.04823 1.38614e-19)
(3.8346 -0.458741 -2.29086e-18)
(-1.75779 3.03363 4.18023e-20)
(4.05118 0.0065929 0)
(4.93875 1.41972 6.13267e-20)
(0.942123 -1.1642 2.45603e-20)
(3.57386 0.045864 1.83884e-19)
(2.71379 3.48584 0)
(-2.04581 3.70626 4.63516e-20)
(3.91296 0.128943 2.07258e-21)
(3.35769 0.0251359 -8.35906e-20)
(0.453272 5.32241 6.2321e-18)
(3.71243 -1.69745 0)
(2.856 -1.35978 0)
(4.96284 -0.73934 -4.80372e-19)
(3.16468 -1.12245 1.16862e-20)
(4.18032 0.168355 3.08428e-21)
(2.07327 0.00936337 0)
(2.71585 -1.3406 -1.07324e-18)
(4.0875 1.27795 0)
(4.28216 -0.15274 0)
(3.84676 -0.178265 0)
(3.86888 0.191655 5.14404e-22)
(2.70475 -0.809034 -1.98993e-20)
(-2.17014 -2.10411 0)
(3.50971 -1.00111 0)
(3.40109 0.0429739 1.17869e-19)
(3.64697 -1.29147 0)
(3.58723 0.0594466 0)
(4.29312 -0.570812 2.65073e-20)
(4.3498 0.147754 2.79977e-19)
(3.91181 -0.0749698 -1.47381e-19)
(3.37292 -1.93118 -2.8993e-19)
(3.56978 0.0543583 -1.79353e-20)
(0.490763 4.53664 -1.99121e-18)
(0.116865 -0.104566 4.72097e-18)
(-1.50397 0.00547481 3.75749e-18)
(3.98312 0.0349056 -2.11303e-19)
(3.77846 0.901539 -9.47739e-19)
(1.1127 1.61278 -6.3643e-19)
(3.7367 -1.67442 0)
(3.85039 0.174824 -5.73628e-22)
(3.87328 -1.13013 -4.54086e-19)
(5.6813 -0.216922 -1.69373e-18)
(5.19673 -0.385434 3.36365e-19)
(4.97037 -0.445863 0)
(3.33223 -0.648868 0)
(4.26441 0.0133913 1.60976e-20)
(8.85913 -1.16361 -4.93485e-18)
(5.57854 -0.0230545 1.96448e-19)
(0.597219 3.91997 0)
(5.3146 -0.0516174 0)
(4.04631 0.058417 0)
(4.04673 0.0380753 1.77248e-20)
(4.71785 -0.966565 0)
(4.00259 0.00738573 -8.4313e-21)
(3.16074 0.793041 -5.82768e-19)
(4.39732 0.636742 0)
(4.79598 0.147826 0)
(3.40925 -1.59059 0)
(0.515146 -0.406001 -5.56876e-20)
(3.34927 -1.35698 2.52549e-18)
(4.07186 0.852844 1.90698e-20)
(5.11241 0.00318087 5.24899e-19)
(3.36982 -1.30616 -3.85739e-18)
(4.89324 -0.524268 1.35491e-19)
(1.80704 -0.855445 1.19793e-18)
(3.56445 0.040565 0)
(5.17957 1.37972 -4.14754e-19)
(4.81781 1.32996 -2.00347e-19)
(0.816465 -0.154215 -2.82746e-18)
(5.72464 0.0949921 -5.7697e-19)
(-1.27788 -0.180003 9.84264e-19)
(-1.43138 -1.273 9.71823e-20)
(4.38101 0.586534 2.55357e-19)
(4.00087 0.185779 -1.50376e-18)
(4.59014 -0.468997 3.94451e-20)
(4.00638 0.0428853 1.1111e-21)
(0.494347 -3.34841 0)
(5.0049 2.07072 5.24118e-19)
(5.9612 -0.264356 2.35208e-18)
(3.91591 0.10291 -2.16122e-18)
(4.96031 -0.413073 0)
(3.91548 -0.560646 2.42739e-18)
(4.17908 0.177643 6.1463e-21)
(4.72807 -0.44848 -1.86125e-20)
(-3.71026 1.44406 0)
(5.13152 0.268878 5.71777e-20)
(4.8469 -0.240592 -7.58261e-19)
(4.08006 0.0479669 -1.56602e-21)
(4.51068 -0.443135 -2.979e-19)
(4.63427 -1.60557 0)
(2.52071 -1.21527 -1.34801e-18)
(3.84908 0.219309 0)
(4.42681 0.0740405 0)
(3.50499 -0.0345199 0)
(2.60395 1.78995 -1.18516e-18)
(3.50716 -0.096001 0)
(-2.82338 -0.052826 -2.29014e-18)
(3.28183 -2.05599 6.85774e-19)
(5.177 -0.00841981 3.04775e-19)
(2.46431 -1.21713 -5.16848e-19)
(5.11638 1.30387 -2.08871e-19)
(1.99946 -1.32377 8.12826e-20)
(4.3903 0.178743 -7.99707e-21)
(2.88979 -1.3973 -1.40141e-18)
(3.64886 -1.58975 2.55985e-19)
(4.05793 0.803243 -2.29764e-20)
(3.56331 -0.0788619 -1.54773e-19)
(2.47664 -0.95364 1.66729e-20)
(3.682 -0.0533634 1.79212e-18)
(3.47785 -0.0402214 0)
(5.0712 0.277793 0)
(4.86138 -0.255946 1.06238e-18)
(4.40433 -1.9607 8.51921e-19)
(3.24096 -0.00813187 2.16003e-18)
(3.86161 0.123544 6.25579e-21)
(4.88417 0.369688 -1.40086e-19)
(3.71261 -0.90312 1.00606e-19)
(4.63962 -0.658639 0)
(3.75306 2.03067 1.63528e-18)
(3.05274 -0.614823 0)
(6.37455 1.26847 0)
(-0.615349 1.86436 -7.15393e-18)
(5.37355 -0.0143265 0)
(3.83618 -1.1259 1.05355e-18)
(5.1398 0.0348206 0)
(5.38203 -0.329944 -4.27151e-20)
(2.56501 -1.19272 8.44603e-19)
(5.14958 0.570778 -2.96245e-20)
(1.76378 -1.82515 8.33344e-20)
(3.67924 -0.590803 1.18855e-20)
(2.20724 -0.863461 4.99992e-20)
(3.91374 -0.544714 -7.80285e-19)
(2.70224 -0.696276 1.66088e-19)
(5.71927 -0.355638 2.12334e-18)
(1.96274 -0.944931 9.27374e-19)
(1.3867 -1.36735 0)
(2.35952 -1.14689 1.00306e-19)
(4.35247 -0.351405 4.99162e-19)
(4.47963 0.0563961 -2.39127e-20)
(2.18984 -1.05463 2.66973e-18)
(4.73805 -0.285207 0)
(5.84233 -0.847342 0)
(4.01709 0.141035 2.27308e-18)
(4.25227 0.151792 0)
(2.1308 -1.06444 9.1325e-19)
(3.25385 0.151404 -7.12019e-20)
(3.55872 0.185869 0)
(4.83728 -0.0476279 -1.63123e-19)
(4.82602 -1.31472 1.82668e-18)
(0.83273 -1.42068 6.68887e-18)
(4.07825 0.97652 0)
(-0.82074 -1.32987 -1.68474e-19)
(1.99519 0.0798531 3.3472e-19)
(2.42462 -1.19172 1.34619e-18)
(3.35805 -0.00392196 0)
(3.52303 -0.541797 1.16916e-19)
(0.146424 -3.83329 2.57174e-19)
(4.92726 -0.585098 4.12089e-19)
(3.66171 -0.923221 -1.27528e-19)
(0.300267 -0.370335 5.86008e-20)
(5.78644 -0.799055 1.21627e-18)
(3.50138 0.523387 0)
(3.28106 0.182299 -2.85261e-22)
(4.73149 -0.813082 -1.01175e-18)
(0.297398 -3.62445 -3.26285e-19)
(4.25622 -1.45679 -8.62889e-19)
(-3.88036 1.39511 0)
(3.70548 -0.57512 -2.68616e-19)
(1.91459 -1.29399 -1.02855e-19)
(4.09169 -0.0359951 -1.02446e-18)
(2.89977 -0.800756 0)
(3.03329 1.99931 8.16265e-19)
(3.92991 0.136168 -5.82426e-19)
(4.64893 -0.680252 0)
(5.1758 -0.178016 2.31747e-19)
(2.53906 -1.2137 1.12825e-18)
(4.73605 -1.21967 -1.02169e-18)
(3.52339 -0.511275 0)
(2.91752 -1.2548 0)
(3.33989 -0.0594301 -9.78914e-20)
(5.44674 -0.158573 -3.23363e-19)
(2.93896 -1.31053 2.36066e-19)
(4.13123 -0.404777 -8.85232e-19)
(3.86626 0.171591 1.27325e-18)
(6.46254 -2.64572 -1.93424e-18)
(-3.13086 -1.6727 9.26601e-18)
(-4.20888 4.1105 8.96676e-18)
(5.70387 -0.151077 1.82668e-18)
(3.9143 -0.105615 1.92892e-19)
(5.52346 -0.323867 4.78899e-20)
(4.01824 -0.01621 0)
(1.47945 -1.29586 0)
(3.56151 0.514847 1.21781e-20)
(2.77714 -1.33849 1.04599e-18)
(4.00195 0.0537953 -2.08522e-19)
(4.32564 -0.325082 4.63378e-19)
(4.43917 -0.402048 0)
(4.70363 -0.0535498 -7.05026e-19)
(5.19663 -0.124279 -1.62753e-19)
(3.83627 0.140021 -1.17824e-18)
(4.88149 -1.18016 3.34895e-19)
(3.98916 -0.403362 -1.67806e-19)
(2.49352 -0.951138 8.60517e-21)
(5.64134 -0.055737 2.81636e-19)
(4.88837 -0.596917 4.88637e-19)
(3.83113 0.172545 1.8259e-21)
(3.10231 -1.44658 0)
(0.370944 -0.251523 0)
(4.56796 -0.0848296 3.43677e-19)
(2.51882 -0.805695 2.89129e-19)
(3.85036 0.222014 0)
(4.48669 3.03727 -6.51688e-18)
(1.17799 -0.594075 0)
(4.78616 2.04782 -1.26922e-19)
(5.01537 -0.729523 -4.75843e-19)
(5.94659 -4.6455 0)
(3.75528 0.841188 -5.88594e-19)
(3.60509 0.566995 -1.62651e-20)
(3.72019 0.431871 -7.42641e-20)
(3.70166 -0.0505381 -1.96296e-18)
(3.79845 -0.590526 0)
(3.84132 0.254509 -4.12987e-21)
(3.53713 0.398749 1.73548e-21)
(3.93694 0.109216 2.73145e-19)
(3.20981 0.301172 -1.14119e-18)
(1.44874 1.52141 1.18398e-18)
(5.06185 -0.567922 5.0873e-19)
(4.34733 -0.79343 -2.52278e-18)
(4.15504 -0.393556 0)
(5.2795 0.0379193 1.46352e-20)
(4.42424 -0.81461 -4.56761e-19)
(4.00558 0.0629917 2.78305e-18)
(4.11661 -1.22887 0)
(4.95783 -0.592074 -1.13406e-19)
(2.86594 0.845875 0)
(4.91248 -0.95975 -8.10338e-19)
(3.68596 -1.04935 -7.82518e-19)
(1.50584 -0.693023 1.08835e-18)
(4.66715 -0.995921 -7.017e-19)
(4.0588 0.393142 0)
(3.25015 0.231059 -9.865e-20)
(3.74248 -0.59079 2.89102e-19)
(3.22542 0.301226 1.07595e-18)
(4.46163 -0.83666 1.80266e-18)
(4.72332 -0.456942 8.00237e-19)
(-3.98858 0.0640795 -2.92579e-18)
(4.03738 0.0688609 -1.58171e-23)
(4.39004 -0.436551 0)
(1.97169 -0.625335 2.67699e-18)
(6.3996 1.22504 0)
(3.51255 0.528379 1.95693e-22)
(4.42792 -0.24018 1.43292e-18)
(5.26723 -0.0669927 -1.23008e-19)
(5.20399 -0.177403 1.61486e-19)
(-5.94247 3.31263 -6.52874e-18)
(3.83606 0.133908 1.47171e-18)
(3.97742 0.0107303 0)
(-2.35299 -1.76035 -2.54623e-18)
(4.32138 -0.579469 -5.2061e-19)
(2.39885 -0.607678 -1.2955e-19)
(4.40516 -1.77661 7.88478e-19)
(5.18442 -0.0410182 0)
(5.25263 -0.5742 3.08767e-19)
(3.56795 0.330735 2.26578e-18)
(3.93398 0.144601 1.77097e-18)
(4.56506 -0.75025 0)
(4.03035 0.00210651 -1.2186e-21)
(4.40085 -0.377646 -4.6884e-19)
(0.448452 4.03997 8.85952e-19)
(3.1516 -0.0379889 3.00572e-19)
(4.31597 -0.512298 4.93287e-19)
(4.16211 0.0583907 -3.79728e-21)
(4.36608 -0.416293 0)
(5.35823 -0.309572 -1.06865e-19)
(-1.35504 -1.31377 2.9024e-19)
(4.85679 0.722383 2.22612e-19)
(3.99029 0.0656485 1.08915e-18)
(3.02363 0.0338452 0)
(3.39884 0.414933 -7.26811e-20)
(7.21078 -4.57561 0)
(6.94104 1.98364 -1.37107e-18)
(4.09348 -0.0443661 0)
(4.07993 -1.39279 -2.41757e-20)
(2.61789 -0.150867 -6.43591e-19)
(3.0774 1.78896 1.96905e-18)
(0.372063 4.49062 -3.55242e-18)
(3.58115 -0.500572 0)
(4.63769 0.130806 -6.11251e-20)
(4.06588 0.423717 -5.73628e-19)
(1.79245 -0.416846 -2.32147e-18)
(2.08166 -1.14172 7.52936e-21)
(3.27274 -0.0268805 -3.26191e-18)
(4.78473 -0.618687 5.05895e-19)
(4.18131 0.387308 3.72768e-19)
(2.86176 -0.848036 0)
(2.73948 0.702643 1.21698e-18)
(3.87391 0.162266 3.99074e-21)
(1.23334 -0.661088 1.04013e-19)
(-1.24645 -1.03538 -8.75069e-19)
(1.25362 -0.822848 -4.47059e-18)
(5.73994 -0.135175 0)
(1.61412 -0.535031 0)
(4.14932 2.35729 0)
(4.08836 -0.156189 0)
(1.17303 -0.459823 -6.93231e-20)
(4.88901 -0.904879 0)
(3.44135 -1.12097 0)
(3.2842 0.272413 4.41903e-19)
(5.90179 -0.239067 -2.45558e-18)
(4.32052 -0.393325 -1.19059e-18)
(3.39261 0.68902 3.65039e-18)
(3.99889 0.0524733 -2.9573e-19)
(4.9808 3.40293 0)
(4.96816 -0.562562 0)
(3.81587 0.152328 1.25636e-18)
(3.97195 0.0678846 2.16901e-19)
(2.56253 1.96954 0)
(-3.29276 1.15196 2.2558e-18)
(4.22828 -1.47557 9.76244e-19)
(-1.5326 -1.98858 0)
(4.71182 -0.282741 7.82542e-19)
(3.93169 0.124481 -1.45028e-18)
(1.73666 -0.606851 -1.46904e-19)
(1.95536 -0.598942 0)
(4.01444 0.420415 1.10007e-18)
(5.14104 0.281409 0)
(4.46664 -0.439929 0)
(4.42462 0.391843 -3.59962e-20)
(3.84531 0.175945 6.67583e-19)
(-5.66564 3.3799 -7.93238e-18)
(4.72662 1.32624 1.09448e-20)
(2.63569 -0.610176 -1.15783e-18)
(4.09089 -0.134745 1.51581e-19)
(4.19009 0.392452 2.85929e-19)
(5.54141 -0.282739 2.27714e-19)
(4.39677 -1.46077 0)
(5.05559 -1.17476 1.00918e-18)
(2.62357 -0.0221804 0)
(3.49704 0.474206 1.88368e-20)
(4.5454 -0.484852 0)
(2.80764 0.245664 1.6557e-18)
(-1.30035 4.58485 -6.30303e-18)
(4.74491 -0.594097 0)
(-0.081104 0.953133 1.82509e-19)
(4.97351 -0.623523 -1.18704e-18)
(2.0468 1.00632 -7.77029e-19)
(3.46992 -0.476058 3.15071e-18)
(2.79809 1.78208 -1.27581e-18)
(2.61348 -0.600715 -3.27567e-18)
(7.25847 1.9616 0)
(3.84333 0.201906 3.5277e-21)
(-3.85418 -0.462527 -7.63507e-18)
(4.03626 0.452718 0)
(3.65624 0.491741 8.04103e-20)
(5.20245 -0.0775645 -1.77242e-19)
(5.65091 2.19075 0)
(4.00261 0.0399465 0)
(-0.620134 -0.040779 0)
(0.720141 -3.51958 9.05188e-19)
(6.36731 -3.09683 2.39017e-18)
(7.79696 -1.60155 3.68207e-19)
(4.69784 1.98404 0)
(3.35552 -0.276409 2.13824e-18)
(3.96351 0.0361627 -2.62545e-21)
(4.69452 1.21112 3.51212e-20)
(1.87762 -1.048 1.59566e-19)
(3.82668 0.345686 0)
(4.02825 0.066968 0)
(1.42082 -0.123355 -1.79963e-18)
(2.80731 -0.819973 -8.06855e-19)
(3.82292 -0.335677 0)
(2.95088 -1.42776 -1.05684e-18)
(4.14966 0.0182006 4.94426e-21)
(4.0238 0.046524 8.06632e-23)
(1.66697 -0.759295 0)
(3.66475 -0.065422 1.82616e-19)
(3.87949 0.160044 -1.38088e-21)
(5.12834 0.250608 5.94138e-19)
(3.66373 -1.08774 0)
(-4.45641 4.70742 -1.42609e-17)
(5.22601 -0.108149 1.77279e-19)
(4.00985 0.191382 2.40367e-19)
(3.90633 0.0471276 -1.46713e-21)
(5.2807 1.32706 0)
(3.32192 0.691737 -9.72945e-19)
(6.27544 0.762869 -1.04379e-18)
(1.24681 -1.02989 9.82122e-19)
(4.02079 0.134121 0)
(2.0238 -1.17526 -7.62572e-21)
(0.882572 -0.0597558 0)
(4.02545 0.102277 -9.05506e-19)
(3.97583 0.158247 4.27665e-19)
(3.70825 0.121605 -2.46338e-19)
(0.311012 -3.48032 0)
(4.79141 0.0676374 -6.51917e-20)
(2.15698 1.07014 3.35644e-18)
(4.33917 -1.4501 0)
(3.22429 0.225021 1.40817e-18)
(4.82099 -1.19898 -3.78596e-19)
(4.38181 0.00872276 0)
(1.86785 -1.36868 5.73047e-20)
(3.33873 -0.600754 -2.32168e-19)
(4.17987 0.0230949 0)
(-2.89714 4.73399 7.92245e-18)
(3.62437 0.459977 0)
(3.41323 -1.54901 1.04177e-18)
(-0.847564 -1.4484 4.94728e-19)
(4.0951 0.063716 1.61075e-21)
(4.90706 0.310676 -3.206e-19)
(2.70396 0.712034 6.48491e-19)
(3.46749 -0.538223 -1.16992e-18)
(3.58667 -0.452794 -1.2217e-19)
(3.44509 -1.53939 9.49684e-21)
(4.26646 -0.5094 4.77331e-19)
(5.26204 1.33194 8.48978e-19)
(3.82029 -1.72803 0)
(3.99164 0.0445362 -9.65559e-19)
(-2.60037 -1.71008 -2.57188e-18)
(2.66532 -0.0251823 0)
(3.9067 0.186053 4.04584e-21)
(3.67474 0.00231219 0)
(2.3864 -0.639291 2.83303e-18)
(4.01989 -1.52304 0)
(3.97633 0.032756 7.40276e-21)
(4.47649 -0.245558 -8.10508e-19)
(1.85292 -1.48813 1.18212e-19)
(-0.117483 -0.330169 4.08553e-19)
(5.01965 -0.0701091 -6.74788e-21)
(3.01176 -1.44836 9.67239e-19)
(3.48017 -0.994761 1.12123e-18)
(2.89746 -0.585552 0)
(-5.13553 2.15799 -2.82389e-18)
(4.44466 -1.35008 -2.07e-19)
(-5.32198 2.39545 -3.61286e-18)
(4.02827 0.0647977 3.46024e-22)
(2.82425 -1.07517 0)
(4.42215 0.000310908 -3.74876e-21)
(-3.52323 1.17434 0)
(0.831779 -1.25002 2.62536e-20)
(2.06744 -0.665194 1.97056e-19)
(-0.275203 -0.0414356 0)
(3.9923 -1.07418 3.38082e-19)
(3.16383 -2.15601 0)
(5.73509 1.93698 0)
(3.13812 -1.47847 -1.37587e-18)
(2.93446 0.748137 9.80493e-19)
(3.20445 -0.821952 0)
(3.61139 0.398648 -6.1803e-19)
(8.41881 -1.15532 5.65767e-18)
(-1.79594 -1.51122 1.91166e-18)
(5.67738 2.78764 0)
(4.27751 -0.0343876 0)
(-4.07464 -0.238625 -3.89169e-18)
(3.67798 -0.164528 0)
(5.05139 0.169441 0)
(-0.901332 -3.56389 -3.87869e-19)
(4.00234 -0.772731 -1.60243e-18)
(3.40451 -0.806236 9.73361e-19)
(5.69658 -0.962225 1.70811e-19)
(-4.97106 1.90503 5.80993e-18)
(3.95906 0.139889 4.89152e-19)
(2.96135 -0.656866 0)
(4.38928 0.94836 -1.25888e-19)
(2.76372 -0.311473 0)
(4.74327 0.0741041 0)
(3.99839 0.242575 0)
(4.41545 0.359903 -2.98197e-20)
(3.66958 -0.0413214 9.14528e-19)
(4.23453 0.100251 -1.93086e-20)
(3.04071 -0.671787 0)
(-5.46255 2.92425 -5.25011e-18)
(4.18617 2.28807 1.18357e-19)
(3.63889 -1.31928 1.10068e-19)
(3.91281 -0.125946 -3.07338e-19)
(4.66732 -1.19936 1.61854e-18)
(4.10201 0.0696319 -8.34397e-19)
(-0.683556 3.82898 0)
(5.17993 -0.13874 0)
(2.91034 1.78711 0)
(2.43864 -1.07085 -2.07253e-18)
(2.43895 -1.71727 -2.20607e-19)
(-0.00840862 -0.234429 0)
(4.44115 0.964698 0)
(5.32573 -0.413776 2.19144e-19)
(3.91813 -0.0375109 -2.40069e-19)
(3.85305 1.26073 9.25719e-19)
(3.61304 -1.57575 0)
(-5.56755 2.34926 -2.48808e-18)
(4.68601 0.143944 -5.0431e-20)
(2.74599 -0.746834 -1.94109e-18)
(4.42845 0.151584 -1.27242e-19)
(4.66989 1.22415 1.14703e-19)
(4.38709 -2.89657 8.2493e-19)
(2.40165 -1.07349 3.59698e-18)
(3.58817 -1.29383 4.56062e-19)
(4.22204 0.184014 7.00956e-21)
(3.99378 0.0418286 -2.45258e-19)
(2.71768 -1.27149 -3.34331e-19)
(3.32045 -0.567157 1.03671e-19)
(3.32249 4.42524 1.87036e-19)
(2.94788 -1.41707 5.34643e-19)
(5.26282 0.126017 0)
(2.74545 -1.76064 2.02253e-19)
(4.29781 -0.030798 -6.91732e-19)
(5.97246 1.37489 5.87374e-19)
(2.69105 -0.675778 -1.76436e-18)
(3.61085 -1.26927 -1.18818e-18)
(4.0308 -0.0398094 2.29878e-18)
(4.93669 -0.143659 -1.30071e-18)
(3.2007 -0.599382 4.27924e-20)
(5.73695 -0.0799808 -9.39463e-19)
(2.23986 -0.225376 -3.8334e-18)
(4.33498 0.00772038 -5.06798e-19)
(2.19929 -0.337509 0)
(1.79949 -1.70392 -3.41676e-19)
(4.01613 0.0402063 2.13997e-18)
(3.58824 0.0147619 -2.49058e-21)
(-1.94868 -1.93046 0)
(3.36829 -1.57317 0)
(4.08886 0.889423 7.87883e-19)
(1.96109 -0.190188 2.37207e-18)
(3.00886 -2.85293 -9.10044e-19)
(4.12295 -1.40038 -6.03692e-19)
(4.38139 -0.825433 1.3726e-18)
(6.49895 1.1417 0)
(4.11728 0.95598 4.09484e-19)
(2.53532 -0.87318 -1.22629e-20)
(5.11046 2.13362 6.35563e-19)
(3.86757 -0.498132 -1.38562e-18)
(-4.79358 1.96992 -9.01745e-18)
(4.62556 -1.12712 -1.56726e-18)
(5.06775 -1.26859 5.59395e-19)
(4.65329 2.48126 0)
(3.99347 -0.588438 -2.06348e-19)
(3.7151 0.112132 2.28182e-19)
(3.99939 0.0162511 5.96172e-22)
(1.82194 -0.875951 3.26336e-18)
(3.80714 -0.495593 2.06463e-18)
(3.96667 0.758474 -6.50665e-21)
(-1.79773 -1.05851 -1.00808e-18)
(4.47181 -0.241675 -5.33115e-19)
(4.39496 -0.0013428 4.49832e-19)
(-3.65794 -1.43143 -1.2079e-18)
(4.90777 2.0056 -6.42451e-19)
(-3.30495 4.87406 -8.52767e-18)
(2.25079 -1.0961 -1.11115e-18)
(4.0068 0.0194278 0)
(4.18224 0.275593 -3.37959e-20)
(-1.6639 -3.8738 -1.79111e-18)
(2.6025 -0.212778 3.49169e-18)
(4.11283 0.0352812 0)
(4.26476 -0.444704 1.53391e-19)
(2.29918 -0.915985 8.06928e-19)
(3.97028 0.0965497 -2.10076e-18)
(-2.79275 0.153552 -1.61495e-18)
(3.18636 -0.805849 -6.47573e-20)
(4.33517 -0.41655 8.06104e-19)
(4.57839 0.120798 6.80421e-20)
(3.46262 -1.56996 -1.45716e-18)
(4.25311 0.122904 2.86021e-20)
(2.4334 -1.92537 -6.4013e-19)
(4.268 -0.0464651 6.49196e-19)
(4.04277 -0.112514 -6.55996e-19)
(4.29368 0.206335 -2.7827e-20)
(4.4235 -0.0782562 -1.4419e-18)
(2.21778 -0.948998 -1.5612e-18)
(4.17337 0.156216 0)
(0.920848 -2.51874 3.9245e-19)
(4.17626 0.0824366 1.60735e-19)
(1.29359 -0.360796 -2.31573e-19)
(4.89794 0.0735141 -2.44699e-19)
(4.27674 -0.848725 -8.38027e-19)
(4.0043 0.0434759 -1.58113e-18)
(4.20872 0.656541 2.2094e-19)
(-3.09745 0.789217 -2.33346e-18)
(5.0462 0.155917 0)
(3.38734 0.350681 3.80644e-20)
(5.28865 -0.044513 1.25724e-19)
(2.84039 -1.03866 0)
(4.28389 0.174302 3.51211e-19)
(5.31128 0.0816844 1.10809e-19)
(4.93751 0.13473 1.75197e-23)
(4.80431 -1.66656 -1.26758e-19)
(3.5956 -0.104294 0)
(3.54937 0.769369 1.72945e-18)
(4.1024 0.605953 2.62707e-20)
(2.90448 -1.40142 1.167e-18)
(3.96052 -0.342507 0)
(2.9168 0.684977 -2.83923e-18)
(2.77544 -0.728191 -3.74973e-20)
(5.19483 3.03646 -1.43983e-18)
(2.25907 -0.265953 3.70005e-18)
(4.21549 -0.0175447 2.82305e-20)
(-0.452887 -0.266005 4.1052e-19)
(3.82595 -0.149453 -1.43337e-18)
(5.19283 -1.02147 -1.47404e-18)
(3.52977 0.339688 -1.31474e-18)
(4.1519 0.0551407 0)
(3.98713 0.0596209 -9.30037e-19)
(-0.0661867 -0.280768 3.231e-19)
(-1.6358 -1.1551 0)
(4.74596 -1.95222 0)
(3.99997 0.0162094 0)
(1.28289 -0.828477 0)
(4.12199 0.670833 0)
(2.11261 -0.192424 0)
(3.81128 -0.914652 -1.34642e-20)
(7.38903 -1.74062 -2.53176e-18)
(5.20569 0.620549 0)
(3.52981 0.73185 2.63341e-18)
(3.13018 -0.885539 -1.2978e-19)
(4.18618 0.426406 2.51049e-20)
(-1.36256 -3.9733 -1.33109e-18)
(2.15667 0.294154 -1.27913e-20)
(-2.86707 0.841565 1.57824e-18)
(4.18632 -0.0182068 -5.34769e-19)
(5.28262 -0.104149 1.17609e-19)
(4.06986 0.633751 -5.4779e-19)
(3.75551 0.399209 -1.72585e-18)
(4.04108 2.16203 -4.79015e-19)
(7.09993 2.02448 0)
(1.98567 -1.14439 2.60938e-20)
(2.43012 -0.675938 -3.11386e-18)
(4.02811 0.029322 -2.84687e-18)
(4.47066 -1.38182 -1.18048e-18)
(4.17674 -0.0426481 2.28047e-19)
(5.18567 -1.41735 1.35521e-19)
(4.17034 -0.644948 -1.8154e-19)
(4.02581 -1.05863 -1.16573e-18)
(4.07295 0.382202 5.99983e-19)
(4.50914 2.9785 0)
(3.55804 -0.385168 -1.11837e-19)
(3.32391 0.232486 -4.02512e-19)
(4.93202 -0.856249 0)
(3.39417 -0.0422918 0)
(3.61048 -1.64515 -1.2704e-20)
(-0.163825 -0.474104 3.80945e-19)
(3.75811 -0.934625 -5.08877e-19)
(3.60015 0.104266 0)
(3.75026 -0.0649155 -1.87407e-18)
(3.53557 0.499828 -3.37613e-19)
(1.23574 -2.02525 1.86872e-19)
(5.15768 0.227105 7.28681e-20)
(-2.41662 0.503601 0)
(1.9173 -1.1385 3.35863e-20)
(5.23893 0.147354 0)
(3.92203 -0.621626 2.17855e-19)
(5.07589 -0.574849 -2.52884e-19)
(4.00401 0.0444401 -2.25672e-21)
(4.87114 1.34985 3.61049e-19)
(5.59632 2.5427 -1.51434e-19)
(3.39022 -0.93971 2.33592e-18)
(2.19207 -1.11504 0)
(3.12187 -1.8032 -5.65471e-19)
(3.04316 -0.975755 0)
(5.31799 0.58854 -2.67286e-19)
(1.17879 -1.94197 2.85894e-19)
(4.61455 -1.94038 1.06492e-18)
(3.36104 0.281444 -4.55176e-20)
(0.0727406 -4.2397 -2.32102e-18)
(2.57717 -1.26047 -1.35228e-18)
(2.52141 -0.694391 -1.78586e-18)
(3.8595 0.161033 -1.54121e-21)
(3.21384 -1.75285 4.65839e-19)
(2.27326 -0.973937 1.28697e-18)
(2.63972 -0.756857 1.98448e-18)
(2.4217 -1.63089 2.48973e-19)
(3.46063 -1.99372 -3.39566e-19)
(3.60132 -1.12348 1.17792e-18)
(-0.326123 4.1009 4.05731e-18)
(4.29541 0.023582 1.68219e-20)
(3.0082 -0.826138 1.21876e-19)
(4.71666 0.82632 -2.74499e-20)
(4.36149 -1.12755 0)
(1.18272 -0.806529 -8.81363e-18)
(4.18451 -0.0346842 -8.36592e-19)
(3.99251 0.275141 0)
(5.25458 0.527248 0)
(2.951 -1.41021 -2.98505e-19)
(5.61433 -1.41577 -1.67842e-18)
(4.86039 0.403875 4.56029e-19)
(3.99012 -0.756668 2.09632e-18)
(3.99916 2.03365 4.69971e-19)
(3.22347 0.0027626 1.48523e-18)
(0.944107 -2.16795 -4.37327e-20)
(3.62275 1.3697 0)
(2.69463 -0.815297 1.91717e-18)
(0.331686 2.81327 2.48777e-18)
(0.136125 -3.99426 1.6876e-18)
(3.35291 -1.28532 3.86388e-19)
(3.25688 -1.49335 -3.00489e-19)
(4.06405 -0.0144726 7.46752e-19)
(3.38232 0.101122 3.54578e-20)
(4.48126 -0.678882 1.01852e-18)
(0.772577 -2.23602 -2.47095e-19)
(4.8138 0.401879 -3.24339e-19)
(3.85176 0.136608 7.33856e-19)
(2.19634 -0.333193 -1.52816e-18)
(3.66563 -0.124272 1.17082e-18)
(3.15695 -0.603139 0)
(4.87658 0.775509 -3.50518e-19)
(3.9315 0.109435 1.63046e-19)
(2.86854 -0.517023 -6.04816e-19)
(3.82117 3.8908 3.97067e-19)
(3.54316 -1.09609 8.70935e-19)
(4.11195 0.0491697 3.16818e-19)
(2.71529 0.406934 -2.25046e-18)
(4.90891 -0.866771 0)
(3.43529 0.29979 -7.53301e-20)
(4.47835 0.187744 1.74079e-19)
(3.89747 -0.131893 0)
(2.73698 0.179677 1.29078e-18)
(5.15576 0.211165 0)
(3.71123 3.85289 -2.53752e-19)
(4.81957 -0.0677528 0)
(3.58409 -0.428048 0)
(5.09421 -0.0690229 1.62361e-19)
(4.8193 0.32625 -1.77051e-19)
(5.90505 0.22212 -1.69056e-18)
(3.84357 0.31875 -7.82075e-19)
(3.1915 2.61711 -4.54619e-19)
(4.02227 0.233286 -2.8885e-19)
(4.17757 0.671471 0)
(5.70774 2.08719 -8.50353e-19)
(4.98192 0.284688 4.25129e-19)
(3.89475 -0.581146 -4.48851e-19)
(4.36063 -1.12239 0)
(6.04168 1.33813 8.86682e-19)
(4.55018 3.49 9.99182e-20)
(4.23889 0.0273896 6.77809e-20)
(3.11685 -4.99244 0)
(-0.691093 -3.65685 6.41716e-18)
(4.08971 0.357055 0)
(4.54302 -0.601367 -5.09057e-19)
(0.919675 -1.39411 0)
(7.02918 1.39693 0)
(3.5322 -1.37804 0)
(3.94172 -1.50865 0)
(-3.79039 1.33196 -1.51602e-18)
(0.929408 -3.27195 -1.76944e-19)
(3.64649 -0.0192215 -1.37735e-18)
(1.7934 -1.52164 -1.45446e-19)
(2.43582 -1.02367 0)
(1.88563 -1.85444 -1.55414e-19)
(0.352629 -1.62695 -6.60831e-18)
(3.05796 -1.43597 0)
(2.84889 -0.960114 -2.03846e-18)
(3.88913 0.313151 3.14566e-21)
(4.68185 0.806176 2.09165e-20)
(4.67863 -1.65537 3.2248e-19)
(3.72865 0.384156 0)
(4.25158 -1.4057 0)
(6.8781 0.431131 8.92855e-19)
(3.3231 -0.493201 2.62347e-20)
(3.81316 0.184349 -3.9863e-21)
(2.94407 -1.38874 -1.11553e-21)
(3.98866 0.00994478 6.87912e-20)
(4.16939 0.260209 2.26804e-21)
(4.06634 0.381405 8.68609e-19)
(3.49322 0.396062 2.81491e-20)
(3.67489 -1.00642 0)
(-5.51727 3.45366 0)
(4.21962 0.0994968 0)
(3.84202 0.0288186 0)
(3.39184 -0.571919 8.61363e-19)
(5.45354 -0.152108 0)
(-2.22318 -1.52416 1.67564e-17)
(4.09542 -2.90816 -1.2464e-19)
(2.56695 -0.776784 -3.00184e-18)
(3.08284 -0.749003 4.75159e-20)
(1.11438 -2.61697 -2.21028e-19)
(0.282316 -1.28507 -9.88004e-18)
(4.01942 0.0438569 2.5119e-19)
(0.212421 -2.49797 -3.81822e-19)
(3.54102 0.449417 3.05328e-20)
(5.0797 -0.0529797 0)
(4.59818 -0.808455 0)
(3.33333 -0.952901 0)
(4.27235 -0.871794 4.43594e-19)
(3.37474 -2.11892 0)
(3.73822 1.32441 0)
(4.00358 0.00609393 0)
(3.45266 -0.820878 9.01256e-19)
(4.18289 0.403181 -7.49869e-19)
(3.68388 0.0289609 0)
(3.90663 -0.936866 -4.97444e-19)
(3.94561 0.402791 -8.84512e-19)
(5.14229 1.85366 -1.31731e-18)
(3.09952 -1.44851 1.22206e-18)
(3.82731 1.45037 -3.73583e-21)
(3.34036 -0.709528 -1.91519e-20)
(3.33658 -0.0251542 9.69145e-20)
(3.60179 -0.570583 -2.31288e-19)
(4.78936 0.332404 2.57762e-19)
(3.83434 0.16477 -7.53686e-21)
(3.57461 0.202691 -1.28397e-18)
(4.24688 -0.021565 0)
(1.87507 -0.519803 1.76305e-19)
(3.88819 0.137559 1.30895e-18)
(2.63849 -0.887323 -2.72996e-20)
(4.17192 -0.609347 -5.28182e-19)
(2.02706 -0.244098 -2.59376e-18)
(4.77548 0.26243 -4.68561e-20)
(6.33903 0.766754 1.49435e-18)
(4.01669 0.17481 0)
(3.93884 -2.08531 2.68269e-19)
(3.57201 0.11166 -2.93028e-20)
(3.61529 -0.582588 4.47026e-19)
(1.80724 -1.07973 -1.83438e-19)
(4.00176 0.0295902 6.96664e-19)
(4.20906 0.148842 -7.63562e-21)
(4.15294 0.0142031 -2.29532e-20)
(4.21766 0.0917724 0)
(2.91721 -0.634101 0)
(2.85925 -1.37445 1.48059e-18)
(-2.51959 0.269482 1.75177e-18)
(4.01873 0.011685 4.38299e-22)
(3.88385 0.124029 2.6268e-18)
(3.66088 -1.74568 -6.77913e-19)
(2.8605 0.633574 0)
(3.5772 0.232055 0)
(3.10352 -0.633308 -1.10173e-20)
(4.97431 0.00136013 2.62243e-19)
(3.94698 1.379 1.18928e-18)
(4.93732 -0.391502 0)
(4.34589 0.00932208 0)
(4.04833 -1.18809 1.62272e-18)
(3.90402 -0.301031 1.10494e-18)
(0.216743 -0.137329 -3.9401e-20)
(3.74225 -0.0503375 0)
(6.741 1.4466 1.25505e-18)
(4.15486 -1.19089 -2.02797e-19)
(-1.59234 -3.24131 -2.37486e-18)
(3.96315 -0.0225398 -1.48931e-18)
(7.20534 -1.13641 0)
(5.76452 -1.38627 1.33206e-18)
(3.7631 -4.47003 -2.07869e-18)
(0.0252818 -0.0204967 0)
(3.86144 0.0395909 5.00944e-21)
(3.79279 0.257904 -8.53102e-19)
(4.03182 0.00274922 1.54419e-23)
(5.20317 -0.592862 1.47557e-19)
(3.1133 2.86295 1.98946e-18)
(4.12996 0.0305019 0)
(2.004 -0.671093 -1.6709e-20)
(3.90729 -1.45962 5.16453e-19)
(6.16221 -4.88229 -8.15017e-18)
(4.10751 0.612217 6.51913e-19)
(2.20555 -1.0808 2.14186e-20)
(4.04262 0.0038011 -3.2551e-18)
(3.95865 0.820319 4.90161e-21)
(3.28819 0.0965185 7.82755e-20)
(3.37688 -0.734822 0)
(3.61372 0.0418265 -1.76008e-19)
(2.20927 -1.00234 1.02472e-18)
(4.39878 -0.234805 -1.56795e-18)
(3.94197 0.115929 -1.18026e-18)
(4.49935 -0.567004 4.72062e-19)
(3.29107 -0.258273 3.14659e-18)
(4.28422 0.0253874 -1.92255e-20)
(3.54199 0.236366 7.5318e-19)
(3.91357 0.210507 1.52311e-20)
(5.73336 -1.00427 -1.97774e-18)
(4.98402 2.12908 -9.08267e-19)
(3.09147 -3.03048 7.01178e-19)
(3.93271 -0.0431643 0)
(2.95816 -0.91807 0)
(2.05494 -0.603054 0)
(2.57549 -0.713291 2.30009e-18)
(4.13902 0.0757394 -1.89781e-18)
(3.51678 0.54363 0)
(2.94073 -0.561117 -1.80316e-18)
(3.54657 0.489485 0)
(3.41489 -0.504242 -1.4094e-18)
(3.82859 -0.609537 -4.67443e-19)
(3.63173 -0.948643 -1.28609e-18)
(4.21134 0.0346503 0)
(3.85443 0.098976 0)
(3.93329 -0.137083 2.70582e-19)
(5.12211 0.504208 2.96393e-20)
(5.18298 -0.178988 8.13715e-19)
(4.96434 3.69075 -7.67222e-21)
(4.99902 -0.503147 0)
(3.37131 -1.24068 -6.57642e-19)
(-1.10467 -0.848451 0)
(1.76564 2.09499 -1.13199e-18)
(5.6558 2.49743 0)
(4.25223 0.144078 1.58572e-20)
(2.25916 -0.188773 1.00354e-18)
(2.92572 -0.11903 1.00081e-18)
(3.70746 -0.0607706 -2.73529e-19)
(3.84566 -2.68055 -2.5967e-18)
(3.85374 -0.349439 2.80167e-18)
(4.13585 0.654295 -2.23386e-20)
(4.84342 -1.33587 -1.54965e-19)
(3.85703 -0.851663 -6.38111e-19)