/*--------------------------------*- C++ -*----------------------------------*\
| =========                 |                                                 |
| \\      /  F ield         | OpenFOAM: The Open Source CFD Toolbox           |
|  \\    /   O peration     | Version:  2306                                  |
|   \\  /    A nd           | Website:  www.openfoam.com                      |
|    \\/     M anipulation  |                                                 |
\*---------------------------------------------------------------------------*/
FoamFile
{
    version     2.0;
    format      ascii;
    arch        "LSB;label=32;scalar=64";
    class       surfaceScalarField;
    location    "8.3";
    object      phi;
}
// * * * * * * * * * * * * * * * * * * * * * * * * * * * * * * * * * * * * * //

dimensions      [0 3 -1 0 0 0 0];

oriented        oriented;

internalField   nonuniform List<scalar> 
20045
(
0.253401
-0.279415
0.0260146
-0.538664
0.198689
0.339975
0.197011
1.01944
-1.21645
-0.22724
0.303641
-0.0764003
-0.452288
0.410194
0.0420937
-0.313536
1.13221
-0.818677
-0.477461
0.146925
0.330537
0.0286603
0.2296
-0.258261
0.249976
0.210323
-0.460299
-0.401886
-0.0541754
0.456061
-0.236814
-0.157056
0.39387
1.11089
-0.530954
-0.579936
0.185256
-0.185359
0.000103302
-0.621076
0.543171
0.0779047
-0.117003
0.496849
-0.379846
-0.531494
0.129609
0.0233554
-0.108648
0.0852925
0.169057
-0.252689
0.083632
-0.807495
1.1924
-0.384905
-0.379581
0.0186521
0.360928
-0.353114
0.287592
0.0655212
0.0638457
0.12141
-0.0755741
-0.46309
0.687077
0.500038
-1.18712
0.406578
0.102352
-0.50893
-0.541487
1.22856
0.045107
-0.0503453
0.00523832
-0.741367
1.39387
-0.652504
0.821817
0.165914
-0.987732
-1.42889
0.775953
0.652938
-0.175796
0.350251
-0.174455
0.666167
-0.497028
-0.169138
-0.294711
0.843821
-0.54911
1.30099
-0.749009
-0.551977
-0.293241
0.321901
0.992213
-0.477122
-0.51509
0.588208
0.0859894
-0.674197
-0.030497
0.190597
-0.1601
-1.03108
0.506164
0.524919
0.304597
0.269773
-0.57437
0.0045562
0.242092
-0.246648
0.0672247
-0.0966843
0.0294596
1.06501
-1.06609
0.00107544
0.733764
-0.270963
-0.462801
0.340414
0.393349
0.499534
0.611355
-0.080094
-0.0514885
0.131582
0.66035
0.225613
-0.885963
0.744762
-0.156554
0.111024
0.989949
-1.10097
0.655257
-1.09958
0.444327
0.930342
-0.659224
-0.271118
-0.58378
-0.402168
0.985948
-0.0479719
-0.15562
0.203592
0.342718
-0.272511
-0.0702071
-0.350472
-0.101817
-0.283884
1.1361
-0.852215
0.790115
0.111945
-0.90206
0.690841
-0.985552
0.69928
-0.546678
-0.152602
-0.278643
-0.143653
0.422296
0.253997
0.445283
0.188517
-0.843994
0.655477
-0.225302
-0.127812
0.780932
-0.149018
-0.631913
0.647786
0.0827821
-0.730568
0.0937372
-0.291466
0.197729
-0.336542
0.0717798
0.264763
0.438976
-0.189
0.76405
-0.777552
0.0135022
0.230193
-0.136456
0.160224
0.182495
-0.129946
-0.534467
0.664413
0.0616765
-0.0964802
0.0348037
0.6874
-0.150972
-0.536428
0.742353
-1.02624
0.0210336
0.666366
0.255493
-0.372496
0.139974
-0.0663313
-0.0736428
0.119383
-0.626305
0.506922
0.515332
0.572928
-1.08826
0.446555
-0.355816
-0.0907383
0.625677
-0.437161
-1.33876
0.22513
1.11363
0.00617551
0.247225
-0.250248
0.291495
-0.0412463
0.284742
-0.648884
0.364142
-0.800095
0.0302476
0.769847
0.510437
0.0885846
-0.599021
-0.414109
0.375395
0.0387135
-0.672413
-0.0903293
0.762742
0.384886
-0.0808907
-0.303995
0.206581
-0.299079
0.0924983
-0.0905679
-0.405094
0.495662
0.302613
-0.324778
0.0221651
0.767233
0.148573
-0.915807
0.046821
-0.00171408
-0.0395567
0.302683
-0.263126
0.626313
-0.321716
0.0522551
-0.134469
0.0822136
0.672597
0.319616
-0.217049
-0.404027
0.324552
-0.364109
-0.194731
0.984846
0.0061626
-0.256411
0.142584
-0.0903287
0.223703
0.610837
-0.83454
0.532757
-0.953949
0.421192
0.0598801
-0.224748
0.194092
0.0306566
-0.105936
0.135694
-0.0297579
0.556291
-0.450402
-0.10589
-0.25575
0.207778
0.627098
-1.27321
0.646107
-0.0937911
0.164028
-0.0702367
0.0233141
-0.130745
0.107431
0.56735
-0.160772
0.904752
0.396235
-0.599609
0.469664
0.608415
-0.838669
0.230255
0.232257
-0.0631999
-0.409288
0.130645
-0.40115
0.323834
0.0773165
-0.498326
0.0537632
-0.304897
0.251134
0.635323
0.295019
0.550992
-0.72868
0.177688
0.809498
0.0925785
-0.902077
-0.997574
0.718946
0.278628
0.0805043
-0.875379
0.794875
0.964851
-0.329529
0.158505
-0.209993
0.0860342
-0.0295256
-0.0565086
-0.0350934
0.0266625
0.00843082
0.572583
0.399269
-0.971852
0.598285
-0.569582
-0.0287031
-0.166568
0.0899801
0.076588
-0.162138
-0.0626103
0.954094
-0.345679
-0.340889
0.355827
-0.0149384
0.611345
-1.1884
0.577056
0.15739
-0.74117
0.527022
0.228095
-0.755117
0.718157
-0.598774
0.958365
-0.134652
-0.823713
0.569386
-0.784977
0.215591
0.981511
-0.64746
-0.334051
-0.127955
0.215289
-0.0873334
-0.0597559
1.13516
-1.0754
1.07045
-0.248628
-0.823902
0.0243794
0.799523
-0.494545
0.391098
0.103447
0.976104
-0.460772
0.157799
0.288755
-0.627819
0.772571
-0.144752
-0.888513
1.08552
0.00864135
-0.171245
0.162604
-0.107665
0.101775
0.00589041
-0.018789
-0.192252
0.211041
0.617914
0.212164
-0.830078
1.40489
-0.706732
-0.698161
-0.229686
0.210897
0.333793
-0.636277
0.302484
0.079303
-0.0120783
-0.853955
-0.448536
0.672632
-0.224096
-0.65873
0.473832
0.184898
-0.010973
-0.0305926
0.0415656
0.44517
0.53634
-0.0165248
-0.0185686
-0.00975692
0.0957911
-0.703746
0.0759269
-0.737534
0.93034
-0.192807
-0.672767
0.746821
-0.0740541
-0.555228
-0.436906
0.992134
-0.0189874
0.395866
-0.376879
0.442404
-0.450492
0.00808812
1.0464
-0.0241663
-1.02223
0.00942753
-0.760597
0.75117
-0.361036
0.888058
0.194266
-0.558702
0.364435
-0.599583
1.22668
-0.802535
0.54738
0.255155
0.0533808
-0.0464365
-0.00694425
0.524311
-1.25943
0.735121
-1.09184
0.350475
-0.582043
-0.469172
1.31251
-0.770403
-0.542109
-0.304885
0.309441
0.130983
-0.138685
0.00770198
-0.646713
-0.132985
0.779697
-0.956563
1.33921
-0.382651
0.969541
-0.737405
-0.232136
0.0669022
-0.235856
0.168954
-0.332245
-0.47996
0.812205
0.160269
-0.397083
-0.69889
0.779394
-0.723435
-0.228743
0.952177
0.0930568
0.0253174
-0.118374
0.150838
-0.599374
-0.323946
0.14815
0.869121
-0.0596221
-0.144418
0.113921
-0.14869
0.185641
-0.0369512
-0.385211
1.00313
-0.878557
0.546312
-0.102347
0.136916
-0.0345694
-0.71631
0.140871
0.575439
0.284099
0.685442
1.32854
-0.804233
0.831448
-1.46378
0.632336
0.467389
-1.36422
0.896827
0.0373973
-0.416978
-0.494227
0.71793
0.651937
-0.965473
0.558557
-0.946294
0.387737
-1.53428
0.879425
0.65485
-0.0225224
-0.391586
0.183995
0.146655
-0.33065
0.727367
-0.261138
-0.466229
-0.111113
-0.790734
0.730978
-0.259358
-0.0815311
0.681458
1.05058
-0.831763
-0.218814
-0.0107011
-0.129987
0.140688
0.659681
0.137668
-0.797348
0.00543663
-0.368122
0.362685
-0.299431
0.844225
-0.544794
-0.443092
0.727833
0.580533
-0.386267
-0.0837455
0.284979
-0.201234
1.01215
-0.400808
0.0929035
-0.00805686
-0.0848467
-0.21775
-0.179315
0.397066
-0.107525
0.111693
-0.004168
1.29929
-0.79038
-0.508914
0.249431
-1.20599
-0.117618
0.0100934
-0.856507
0.2615
0.595006
1.37474
-0.530917
0.24129
-0.978824
1.47344
-0.614423
-0.859012
-0.0123442
0.105401
0.899394
-0.510276
-0.389117
-0.613458
0.132322
0.481136
-0.922523
0.920825
0.00169814
0.478611
-1.18216
0.703552
0.0319483
-0.0276559
-0.00429237
-0.464113
0.621349
-0.157236
-0.000577171
0.336282
-0.335705
-0.149523
0.0557318
-0.123668
0.0177322
-0.564196
-0.389753
0.40729
-0.899261
0.491971
-0.385974
0.427431
-0.0414576
0.402623
0.263544
0.881737
-0.323179
-0.123337
0.0156717
0.687715
0.687023
-0.499175
0.0240029
0.475173
0.414808
0.484586
0.389687
0.107163
-0.450208
0.0642345
-0.290132
-0.0367865
0.326918
0.0208026
0.0325781
-0.895064
0.595633
0.13253
-0.349903
0.217372
-0.940781
0.910073
0.0307075
-0.342432
0.442413
-0.0999804
-0.201626
-0.112903
0.314528
0.763414
-0.834558
0.0711448
-0.924506
-0.609769
1.26074
-0.796684
-0.464051
-0.0957387
0.0850375
1.26903
-0.790414
-0.512024
0.919314
-0.612998
0.149864
0.463134
0.918467
-0.249929
-0.668539
1.09106
-0.288952
-0.80211
-0.513459
-0.0995395
0.846387
-0.50382
-0.342567
-0.168951
0.792346
-0.623395
0.186006
-0.878256
0.69225
0.174999
0.228544
-0.403543
-0.0770897
-0.0148778
0.0919675
1.30149
-1.11535
-0.186137
-0.519989
-0.477585
0.685777
0.3648
-0.862693
-0.0780879
0.142474
-0.360224
0.355303
-0.757565
0.402263
0.00355184
0.127431
-0.537845
1.11043
0.539522
0.759771
1.43321
-0.842362
-0.590844
-0.808078
0.579335
0.698762
-1.18148
0.482717
-0.628882
-0.0465324
0.675415
-0.285466
-0.14423
0.429696
0.556014
-0.222221
-0.210212
0.107865
0.443602
-0.0559201
-0.441108
-0.596883
0.830362
-0.233479
-0.173439
0.024749
-0.148161
0.0644153
0.108137
-1.03066
0.35205
-0.795141
0.0980488
-0.178677
0.241854
-0.0631775
0.0154052
-0.242646
-0.483772
0.366089
0.117683
0.34506
0.211231
0.588672
-0.241245
-0.347426
0.484445
0.11384
-0.386653
0.741956
0.573422
-0.0629854
-0.212843
-0.503468
1.1621
-0.95725
-0.204851
0.733775
-0.849968
0.425376
0.424592
0.800351
-0.871203
0.0708514
-0.443732
0.353164
-0.117527
-0.0490408
-0.120443
-0.55197
0.308427
-0.548859
0.240432
0.421386
0.425002
0.674143
-1.11876
0.44462
0.254735
-0.54423
0.289495
-0.973275
0.173181
0.0223549
0.362531
-0.525741
0.796014
-0.270273
-0.245708
0.307101
-0.0613935
-0.443559
-0.0339025
-0.126489
-0.235163
0.361652
0.086983
0.000782327
-0.0877654
-0.305063
-0.189482
0.367881
0.447664
-0.815545
0.838801
-0.423993
0.267037
-0.449669
0.00593728
0.478356
-0.223621
-0.662238
-0.140297
0.321404
-0.321986
0.000581967
0.963778
-0.303428
-0.47857
0.758232
-0.279661
-0.118609
0.139116
-0.0205072
0.703751
0.0236163
-0.412068
-0.345498
-0.520863
0.937734
-0.41687
0.608453
-1.11438
0.505932
0.584938
0.675797
-0.0462109
0.044804
0.00140686
0.0949488
-0.723831
0.631693
-0.948436
0.316743
0.0624442
-0.000767683
-0.0898727
0.640864
-0.364183
0.716233
-0.80524
1.27263
0.183
-0.990495
-0.820102
0.442901
0.377202
0.646803
-0.111066
-0.535736
0.940731
-0.177318
-0.549466
-0.520593
-0.450392
0.642826
0.033118
0.201105
-0.234223
0.321188
-0.302536
-0.732113
0.64224
0.836195
0.228814
-0.794652
0.316082
1.03994
-0.354158
-0.343101
0.370691
-0.0275897
0.0283661
-0.625368
0.597002
-0.900525
0.165768
0.734756
0.72854
-0.72854
-0.416281
0.819535
-0.403253
0.360868
0.227803
0.637056
-0.336248
-0.300807
-0.971914
1.01174
-0.0398281
0.344573
-0.0355048
-0.309069
0.265279
-0.104554
-0.160725
0.111918
-0.313544
0.191623
0.460431
-0.972454
-0.856937
1.00738
-0.150446
-0.287219
0.6551
0.0972685
0.0119875
-0.109256
0.0239184
-0.214652
0.190733
-0.37909
0.416488
1.35323
-1.08324
-0.269982
-0.0867937
-0.521308
0.608102
-0.236439
0.255678
-0.0192389
0.130534
-0.276566
0.146032
-0.883514
0.319212
0.564301
0.20654
0.0971003
-0.393844
0.050743
-0.00574089
-0.118151
0.123892
0.658129
0.643363
0.118341
-0.0210729
-0.0470231
-0.276242
0.323265
-0.515968
0.819497
-0.303529
0.0126235
0.112645
-0.125268
0.404452
-0.257528
0.642558
-0.220043
-0.422514
0.0183073
-0.423402
0.206092
0.840308
0.443614
0.291909
-0.735523
0.468401
-0.406015
-0.0623866
-1.01281
0.188904
-0.397632
0.16278
0.234852
0.499423
0.700048
-1.19947
-0.635619
0.589086
0.0461697
-0.916421
0.870251
-0.128155
0.195058
0.0673634
-0.0657015
-0.00166184
0.0344344
-0.324566
0.00980003
0.0252151
-0.0350151
-0.673793
-0.182714
0.620265
0.0975364
-0.0580436
-0.0394928
-0.1268
0.00819168
0.162202
-0.702492
0.54029
0.262589
0.530542
-0.793132
0.470149
-0.70791
0.864331
-0.156421
-0.723935
0.554984
-0.0296122
-0.020733
-0.381967
-0.276763
-0.260144
0.0650651
0.195079
-0.893082
0.377115
0.663158
-0.749951
0.435842
0.604093
-0.322182
0.310121
0.0120617
0.362378
-1.16788
0.805503
0.156416
-0.270158
0.113742
0.340178
-0.752246
-0.631669
-0.0410987
-0.317033
-0.0195099
0.0948893
-0.112218
0.0173292
0.428719
0.00558959
-0.0242109
0.0186213
1.14
-0.640576
-0.532414
0.864706
-0.332292
0.267102
0.184463
-0.451565
-0.355284
0.227129
-0.220548
-0.0395956
0.429643
0.207413
-0.19756
-0.641109
0.289493
0.0319109
0.609867
0.415014
0.158408
-0.960461
1.07149
0.126236
-0.454574
0.328338
-0.0873721
-0.827198
0.91457
-0.207447
0.227643
-0.0201963
-0.418521
0.399534
-0.558354
0.74436
0.869795
-0.300409
-0.417376
-0.0663954
0.00555843
-0.41642
0.410862
0.410615
-0.965843
-0.127057
-0.45803
0.585087
-0.0993434
0.303428
-0.204085
-0.647387
0.0435256
0.603861
0.929052
-0.703439
-0.0132437
0.0856614
-0.0724177
-0.217015
-0.0194239
0.181046
0.367736
-0.548783
0.105961
-0.132269
0.0263081
0.576757
0.330628
-0.907384
-0.349228
1.11646
0.0837038
0.00327926
-0.279268
-0.601068
0.880336
0.303029
0.651065
0.957323
-0.694734
-0.35694
0.230451
-0.11532
0.03823
-0.44603
1.14479
0.129012
-0.762464
0.633452
0.854354
-0.141887
-0.712467
-0.4832
0.693657
-0.210457
0.392827
-0.460815
-0.394762
0.855576
0.128092
-0.132682
0.00458969
-0.280107
-0.487864
0.767971
-0.1979
0.221818
0.0372704
-0.0482434
0.508229
-0.788336
-0.701556
-0.2136
0.915157
-0.0581658
-0.487595
0.545761
-0.0543422
1.20443
-1.22583
0.0214
0.207265
-0.136957
-0.0703081
-0.0099381
-0.312244
0.257077
0.238585
-0.326246
0.0407795
-0.815033
1.02276
-0.207728
-0.23215
0.364681
0.26434
0.453818
-0.810177
-0.255908
-0.0715642
-0.0632649
0.134829
0.533481
-0.118467
-0.202221
0.222034
-0.0198133
0.369459
-0.370036
-1.19035
0.608311
0.934297
0.197916
-0.118835
0.24937
-0.204523
0.471625
0.951234
-0.490803
-0.208585
0.00636432
-0.114204
-0.617908
0.189432
0.222496
-0.213854
-0.919921
0.0193965
4.31054e-05
0.211895
-0.0554789
-0.810644
0.602953
0.207691
0.644422
0.119628
0.190906
-0.0641127
-0.126793
0.292346
-0.265646
-0.0267
-0.740245
0.263123
-1.04685
0.525985
0.404573
-0.140415
-0.264158
-0.0130076
0.216196
-0.203188
0.991158
-0.00327737
-0.987881
0.156243
0.0095547
-0.165798
-0.139783
-0.261367
0.229688
-0.0231074
-0.0258792
0.0274722
-0.00159304
0.39691
-0.0426776
-0.354233
0.00931525
-0.0351944
0.808334
-0.659761
-0.0289713
-0.144058
0.173029
-1.01888
0.203845
0.0209269
-0.100469
0.425021
0.0559019
0.0416345
-0.0294368
-0.0939004
0.240378
0.171071
-0.411449
0.579119
0.201813
0.42943
-0.303194
0.19786
-0.174546
0.0729107
-0.318618
0.591786
0.0719472
-0.663734
0.54057
-0.0442737
-0.496297
-0.456132
-0.328845
-0.362885
0.040008
0.322877
0.387219
-0.40928
0.0220606
1.11209
-0.0413828
-1.07071
-0.353988
0.109372
0.244616
-0.501836
0.671333
-0.169497
0.590897
0.649568
-1.24046
0.313131
-0.456784
-0.281344
0.439207
-0.157863
0.216728
0.0975746
-0.314303
-1.1979
0.750652
0.447249
0.0256064
0.0018658
-0.845771
0.144215
0.307071
-0.187402
-0.119669
0.478287
-0.605562
0.127274
-0.0879814
-0.191434
0.182424
1.02201
0.821805
-0.14194
-0.679864
-0.841531
0.133621
0.340412
-0.553255
0.834938
-1.27154
0.436599
-0.101964
0.28596
0.000610182
-0.37294
0.325917
-0.161737
0.2155
-0.147415
-0.817382
0.964797
0.575579
0.693447
-0.746409
0.775978
-0.0295696
0.10589
-0.0110005
-0.596541
-0.243366
-0.113469
0.126895
-0.0134265
0.453068
-0.0553618
-0.397706
-0.032583
0.203628
-0.171045
-0.0678273
0.546115
-0.765942
-0.0809352
0.846877
-0.720008
-0.252348
0.972357
0.462677
-0.347355
-0.115322
-0.191952
0.0157518
0.1762
-0.0761338
0.0646621
0.0114717
-1.01224
0.0484025
0.963841
0.024973
0.188208
-0.213181
0.802382
-0.902981
0.100599
-0.509024
0.544921
0.442948
-0.987869
0.0117063
-0.125175
-0.0440361
-0.799211
0.843247
0.606696
-1.20628
-0.947807
0.824646
0.12316
0.123163
-0.0172012
0.749089
-0.484749
-0.0493868
-0.223562
0.272949
-0.00975337
0.13302
-0.123267
-0.181209
0.888304
-0.707095
0.702368
-0.378869
-0.323499
1.03504
-0.978739
-0.0563043
0.755431
-0.267138
-0.488293
0.0423368
-0.224661
0.182324
-0.29199
-0.0129069
-0.926791
0.812745
0.114046
0.0525984
-0.97939
-0.277616
0.449367
-0.171751
-0.577489
-0.537866
0.188597
-0.161372
-0.0272241
-0.79692
-0.221958
-0.178626
0.120427
0.0581991
-0.252632
0.258069
-0.884398
0.85691
0.0274873
-0.163488
-0.0772797
-0.0192005
0.170861
-0.0146178
-0.591977
0.127863
0.134565
-0.158341
0.0237753
-0.549086
0.390152
0.158935
0.374359
-0.0297858
-0.235803
0.680858
0.0228925
0.350386
-0.142212
0.164859
-0.022647
-0.0792499
0.521654
-0.619724
0.402693
0.217031
0.0130784
0.012528
1.24085
-0.66527
0.998784
-0.636406
-0.232373
-0.148266
0.380639
0.546979
-1.01433
0.467349
0.557583
-0.615749
0.952651
-0.430718
-0.521932
-0.00378076
-0.524449
-0.0952754
-0.450657
0.917663
-0.467005
0.00780576
-0.378788
1.21024
-1.06509
0.268166
0.369262
-0.194262
-0.0844028
0.0710196
0.114718
-0.0030253
-0.492494
-0.488964
1.54482
-0.802469
-0.475004
0.340583
0.134421
0.0592839
0.205995
-0.657716
-0.423154
1.08087
0.217707
0.338306
-0.00445152
-0.1376
0.142051
0.821026
-0.210271
0.0519757
0.158296
0.669962
-0.0781757
-0.351038
-1.02506
0.168126
-0.210902
0.0107754
0.200126
0.602993
0.870443
0.389913
-0.428352
0.0384394
0.979938
0.0551049
0.616735
-0.873548
0.256813
-0.827263
-0.0102893
0.837552
-0.754193
0.984708
-0.230515
0.132885
-0.00561226
-0.127273
-0.562203
1.1689
-0.151158
-0.375148
0.526306
0.0209147
-0.767324
0.296815
-0.11918
-0.177635
-0.955835
1.24825
-0.292418
-0.226311
0.541799
-0.315488
1.1621
-0.512402
-0.649695
-0.00411846
-0.590215
0.594333
-0.0582999
-0.00740164
-0.519599
1.1105
0.382777
-0.799059
1.09108
-0.482627
-0.18034
0.151369
-0.863903
0.0366405
1.17751
-0.503365
-0.0122038
-1.32656
0.252814
-0.0107225
0.376115
0.553372
-0.929487
0.544528
-0.128051
-0.416477
0.284208
-1.0109
0.726687
-0.13185
0.00895158
0.122899
-0.197915
-0.485365
0.68328
0.345475
-0.272564
-0.221459
0.00325876
0.2182
0.11136
0.275569
-0.386929
0.0753737
0.113223
-0.900462
1.05175
-0.151288
-0.218662
0.0112154
0.454429
0.203972
-0.658401
0.558092
0.63621
-1.1943
0.160758
0.486045
-0.0164864
0.974852
-0.00142458
0.786307
-0.784882
0.027937
-0.0153136
0.0645061
-0.00936852
-0.0551376
1.36485
-1.119
-0.245853
0.44581
0.506841
-0.137623
0.0908358
0.0467871
-0.280548
0.796849
-0.516301
0.00903707
0.153753
-0.162791
0.675305
-1.00755
0.332245
-0.299288
-0.646693
0.945981
0.839304
-0.179623
0.289568
0.254961
-0.423246
0.00203572
0.421211
0.283821
-0.805129
0.210197
-0.481609
0.271412
0.180275
-0.0677233
-0.112552
0.0390084
-0.0973083
-0.0642339
0.584255
-0.520021
-0.175521
1.16547
0.762112
-0.616723
-0.145389
0.627195
-0.53861
-0.502472
0.153223
0.349249
0.129623
-0.465871
0.305341
-0.174511
-0.13083
0.0591293
0.131776
0.138696
0.734756
-0.873452
0.22741
0.1695
0.119565
-0.839573
-0.443278
0.12845
0.314827
-0.332681
-0.228583
0.561263
0.482122
-0.241744
-0.838646
0.551427
0.238095
-0.190944
-0.0471516
-0.470445
0.916803
-0.446358
-0.429243
0.44755
-0.455252
0.506613
-0.0513601
-0.573963
0.951156
-0.377193
-0.0195594
0.201086
-0.181527
-0.292895
0.279887
-0.270989
-0.561612
0.897296
-0.335684
-0.548908
0.689779
0.497198
-0.511176
0.0139774
0.173741
0.263991
-0.437732
-1.24553
0.814743
0.430791
0.0298736
0.0881228
-0.117996
0.0800394
0.687575
-0.868784
0.958912
-0.411933
-0.333917
-0.486186
-0.699455
0.698031
0.487192
-0.0133602
0.375589
0.110458
-0.486047
-0.326436
0.300647
0.025789
-0.2707
0.0927697
0.17793
-0.331507
-0.403036
0.734542
0.00936197
0.4652
-0.474562
-0.730638
-0.271966
1.0026
-0.27203
0.445771
1.01046
0.354394
-0.889344
0.540358
0.348986
-0.47981
0.106356
0.373454
0.00384359
0.173912
-0.223473
0.0495607
-0.580485
-0.915482
0.583975
0.128434
0.193691
-0.151354
0.133029
0.320039
-0.0170971
-0.858282
0.0269914
0.275622
0.18607
-0.00656132
-0.179508
-0.647238
-0.505836
1.15307
-0.162523
-0.260724
-0.495525
-0.100976
0.596501
0.108039
0.198623
-0.306661
-0.009531
1.13022
-0.738981
-0.391238
0.175543
0.646261
0.108666
0.073844
-0.552508
0.478664
-0.628826
1.07621
-0.447382
-0.556976
-0.258044
0.81502
-0.452421
0.171077
-0.392959
-0.109512
0.853507
-0.42305
-0.430458
0.435669
-0.100769
-0.3349
0.3711
0.0537301
-0.42483
-0.161878
0.186851
0.167422
-0.260498
0.0930755
-0.0523785
-0.0251912
-0.204495
-0.00631077
0.452044
0.401463
-0.366856
0.87302
-0.465938
1.24189
0.413232
0.0224372
-0.852002
0.295026
0.722695
-0.627746
-0.103252
-0.62964
0.127804
0.149727
-0.427343
0.716618
-0.688252
0.82272
-0.0223691
-0.190047
-0.109032
-0.258748
-0.0670473
0.325796
-0.290159
-0.0346195
0.708477
0.15272
-0.861197
0.0173553
-0.243266
0.225911
-0.0508
0.445198
-0.890117
0.444919
0.868997
-0.0666152
-1.02589
1.10503
-0.0791358
0.205808
-0.134029
-1.0546
-0.190933
-0.308135
0.84008
-0.0273348
0.480789
1.10548
-0.4036
-0.70188
-0.635469
-0.0349776
0.670447
0.250624
0.480771
-0.731395
-0.688046
0.0406597
-0.161777
-0.131049
0.292826
-0.466984
0.595996
0.13152
0.506262
-0.637782
0.127379
-0.0218029
-0.105576
-0.965009
0.120316
0.844694
0.427956
0.530956
-0.242433
0.550339
0.205092
-0.280681
-0.116951
0.819847
-0.954499
0.353048
-0.234547
-0.118501
0.475629
-0.162498
0.66554
0.0411931
-0.706733
0.781238
-1.24718
0.0051971
0.0267512
-0.236438
0.328738
-0.0922996
-0.861458
0.817422
-0.0221841
0.276836
-0.254652
-0.292683
0.186951
0.105733
-0.331066
-0.087455
-0.25064
0.591052
0.217181
0.187392
-0.143822
0.155528
-0.355879
-0.0122434
0.0207744
-0.0484303
-0.178065
0.171063
0.0070021
0.194186
-0.218616
0.0244304
-0.482359
0.331387
0.134166
-0.629691
-0.033532
-0.271353
0.0137521
0.544712
-0.558465
0.310522
-0.347308
0.103885
-0.767157
0.663271
-0.260325
0.765957
-0.505632
0.193096
-0.78998
-0.439615
-0.0244637
-0.923343
0.801249
0.743573
-0.731725
-0.106921
-0.464546
-0.385422
-0.403297
0.168134
-0.0501399
-0.0075249
0.0576648
1.32068
-0.717684
0.819447
-0.187753
-0.228096
-0.146905
0.375001
-1.19842
0.543386
0.655034
-0.441129
0.284073
-0.3742
0.919121
0.151469
-0.0876237
-0.340396
-0.430919
0.279761
0.386784
-0.396779
0.00999524
-0.116059
0.824536
-0.323756
0.410996
-0.0872396
0.765554
-1.2714
0.571952
0.699444
0.189413
0.222673
-0.412085
0.549831
-0.204306
-0.345525
-0.509433
0.283122
-0.847908
0.00599235
0.365108
0.885027
-0.972399
0.393205
-0.176477
-0.387935
0.671756
-0.812573
0.577165
0.235408
0.718476
-1.05721
0.338734
-0.680762
0.723725
-0.0429629
0.409841
-0.489091
0.0125314
0.222083
0.240594
0.176889
-0.803194
0.354271
-1.06146
0.605427
0.456036
0.227336
-0.862806
0.632802
-0.0376782
-0.57578
0.133349
0.238771
1.02054
-0.341635
-0.678907
-0.0924652
0.244914
-0.577595
0.143603
-0.950961
0.915984
-0.770947
0.310132
0.463356
-0.646186
0.352401
0.293785
-0.849453
0.514815
0.334638
-0.217238
0.141442
-0.240785
-1.00616
0.70198
0.30418
0.616903
-1.17911
-0.888161
-0.0123007
1.24381
-0.40887
0.16051
0.102017
-0.262527
-0.0207179
-0.127079
0.147797
-0.180398
0.455511
0.526315
-0.385583
-0.260603
0.159243
0.186231
0.215142
0.343248
-0.55839
0.362701
-0.216046
-0.0355787
-1.04446
1.08004
-0.309411
0.381831
-0.742866
-0.581943
-0.424066
1.00601
0.233093
-0.313983
-0.663249
0.203657
0.459593
-0.0221083
-0.0590849
0.0811932
0.69688
-0.844295
0.0400816
-0.27652
0.550309
0.560751
-1.11106
-0.438173
-0.0368315
-0.806182
0.224779
0.581403
-0.961624
0.662336
0.43646
-1.06529
0.344218
0.00883032
-0.0288884
0.00678009
-0.0244648
0.878819
-0.584907
0.733146
-0.148239
0.816948
0.00245121
-0.8194
-0.61607
-0.0115972
-0.167079
0.0633948
0.665145
0.111381
0.027735
0.256975
0.567452
-0.206584
0.481564
-0.239904
-0.0307957
-0.833913
-0.0504846
-0.835869
0.277883
-0.788159
0.162183
0.182167
-0.34435
0.772396
0.048485
-0.820881
-0.0950915
0.0894793
-0.334746
-0.712103
-0.757832
-0.113371
-0.492722
1.27396
-0.319778
0.439482
-0.119704
-0.924062
0.276824
-0.269386
0.484528
-0.241959
-0.568685
-0.510187
-0.295235
0.303323
-0.556066
0.0069792
0.961652
-0.121572
0.578396
-0.244835
-0.333562
0.0707636
0.214216
0.238977
0.987609
-0.941439
-0.00197697
-0.211443
0.303942
-0.468066
0.492069
-0.432619
-0.529294
0.207655
0.162367
-0.370022
-0.765269
0.0367286
-0.115632
0.740109
-0.624477
-0.0541285
-0.971765
-0.664628
0.802295
1.4381
-0.637488
-0.800614
-0.12641
0.28919
0.741897
-0.386419
-0.355478
0.246677
-0.271869
0.0308454
0.0336606
-0.18213
0.0366484
0.145482
-0.102137
0.477725
-0.562186
1.17909
-0.0249407
-0.136432
-0.258607
-0.0770045
0.335612
-0.0194929
0.716373
0.364654
0.260076
-0.624729
-0.367301
0.548347
0.40257
0.394278
-0.376943
-0.0663351
0.498732
-0.186004
-0.312728
-0.0506501
0.0362037
0.0144464
0.150086
-0.771028
0.620942
-0.88556
0.127728
0.205106
-0.508984
0.786866
-0.00791599
0.254593
0.116524
-0.436301
-0.908622
0.45823
-1.02959
0.322857
-0.424947
0.0458566
-0.380311
-0.554323
0.934634
-0.774093
0.118654
0.0179357
-0.13659
0.999952
-0.774822
0.779866
-0.529243
0.140192
0.502022
-0.642214
0.187767
-0.349544
-0.441545
-0.274757
0.716303
0.305072
-0.236706
-0.0683664
-0.56583
1.2072
-0.641369
0.726461
-0.479993
-0.246468
0.626062
0.0221544
-0.648217
-0.526036
-0.74536
-0.299374
-0.0176583
0.372109
0.592743
-0.0115827
0.0817139
-0.0701312
-0.651147
-0.155035
0.63763
0.55477
-0.510073
0.612079
-0.102005
-0.237071
0.289047
-0.0287976
0.253157
-0.22436
0.0819654
-0.405722
-0.116051
-0.890108
-0.875839
0.223317
0.0147786
-0.0845975
-0.239349
0.0716804
0.692075
-0.763755
-0.47406
-0.117917
0.454619
0.384182
0.0629988
-0.225137
0.0274329
0.180045
-0.207478
0.0610225
-0.331791
0.270768
0.177986
0.264426
0.354989
0.792236
-0.37085
0.81603
-0.4342
-0.102902
-0.235116
0.338019
0.712413
0.0799332
0.0223052
-0.640388
0.442473
0.249246
-0.268739
-0.473782
-0.680841
1.15462
-0.613803
-0.584616
-1.06973
1.10863
-0.0389022
0.334551
-0.332787
0.265739
0.528322
0.263915
-0.314032
0.351536
-0.0375037
-0.267427
-0.510125
-0.238052
-0.438734
0.676786
0.452962
-0.235254
0.485707
-0.27551
0.557261
-0.892008
0.433556
-0.331205
-0.488155
0.925477
-0.437322
0.675019
0.444651
0.294113
-0.738764
1.09058
-0.616929
-0.473646
-0.609789
-0.634554
1.07297
-0.43842
0.277984
0.300412
-0.265931
0.258015
0.402165
0.759932
-0.189762
0.169044
0.0211545
-0.0155649
0.900929
-0.501661
0.450817
0.869859
-0.378539
0.197802
0.180737
0.194911
-0.427284
0.706876
-0.0413359
0.35492
-0.19441
-0.636791
-0.12201
0.758802
0.168943
-0.0284915
-0.140451
0.125814
0.0814514
0.128779
-0.882972
-0.260623
0.295058
0.648722
-0.572912
-0.0758105
0.154877
0.343855
-0.133183
0.0690706
0.243077
0.207081
-0.450159
-0.414109
1.10495
-0.141025
-0.532416
1.08678
-0.554366
-0.260944
0.372304
0.0977468
0.0296321
1.051
-0.531086
-0.331607
0.246598
0.303233
0.276698
-0.31023
-0.146279
0.126719
-0.276347
-0.122466
-0.00433383
0.223103
-0.14142
0.761328
-0.619908
0.108929
-0.11467
-0.300193
0.0766305
-0.296665
-0.00270916
-0.846656
0.567388
0.228713
0.210494
-0.448223
0.202006
0.246217
0.246584
0.0449105
0.765581
0.424673
-1.19025
-0.0866138
-0.0164998
0.103114
0.159228
-0.691642
0.95512
0.482981
0.733459
-0.661779
-1.08058
-0.0644954
-0.0198047
0.0107983
0.429504
0.385682
0.388073
-0.773756
0.356345
-0.0458234
-0.029582
-0.29543
-0.0831091
-0.502442
-0.385942
0.515565
0.451846
0.41286
0.521696
-0.53862
0.0169238
0.164417
0.00664602
-0.0618404
0.226291
-0.0321052
0.670435
0.164075
-0.83451
0.455832
-0.0690479
-0.203496
0.124126
0.0793702
-0.313416
-0.00430091
0.317716
0.240241
0.581489
-0.82173
0.201436
0.280687
0.640947
-0.0172037
-0.238546
0.386594
0.180858
0.117539
-0.194541
0.0770013
-0.967058
0.497886
0.781619
-0.619153
-0.162466
0.0117632
-0.116904
0.10514
0.748781
-0.813015
0.530588
-0.0776262
0.387848
0.392019
-0.111878
-0.0105883
-0.326943
0.124709
0.202234
-0.530273
-0.103148
0.998963
-0.511472
-0.48749
0.45615
-0.0453741
-0.410776
0.388438
-0.649167
0.26073
-0.0849258
0.464203
0.0141532
-0.457118
0.950596
-0.493478
-0.194701
-0.132242
-0.434725
0.394424
0.0165719
0.683137
0.00274721
-0.685884
-0.289073
-0.0125023
0.198572
0.115335
-0.0244991
0.236366
0.0923723
-0.327311
0.294728
0.000190603
-0.057562
-0.118112
0.124275
-0.35879
0.498982
0.00840902
0.214087
0.228538
-0.243982
0.646605
-0.0485481
0.570244
-0.125349
-0.0981964
-0.204532
0.447609
-0.154446
0.865063
-0.710617
-0.739601
-0.106171
-0.712102
1.07047
-0.358365
-0.0386091
0.433033
0.28447
-0.0548699
-0.0170328
-0.215293
0.232326
-0.77502
0.243934
0.0963752
-0.109619
0.505184
-1.1629
0.370942
-0.97201
-0.658592
1.15863
-0.44469
0.461039
-0.253958
0.0111326
-0.567656
0.717742
0.000704242
-0.130691
0.128636
-0.47599
-0.0910128
-0.551218
0.642231
-0.372565
0.488764
1.30693
-0.857574
-0.449355
-0.195642
0.062123
0.186271
0.0190261
-0.205297
-0.726211
0.141304
0.159734
0.0205415
-0.00535253
-0.104782
0.110134
0.428111
-1.14021
0.081425
0.40212
0.0321856
-0.434306
-0.959636
0.80519
0.120762
0.0326152
-0.153377
0.336194
-0.897807
-0.120136
-0.00133557
0.121471
0.154656
-0.0338938
-0.00486064
0.65197
-0.491212
0.53409
0.449126
-0.24769
-0.816429
0.234486
-0.603208
0.488319
0.114889
0.635937
-1.10972
-0.454691
-0.268866
0.723557
0.0336063
0.357492
-0.266254
0.230749
1.05015
-0.154049
-0.896105
-0.0118876
-0.822025
0.573183
0.0528788
0.360688
0.381208
-0.134773
-0.00282615
0.118939
-0.236286
-0.312573
0.0384869
-0.0335566
-0.00493025
0.0164968
-0.629808
0.613311
-0.0772373
0.284807
-0.207569
0.410184
-0.977924
0.56774
-0.0906912
-0.478891
-0.0288068
0.014276
0.607063
-0.307855
-0.168734
0.47659
-0.328544
-0.345249
0.395326
-0.232959
0.312153
0.118566
-0.430718
-0.416491
-0.0317316
-0.679598
-0.111958
-0.02958
0.141538
0.146321
0.216324
-0.362646
0.377594
-0.77405
0.396456
0.0259009
-0.488991
0.152611
-1.10845
-0.365781
-0.896949
1.26273
-0.845671
0.0349616
0.810709
-1.12896
-0.704835
0.0240726
-0.253805
0.253587
0.000218782
-1.26312
-0.303186
0.973621
0.338838
-0.167768
0.0853977
-0.289929
-0.138722
0.419408
0.126529
0.0788002
-0.337407
0.0128928
-0.103017
0.0901239
-0.18677
0.0588146
-0.0685126
0.0802758
-0.252714
0.442126
-0.90663
0.546482
0.360148
-0.243327
0.0331152
0.497677
0.172442
-0.00349927
-0.0183491
-0.295683
-0.433385
-0.229864
-0.482264
0.164935
0.317329
-0.0473552
0.341494
-0.294139
-0.368493
0.429516
-0.0698201
0.645259
1.05233
-0.687675
0.467031
-0.795575
0.375101
-0.505399
0.130298
0.0879643
-0.00230292
0.0456533
-0.00084926
-0.925614
0.545304
0.0735639
0.382586
0.0127384
-0.16582
0.153082
-1.47481
0.586297
0.225538
-0.404854
-0.164344
-0.0172101
-0.188556
0.205766
-0.49486
0.187005
-0.973427
0.857376
1.18662
-0.636308
-0.167863
0.153652
0.014211
-0.117911
0.0546465
-0.125488
-0.786132
0.173128
0.613003
-0.117557
0.101057
-0.0411287
0.271692
-0.230563
0.32527
0.205318
0.131841
-0.127222
-0.00461904
-0.23506
0.243469
0.0679498
-0.00550558
0.462097
-0.823892
0.936428
0.0435103
-0.53566
-0.113224
0.848879
-0.0339824
-0.814896
-0.152933
-0.254784