/*--------------------------------*- C++ -*----------------------------------*\
| =========                 |                                                 |
| \\      /  F ield         | OpenFOAM: The Open Source CFD Toolbox           |
|  \\    /   O peration     | Version:  2306                                  |
|   \\  /    A nd           | Website:  www.openfoam.com                      |
|    \\/     M anipulation  |                                                 |
\*---------------------------------------------------------------------------*/
FoamFile
{
    version     2.0;
    format      ascii;
    arch        "LSB;label=32;scalar=64";
    class       volVectorField;
    location    "8.3";
    object      U;
}
// * * * * * * * * * * * * * * * * * * * * * * * * * * * * * * * * * * * * * //

dimensions      [0 1 -1 0 0 0 0];

internalField   nonuniform List<vector> 
13486
(
(1.44603 -0.227535 5.22027e-19)
(1.66774 0.266166 2.72778e-19)
(2.7044 0.0353158 0)
(-2.14036 1.05096 -1.58828e-18)
(2.39188 -0.399883 -2.89968e-20)
(2.4739 0.177257 -4.77807e-21)
(2.4705 -0.0878432 -1.24068e-20)
(2.02764 -0.704678 -1.38751e-19)
(1.95742 -0.369951 0)
(1.96328 0.740655 0)
(-0.788411 2.5247 -7.97274e-19)
(2.48689 -0.0765534 0)
(1.28942 -0.426455 -5.10841e-19)
(2.40533 0.777015 -1.64854e-20)
(2.38065 -0.168016 3.68311e-21)
(1.92303 0.729877 -2.02747e-19)
(1.15982 -0.34283 6.51425e-19)
(0.416107 -0.702517 2.36876e-19)
(2.16698 -0.0106902 2.19399e-21)
(1.6248 -0.0589695 -5.36192e-19)
(-2.31516 0.614023 -6.74293e-19)
(1.30995 -0.442939 6.59126e-19)
(1.68835 0.260691 -2.18026e-19)
(4.19153 -0.540003 0)
(2.02205 0.597321 6.95885e-20)
(4.07105 -0.529104 -3.80619e-19)
(0.340282 -0.226377 7.40607e-19)
(3.06985 -0.20962 5.74991e-19)
(2.02155 0.133327 0)
(2.929 -0.467089 -4.85685e-19)
(-2.01133 -0.0976693 -4.47866e-19)
(2.32717 -0.146756 -8.25147e-20)
(3.34877 0.0599768 4.26938e-19)
(2.31152 -0.166872 0)
(2.0371 -0.676706 0)
(1.688 0.0148107 2.26184e-21)
(1.56373 0.0668097 -6.45164e-20)
(1.48216 -0.694391 2.20052e-19)
(1.81574 -0.193376 -1.61396e-20)
(1.98347 -0.225865 2.23141e-19)
(2.66589 -0.720899 0)
(0.872078 -0.432276 -6.01033e-19)
(1.98429 -0.00446136 0)
(2.04125 0.499199 -3.27221e-19)
(2.05841 0.499048 1.34893e-19)
(2.4872 -0.0770355 7.44676e-20)
(-0.964777 -0.440627 1.26306e-18)
(1.99589 0.130163 -2.51065e-23)
(1.5774 0.0797835 4.86151e-20)
(2.84992 0.0287115 1.81964e-19)
(1.99947 0.0229348 3.35239e-19)
(1.87772 -0.05014 0)
(2.48451 -0.184509 -1.31443e-19)
(1.64873 -0.603034 -3.29668e-19)
(0.400027 -1.01251 0)
(2.35409 -0.411765 -2.79926e-21)
(2.61221 0.701557 7.55677e-20)
(1.87667 -0.100578 -7.47349e-20)
(3.33977 0.0925754 5.2337e-19)
(1.33768 -0.0884354 0)
(-0.911686 2.6795 -1.07175e-18)
(1.31708 -0.0427122 0)
(3.59097 0.645968 -3.2068e-19)
(-2.26049 0.619052 -7.27536e-21)
(2.16258 -2.30058 0)
(1.52203 0.0737854 -3.49911e-20)
(-2.39568 1.15024 -1.58447e-18)
(1.42948 0.0330473 1.86001e-19)
(1.95735 -0.391985 -1.16827e-19)
(1.57213 0.0122441 1.92589e-20)
(-2.16946 1.07356 1.81216e-18)
(0.430931 -0.926543 9.24232e-21)
(2.00091 -0.111544 1.7605e-19)
(-0.683414 0.155328 -4.15553e-19)
(1.4252 0.138959 -9.66955e-21)
(2.67295 0.634913 -1.47571e-20)
(1.43395 0.163694 2.78903e-20)
(2.39009 -0.171338 9.58878e-22)
(-0.761974 -0.130305 -6.70998e-19)
(1.88393 -0.657952 0)
(1.95485 0.0333833 4.39353e-22)
(1.60896 0.362433 -1.75339e-20)
(3.30083 0.562028 -2.58754e-20)
(2.78088 0.0212056 -2.44327e-21)
(1.43803 -0.238771 -1.02091e-18)
(1.30132 1.57525 0)
(1.57916 -0.333175 4.71469e-21)
(2.00167 0.0366581 -5.13674e-19)
(1.87125 0.198964 -2.21928e-19)
(1.80092 0.9853 -2.40107e-19)
(2.34514 -0.209696 -7.7989e-20)
(2.16992 -0.571443 -5.48393e-20)
(1.50786 -0.328829 1.30386e-19)
(1.66079 0.0706753 1.443e-20)
(1.86109 -0.568154 4.63619e-20)
(1.97911 0.105766 -6.09052e-23)
(0.393703 -0.261826 0)
(-2.62938 1.26662 9.46193e-19)
(1.99817 -0.222208 -4.26352e-19)
(1.32527 -0.292269 8.89115e-21)
(1.85348 0.0244382 0)
(2.37613 0.772225 -9.5166e-21)
(-2.69022 1.19626 4.74257e-20)
(1.87052 -0.0856192 8.76013e-20)
(1.2662 1.51928 0)
(1.22261 -0.239784 9.41829e-21)
(1.98184 0.0568717 -7.65838e-23)
(1.82728 -0.222864 -3.53551e-20)
(-0.766769 -0.123391 8.74553e-19)
(1.85805 -0.824889 0)
(1.29539 -0.6196 0)
(2.29037 -0.0895624 -5.48567e-20)
(1.65817 -0.582951 3.872e-21)
(2.43739 0.386281 -1.10827e-21)
(1.07225 -0.0724927 0)
(1.23605 -0.609207 -1.55369e-19)
(2.01631 0.614269 0)
(2.42986 -0.137532 0)
(1.99088 -0.111491 0)
(1.65194 0.110665 -2.62488e-20)
(0.55106 -0.656835 -1.05715e-19)
(-1.09467 2.65296 0)
(1.83153 -0.509114 0)
(1.82386 -0.197754 5.21353e-20)
(1.91757 -0.664839 0)
(1.86863 -0.0466012 0)
(2.21235 -0.220392 3.78085e-21)
(2.19733 0.0750238 1.37993e-19)
(1.92082 -0.076569 -6.74369e-20)
(2.636 -2.61436 -7.41171e-19)
(1.84552 -0.0317916 -9.2662e-21)
(-1.18643 -0.514061 -3.19527e-19)
(0.422272 0.452506 7.78799e-19)
(-0.23119 0.171538 5.42219e-19)
(1.99971 0.0113248 -5.41969e-20)
(1.89037 0.403713 -2.7032e-19)
(0.651707 0.682368 -1.66217e-19)
(1.87553 -0.812225 0)
(1.66576 0.111461 7.27153e-21)
(2.04931 -0.551359 -5.86922e-20)
(3.14174 0.128367 -4.32522e-19)
(2.47244 -0.195336 1.11845e-19)
(2.38055 -0.148397 0)
(1.91641 -0.624657 0)
(2.09379 0.00343868 -1.99138e-21)
(3.41283 0.67555 -6.0899e-19)
(2.14583 -0.0794581 -9.83455e-21)
(0.301221 1.56193 0)
(2.86283 0.0593676 0)
(2.029 0.125533 0)
(2.00993 0.0173532 5.6872e-21)
(2.44362 -0.236248 0)
(1.9424 0.0211308 -4.61172e-22)
(1.58427 0.361413 -1.50197e-19)
(2.1834 0.323062 0)
(2.89833 0.0473277 0)
(1.70768 -0.75728 0)
(-0.308412 0.662547 3.74285e-19)
(1.75749 -0.700103 4.20745e-19)
(1.83305 -0.365307 -6.90528e-20)
(2.7332 0.0295989 8.92581e-20)
(1.76702 -0.678117 -6.3562e-19)
(2.28047 -0.276037 8.97205e-20)
(0.776997 -0.369531 2.62395e-19)
(1.89431 -0.0640212 0)
(2.51063 0.774688 -2.11573e-20)
(2.33198 0.703874 9.75118e-20)
(0.458561 -0.143309 -6.88219e-19)
(2.12238 -0.0669507 2.58205e-20)
(-0.242279 0.189169 1.45953e-19)
(0.317006 0.408566 1.28813e-20)
(2.17806 0.295874 1.14158e-19)
(1.99762 0.0766808 -4.38633e-19)
(2.30616 -0.142646 5.19216e-21)
(1.94357 0.0623404 -5.09766e-22)
(-2.31211 1.4586 0)
(2.36625 1.08321 -1.2593e-20)
(3.21901 0.225516 5.62346e-19)
(1.9898 0.0539009 -5.1493e-19)
(2.38987 -0.143461 0)
(2.034 -0.269585 4.16564e-19)
(2.42359 0.35047 -1.47192e-21)
(2.34145 -0.123834 -9.78423e-22)
(-0.257025 0.276218 0)
(2.64991 -0.0551259 1.54387e-20)
(2.81894 -0.189264 -2.57746e-19)
(2.10252 0.120074 -2.06878e-22)
(2.83598 -0.352135 -1.34802e-19)
(2.67024 -0.692169 0)
(1.11033 -0.534427 -2.13122e-19)
(1.60458 0.111865 0)
(2.54734 0.0608961 0)
(1.92438 -0.150761 0)
(1.27865 0.798426 -3.23622e-19)
(1.97698 -0.185156 0)
(-0.96289 2.4529 -2.2344e-19)
(2.29442 -2.67665 1.61485e-18)
(2.64942 0.00509549 5.37478e-20)
(1.09918 -0.542054 -1.02472e-19)
(2.4921 0.736752 3.98067e-21)
(-1.96256 -0.202576 4.72162e-19)
(2.20868 0.0955436 -4.21788e-21)
(1.36396 -0.657185 -2.54341e-19)
(1.84829 -0.770806 -6.38486e-20)
(1.89686 -0.437333 8.53229e-20)
(2.00247 -0.172795 -6.74791e-20)
(-0.149147 -0.833389 4.53123e-20)
(1.9197 -0.047997 3.86034e-19)
(1.9087 -0.157058 0)
(2.66934 -0.040118 0)
(3.09453 -0.247596 4.34825e-19)
(4.07569 -1.1932 8.89659e-19)
(1.64267 -0.0449855 4.90671e-19)
(1.97523 0.0558595 4.19023e-23)
(2.46983 0.218408 5.50367e-21)
(2.32187 -0.963444 6.25835e-20)
(2.95616 -0.39882 0)
(1.8 0.969538 5.8207e-19)
(1.59641 -0.351377 0)
(3.08307 0.861616 0)
(1.23789 -0.359415 -1.24179e-18)
(2.89573 0.0986227 0)
(2.02735 -0.547243 1.32203e-19)
(2.69408 0.0426956 0)
(2.53878 -0.224076 -2.37872e-20)
(1.25606 -0.591294 1.76256e-19)
(2.58676 0.390229 -2.32743e-21)
(-1.98841 -0.424611 4.31377e-19)
(2.21471 -0.604012 1.02586e-20)
(1.62992 -0.334068 -3.01886e-21)
(2.0429 -0.2608 -1.34588e-19)
(2.06337 -0.0294945 7.08333e-19)
(3.18235 0.124883 5.41036e-19)
(0.895008 -0.434551 2.07401e-19)
(-2.62835 0.819992 0)
(1.0684 -0.51977 2.01952e-20)
(2.69992 -0.310055 2.33967e-19)
(2.56211 0.0445263 4.09771e-21)
(0.936328 -0.452067 5.51647e-19)
(2.35812 -0.0764889 0)
(3.42742 0.0780336 0)
(2.00283 0.0551751 6.70284e-19)
(2.48936 0.210318 0)
(0.943924 -0.468014 1.77254e-19)
(1.76953 -0.241369 -2.96672e-20)
(1.81972 0.0670275 0)
(2.21667 -0.0076044 -2.93268e-20)
(3.43401 -0.593206 1.043e-18)
(-0.268922 -0.0229922 8.70889e-19)
(2.00834 0.473806 0)
(-2.59478 1.72314 -4.22192e-19)
(1.03725 -0.0436208 8.02624e-20)
(1.05376 -0.516074 1.87967e-19)
(1.83699 -0.227477 0)
(2.06792 -0.558647 4.8765e-20)
(-2.05397 1.79208 3.56631e-19)
(2.32481 -0.152987 8.0863e-20)
(2.27747 -0.997842 -7.92621e-20)
(0.314558 0.68563 -3.86859e-19)
(3.42849 0.0439891 3.96843e-19)
(1.78164 0.214165 0)
(1.75818 -0.236273 -1.2033e-21)
(2.366 -0.168586 -1.5817e-20)
(-2.24761 1.6718 -4.39643e-19)
(2.31284 -0.667607 2.709e-20)
(-0.317531 0.376483 0)
(2.24084 -0.580479 -1.28605e-19)
(-2.29341 0.121935 -7.16252e-19)
(2.1576 -0.00366373 -2.06105e-19)
(1.07056 -0.499518 0)
(1.51635 0.879139 2.3939e-19)
(1.98013 0.0584222 -1.42473e-19)
(2.98447 -0.422408 0)
(2.51096 -0.122654 6.58476e-20)
(1.1841 -0.569903 2.32382e-19)
(3.317 -0.643332 -5.83584e-19)
(2.07738 -0.510212 0)
(0.850016 -1.9845 0)
(1.85575 -0.256632 -3.85735e-20)
(2.25445 -0.0903061 1.90872e-20)
(0.851118 -2.11128 3.36287e-19)
(2.14374 -0.172794 -1.49222e-19)
(1.95106 0.0749474 3.07276e-19)
(3.79364 0.389946 -7.03132e-19)
(-1.27707 2.55076 1.27794e-18)
(0.828312 -0.116852 1.24726e-18)
(3.09639 0.221723 4.17734e-19)
(1.86875 -0.102782 8.84273e-20)
(2.62691 -0.224966 3.49164e-20)
(2.12409 0.00542143 0)
(-2.6532 0.88185 0)
(1.63939 -0.261171 3.50272e-20)
(1.26869 -0.609514 1.63204e-19)
(1.99813 0.0177696 -5.31795e-20)
(2.76051 -0.302929 2.18114e-19)
(2.77326 -0.337167 0)
(2.15791 -0.0293523 -1.20936e-19)
(2.53088 -0.105971 -5.10746e-20)
(1.94352 0.0613344 -2.80033e-19)
(2.66475 -0.254681 -1.99919e-19)
(1.97498 -0.251559 -1.0753e-19)
(-0.0371295 -0.876826 2.03362e-20)
(2.302 -0.077791 -1.64184e-20)
(2.32966 -0.14366 8.18084e-20)
(1.64243 0.0663089 1.0504e-20)
(1.53513 -0.689611 0)
(1.27316 0.0360078 0)
(2.19355 -0.0241893 5.95889e-20)
(1.62985 -0.365157 -1.00029e-21)
(1.58873 0.102731 0)
(1.77075 1.2352 -1.0127e-18)
(-2.10297 1.06566 0)
(2.27353 1.05337 4.05116e-20)
(2.28433 -0.100855 -7.87959e-20)
(0.98044 2.06965 0)
(1.87909 0.396434 -1.68384e-19)
(1.61921 -0.278735 -5.22472e-20)
(1.86628 0.188307 -1.90323e-20)
(1.91274 -0.0418858 -4.29683e-19)
(2.33129 -0.597579 0)
(1.53037 0.0915935 6.40493e-20)
(1.6584 -0.207983 9.1069e-23)
(1.99732 0.0518654 6.52406e-20)
(1.64349 0.115924 -2.72854e-19)
(0.74865 0.656278 3.05246e-19)
(2.34057 -0.195506 1.59715e-19)
(2.25742 -0.292815 -2.36584e-19)
(2.1579 -0.173749 0)
(2.59614 -0.0911396 1.01515e-21)
(2.29089 -0.286955 -2.34282e-20)
(2.00094 0.0236166 7.44227e-19)
(2.20146 -0.567908 0)
(2.31755 -0.237011 -4.54726e-20)
(1.44426 0.356639 0)
(2.50787 -0.075831 2.741e-19)
(1.93277 -0.523173 -1.17241e-19)
(0.700584 -0.330283 2.55874e-19)
(2.43433 -0.262981 4.43913e-20)
(2.01559 0.180584 0)
(1.74729 -0.240307 -4.59076e-20)
(2.28312 -0.600084 1.40896e-19)
(1.65242 0.12257 2.57652e-19)
(2.31018 -0.285874 1.27197e-19)
(2.33658 -0.124849 1.16703e-19)
(-1.79951 1.87848 -8.74549e-19)
(1.9958 0.120977 1.23573e-22)
(2.24422 -0.15321 0)
(1.02822 -0.365554 6.09541e-19)
(3.09775 0.838737 0)
(1.65374 -0.25293 -1.47206e-22)
(2.28273 -0.0853836 2.38861e-19)
(2.56942 -0.10815 -5.00608e-20)
(2.52122 -0.121265 5.13405e-20)
(0.417051 -0.241966 -8.64275e-19)
(1.95197 0.0609527 3.48922e-19)
(1.8631 0.0277466 0)
(-0.496436 0.316139 -3.88425e-19)
(2.21697 -0.219668 -7.44152e-20)
(1.65935 -0.346919 -2.64839e-21)
(3.71717 -1.32542 6.82574e-19)
(2.38192 -0.0159966 0)
(2.40231 -0.233655 1.1639e-19)
(1.80368 0.145129 5.55372e-19)
(1.97628 0.0655109 4.34027e-19)
(2.95802 -0.490308 0)
(1.94099 0.00995363 -2.53978e-22)
(2.81563 -0.329645 -2.19756e-19)
(-1.40851 -0.847849 1.85268e-19)
(1.60568 -0.0613063 6.82183e-20)
(2.21894 -0.191465 7.07463e-20)
(2.0319 0.00769426 -2.78258e-22)
(2.24052 -0.152435 0)
(2.55122 -0.225445 -8.02159e-20)
(-2.51161 1.86268 3.98882e-19)
(2.42983 0.431471 -2.72443e-20)
(1.99818 0.0226159 2.81696e-19)
(1.38886 0.0282939 0)
(1.69406 -0.231873 -5.55475e-20)
(1.06785 2.0723 0)
(3.17273 1.29507 -2.26759e-19)
(2.16873 -0.0222853 0)
(2.19304 -0.666416 -8.18061e-21)
(1.34133 -0.129052 -1.48271e-19)
(1.50526 0.812594 5.65004e-19)
(-1.32138 -0.668261 -7.14717e-19)
(2.11757 -0.50848 0)
(2.38183 0.0645219 -9.9912e-20)
(2.02161 0.188789 -1.80543e-19)
(0.908738 -0.579047 -3.29834e-19)
(-1.86445 0.242521 6.20138e-20)
(1.66966 -0.0582322 -7.36525e-19)
(3.02189 -0.358791 2.23086e-19)
(2.08848 0.191523 1.33515e-19)
(1.47806 -0.45936 0)
(1.37424 0.288123 3.04703e-19)
(1.68685 0.147224 -1.99462e-20)
(-2.2796 1.1273 9.34422e-19)
(-2.54019 1.76606 -1.36828e-18)
(1.13737 -0.585656 -7.18168e-19)
(3.13397 0.194214 0)
(0.954819 -0.610273 0)
(1.95964 1.15231 0)
(2.1375 -0.0774741 0)
(1.30579 -0.122588 -3.45533e-19)
(2.44338 -0.0565341 0)
(1.44274 -0.275769 0)
(1.68296 0.0880246 1.04921e-19)
(3.22439 0.245319 -5.83593e-19)
(2.22149 -0.147512 -1.87818e-19)
(1.7073 0.307262 9.35355e-19)
(2.00546 0.0183916 -9.22348e-20)
(2.23733 1.66519 0)
(3.05185 -0.258431 0)
(1.93504 0.0643453 2.9933e-19)
(2.02662 0.0502385 5.34878e-20)
(1.29569 0.848197 0)
(-0.400367 0.307496 9.26929e-19)
(2.2953 -0.690083 -3.05e-20)
(-0.185239 0.107494 0)
(2.35477 -0.0775316 1.28271e-19)
(1.98506 0.0527665 -3.46123e-19)
(0.480191 0.27352 -1.09269e-19)
(1.02221 -0.352078 0)
(2.00656 0.194579 3.32779e-19)
(2.65021 0.23636 0)
(2.83841 -0.349031 0)
(2.21555 0.20393 -1.97692e-20)
(1.9442 0.0792091 1.62557e-19)
(0.346167 -0.246167 -9.58878e-19)
(2.29248 0.691467 4.2648e-20)
(1.35821 -0.351602 -2.52435e-19)
(2.14678 -0.0673209 2.89009e-20)
(2.09187 0.187049 1.0525e-19)
(2.67147 -0.22805 1.94583e-19)
(2.40954 -0.646264 0)
(3.42906 -0.443099 4.86891e-19)
(1.34902 -0.0694018 0)
(1.6611 -0.244526 3.09732e-20)
(2.29303 -0.152106 0)
(1.45352 0.0473295 3.94058e-19)
(-0.616273 -0.613381 -1.09965e-18)
(2.98105 -0.345585 0)
(-0.191535 0.113524 2.45753e-20)
(3.07096 -0.286695 -4.70722e-19)
(1.71144 -0.254165 -9.5688e-21)
(1.80387 -0.261182 6.31346e-19)
(1.40094 0.794265 -3.56996e-19)
(1.34834 -0.341511 -7.26992e-19)
(3.30471 1.28221 0)
(1.63777 0.0976628 2.53756e-20)
(-1.82008 2.04727 -2.20045e-18)
(2.0107 0.201704 0)
(1.84883 0.211642 2.07225e-20)
(2.9884 -0.00741018 -3.87895e-20)
(2.63958 1.16386 0)
(2.00377 0.0160928 0)
(-1.72955 1.07523 0)
(-2.11121 1.21016 1.74367e-18)
(3.29837 0.42508 8.44222e-19)
(3.24343 0.714822 4.24729e-21)
(2.24308 1.00925 0)
(1.73608 -0.172692 4.54725e-19)
(1.93371 0.0598161 9.71448e-22)
(2.29157 0.637532 -9.29048e-20)
(-2.2434 0.878155 1.26306e-18)
(1.91446 0.150031 0)
(2.00656 0.130223 0)
(0.760216 -0.131755 -4.28679e-19)
(1.4501 -0.45156 -1.71608e-19)
(1.98579 -0.169393 0)
(1.3608 -0.651927 -9.15807e-20)
(1.87309 0.0238941 -3.28546e-22)
(1.98288 0.0953133 1.03774e-22)
(0.785133 -0.367528 0)
(1.9677 -0.054287 9.02177e-20)
(1.68015 0.116841 1.94392e-20)
(2.64802 0.212497 7.07292e-20)
(1.91641 -0.544534 0)
(0.971989 -0.0945789 -1.88317e-18)
(2.54258 -0.111749 5.56992e-20)
(2.00079 0.0805759 6.85771e-20)
(1.81056 0.0367585 8.39203e-21)
(2.57927 0.767849 0)
(1.68274 0.30332 -2.49073e-19)
(3.09677 0.619604 -1.81842e-19)
(1.24947 -0.535863 1.51965e-19)
(2.00723 0.0445858 0)
(-1.89252 0.218778 -6.37974e-20)
(0.504382 -0.111804 0)
(2.00399 0.0428178 -2.68564e-19)
(1.99228 0.058269 1.11765e-19)
(1.89657 0.0406946 -5.82638e-20)
(-2.19422 1.45198 0)
(2.29679 0.0256878 -1.45232e-20)
(1.10326 0.425588 8.4232e-19)
(2.36902 -0.642936 0)
(1.65267 0.0763005 3.26124e-19)
(2.62696 -0.29602 2.27997e-19)
(2.20849 -0.0166909 0)
(-2.23979 -0.00301808 3.69896e-19)
(1.90586 -0.593326 -7.62785e-20)
(2.04824 0.000505502 0)
(1.10492 -0.0731885 1.25152e-18)
(1.83798 0.201439 0)
(1.72521 -0.779455 1.47314e-19)
(-2.6429 1.71905 8.40274e-19)
(2.09847 0.134217 2.2077e-22)
(2.49708 0.178163 -9.80233e-21)
(1.36813 0.268792 1.60345e-19)
(1.79385 -0.286489 -2.31749e-19)
(2.12224 -0.460212 -5.39938e-20)
(1.76343 -0.78516 3.60159e-21)
(2.20016 -0.196962 7.3379e-20)
(2.56451 0.773619 5.36586e-20)
(1.95121 -0.842512 0)
(1.99743 0.0187701 -2.4983e-19)
(0.0177036 0.17567 -4.06437e-19)
(1.37633 -0.0812232 0)
(1.65804 0.252848 -6.55548e-21)
(1.53002 0.00953591 0)
(1.23839 -0.367488 6.32201e-19)
(2.16243 -0.747201 0)
(1.72791 0.00340356 -6.52538e-21)
(2.29981 -0.0868673 -1.36524e-19)
(-2.11814 -0.220375 6.91393e-19)
(-2.09316 1.23813 1.28542e-18)
(2.28372 -0.0158284 -1.21979e-21)
(1.42939 -0.669583 4.25453e-21)
(1.81523 -0.503433 1.9951e-19)
(1.50346 -0.333359 0)
(0.292369 -0.139484 -5.17214e-19)
(2.42663 -0.561636 4.19508e-21)
(0.302795 -0.129671 -6.01304e-19)
(1.98508 0.110559 -1.52747e-22)
(1.46792 -0.571794 0)
(2.22801 -0.0213953 -1.58677e-21)
(-0.458961 0.42872 0)
(-2.70674 1.25678 4.9356e-20)
(0.214846 0.287522 1.32084e-19)
(0.699454 0.608437 0)
(2.11425 -0.497249 3.92294e-20)
(2.07031 -2.37216 0)
(2.65708 1.08187 0)
(1.50033 -0.70483 -1.95047e-19)
(1.47351 0.328818 2.47512e-19)
(1.66919 -0.768816 0)
(1.80974 0.169899 -1.53952e-19)
(3.04238 0.658066 6.00477e-19)
(-2.41062 1.94744 1.76555e-18)
(2.61842 1.41212 0)
(2.17937 -0.0464154 0)
(-1.67878 2.06215 -9.49548e-19)
(1.9108 -0.108085 0)
(2.70526 0.00964434 0)
(-1.06449 2.71782 -1.22375e-20)
(2.1022 -0.35029 -2.29636e-19)
(1.77681 -0.416015 1.82334e-19)
(3.51331 -0.0100862 5.8671e-20)
(0.27691 -0.10929 1.10462e-18)
(1.99274 0.0493899 1.27078e-19)
(1.54058 -0.364279 0)
(2.15848 0.483681 -5.56409e-20)
(1.43126 -0.209778 0)
(2.41688 0.0354433 0)
(1.9985 0.102738 0)
(2.20518 0.183968 -1.6163e-20)
(1.89634 -0.0403266 2.00602e-19)
(2.44927 0.149194 1.73155e-21)
(1.58721 -0.367163 0)
(0.374693 -0.224889 -7.0138e-19)
(1.99552 1.0945 1.0031e-19)
(1.91489 -0.676852 1.48915e-20)
(2.08426 -0.133658 -1.45148e-19)
(3.28703 -0.650312 9.46196e-19)
(2.0463 0.0675293 -1.98426e-19)
(-0.611232 -0.649428 0)
(2.5234 -0.109548 0)
(1.42077 0.811631 0)
(1.21971 -0.551838 -4.41468e-19)
(-0.6857 -1.74704 -8.9028e-19)
(1.24622 0.570573 0)
(2.18308 0.497933 0)
(2.51973 -0.240568 9.96533e-20)
(1.94803 -0.0310903 -4.57257e-20)
(1.88028 0.618116 2.90499e-19)
(1.87245 -0.766412 0)
(-0.0893774 0.569771 -2.73914e-19)
(2.42152 0.0739922 4.26856e-20)
(1.41702 -0.416543 -4.14947e-19)
(2.2502 0.0678901 -9.37766e-20)
(2.28294 0.644027 1.42517e-19)
(3.82096 -0.634124 1.10852e-18)
(1.21671 -0.557215 7.7292e-19)
(2.41163 -1.58608 4.34518e-19)
(2.46676 0.330832 -2.155e-21)
(2.00043 0.011239 -6.18832e-20)
(1.24368 -0.572803 -2.39829e-20)
(1.92242 -0.556468 3.20765e-20)
(1.55308 1.9847 -4.33252e-20)
(1.37064 -0.647883 5.34678e-20)
(2.59498 -0.0774163 0)
(1.57652 -0.27574 -3.20792e-21)
(2.20961 -0.0447248 -2.64134e-19)
(2.86955 0.848951 8.74102e-20)
(1.38634 -0.382329 -3.8291e-19)
(1.8975 -0.651821 -1.76171e-19)
(1.94768 -0.0127288 4.08043e-19)
(2.38659 -0.0550665 -2.32945e-19)
(1.34934 -0.258694 -6.68432e-20)
(3.07745 0.232055 -2.22722e-19)
(1.16015 -0.171098 -8.8634e-19)
(2.13912 -0.0285314 -2.11041e-19)
(1.14444 -0.235973 0)
(-2.18733 -0.13207 -1.78724e-18)
(1.9006 0.0367221 4.51403e-19)
(1.52175 -0.000437048 -3.08117e-22)
(-0.725426 0.0733361 0)
(1.66169 -0.744554 0)
(2.0181 0.437683 2.57328e-19)
(1.02488 -0.167825 5.56092e-19)
(1.82903 -1.42629 -2.28043e-18)
(2.21969 -0.658499 -2.60704e-20)
(2.27562 -0.301924 1.25797e-19)
(3.15978 0.817398 0)
(2.02594 0.478757 1.42097e-19)
(0.179292 -0.717982 -1.02687e-20)
(2.41916 1.0879 1.35666e-20)
(2.01421 -0.247447 -2.49054e-19)
(0.204267 -0.0253949 -1.80017e-18)
(3.20193 -0.668842 -8.90987e-19)
(3.50328 -0.481532 2.59913e-19)
(2.19516 1.20852 0)
(2.49607 -0.560695 -1.08298e-19)
(1.90811 0.037987 5.26026e-20)
(1.94503 0.0423424 -2.78995e-22)
(0.808143 -0.391195 7.26261e-19)
(1.99331 -0.246285 3.74172e-19)
(1.90157 -0.51321 4.12557e-20)
(-2.46419 1.86542 -1.02216e-18)
(2.5802 -0.242065 -2.15814e-19)
(2.26847 -0.0254329 1.88317e-19)
(-1.15911 2.48502 -1.56191e-19)
(2.33489 1.03232 7.04694e-20)
(1.26184 -0.164875 -1.35588e-18)
(0.967466 -0.472046 -2.18876e-19)
(1.96272 0.0334574 0)
(2.61043 0.607573 4.04686e-20)
(-1.71303 2.56352 -7.55119e-19)
(1.33511 -0.155773 7.94734e-19)
(2.16298 0.101418 0)
(2.07883 -0.283709 1.07159e-19)
(1.18511 -0.49828 1.78804e-19)
(1.9949 0.0352074 -5.4571e-19)
(-1.66261 1.38463 -9.54857e-19)
(1.67714 -0.743126 -1.25768e-20)
(2.22613 -0.154825 1.26927e-19)
(2.33531 0.0679209 1.46028e-19)
(1.74891 -0.788975 -1.88868e-19)
(2.4645 0.210145 -4.16357e-21)
(-0.453637 -1.78864 -2.58531e-18)
(2.12002 -0.043709 2.47812e-19)
(2.14395 -0.0572365 -1.25931e-19)
(2.15416 0.0987096 -5.72329e-21)
(2.12996 -0.0340814 -2.65752e-19)
(1.12228 -0.503912 -3.45684e-19)
(2.44822 0.306409 0)
(-2.52607 0.91735 1.3214e-18)
(2.11419 0.0725912 3.83751e-20)
(1.25736 0.107509 -1.32661e-19)
(2.45378 0.0411402 1.74186e-21)
(2.23046 -0.334838 -8.9214e-20)
(2.00028 0.0149674 -4.43824e-19)
(2.09228 0.322876 7.98036e-20)
(-0.546562 0.431175 -9.55341e-19)
(2.73311 0.0133254 0)
(1.70068 -0.222022 2.8905e-20)
(2.58272 -0.112308 5.12387e-20)
(1.47794 -0.556914 0)
(2.14599 0.0756647 1.53671e-19)
(2.59954 -0.0904955 5.5546e-20)
(2.70098 0.020347 2.11176e-24)
(2.72941 -0.716409 2.21663e-19)
(2.05241 -0.166966 0)
(1.77831 0.343311 4.61868e-19)
(2.10687 -0.76305 -1.22621e-19)
(1.32981 -0.638171 1.49725e-19)
(2.05494 -0.16408 0)
(1.46998 0.286403 -7.14389e-19)
(0.678971 -0.523031 -1.15411e-19)
(2.3933 1.48841 -1.47889e-19)
(1.17031 -0.19593 8.60004e-19)
(2.15318 0.006167 7.66243e-22)
(-2.04085 1.2523 1.00014e-18)
(1.97136 -0.0936894 -2.9479e-19)
(3.38282 -0.315905 -6.45496e-19)
(1.79172 0.142607 -3.21618e-19)
(1.95307 0.00940379 0)
(2.00166 0.0276006 -2.32929e-19)
(0.447187 -0.0294945 1.62345e-18)
(-0.37011 0.356065 0)
(4.12389 -0.982681 0)
(1.9432 0.0425301 0)
(1.27946 -0.474007 0)
(2.04538 0.318208 0)
(1.09707 -0.164554 0)
(2.44673 -0.943935 -1.03397e-20)
(3.48994 0.680943 -4.11644e-19)
(2.61403 0.421179 0)
(1.75788 0.34346 6.96215e-19)
(1.10733 -0.589585 1.58328e-19)
(2.079 0.196694 5.41831e-21)
(-1.50184 2.63364 -3.18366e-19)
(1.10761 0.0640905 -4.67635e-22)
(-0.734012 0.648844 8.36875e-19)
(1.75003 0.0031528 -9.23187e-20)
(2.88492 0.0183189 2.7242e-20)
(2.02225 0.299117 -1.76017e-19)
(1.87332 0.17838 -4.39505e-19)
(1.93647 1.01472 -2.23026e-19)
(3.17765 1.25263 0)
(-2.12406 0.535667 2.05998e-19)
(1.26137 -0.38348 -6.92463e-19)
(2.01082 0.0258085 -7.16789e-19)
(2.43636 -0.570297 1.49033e-19)
(1.98254 -0.0256091 4.28989e-20)
(2.8514 -0.338752 -3.37791e-19)
(2.16274 -0.265505 -2.54583e-20)
(2.12738 -0.484399 -1.34421e-19)
(2.02319 0.168705 1.87972e-19)
(1.7033 1.11435 0)
(2.09698 -0.405204 -4.83693e-20)
(1.70236 0.067092 -9.79236e-20)
(2.41624 -0.0444021 0)
(1.87267 -0.226684 0)
(1.82132 -0.818623 -5.01286e-21)
(-2.44903 1.41778 1.09543e-18)
(2.39484 -0.993876 -3.3629e-19)
(1.77697 -0.0379789 0)
(1.93605 -0.0498849 -4.02679e-19)
(1.80898 0.210417 -8.51821e-20)
(-2.59803 0.532104 7.38844e-19)
(2.63327 -0.0525708 1.95989e-20)
(-1.02733 0.803416 0)
(-2.18046 0.57997 2.54122e-19)
(2.62653 -0.0767456 0)
(2.46811 -0.594664 1.14407e-19)
(2.3643 -0.231181 -8.53382e-20)
(2.00107 0.0241632 3.07513e-24)
(2.34585 0.717133 -1.72903e-19)
(2.61075 1.30135 -2.88985e-20)
(1.76752 -0.482032 4.24694e-19)
(-1.37837 -0.426525 0)
(1.74395 -2.65062 -1.40425e-18)
(1.24924 -1.12328 0)
(2.67695 0.417736 -3.35873e-20)
(-2.67277 0.800924 1.37948e-18)
(4.18935 -0.936887 8.99848e-19)
(1.7236 -0.215886 -2.88944e-20)
(-1.83296 2.03605 -2.20134e-18)
(1.14823 -0.563683 -1.72923e-19)
(1.30471 -0.390113 -3.96474e-19)
(1.67111 0.14098 7.23244e-21)
(2.17867 -2.64918 1.15755e-18)
(1.164 -0.519163 2.84722e-19)
(1.36355 -0.413893 4.29671e-19)
(-0.593768 -1.53035 1.05906e-18)
(2.79472 -2.42376 -7.30148e-19)
(1.87977 -0.569701 1.84652e-19)
(-1.28373 -0.772625 7.74702e-19)
(2.39364 0.0292846 -3.84242e-21)
(1.09524 -0.642195 -1.32899e-19)
(2.33353 0.452431 -5.96699e-20)
(2.33808 -0.440106 0)
(1.13942 -0.499135 -1.46537e-18)
(2.10673 -0.0410561 -3.13256e-19)
(1.99561 0.111577 0)
(2.64823 0.390554 0)
(1.02274 -2.48032 -5.70425e-19)
(3.68861 -0.136952 -6.36025e-19)
(2.45646 0.24707 -4.16083e-20)
(2.09789 -0.341486 2.99843e-19)
(1.92013 0.978302 2.00284e-19)
(1.407 -0.0185669 2.55798e-19)
(-2.73656 1.04513 -8.48886e-20)
(1.7716 0.627559 0)
(1.39599 -0.444409 4.06734e-19)
(-0.496106 1.46513 1.83999e-19)
(-1.97523 1.90522 1.691e-18)
(1.75832 -0.662453 6.53259e-20)
(1.65587 -0.730835 7.49169e-20)
(1.64758 -0.011623 1.38056e-19)
(1.79772 -0.194892 1.72298e-20)
(2.88258 -0.487786 5.04202e-19)
(-2.64907 0.980128 -9.53798e-19)
(2.437 0.238551 3.33025e-20)
(1.96011 0.0567613 1.72885e-19)
(1.13785 -0.225145 -3.52864e-19)
(1.91834 -0.0845074 2.47247e-19)
(1.22117 -0.258951 0)
(2.42926 0.424973 5.43008e-20)
(1.99386 0.0548439 3.88025e-20)
(1.48887 -0.303376 -1.31936e-19)
(1.77856 1.8004 -5.75475e-21)
(1.84741 -0.556503 1.46213e-19)
(2.09573 0.0328466 7.07326e-20)
(1.37586 0.125015 -5.40648e-19)
(2.42954 -0.0775197 0)
(1.70887 -0.196736 -5.5759e-20)
(2.26447 0.0903881 1.27286e-19)
(2.26191 -0.151165 0)
(1.40669 0.020094 3.04736e-19)
(2.64157 -0.0519898 0)
(1.68137 1.79668 2.10852e-19)
(2.32938 -0.0319203 0)
(2.09347 -0.448385 0)
(2.51101 -0.0459089 3.69696e-20)
(2.42958 0.187258 3.90978e-20)
(3.02619 0.369136 -3.08671e-19)
(1.92137 0.13785 -2.01175e-19)
(1.53941 1.17067 -1.53698e-19)
(1.99958 0.0877646 -8.42862e-20)
(2.07302 0.326 0)
(-0.616982 0.18935 -4.68225e-20)
(2.54893 0.173116 2.46257e-20)
(2.41248 -0.574958 -2.31477e-19)
(2.32934 -0.434841 0)
(2.90373 0.837179 1.36719e-19)
(2.10653 1.65483 2.55759e-21)
(2.36008 0.0182907 -1.15505e-20)
(1.05672 1.14556 0)
(-0.812405 2.70345 9.62522e-19)
(2.043 0.166382 0)
(2.88235 -0.413937 -2.46102e-19)
(-0.245505 0.017793 0)
(1.73827 0.14406 0)
(2.41313 -1.76575 0)
(2.10971 -0.746364 0)
(-0.747864 2.00333 -1.25273e-19)
(-2.07528 0.974363 -3.85219e-19)
(1.88539 -0.0342924 -3.01363e-19)
(-2.28 -0.0822335 -8.8365e-19)
(1.24729 -0.546426 0)
(-1.95461 -0.467254 -7.7289e-19)
(-0.383043 -0.0299347 -8.59508e-19)
(1.50432 -0.703769 0)
(1.47959 -0.51946 -4.18354e-19)
(1.38132 0.15476 -1.27728e-20)
(2.32099 0.435855 1.48167e-19)
(2.62507 -0.727993 -1.64321e-19)
(1.86314 0.165871 0)
(2.304 -0.638436 0)
(3.32567 0.579412 1.44017e-19)
(1.91993 -0.496473 8.28452e-21)
(1.63258 0.0598971 -2.05127e-20)
(0.964735 -2.30593 5.20637e-20)
(1.9988 0.00701013 1.73481e-20)
(2.58901 0.60383 -8.51884e-21)
(2.02268 0.170808 2.6986e-19)
(1.67218 -0.215971 2.93515e-20)
(1.92991 -0.501582 0)
(0.451635 -0.319135 0)
(2.47615 0.180987 0)
(1.74117 0.0222947 0)
(1.76189 -0.307639 1.71447e-19)
(3.02127 0.0642841 0)
(-0.94464 2.60806 1.72373e-18)
(3.17607 -1.12786 2.09993e-20)
(1.33042 -0.430122 -6.47628e-19)
(1.05561 -0.554329 -8.05503e-20)
(-2.3976 0.597302 -7.16414e-19)
(-0.633416 2.55808 -7.74944e-19)
(1.85645 0.0545764 5.64202e-20)
(-2.65971 1.44087 -8.97509e-19)
(1.64926 -0.225017 4.74703e-20)
(2.54987 -0.0318541 0)
(2.34978 -0.219854 0)
(1.39605 -0.466377 0)
(2.23192 -0.351093 4.44712e-20)
(2.59804 -2.33692 0)
(1.80095 0.634424 0)
(2.00214 0.00985639 0)
(1.79835 -0.421287 1.70044e-19)
(2.07858 0.197657 -2.67469e-19)
(1.60118 0.0287699 0)
(2.56187 -0.91616 -3.16003e-19)
(1.97603 0.172076 -2.4972e-19)
(2.43011 1.00057 -3.10422e-20)
(1.54181 -0.717167 2.19201e-19)
(1.87451 0.683955 1.28818e-21)
(1.89159 -0.697727 -6.17073e-21)
(1.84113 -0.249098 3.8055e-20)
(2.1375 -0.584286 -1.02962e-19)
(2.41069 0.193179 -4.92971e-20)
(1.65352 0.0778335 -4.21254e-20)
(1.8308 0.0699101 -3.03988e-19)
(2.12157 -0.0419154 0)
(1.207 0.163508 1.00178e-19)
(1.97538 0.0609676 3.184e-19)
(0.368754 -0.800868 -1.09295e-19)
(2.15631 -0.253198 -7.75013e-20)
(1.05499 -0.188214 -6.06402e-19)
(2.42838 0.169891 7.658e-21)
(3.11118 0.64056 2.61041e-19)
(1.99763 0.0751045 0)
(1.49109 -0.254832 -1.37337e-20)
(1.76569 -0.0754102 -1.72303e-20)
(2.17062 -0.597509 2.13313e-19)
(-2.25798 0.819905 -1.41717e-18)
(2.08 0.0373488 1.51423e-19)
(2.48102 0.283799 2.0897e-21)
(2.19507 0.0130527 -5.23263e-22)
(2.42334 0.157867 0)
(0.890902 -0.347178 0)
(1.35995 -0.65038 2.83761e-19)
(-1.57424 1.21539 1.03306e-18)
(1.9611 0.0200117 2.86062e-22)
(1.97421 0.0611799 6.33723e-19)
(1.48644 -0.261071 4.41962e-20)
(1.43919 0.270661 0)
(1.80507 0.0913629 0)
(1.62162 -0.353513 -5.6824e-21)
(2.4278 -0.0109601 5.7897e-20)
(1.9215 0.668222 3.96826e-19)
(2.38711 -0.130018 0)
(2.13487 0.012232 0)
(2.16005 -0.546459 1.31446e-19)
(2.02918 -0.151356 2.11899e-19)
(-0.443082 0.560281 -1.81891e-19)
(1.7193 -0.0727241 0)
(1.20511 0.0306261 1.23671e-19)
(2.93368 -1.02741 -1.47915e-19)
(-1.80469 2.41246 -8.60264e-19)
(2.05012 -0.0207534 -3.13346e-19)
(3.84174 0.509562 0)
(3.71193 -0.0620676 5.13371e-19)
(1.56918 0.85865 -2.13899e-18)
(-0.172034 0.332156 0)
(1.77234 0.0346578 -2.62962e-20)
(1.92344 0.105495 -2.10205e-19)
(1.73275 0.0154192 -1.01568e-23)
(2.35005 -0.217129 4.97054e-20)
(1.21179 1.04274 3.20565e-19)
(1.85888 0.0464826 0)
(1.04331 -0.388687 -5.3695e-21)
(1.44883 -0.266422 -4.18358e-20)
(1.39762 1.83311 -1.35046e-18)
(2.0345 0.300656 2.08893e-19)
(-1.19418 -0.482362 2.40571e-19)
(2.03116 0.0266828 -6.90276e-19)
(1.79497 -0.463822 -2.0991e-20)
(1.78102 -0.239437 3.26247e-20)
(1.75899 -0.384057 0)
(1.74057 0.0173254 -8.78383e-20)
(1.09071 -0.506812 2.27293e-19)
(2.26791 -0.0901268 -2.70306e-19)
(1.99734 0.0544228 -2.85809e-19)
(2.85869 -0.413891 2.20451e-19)
(1.6865 -0.163426 6.78677e-19)
(2.30543 0.0194274 5.53612e-21)
(1.79192 0.0950975 1.80105e-19)
(1.63326 0.246844 -2.72016e-20)
(3.50794 0.0266161 -6.48779e-19)
(2.35494 1.10799 -2.95881e-21)
(1.97411 -1.34429 1.78213e-18)
(1.88223 -0.0199244 0)
(1.50525 -0.421288 0)
(2.06963 0.0668449 0)
(1.32919 -0.396705 5.05146e-19)
(2.15466 0.0705937 -4.66262e-19)
(1.79237 0.226314 0)
(1.53308 -0.318815 -3.84433e-19)
(1.7866 0.19549 0)
(1.7719 -0.280468 -2.81087e-19)
(2.38681 -0.60404 -2.48591e-19)
(1.90356 -0.472787 -2.08351e-19)
(1.93919 0.0464121 0)
(1.96695 0.0496623 0)
(2.29166 -0.162048 1.29135e-19)
(2.58756 0.353532 2.32201e-21)
(2.94324 -0.0722395 2.16479e-19)
(2.27221 1.74284 -6.11385e-21)
(2.3545 -0.167294 0)
(1.76856 -0.64339 -1.0823e-19)
(-0.265452 0.408889 0)
(0.835918 0.926615 -3.07911e-19)