/*--------------------------------*- C++ -*----------------------------------*\
| =========                 |                                                 |
| \\      /  F ield         | OpenFOAM: The Open Source CFD Toolbox           |
|  \\    /   O peration     | Version:  2306                                  |
|   \\  /    A nd           | Website:  www.openfoam.com                      |
|    \\/     M anipulation  |                                                 |
\*---------------------------------------------------------------------------*/
FoamFile
{
    version     2.0;
    format      ascii;
    arch        "LSB;label=32;scalar=64";
    class       volScalarField;
    location    "0.7";
    object      p;
}
// * * * * * * * * * * * * * * * * * * * * * * * * * * * * * * * * * * * * * //

dimensions      [0 2 -2 0 0 0 0];

internalField   nonuniform List<scalar> 
5098
(
-0.329167
0.720486
0.305045
1.92943
0.0878053
2.1578
0.499152
0.0367472
0.405083
0.444951
-0.313066
0.864112
0.231646
2.42659
0.142716
0.144913
-0.647806
-0.318886
-8.50875
-0.659823
1.55734
0.227997
0.706494
3.0088
-0.394994
2.08364
1.53087
1.34276
-8.00449
0.246877
0.704181
2.60048
1.62942
-0.328156
0.345115
-0.746198
1.56107
1.61874
2.32849
0.928748
1.88674
-0.329924
2.05406
0.477951
0.302201
0.989657
-0.524611
2.63706
0.744465
1.96496
0.558981
1.82661
-0.587459
1.49964
2.16138
2.0344
1.5046
1.79722
2.60772
0.0816586
0.28253
-0.501064
0.232219
0.327036
-0.613051
2.45988
-0.0580348
0.549637
1.30823
1.71106
1.53643
0.336103
1.13262
0.216302
0.337262
1.97429
-0.0346008
2.0795
0.497166
2.00203
0.126965
-0.448992
1.90514
-0.238193
-0.298537
0.130083
3.40912
0.132145
-0.0764651
0.234617
0.948002
-0.841766
0.958542
1.93134
2.33991
0.423048
1.67131
2.15064
0.357546
1.21114
0.0973014
2.10609
-2.87948
0.200141
2.07287
-0.120834
1.53055
0.563089
2.68137
-0.354654
1.80876
-7.70361
1.56442
-0.780098
1.4629
-4.62403
-0.361282
-1.10166
0.194865
2.97438
1.77977
0.90549
0.440503
-0.448874
-0.907892
-0.68797
1.37553
0.774326
2.36451
-0.808281
-0.391744
2.53791
2.50606
-0.818501
0.160719
-0.0314685
-0.804445
1.57707
2.35987
1.47038
1.87372
-1.75379
1.24182
0.438738
0.99524
0.229588
1.37501
0.140022
-0.183033
0.94836
-0.246237
-2.70763
0.107817
1.67689
3.419
2.90001
1.80202
0.0792053
1.89619
-8.28345
1.42978
0.163012
-3.54494
1.6724
-0.352552
0.72649
0.0684429
0.355358
-0.393684
1.80679
0.403898
1.96694
0.541061
1.35665
0.770458
1.26422
1.84699
-0.591713
1.85886
3.35694
-2.15176
-0.306558
1.68385
-0.360398
1.65217
-0.340175
2.07991
1.53089
1.94336
-0.754342
-6.91683
-0.0320528
1.07159
0.288966
0.65935
-0.82676
-0.495238
-0.0840583
0.0145156
1.76087
-0.426606
1.81377
0.346447
0.831189
1.28802
2.89579
-0.230674
2.39055
0.936961
1.03652
1.63773
1.80227
-0.0626624
0.918129
-0.00540851
-8.08957
0.237657
-0.311979
-0.89206
1.05584
0.844676
2.07969
0.161488
0.862359
-0.735136
1.37212
3.23161
1.66132
1.35207
-0.452271
1.62262
3.05334
-0.396316
-0.160302
0.404055
0.511894
1.3868
-0.578311
-0.36173
1.6925
-0.42695
0.52202
0.155181
2.72224
1.44798
0.947964
2.38251
-0.351226
-0.570727
0.844424
0.632431
1.28
-2.66075
-0.496725
1.6538
-0.604
0.151824
0.288884
2.59518
0.114632
-0.219894
-0.651287
-0.422594
1.15053
0.0112539
-0.422922
-8.30816
-0.255022
0.442987
1.71845
-0.73268
0.3541
-7.57063
0.431266
2.56512
-3.73789
-0.278308
-0.160599
0.410752
1.53119
-0.395635
0.0144249
-0.730708
-0.0102616
-1.36988
-1.74395
1.68696
0.161787
0.674809
0.733995
-0.443726
-1.52218
2.7163
0.271846
1.26119
0.434403
0.369628
0.691455
1.40566
1.60495
0.201105
0.27977
2.0372
1.34041
-0.434515
1.52266
-1.73643
1.25485
1.61265
-0.502542
0.942788
-2.74577
2.12351
0.198074
0.0947931
3.37477
-0.969579
0.109728
1.07947
2.82709
0.482355
-1.66369
-0.271093
-0.960712
0.280627
2.35533
0.681403
1.69111
2.65433
0.212543
1.67776
1.12448
2.36323
0.260826
1.65762
0.527104
0.633719
2.00191
1.12291
1.64594
1.18988
1.74528
0.52902
1.58173
-7.05586
0.369661
1.40675
-7.98829
-1.10258
0.930275
-0.162136
2.84431
2.80022
-0.411728
0.205202
-0.398364
0.0448101
0.685024
2.31947
0.33731
1.56268
1.37646
0.946077
0.194814
0.454869
2.5932
1.495
1.28096
0.308239
-0.594992
2.50689
0.536993
-1.09917
0.273696
0.376544
-0.490896
1.70592
-0.242587
0.432717
0.195927
1.39379
-0.719434
1.6878
0.194873
0.464154
-1.59955
0.393908
-0.53556
1.83474
-2.57629
1.38677
0.607246
1.60609
1.82295
1.31912
-0.710051
2.00583
-0.993842
0.697512
0.0654785
-3.37751
2.76411
1.97935
1.641
-5.12048
0.768306
1.41989
-0.406933
-0.263007
-0.145566
1.72285
0.296898
-0.626627
0.352549
-1.17593
0.158415
1.40936
2.82155
-1.67233
0.795352
1.45334
2.07992
0.435517
1.12353
-0.390032
-0.853144
0.282928
0.200098
0.454469
1.37969
-0.00207697
-8.13729
0.186843
1.52818
-1.35153
-1.04334
0.264126
0.766837
1.303
-0.685063
1.79083
1.64531
1.18322
-0.806954
1.51352
-1.24835
-0.229519
0.155382
-7.12301
1.37512
-0.498119
1.02332
1.65695
-0.739424
-0.407835
0.509106
-0.347708
0.679963
1.42422
-2.02973
2.02519
0.176088
2.78556
-2.14098
1.86908
-0.309279
-0.766024
-0.330369
-0.455248
1.84058
-5.48767
0.244397
0.18013
-0.380851
1.58675
-0.859768
-7.67115
2.08257
-2.07091
1.04591
1.34757
-0.48365
-1.04593
1.06227
0.529451
1.61615
0.622418
0.111396
0.363411
1.44082
-1.39539
0.158922
0.0772062
-0.636572
-0.88503
-0.0707709
2.22752
-1.92425
2.15147
1.71822
-0.334006
0.718023
-9.42888
-0.274712
-8.87368
-1.61984
1.14798
1.08303
-0.709921
0.327514
-0.972136
1.61347
1.78729
0.648387
0.969703
1.39626
2.82628
-0.505696
-0.0150403
2.26814
-0.402719
0.180986
2.75835
0.206029
-1.15391
-0.0413502
-0.322978
-2.49091
1.34718
0.313823
0.605481
3.20037
-0.327746
0.393814
0.138505
0.296438
0.632188
-0.894089
-0.776975
-0.560881
1.60742
-3.23826
-0.542626
1.79232
-0.726284
-0.491225
0.401489
0.149238
3.28032
-1.16079
-1.93522
1.65583
0.374281
-3.89629
-0.0179104
-0.292257
-0.376368
2.13407
-0.432544
-0.0436308
-0.332763
0.212784
1.69759
-2.09012
-0.984326
-2.11885
-2.24894
0.181434
-0.384675
-3.49369
0.515247
0.0813493
-2.69059
1.41914
1.83862
3.34903
0.314952
1.75032
2.40432
0.0421349
0.551444
-0.205919
0.916042
-0.777397
0.757413
0.306091
0.19501
1.17247
0.917119
-0.527632
-1.09916
2.76187
-0.253844
-0.321847
0.309866
1.68515
0.7531
1.37721
-1.1595
-0.987229
0.181308
2.2793
0.328026
-0.376907
2.5345
-1.47162
2.40823
-0.377096
-0.489761
0.143438
-1.10827
-0.577675
-1.06504
2.46675
-0.879595
-1.22275
2.4972
-0.149574
0.316073
0.182312
2.72757
-4.82059
2.22529
0.524296
0.166023
0.240088
-0.836279
0.988783
0.321452
0.272478
-0.330329
1.27747
1.94976
-0.415039
0.314553
1.81313
2.71237
-0.515324
1.89658
3.28994
-0.759334
1.01282
0.030296
1.80962
2.22956
1.93036
-5.49243
1.39302
0.500245
-0.393252
1.38141
0.335902
1.77154
0.105989
1.47883
0.740126
-0.635441
0.171615
0.447628
1.45277
1.89244
0.504563
-0.269793
2.62672
1.66292
2.01419
0.705895
0.285401
0.178185
0.181277
2.54274
2.80309
-1.6099
1.72389
-0.408002
-2.62942
-1.34306
1.37869
-6.15987
-8.41701
-0.376652
-0.286207
0.308838
0.816054
-0.903969
1.56491
1.92949
-9.05947
1.98979
0.0398278
1.66458
-0.624747
-0.0586384
0.394214
2.68345
0.289419
0.2025
-0.177213
-6.6267
1.2026
0.057762
0.581569
2.47504
-0.351721
-0.287809
-1.48138
-0.144186
-5.78585
1.93647
-0.294712
2.81579
2.61818
2.44833
-0.362702
-0.895671
-6.6128
-8.6697
0.550315
-1.28829
-4.63256
-0.701781
-0.335772
2.02728
-0.822417
1.76225
-0.387988
2.41809
1.6204
-2.06379
0.641076
-6.21077
3.08841
0.191499
1.30321
-0.385165
-0.308952
-0.0157175
-0.303919
-2.0869
1.94
0.213933
0.0491133
-3.32713
-0.774116
0.764959
-0.423347
0.279089
0.151733
0.412579
0.721703
-0.335067
1.93543
2.44873
-2.36025
0.9047
-0.368613
1.80664
-7.4344
0.509586
0.868254
-0.380231
0.376134
-0.805904
0.275857
-0.408123
0.104678
1.68351
1.26656
-4.6413
0.31588
0.783662
1.54949
0.320236
0.105527
-0.360082
3.16018
0.966665
1.8272
-2.36778
1.02067
-0.55546
-0.303662
0.374505
-0.485376
-0.171967
2.529
2.22419
-0.562448
0.933569
-0.447459
2.24778
0.351352
-0.75433
-0.646692
-0.745744
-9.58975
0.0553592
0.514855
1.67018
-0.835929
0.394385
-1.91887
1.16637
-0.636282
-1.01267
2.04153
0.62272
2.58531
0.201831
1.72341
1.99618
1.85191
0.218218
1.66614
0.236957
0.322962
0.653562
0.464726
0.89908
-0.96916
-0.549314
0.0584407
-0.303808
0.956925
1.41951
0.77246
-0.853644
-0.0943931
3.32105
-0.452274
1.79253
0.0195464
2.47534
-2.26386
1.60312
-0.273497
-0.32395
2.64738
-0.108095
-4.24574
0.93093
2.74619
1.71296
0.262694
-0.040932
-0.890544
-1.52914
-1.82171
-1.15618
1.80422
-1.90927
-0.901027
-0.756317
1.05689
-0.0437345
-2.20803
-0.126373
-3.80107
1.33978
0.463119
1.58013
0.0720596
-3.27827
2.48968
-0.619765
-0.500795
-2.48012
0.560016
-0.775512
-0.599493
-0.250622
0.255336
0.157014
1.49048
-0.541133
-0.134277
-4.24208
0.196906
0.38126
-0.0757663
0.420155
-0.718911
1.57039
-2.45464
2.51214
2.0818
0.663968
2.02281
0.935435
1.47359
2.94011
1.99445
-0.292246
-0.0263093
-0.708057
0.0155762
0.047726
-0.406546
1.75231
-2.86612
2.26956
2.36352
1.51904
1.49205
-0.217164
0.785816
-0.645128
0.149281
2.51287
1.80593
0.389953
0.474613
-0.706482
-0.0984794
-1.67617
-5.22041
-0.689088
0.0553446
0.378801
-0.239143
0.200964
2.59254
1.62023
1.88291
1.77832
1.89666
0.155333
0.20636
0.144117
-2.77011
0.732111
0.215491
1.21354
1.14577
2.68609
-0.0504991
-0.0836379
0.440609
1.5402
-0.470069
0.283635
-1.10135
3.04254
1.74947
-1.15011
1.47012
0.120057
-0.279933
1.5006
1.83035
0.928457
0.756475
0.409418
-0.647894
0.269343
0.512341
2.53754
-1.14574
2.23564
-0.48008
-0.220435
-0.510236
1.42901
1.91425
-0.0570757
0.160569
3.02336
0.852122
1.26568
1.34648
2.79335
0.495297
1.71259
0.225258
1.77833
0.167888
0.287783
2.28113
3.20447
0.638817
0.0633604
-3.59445
0.0626579
-2.37628
1.75108
1.02592
-1.46429
1.43231
1.95981
1.39848
1.54435
0.172971
1.73043
2.28237
0.0159216
2.86218
1.91869
0.599214
-0.0603023
-0.800305
0.267588
1.62002
0.684451
1.65719
1.91675
1.48254
-0.163981
-0.0867545
1.97672
1.30879
2.22524
0.294003
1.51462
1.7634
1.10494
2.03033
2.03358
0.263316
0.346779
1.53639
1.96381
-0.0265732
-0.0389879
-0.134961
1.95496
0.586313
1.77601
2.78394
-0.380865
2.69521
2.98455
0.134039
0.0353365
-1.69666
3.25974
-2.91506
1.87499
2.81578
1.06937
-0.695406
1.02235
1.32741
2.97894
1.09228
1.0212
3.10139
2.22597
0.298828
3.06765
2.46672
0.374393
-0.479114
-1.60613
0.0547633
0.492222
1.86509
2.44035
-2.58908
0.191477
1.11314
0.579184
2.24382
-0.492523
2.69802
-0.097459
-0.28034
1.2541
-1.29649
1.93619
0.338359
1.27347
-0.388145
2.44549
1.62185
1.71235
1.70132
-0.270488
0.361624
0.102851
0.733506
0.998878
2.59214
1.78371
0.059034
1.06718
0.455422
-0.390649
2.41975
0.371383
2.02601
0.342511
-2.81048
-0.331539
0.539144
0.879422
2.73805
0.379159
1.14155
-0.362119
0.113204
2.34276
2.38966
-0.37608
2.2916
0.76533
-0.357056
0.651768
0.810449
3.20206
0.309762
-2.42158
2.08833
-2.60007
1.89256
-0.748932
-0.373605
0.235957
-0.849932
-0.583922
0.0297084
1.69876
0.248249
-0.578295
0.0345098
0.0320498
-1.05245
1.08783
2.62477
1.46056
1.27687
-0.499882
-0.437702
0.389425
1.20101
0.110793
0.0493996
0.154053
0.00892204
0.0549633
1.3967
0.84427
1.00757
1.37502
0.898699
-0.801141
-4.58028
0.341572
-0.089245
3.02744
1.16057
0.954606
-0.452356
0.0103791
0.0125425
0.252623
-0.329305
-0.224885
0.163444
-0.0410586
1.71847
0.106003
0.166195
1.846
-0.611202
-0.307225
2.56184
-0.512951
-0.816443
0.608496
1.59229
-0.223523
0.617477
-0.129714
0.318683
-0.717987
0.190626
1.9303
-0.378971
0.806106
0.180789
-0.350774
-0.241167
0.256258
1.46754
0.498155
-0.453469
2.56665
-0.648989
1.72537
-0.244893
-1.07541
-1.91901
0.214947
-0.786338
1.54676
1.64149
1.67031
0.448501
-0.471423
2.26201
-0.268394
-1.68842
0.033086
-0.398724
0.186216
0.408085
2.3157
-0.707438
-7.69285
0.0691111
1.29247
1.24019
-0.288842
0.993697
0.243878
0.214317
0.649912
1.02794
0.678701
-1.01725
-0.326903
2.44235
0.401924
0.0413935
0.933907
0.0397622
1.1855
-0.367253
0.126215
0.151726
1.41673
0.0802074
0.277837
0.737782
0.0545858
0.595027
0.207345
1.68426
0.237086
0.0647193
1.43954
1.42829
-0.0144952
1.18813
1.1975
1.70686
2.00694
1.70736
0.370255
2.68196
1.22227
-0.702945
1.02823
-0.408398
0.371002
0.139936
1.04672
-0.385638
2.67535
0.513267
0.753859
-0.884388
0.756517
-0.527123
0.529479
-2.09199
1.37093
-1.0991
1.35926
1.09798
1.63891
-0.453298
2.01576
-0.478636
1.46851
1.61788
0.830213
-0.0936631
-0.0474329
-0.567541
1.83135
-0.307902
-9.45772
1.81789
0.908573
0.319807
1.87202
1.60282
0.0473652
2.44143
-1.6256
-0.160562
-0.0804971
-0.0754182
0.351713
0.0959216
0.131047
2.71379
-0.127876
0.819163
0.23011
-0.192649
1.73928
1.93085
0.0327598
0.15948
1.57011
-5.2016
1.3805
1.68031
0.225441
0.141146
0.925351
0.319571
2.74922
-0.908548
1.52033
0.171361
-0.730152
2.81237
1.71097
0.335577
2.19843
0.0746165
2.01299
1.95836
0.401229
1.55579
1.38965
1.58406
1.58799
-0.387169
1.70884
-0.614341
0.533397
0.0194758
-6.03682
1.9339
-0.660669
-0.895046
0.437196
0.198641
1.04204
-1.46383
1.51057
0.497997
1.16914
1.57692
1.13383
-0.17683
0.25772
-0.0854262
1.56301
0.666028
-0.516142
-0.0211788
-0.878939
1.72566
-0.489285
-0.455972
1.55504
-0.473578
1.95099
1.19718
-0.550088
-0.843013
1.81799
2.06322
0.180422
1.66423
-1.38342
-0.0522107
-1.84302
0.632022
0.0186756
-0.782904
2.94212
0.460911
-1.88459
0.0917071
-0.0629738
1.50712
0.881589
-0.0307029
-0.750403
-0.403871
0.00232921
-1.25377
1.01615
2.42909
0.343676
-0.292441
0.0379873
-0.657081
2.26878
2.98109
-0.624888
0.967108
1.59823
-0.703202
0.680392
2.65642
-3.84047
0.00424032
1.60351
1.74518
1.66863
0.0892405
0.825492
0.0339099
0.797147
-1.20515
0.157391
1.6662
0.225647
0.604077
0.938533
1.53023
1.33352
0.19735
0.908638
1.69004
1.45595
1.35212
2.76833
-0.286807
2.57989
0.254253
2.51584
3.17248
-0.602909
0.420937
0.744272
1.61704
-7.4012
1.0366
0.94674
0.179026
1.65771
2.24999
1.72098
1.77293
0.831251
0.916468
-0.41808
3.06045
-0.512905
0.351106
-0.424631
-0.127565
-0.512362
1.78765
1.77228
1.29166
1.85734
-1.51687
0.188835
1.93562
1.41989
0.333487
0.218408
0.413393
-4.16266
0.696799
1.6588
2.91068
1.61735
2.07695
1.99895
1.67348
2.77191
1.30595
1.63966
0.595843
-0.278521
0.525567
1.21837
1.08167
3.10204
0.0292689
0.782209
0.0119928
0.184378
2.94421
1.14694
0.270284
-0.195245
1.19975
-0.201994
0.216178
2.16274
1.65549
1.34411
1.68217
0.380358
2.31226
-4.71671
1.32022
0.605586
0.49244
0.307084
2.41026
0.438342
0.377071
1.73286
1.42992
0.116026
1.50492
2.48883
0.16898
-0.399155
-0.48372
-7.87227
0.0556858
-0.463921
0.140454
1.59145
0.613298
0.149808
1.57687
-1.82089
0.185892
-0.0336205
-1.28361
-0.104619
0.508855
-0.550441
-0.655737
1.50301
1.64545
2.10519
-0.603796
1.01803
0.288447
1.54363
2.40469
-0.209552
0.0714382
0.193613
2.49751
1.13383
-0.159378
-0.0461554
-8.40182
0.162175
0.339197
2.66618
0.19257
0.0135236
1.09403
0.532359
0.0527905
0.975847
0.531067
0.723301
-0.361644
-0.441146
0.360719
-0.590557
0.151744
0.509015
-1.29238
1.71059
1.04097
2.85475
0.731464
2.61104
-0.0564062
1.82638
-0.327327
0.349393
0.130001
2.34633
0.229842
0.40026
0.532636
-1.1793
-0.0609601
0.0492116
0.12722
0.142185
0.274081
0.194926
0.318812
1.25093
1.89107
-4.40776
0.370484
0.396006
0.270136
0.36174
1.7232
0.110133
1.02301
0.31743
0.147886
2.18389
-0.121972
0.674477
0.0117455
0.123764
0.216454
2.15954
-0.21568
0.286918
0.141338
-2.49756
0.159306
0.228818
2.54062
1.88165
0.0293778
-5.83849
-0.196815
1.5967
0.282875
0.241729
0.021247
0.676208
0.29152
0.188897
0.0759956
0.0226377
1.05983
-0.0356842
1.58647
-0.137473
0.0580761
0.564725
0.995203
0.329891
0.42144
1.65269
0.398449
0.189805
0.132489
0.195857
-0.207894
0.013792
1.71132
-1.20538
-0.639815
0.363785
0.192468
-1.64979
0.0393308
0.21988
0.147106
2.28806
1.48404
-8.27143
0.258702
-0.406558
-0.401928
0.143426
0.169792
1.7662
0.627088
1.61327
1.48269
-2.35671
-2.04071
0.108554
-6.80778
-1.16212
1.81534
0.233235
0.686267
-0.664153
1.86891
0.141904
1.73628
0.309797
0.345534
2.0783
0.0747268
-0.00594484
-0.380257
2.23359
0.150004
1.55174
1.67119
-0.0267526
0.150479
1.59793
-4.95736
2.18663
0.221971
2.13095
0.0152268
-0.061751
0.345794
1.64443
2.07347
-0.476328
1.68862
1.02699
0.187915
2.35792
0.99481
-0.369354
1.62155
0.200756
0.316208
0.0238705
-0.340957
0.215957
-0.480988
0.00839507
1.52382
1.22214
0.126802
0.151693
1.02302
0.296487
1.81157
0.0827687
0.0658892
-0.0307608
0.25031
0.197082
-1.95997
1.27423
-0.270124
0.205133
-1.81
1.65818
0.139219
-0.611981
0.224194
0.702329
2.51287
-0.589654
0.00732257
1.00189
0.556394
0.0591195
-2.39368
-0.848159
0.440549
0.148507
0.436504
1.61844
0.0211784
0.238284
-0.578478
0.17996
0.100611
0.272495
1.71427
0.26666
0.0549673
0.206136
-0.526846
0.303108
0.185396
0.827042
-0.403896
0.386531
0.373957
0.232153
0.216818
0.0472715
0.0333286
-0.295445
0.188886
0.169618
0.733816
0.779096
0.192137
1.09858
1.10183
0.195606
0.0608943
1.26201
0.421807
0.06885
0.222196
0.32704
0.801855
-0.48052
-0.372477
0.0562616
0.624125
0.286901
1.16671
1.36986
0.211208
0.173602
1.74238
0.178513
-0.403564
0.183919
-0.490518
2.08102
1.61987
0.233339
0.106721
0.177652
0.204757
0.100469
0.267705
-0.464033
0.333373
1.68873
0.508864
0.190218
1.64565
0.200902
2.374
0.231176
0.24086
0.353955
0.230544
2.2022
0.19022
0.115705
-0.0281615
0.111761
1.29811
0.990342
0.191933
1.70178
0.193073
1.20048
2.03105
0.653541
1.1662
0.177021
1.00693
0.167233
0.38359
-0.549033
-0.215199
0.164676
1.93956
0.93362
1.39273
1.0383
0.00158954
0.133386
0.196582
0.0634553
0.991587
-0.192176
0.107612
0.0101927
0.123174
0.199512
0.236054
-0.388225
2.55681
-0.241051
-0.678435
2.39517
0.36324
0.118279
0.149662
0.132709
1.39872
0.143998
0.162075
-9.19595
-0.0110447
0.398104
1.6491
0.190949
0.137249
-0.497603
0.0510934
0.307143
0.122308
0.19074
0.160268
1.73306
-0.340089
-0.860226
1.26342
0.204719
-6.77722
0.237226
-0.272791
0.137354
1.64982
-4.10628
1.90534
0.206893
0.177244
-0.750635
0.148339
0.306294
0.221411
-0.363884
-0.76759
2.42885
-0.428986
-1.79193
0.0300598
-0.52646
0.117835
0.201346
-0.752089
0.0387471
0.160191
0.276864
0.187601
0.118572
1.87945
0.621261
-0.0143894
0.254772
0.154737
-0.387628
0.207717
-0.871779
0.219556
0.191245
1.82964
0.326066
1.85088
0.0655518
0.320862
0.166568
0.0227734
0.0568626
-7.75896
-0.305131
0.188225
1.00047
1.34173
0.964978
0.0998535
0.159129
0.1662
1.82507
0.236269
0.509016
1.16405
-0.00459393
0.185146
-1.08323
0.190941
0.0268985
0.197258
1.72748
0.00973874
1.12893
0.138383
1.63684
0.13133
0.876654
0.0186454
0.0951672
-0.668681
0.169817
0.133743
0.261196
0.294424
1.38299
0.130853
0.310805
0.248105
0.175239
0.627011
0.132175
0.171357
-0.423789
-0.728937
0.133779
1.94723
1.52547
0.0830627
0.188331
-0.127062
0.0745219
0.610672
-3.51714
0.0837854
2.18682
0.429726
0.0745124
0.0710279
-1.95858
1.72109
0.27144
0.113766
0.0615723
-0.97539
0.28513
0.10777
-0.482363
1.02211
1.23814
0.156635
0.272701
0.243104
1.87127
0.0175067
0.0570567
0.0963427
0.117466
-1.12735
0.192455
0.151349
-0.0235022
0.187312
0.0674589
0.367676
0.0380374
0.176642
0.224337
0.211183
0.115092
0.162712
2.88205
0.112953
0.317486
0.0225884
0.29494
0.650671
0.169848
0.255785
0.610856
0.111985
0.155959
0.135573
0.0500434
1.86693
0.0267366
0.17402
0.326084
0.0666672
0.066598
0.265148
0.0741499
1.75471
0.22403
-0.0633903
1.16022
0.143367
0.0930109
0.113097
0.369254
-0.692498
-4.01531
0.482411
0.140988
0.317432
0.0648939
-0.0870124
1.6854
1.72409
0.0791294
0.213937
0.189466
0.18483
1.7526
0.0221293
0.173222
1.75814
0.125146
1.6999
0.119187
0.103486
0.290715
0.109596
0.0111069
1.91911
0.203178
0.0102478
0.260198
0.247192
1.5391
2.23196
0.032692
0.292637
0.111585
0.0673243
0.00401213
1.56264
-0.551402
0.00119036
0.0888014
0.227803
0.162691
0.172673
0.134369
-0.782717
0.0111622
0.054372
-0.0520095
1.69395
-3.20365
0.0828173
0.179615
1.15823
1.26891
0.0634048
0.00781989
-1.58772
-0.396229
0.0405211
0.0970197
0.022528
0.0955172
0.0117632
-1.78963
0.0448176
0.391145
0.0869619
1.78156
0.0511829
0.191473
0.113979
-0.314598
0.0447797
1.53752
0.362222
1.82544
0.320912
-0.495332
0.0763725
0.175477
0.123618
0.162066
0.208492
0.0607716
0.0774264
0.184735
0.0116667
0.0490967
0.17262
0.0714329
0.0487631
0.100612
1.6997
0.129233
0.0917919
1.83598
0.0720385
0.157188
-0.0341916
0.82755
0.0961732
0.0428372
0.0781059
0.0824611
-0.941603
0.310204
0.089721
0.150685
0.0927297
0.258502
-1.71196
-0.00954624
-0.511544
0.200869
0.0930677
0.00432892
-0.602834
0.0636924
0.072546
0.0987942
0.547853
0.169821
0.169499
0.631404
0.0449004
0.0566006
0.046742
0.115998
0.0684502
0.0178408
0.0974365
0.148531
0.176575
0.104981
-0.0173866
-0.420746
2.49215
0.0981153
0.0699849
0.0914817
-0.329141
1.79244
0.205801
0.387531
0.00562017
1.76795
0.0594032
0.704077
0.241385
0.0163692
0.0650693
0.258421
-7.59952
0.200812
0.550619
1.34481
0.0787014
0.0246883
0.189509
1.77601
0.126536
0.0866279
-0.0257354
0.216248
1.47916
0.250055
0.0724242
0.0572739
0.105658
0.0912501
0.0801567
1.03237
-0.00957096
2.16257
0.00579591
-0.48921
0.279029
2.81741
1.00161
0.102857
0.0740327
0.132037
0.151762
1.55984
0.22096
0.15351
0.149329
-0.529589
0.0998324
0.199559
0.0818432
3.2095
1.2359
1.63151
0.119193
1.67663
0.0285237
-0.191324
-0.501998
2.05791
-0.458004
-0.477936
0.064427
1.11091
0.197001
0.106211
0.251705
0.227143
-0.610676
0.241818
-1.79005
0.0976633
1.60952
0.195204
0.117564
0.076996
0.0839963
0.109697
1.62927
0.0900992
-0.181165
0.071253
-7.08158
-0.00185617
0.141032
0.149919
2.56045
-0.442009
0.296539
0.164183
0.0791045
0.0918318
1.40392
1.68567
0.092619
0.138776
-0.881218
0.129058
0.652231
2.85634
1.05618
0.461269
0.212298
0.17135
0.0905335
0.85717
0.120755
0.159741
0.0850973
0.841369
1.63061
1.44994
-0.562685
1.07274
0.153369
0.362115
-0.455168
0.229621
0.134725
1.63608
0.29076
-0.815387
0.0927302
2.44338
0.193661
0.144175
0.192505
0.141612
0.335209
-7.77496
2.63772
0.231659
0.207968
-0.768408
0.167289
0.251108
0.411756
0.0986148
0.311612
-0.137626
-0.637285
1.64643
0.133193
0.401645
0.145436
0.762507
0.23981
-0.675928
0.100016
-0.636687
2.97627
0.0962379
-0.725876
2.66742
0.0205318
0.231367
0.198113
0.0405974
1.75532
-0.32367
1.72787
1.72323
0.259089
0.176504
1.70434
0.876706
0.280868
-0.153397
-0.360917
-1.6253
1.72675
0.11955
0.0838227
-1.35065
0.3993
0.23915
0.154381
0.19917
1.69277
0.18832
0.155754
-1.55105
0.0815448
0.0749315
0.0872043
-1.14936
-0.162728
0.349902
0.132582
0.370839
0.0999797
0.15876
2.85925
0.203523
-0.465456
0.597878
0.0701055
1.62765
0.159506
1.72377
0.130746
1.47015
-0.966669
0.210254
2.28705
-0.131781
-1.08103
1.82349
0.34969
0.209859
0.100453
1.66931
1.69434
0.113851
1.75239
2.63804
0.880262
1.79916
-0.613368
0.163752
2.38383
-3.71499
0.589803
0.252161
1.62634
-1.61506
1.8208
1.72478
1.89653
0.0126891
0.0938565
-0.240006
0.0841551
0.226388
-0.156781
-0.43259
0.145962
0.0836853
-0.0310791
0.19897
0.20651
-0.0533703
1.96654
2.12178
2.0336
0.24916
1.01645
0.330139
0.764653
0.23602
0.255561
2.77987
0.251643
0.276307
0.383639
-1.06202
2.21049
0.206728
0.270863
-1.11611
0.34958
0.200284
0.0975178
-0.435297
1.1579
0.0669212
1.20691
1.70367
-0.199652
0.115118
0.431338
1.63753
-0.251352
0.0341858
0.154676
0.0132218
1.2751
0.266262
0.214416
3.17177
2.2368
0.201294
0.183333
-1.49107
2.52487
1.38635
0.378579
2.89353
0.0707599
1.47803
0.752921
2.60688
0.503953
-0.241068
1.09167
-1.31513
0.00984752
0.177568
0.355873
-0.385575
2.66141
0.331341
0.2828
0.35302
-0.126419
1.05863
2.97178
0.419808
0.274833
0.221911
1.39325
0.182849
0.391514
0.476911
1.42385
0.234067
0.228635
0.168637
0.421997
0.615875
1.41461
0.233142
2.59743
0.229596
0.250418
1.61423
0.0721428
0.0164852
0.332771
-0.13817
0.999331
0.0598681
0.681278
-0.0678493
0.253828
1.2888
-0.00257548
0.147274
0.43128
0.344383
0.217907
1.27005
0.0615923
0.227246
0.010041
0.30446
0.183449
0.206351
-0.908234
-0.0126201
0.642181
0.588148
0.317166
0.517752
0.185354
-0.430622
0.31629
1.8216
0.196161
0.330963
0.365827
0.300078
2.31105
0.262557
0.366132
0.424135
3.20401
2.86614
0.233346
-0.107423
-3.77806
0.00181094
1.45613
1.70772
1.55779
0.353002
0.0400311
0.350691
2.45279
0.347861
0.449625
0.663456
0.155486
0.355817
0.311409
1.43989
2.42563
0.202299
-2.48231
0.308961
1.42375
2.11429
0.00516837
0.597466
-0.108208
2.91398
0.014704
0.218523
1.11754
0.382192
0.0493466
0.059126
1.66336
0.0212525
0.00974239
0.149697
-4.78417
0.290079
-0.00195836
2.38891
1.06268
1.86919
0.400432
-2.22798
3.07726
0.243995
0.360741
0.757725
0.257915
1.3072
1.54424
1.63372
0.00820646
-0.324693
0.231285
1.66693
0.181682
0.0525641
0.216899
1.64556
0.483769
0.0734442
0.223736
0.70385
0.0978901
0.0509127
0.354493
0.290426
0.228619
0.346574
1.29399
2.39471
-0.69828
1.85237
1.34778
-0.278761
0.04815
-0.372881
1.59602
-1.3449
0.406644
0.413593
0.337128
0.279877
0.452596
3.14436
0.0187329
1.73029
1.11667
0.313426
0.170774
0.141694
0.164382
0.39476
-1.0136
0.232248
1.1156
0.353005
0.223674
1.85691
0.373863
0.577609
0.531759
-0.347416
0.406874
0.740692
0.430572
1.26563
0.441507
-0.113013
2.24322
1.93248
-1.74222
1.30327
0.0415783
1.05901
1.53331
1.64691
0.27148
-2.11726
-3.66017
0.343481
1.59153
0.0167092
2.14358
0.0654756
0.924321
-0.38599
-7.90494
1.68437
0.230665
1.68301
0.762694
0.393046
0.401842
-0.07863
-0.894718
1.21354
0.326249
1.68883
0.521762
2.10726
2.25819
0.246753
1.96169
0.45134
-0.0192819
0.875842
2.21089
0.517092
-0.946887
1.71826
0.456012
0.461863
2.1592
1.55779
2.10189
0.293757
0.176686
0.416421
-0.639659
0.420382
0.420915
1.12433
-0.362895
1.79824
-0.0185759
0.226968
1.33603
1.75965
0.631431
1.51546
0.122286
-0.500518
0.184126
0.143603
-7.22416
1.13921
1.1314
-0.373029
0.227551
0.554418
0.368853
0.951682
2.19032
2.32717
0.729687
0.661014
0.500838
0.509695
1.40896
0.0356692
1.87805
-1.43
0.326324
0.209416
0.249546
1.02653
1.70355
1.86843
1.23923
0.341399
0.108591
1.67506
1.65991
1.65413
-1.90964
1.88007
1.0304
1.6653
1.10426
0.417255
0.473041
1.61164
1.47284
-0.26827
1.67582
0.280314
0.429156
1.36804
0.248542
-0.152669
2.55747
2.03244
0.437624
1.51984
0.779717
1.3577
0.446712
0.420675
0.162856
0.248802
0.274763
-0.413067
0.1652
0.191273
0.195788
1.67007
2.28339
0.441383
1.68579
0.42706
3.47451
-0.904526
1.85291
0.438177
-5.93811
-0.0680274
3.43013
0.537057
0.270066
3.36093
0.573031
-0.859808
1.61742
3.30263
0.403215
3.23006
1.13567
0.400229
-0.499163
3.10484
0.170758
0.304703
-1.27225
0.637234
0.351149
1.77213
2.92438
0.0323214
0.63251
1.90341
0.355991
1.71089
1.5223
0.18689
-0.734882
-7.96515
2.86824
0.636762
-0.648813
0.492473
0.446997
2.82311
1.12087
0.403969
-0.601979
2.76997
-0.19873
-0.55413
2.7216
1.82472
-0.505593
-0.646921
-0.465165
1.00341
1.90612
-0.496666
2.66236
1.68647
0.472557
-0.450815
2.12851
0.530902
0.664409
0.156109
-0.417939
1.53127
1.69999
-1.02174
1.62411
0.470469
-0.163028
-0.819909
2.5184
0.879182
1.57133
0.274275
-0.398134
-0.393222
-0.387851
-0.388791
-0.397403
-0.38777
0.273343
-0.378392
-0.436624
2.14897
2.4802
0.921586
1.09162
0.566683
1.34133
-0.45803
2.45729
0.000834571
-0.473081
1.97677
-0.849838
-0.480093
0.215012
2.35344
1.77339
1.25945
0.702809
1.76643
-0.452732
-0.494354
2.32929
-0.458634
0.445145
-0.0338218
-0.630181
1.60224
2.29026
0.317064
1.97877
0.226801
1.42435
-0.546472
0.206374
0.435864
2.2525
0.144557
-7.81262
2.21244
-0.846798
-0.0625611
0.212232
-0.602045
2.18004
1.56601
0.720563
1.67012
0.500254
0.150223
0.120774
-0.629234
-0.421416
2.123
0.770367
0.170093
1.77723
0.829029
-0.268871
0.230524
-0.64388
2.11055
-0.414345
1.57284
0.170914
-0.0183506
-0.68794
2.0677
0.95517
-0.424267
2.02255
-0.722664
0.211458
0.145501
-7.84909
-0.977048
1.99441
-0.70863
1.91438
-0.767185
-0.649836
1.33372
0.00961839
1.2576
0.128177
1.87189
-0.70345
0.678105
2.49982
1.9125
-0.838417
-0.074901
1.83992
-0.53513
0.0279251
1.45906
-0.817761
1.70108
1.79461
0.0116296
0.54444
-1.64295
1.68439
1.17245
0.423945
-0.445216
-0.815928
-8.10411
1.7378
0.579664
-0.533715
0.367818
-0.588406
-0.801197
-0.508623
1.21364
1.70047
2.17291
1.60061
2.32598
1.69188
-0.862734
0.839972
0.372224
-0.40416
1.35489
0.131301
0.27269
1.14056
1.48425
0.234813
-0.896928
-0.426938
1.63663
-0.0203225
0.231494
1.89127
1.50964
0.262799
2.71448
-0.258506
0.773582
0.56743
-0.967866
0.459258
-0.421759
1.57162
1.85551
1.76399
1.40305
-1.09012
1.50648
1.43768
1.39706
1.30581
1.23909
1.15121
-5.99233
1.45103
1.07925
1.69525
0.945467
-0.495527
2.39057
-1.33186
0.0296509
-0.411015
1.53741
-3.23425
2.12578
-1.71746
0.526493
-2.22724
-0.38735
-3.07617
1.6672
-0.08652
-0.829599
-4.02677
-0.865661
0.0913151
1.66012
-0.520897
-6.49678
1.74719
1.73185
0.0596044
-0.237312
1.80178
0.555608
-0.365573
0.442701
0.910334
1.61001
-0.902268
0.482226
-0.0302328
1.78898
-0.775897
-0.540914
-0.385229
1.15877
1.70009
0.482163
-0.84348
1.07448
1.86443
1.20774
-1.01344
1.78994
0.80408
1.37604
0.207353
1.64646
0.226825
0.00659929
-0.00844808
1.01233
-2.21279
2.34261
0.287857
-0.694871
0.320295
-8.10737
2.05375
1.76774
1.50945
1.71694
0.553124
0.384194
-0.0114202
-0.446931
0.434284
-0.165752
0.471092
1.32759
-3.814
0.254763
2.89837
-0.0122386
1.13131
1.19814
-0.346132
0.257787
1.1495
0.451491
1.17964
1.31851
1.71359
1.7183
1.67046
0.437122
1.86209
-9.04855
0.2161
0.0219692
-1.71427
0.522648
-0.36769
1.85088
-0.347299
1.51746
-0.584325
-0.452245
0.577665
-0.766405
-0.158342
-2.05023
0.552234
1.7957
-0.177586
0.204815
0.15533
0.642282
0.397994
0.0697313
0.0994523
1.56839
0.500116
0.012019
1.36747
0.508543
1.41781
-0.920511
0.420423
0.361582
0.0375884
0.509777
-0.382116
0.472193
0.204867
0.0410825
1.18176
2.36457
1.01711
-1.19274
1.65914
0.32603
1.39032
0.00988824
0.111088
1.25466
-0.608669
-0.0089086
-0.327388
-0.330815
-0.591937
1.5953
0.0756974
1.90601
0.160867
-0.0156616
2.4566
2.32619
-0.0203834
0.945947
0.179198
0.0923728
1.81761
-0.288705
0.437582
-0.961497
0.200573
-2.47911
0.0561919
0.824446
0.479309
0.0524555
-1.27209
1.72189
-0.370301
-1.4925
0.942538
0.492587
2.3004
0.435957
0.869004
2.41785
2.44835
0.0754319
2.15634
1.40078
1.64454
0.546746
2.14037
1.77891
0.687156
-2.58832
0.414865
1.34184
1.32427
-0.0239301
0.129317
0.183842
3.00407
1.38996
0.515888
1.64323
1.15558
0.398164
1.57404
0.699641
2.06392
0.242898
-0.79964
0.46248
2.66471
-0.143305
1.78141
3.48987
1.57013
1.5426
0.551257
0.745325
-0.0187942
1.78839
2.81536
-1.69679
0.264893
2.71029
0.496103
0.436545
2.97937
0.289404
-0.384427
0.679892
0.305915
-7.97824
0.708102
0.020536
-0.381948