/*--------------------------------*- C++ -*----------------------------------*\
| =========                 |                                                 |
| \\      /  F ield         | OpenFOAM: The Open Source CFD Toolbox           |
|  \\    /   O peration     | Version:  2306                                  |
|   \\  /    A nd           | Website:  www.openfoam.com                      |
|    \\/     M anipulation  |                                                 |
\*---------------------------------------------------------------------------*/
FoamFile
{
    version     2.0;
    format      ascii;
    arch        "LSB;label=32;scalar=64";
    class       surfaceScalarField;
    location    "0.7";
    object      phi;
}
// * * * * * * * * * * * * * * * * * * * * * * * * * * * * * * * * * * * * * //

dimensions      [0 3 -1 0 0 0 0];

oriented        oriented;

internalField   nonuniform List<scalar> 
7520
(
-0.976956
0.634216
0.34274
-1.23185
-0.254409
1.48626
-0.00497285
-1.61165
1.61663
0.274017
-0.0391573
-0.23486
-0.24489
1.43403
-1.18914
-0.130524
0.141099
-0.0105748
-0.290359
2.11159
-1.82123
-0.00692209
-1.43922
1.44614
-1.0902
1.08523
0.596078
0.27867
-0.874749
-0.205821
-0.0721198
0.277941
-0.217787
-1.82535
2.04313
0.627184
0.108806
-0.73599
-0.136298
0.18665
-0.0503521
-1.83762
1.00448
0.833145
0.15595
1.61298
-1.76893
-0.166433
-0.0412926
0.207726
-0.00718911
0.259743
-0.252554
-0.228969
0.120501
0.108469
0.0812506
-0.247684
-0.529562
-0.195927
0.725489
-1.08625
1.2422
-0.0505142
-0.3587
0.409215
0.204354
-0.177051
-0.0273021
-0.0363083
0.136705
-0.100397
0.291791
-0.283764
-0.00802727
0.861479
1.18871
-2.05019
-0.0481573
0.366563
-0.318406
-0.107494
-0.121475
0.293831
-0.0483433
-0.245488
-0.963359
1.67268
-0.709321
-0.0675222
-0.0267031
0.0942253
-1.78909
1.96479
-0.175692
-0.168572
0.194577
-0.0260054
-0.127953
-1.20523
1.33318
-0.566356
0.742234
-0.175878
0.302332
-0.601288
0.298956
0.90468
-1.63437
0.729692
0.101868
-0.370116
0.268247
-0.0642934
-0.152767
0.217061
-0.0317661
0.305783
0.568001
-0.10684
-0.46116
0.329946
-0.0381554
1.69507
-1.10065
-0.594417
-0.310634
-0.738346
1.04898
-1.49567
1.55397
-0.0583011
0.0310667
0.126525
-0.157592
0.330768
-0.103188
-0.227579
-1.30554
0.34218
0.315863
-0.0878047
-0.228059
1.73653
0.136441
-1.87297
-0.72523
0.166249
0.558981
-0.108978
0.114548
-0.00556961
1.01321
0.568983
-1.58219
0.0179858
-0.14851
-0.780366
0.0452216
0.735144
0.340546
-1.29815
0.957601
-0.0499826
-0.139445
0.189428
-0.160401
0.0928788
-2.45335
1.20853
1.24482
1.83353
-1.13747
-0.69606
-0.0239144
-0.0729752
0.0968896
-1.1321
1.00415
0.941715
-0.314531
0.0279802
-0.136958
0.00621607
-0.142514
1.12619
-2.26163
1.13544
0.277847
1.45868
-1.30884
1.01602
0.292823
0.361094
-0.269917
-0.0911771
-0.497807
0.838353
0.76549
-1.24493
0.479445
0.390739
-0.106812
-0.283927
0.614434
-0.156729
-0.457705
0.72857
-1.63858
0.910011
0.180835
-0.158856
-0.021979
2.36613
-0.963454
-1.40268
0.526817
-0.834046
0.307229
1.38664
-1.1885
-0.198144
-0.901675
0.121309
-1.61768
-0.83567
0.691702
-0.0383435
-0.653358
0.283179
-0.680685
0.397506
0.0490205
-0.217592
0.29768
-0.304869
0.319742
-0.0259106
0.0505883
-0.0495439
-0.00104445
1.34846
1.01767
-1.4367
1.59963
-0.162932
1.20727
0.626254
-1.08916
1.18381
-0.0946462
-0.0183029
-0.108687
0.12699
1.28637
-1.50416
0.276706
0.230349
-0.12848
0.978575
-0.0687121
-0.909862
0.00883162
0.126241
-0.135073
-0.606443
0.373333
0.23311
1.48069
-0.752117
-0.80433
0.678725
0.125605
0.847666
-0.700196
-0.14747
-0.127264
0.159443
-0.0321787
0.266361
-0.355381
0.0890198
2.13357
-1.37349
-0.76008
0.572039
-0.550567
-0.426389
-1.28344
0.785631
-1.82095
1.53059
0.211323
-0.0955888
-0.115734
-0.271068
0.065247
-0.224756
0.223806
0.000950465
-0.621489
0.71852
-0.0970308
1.99547
-1.09079
-0.298809
0.0803706
0.218439
-0.806757
0.277195
0.12304
-0.0940333
-0.0290065
0.107597
0.584105
-0.713478
0.302686
0.410792
1.17045
-2.07475
0.904305
0.0798661
0.124487
-0.104207
-0.621023
-0.289191
-0.0125657
0.301757
1.10791
-0.511836
-0.0322969
0.375798
-0.343501
-0.0267811
-0.236471
0.263252
0.147183
-0.141367
-0.00581586
0.718793
-1.8504
1.13161
0.434816
-0.485331
-0.359686
-0.101331
0.461018
-0.135245
-0.163565
0.0931879
0.289404
-0.382592
0.179066
0.0409661
-0.220032
-0.075679
0.254745
-0.642435
-0.0710429
0.423684
-0.699485
0.275802
-0.709373
1.33934
-0.629965
0.310689
-0.368858
0.0581689
-1.05956
-0.22388
-0.0477058
-0.0715596
0.119265
1.43465
-0.42144
-0.605047
0.474965
0.130082
-0.0484365
0.287423
-0.238987
0.351216
-0.0936641
-0.257552
0.251658
-1.86331
0.357458
-1.85312
-2.00229
0.877044
1.12524
-0.881942
-0.426899
-1.28528
0.774588
0.51069
1.64224
0.192257
-1.83449
0.234806
-0.2991
0.274363
0.396844
-0.671207
-0.0697819
-0.748657
0.818438
-0.258774
-1.0265
-1.8284
0.039304
0.045572
0.0050163
0.0850288
-0.168551
0.083522
0.324534
-0.374517
0.573717
0.273949
-0.190027
0.158261
-0.132125
0.0523589
0.0797658
0.84836
-0.466844
-0.381516
-0.622936
-1.21469
0.497132
-0.566914
0.0510982
-0.605516
0.554418
-0.171695
-0.0783558
0.250051
-1.40879
0.679785
0.729004
0.342025
-0.586915
-0.139396
0.56023
-0.420834
0.168643
-0.204951
0.585252
-0.277967
-0.307285
1.29865
-0.320075
0.270308
-0.358113
0.992042
0.112409
-1.10445
0.335618
-0.383775
-0.360083
-1.18085
1.54093
1.21176
0.732681
0.765906
-0.482727
-0.91947
0.353115
-0.6825
0.931234
-0.248734
-0.0348782
-0.0218392
0.0567175
0.270604
-0.340158
0.0695536
-0.679461
0.787057
-0.308555
-0.169959
0.478514
-0.233832
0.0621371
-0.911614
0.962712
0.334863
-0.937867
0.603004
-0.501513
-0.10493
0.753681
-0.451349
0.197165
-0.0163303
0.228206
0.0578799
-0.286086
-0.125059
-0.49643
-0.898964
0.0424848
0.856479
0.147483
0.243256
-0.792794
-0.845787
-0.857212
-0.551577
-0.00910755
0.136868
-0.12776
0.862087
-0.381024
-0.481063
-0.861212
0.151839
-1.14377
2.12994
-0.986171
0.406007
0.179245
0.30479
-0.259405
-0.0453849
-0.722065
0.617858
0.653578
-0.964212
1.81065
-0.0553706
-1.75528
-1.78028
2.22688
-0.4466
-0.0355378
0.120567
0.48246
1.11321
-1.59567
0.0449613
-0.208099
0.163138
-0.258872
1.77196
-1.51309
0.000990408
0.165993
-0.166984
-0.903838
1.25224
-0.348398
-0.0194684
-0.702597
-0.236162
-0.662802
0.322114
-0.247345
-1.6942
1.94155
-0.479727
0.600227
-1.7966
1.0038
0.276512
0.00177996
-0.278292
0.182341
-0.209123
0.0530323
1.6588
-1.71183
-0.421314
-0.680662
1.10198
-0.571583
0.460937
0.110646
2.32185
-1.50051
-0.821345
0.556741
-0.978054
0.168124
-0.178757
0.0106325
0.105965
0.766489
-0.872454
0.0912864
-0.0922863
0.00099992
0.849162
0.814225
-1.66339
-0.277963
-0.526367
-0.0973583
0.266022
-0.168664
-0.969121
0.66396
0.305161
-0.116145
0.058353
0.0577919
0.786681
0.0754062
1.13279
-2.16864
1.03585
-2.48427
1.08947
1.39479
-1.07239
-1.41187
-0.390559
0.412991
-0.0224318
-0.328275
0.396805
-0.0685294
0.462563
-1.04306
0.580494
0.021387
1.11952
-1.14091
-0.513013
0.474669
1.10894
-0.116897
1.02156
0.979128
-2.00069
-0.239481
0.124696
0.114785
-0.0697938
-0.899327
1.7604
-0.344205
-1.4162
0.18036
-0.135398
0.005444
-0.23061
0.189318
0.894825
0.865579
0.314782
0.53201
-0.846792
0.411622
-0.0450588
-0.0923089
0.150177
-0.057868
-0.284637
0.355955
-0.071318
-1.78758
0.856845
0.930735
-0.0468848
-0.281391
0.942666
-0.518983
0.934331
-0.488037
-0.446293
0.16434
0.166428
-1.93176
1.85264
0.0791209
1.0398
-0.704938
-0.000722336
-0.131334
0.132056
0.00898595
0.106204
-0.11519
0.142729
-0.249541
1.57908
-0.45289
0.0615433
-0.202493
0.14095
-0.00439758
-0.127727
-0.348141
0.276021
0.916041
-0.984753
-0.652338
0.673725
0.329301
-0.101096
2.11159
0.0518898
-0.0366714
-0.0152184
-0.349188
1.26523
-0.252059
0.164503
0.0875564
0.306386
-0.0400251
0.106482
0.461519
0.827968
-0.553605
0.504625
-0.415107
-0.0895177
0.31296
-1.2168
-0.127377
0.220565
-1.61557
1.36823
0.157686
0.010438
-1.62249
0.31938
-0.367816
-0.230543
0.0199592
0.210584
-0.595949
-1.19163
1.11581
1.01776
1.5265
-0.846711
-1.82535
0.401292
-0.433589
-0.301022
-0.0804227
0.381445
0.188513
-0.306347
0.117834
-1.24875
0.510405
-0.240733
-0.279268
0.520001
0.779289
-0.500618
-0.107408
-1.73632
1.84373
0.815469
0.131519
-1.44222
1.3107
0.860961
1.10382
-0.886473
1.30968
-0.827223
-0.0437129
0.428677
-0.384965
-0.84871
0.814511
0.0341991
0.121424
-0.0598808
-0.0978057
0.370305
-0.272499
-0.352396
-0.155339
0.507735
-0.509536
1.7213
-0.307815
-0.408456
0.716271
0.212543
-0.181477
0.180071
-1.26924
0.215445
-0.307754
0.0138348
-2.02938
1.13954
0.889835
0.544875
-0.43607
0.0106938
-0.0929574
0.403646
1.03766
1.2842
1.61783
-0.505874
-1.11196
0.160625
-0.05591
-0.104715
0.802932
0.583708
-0.414082
0.11306
0.488976
-1.52958
1.0406
-0.184548
0.184988
-0.000440155
0.51786
0.962827
-0.262049
-0.108067
0.772792
-0.45801
-0.574273
1.43575
0.198809
0.0125138
1.90478
-0.734335
0.191457
-0.182626
1.78056
-0.16273
0.132654
0.464443
0.0401816
0.0217034
0.339391
-1.68451
-0.959905
0.971323
-0.0114181
0.00872608
-0.167582
1.85203
0.0647563
-1.91679
-0.776239
0.468423
0.273245
0.0779713
-0.350835
0.0809175
-0.209218
-0.979278
1.5888
-1.63758
0.0487789
0.149469
-0.486317
0.336848
-0.895234
1.41309
-0.885169
1.60396
0.240708
-0.0912387
0.758034
-0.455348
1.76917
-0.4828
0.00281371
0.192511
-0.195325
-0.156998
-0.0329283
0.189926
0.157145
0.00348092
0.177413
-0.820848
0.147272
0.11608
-0.263352
0.597975
0.741363
-1.77242
1.41233
0.158237
-0.517924
-0.495061
1.26055
-1.14449
1.36465
-0.220168
0.570397
-2.0686
1.80973
2.18824
-0.839778
0.85777
0.837296
-0.0877194
0.298968
1.28983
-1.24982
0.222806
1.02701
0.316315
-0.364658
-0.387236
0.340351
-0.260137
0.184457
0.131508
-1.23216
0.668338
-0.975939
0.307601
-1.83053
0.872474
0.958059
-0.583046
-0.661889
0.116939
-0.140854
0.0974515
-0.697528
0.740131
-0.0426033
-0.642348
0.502952
1.25618
0.932055
-1.78028
0.0584029
0.0887802
1.60783
-1.40212
-0.205708
-0.24336
1.35657
-1.22541
2.01069
-0.785272
-0.833051
0.894896
-0.0618453
0.182474
-1.31457
0.16343
0.233375
-0.300374
0.481563
-0.181189
-0.275961
-0.0794198
1.32022
0.402085
-1.03334
0.631253
0.042269
-1.61287
1.5706
-0.0707396
-0.154017
0.0965043
-0.484518
0.388013
-0.60197
0.917827
-0.315857
0.249023
-0.174905
-0.0741176
-0.210161
0.655671
-0.44551
-1.94777
1.69336
1.84995
-0.495574
-1.35438
0.50912
-0.779917
0.270797
-0.0272695
0.215782
0.186003
-0.687516
-0.855388
1.70455
0.114838
0.00820226
1.81065
-1.0049
1.11086
-0.0487939
0.0487939
-0.655043
0.257218
-1.69392
2.2005
-0.869837
-1.33066
-0.447708
1.00846
-0.560747
-0.0203485
0.234193
-0.213844
1.06407
-0.998154
-0.0659159
-0.40648
-0.385837
0.792317
0.950207
-1.9797
1.0295
0.0184981
-0.867208
-0.268234
0.111236
-0.351554
-0.428976
0.78053
0.615625
0.54862
-1.16425
-1.28142
-0.420937
0.724178
-0.303241
-0.609446
1.34503
-0.735588
1.39827
-1.34524
-0.0869817
0.234253
0.164039
0.481704
0.132729
-1.22956
0.732593
0.496962
-1.30323
1.62743
-0.3242
-0.024278
0.191565
-0.167287
-1.46468
-0.796948
-0.072047
-0.0354471
-1.60609
0.462326
-0.418566
0.32076
-0.449988
-0.383063
-0.0177014
-0.166847
-0.536221
1.55778
0.0590347
-0.417735
-1.53044
0.0893807
1.44106
0.439176
-0.655575
0.2164
-0.900582
0.218082
0.248893
-0.6273
0.378407
1.71027
-0.136418
-1.57385
-0.0280691
-0.126985
0.155054
-0.294055
0.458277
0.445205
-0.903483
-0.321626
1.3261
0.238793
0.703774
0.730874
-0.018067
1.54725
0.233307
-1.34511
1.38738
-0.179657
-0.0465129
0.22617
-0.217855
-0.0314056
0.24926
-1.66032
0.434908
-0.353737
0.246897
-0.596364
-0.363541
0.286837
0.884776
-0.530954
-0.353822
0.217104
0.112842
-1.03294
1.88259
-0.849651
0.221895
-0.254823
-0.110685
0.381289
0.28219
-0.582564
-0.0473451
-0.225472
0.272817
-0.221372
-0.0374444
0.258817
0.624463
-0.633249
0.00878554
0.0116975
0.0764317
-0.0881292
-0.330383
0.366755
-0.036372
0.607926
-0.838967
0.231041
0.39249
-0.0761755
-0.252014
0.460922
-0.208908
0.951539
-1.11466
-0.935525
-0.385475
-0.115724
0.501199
0.142871
0.457357
-0.321486
-0.250097
0.891708
-0.00693125
0.0573793
-1.26381
1.20643
-0.312731
0.0235398
-0.162126
-0.480309
-0.348705
0.138544
0.224226
-0.223235
-1.17172
-0.0510613
-0.117968
0.169029
1.13004
-1.01763
1.03959
0.810368
0.344216
0.590114
-0.111495
-1.61653
1.72802
0.302055
0.659164
-0.961219
-0.454967
-0.884517
0.375059
0.509458
0.706488
-0.267312
0.0206499
0.109113
-0.129763
2.24477
-1.19704
-1.04772
0.154566
-0.352151
0.197585
0.238226
0.65154
-0.889765
0.0808242
0.117767
-0.198591
1.6444
0.0390369
-1.68344
0.253287
0.00645616
-0.296456
0.35549
-0.205269
0.0750324
0.130237
0.335655
-0.0379751
0.0196882
0.0968007
-0.116489
-0.685859
-0.217983
0.903842
1.15864
0.551632
1.07091
-1.01353
0.2286
-0.83057
-1.80489
1.69748
0.00867333
-0.245144
0.345233
-0.603623
0.258389
0.791022
0.735474
1.1572
-1.29182
0.134624
1.17682
-0.473045
-0.177275
0.121365
-0.0666397
0.227982
-0.161342
-1.39592
-0.299544
1.69546
-0.386269
0.50196
-0.115691
-0.00241086
-0.046383
0.576442
0.857592
-0.168196
-0.0712849
1.18397
-2.13847
0.954504
-0.826299
0.118688
0.707611
1.59599
-0.4632
0.10722
0.168099
-0.916756
-0.311224
0.00861356
0.302611
0.0313971
-0.276885
-0.638717
1.0408
0.0310721
0.0602143
0.241766
0.0716578
-0.313423
0.113772
0.950298
-0.245122
-0.454363
-0.230939
-0.432264
0.419698
0.450958
-0.900946
0.194455
-0.114085
-0.0420682
0.231386
-2.01191
0.897245
0.108062
-0.0210132
-0.0870483
0.176306
-0.129591
-0.0467146
0.276823
0.842696
-0.0870586
0.0140834
-0.049137
-1.49574
1.54488
-0.27217
-0.334788
0.606958
-0.0823128
0.0940323
-0.0117196
-0.211531
0.879869
-0.278991
-0.265768
0.544759
-0.310686
0.559579
-0.803462
1.69572
-0.892257
-0.855413
0.262568
0.592845
1.67553
-0.0332915
-0.246535
-0.0206329
0.267168
0.343579
-0.0541744
-0.20294
-0.235922
0.904686
0.694947
0.558758
-1.36828
0.809524
-0.816477
-0.200414
1.01689
0.0129122
-0.430895
0.417983
0.0396344
0.0611602
-0.100795
0.528817
-0.00293654
-0.525881
-0.105756
0.321201
-0.890782
0.139508
-0.002803
-0.160155
-0.147599
-0.163344
0.460573
-0.29723
-0.283714
0.339219
-0.0555046
0.44474
-0.335105
-0.109635
0.744717
-0.438798
-0.0181573
-0.0313865
-0.585581
-0.357282
0.942863
1.23627
-0.959449
-0.0630495
-0.354129
0.417179
-0.233029
-0.467167
-1.19283
1.47067
0.626483
-0.229639
-1.23723
0.844864
0.392362
0.408571
-0.157867
-0.250704
1.7783
-1.7783
-1.68685
0.0691691
-0.882291
-0.104007
-0.679405
0.783412
0.511129
-0.573715
0.0625862
0.109666
0.31116
0.0180739
-0.329234
-0.0618157
0.260632
-0.198816
-0.548854
1.08089
-0.532033
-0.252312
-0.0401046
0.292417
0.806111
-0.623637
-1.09219
0.275712
-0.0533506
-0.272857
0.326207
-0.0243207
-1.2255
-0.673884
-0.966473
0.292589
0.871846
-0.0842046
0.24736
-0.163156
-0.317023
0.399784
-0.082761
-0.322707
0.225349
-0.0956336
-0.199812
-0.0307306
0.0512512
-0.0403625
-0.147989
0.188351
0.187303
0.0406786
-0.285217
0.0332025
0.0875338
-0.188474
0.10094
0.0586507
0.0588254
-0.117476
0.291886
-0.265829
-0.0260572
-0.0798858
0.212782
-0.132896
-0.692212
0.999813
0.726846
-0.910721
0.183875
-0.189497
-0.0870184
0.276515
-0.0162993
-1.93275
1.94905
0.813909
-0.659465
-0.154444
0.263342
-0.108656
-0.197691
-0.079984
-0.0140493
-0.065248
0.219814
0.386117
-0.857697
0.471581
-0.428738
-1.50302
-0.467416
0.878415
-0.410999
-0.226168
0.0909228
0.464754
-0.31805
-0.146705
0.0186418
-0.604223
-0.623259
-0.299771
0.358965
-0.0591937
-0.595716
0.354983
-0.0883922
0.563357
0.17106
-0.162074
-1.37093
-0.00256739
-0.32149
0.60368
-0.0467423
-0.221492
-0.254478
0.0931362
0.248499
-0.332703
-0.10047
-0.992774
0.300562
1.90301
-0.131055
-1.6942
2.1495
-1.08426
-1.06524
-0.165799
0.539133
-0.150095
-0.75158
0.461845
-0.586904
-0.285748
-0.0254764
-0.433208
-0.561395
0.994603
-0.0575094
-0.131386
0.188895
0.0804156
-0.962358
-1.78546
-0.353563
-0.355561
0.709125
0.151666
-0.423836
-0.287397
-0.0461079
0.333504
0.543594
-0.108778
0.273872
0.134699
1.9489
-0.998694
-0.94274
0.509532
-0.283859
-0.0600235
0.343882
-0.0536767
0.0588477
-1.057
-0.28831
-0.0357843
0.324094
-0.11534
-0.0450607
0.924814
-1.23549
0.310679
-0.648043
-0.042929
1.82123
0.476531
-0.833812
1.12722
-2.02039
0.893178
-1.96601
1.18625
0.77976
0.192597
0.118703
-0.3113
0.160079
0.89739
0.109417
0.799481
-0.908899
-0.0292105
-0.173282
-0.100261
0.609381
0.0391282
-0.586133
0.547005
1.246
-1.3575
0.750796
-0.184306
0.21733
-0.0330245
-1.50101
-0.185842
-0.689915
-0.667339
0.281864
0.160513
0.00341819
-0.163931
-0.695414
0.360529
0.334885
-0.439999
0.396286
-1.06177
-0.595627
1.6574
-0.183997
-0.189663
0.169314
0.449406
-0.456318
0.00691181
-0.796211
1.66869
-0.198777
-0.984217
0.536509
0.514117
0.428549
0.625334
-1.17419
-0.0692475
-0.0728389
0.142086
1.34171
-0.122166
-1.06698
-0.38025
-0.11136
0.49161
-0.0609425
0.2454
-0.0398631
0.248156
-0.208292
-0.268495
-0.0363741
0.238917
0.589052
-0.600174
0.346248
-0.0759404
-0.418283
0.325326
-0.180411
0.00383969
0.176572
0.296537
-0.107256
-0.189281
-0.174859
-0.0481905
0.223049
-0.205192
-0.0232908
0.228483
0.234801
0.0284506
-0.304663
-0.181655
0.532389
1.18889
0.336202
-0.344208
0.00800585
0.282785
0.435246
-0.718031
-0.337468
0.426417
-0.0889486
-0.330668
0.290402
-0.711339
-0.172672
0.409437
-0.0849027
0.224396
-0.0557529
-0.16243
-0.0456692
1.74978
-0.935554
0.549316
-0.620027
0.0707109
-1.48411
0.291284
0.124453
0.126211
-0.250664
-0.0577589
-0.058386
-0.832803
-1.13321
0.410715
-0.0750967
-0.6933
-0.83628
0.308599
-0.0668335
0.113538
0.335868
0.819639
-0.798138
-0.78215
1.34091
-1.58687
0.190947
0.45703
0.162914
-0.619943
-0.00293354
-0.233373
-0.417097
0.650471
0.166961
-0.0260111
-0.747977
-0.649088
1.39706
-0.931068
-0.965642
1.89671
0.393794
0.590037
-0.983831
0.0323538
-0.285019
-0.0147522
-0.288403
-0.294161
-0.212935
-0.111
0.323935
0.720287
0.098151
0.307439
0.157316
-0.245555
-0.675053
0.218506
-0.166616
-0.62033
1.21031
-0.589984
-0.177892
-0.241815
-1.59967
0.149604
-0.0127364
-0.507687
-0.104687
-0.277905
-0.864003
0.345021
-0.167374
-0.952455
-0.316134
1.26859
-0.403925
0.865769
0.624448
0.384007
-0.349806
-1.0437
-0.968205
-1.29954
1.23362
0.108776
0.0585598
0.0497227
-0.12017
0.0704469
-0.712591
0.626443
0.086148
0.766695
-0.786163
0.115605
-0.00754385
-1.19089
-0.0463372
0.183504
-0.236372
0.0528681
0.549884
0.0745787
-1.35475
-0.00988146
1.36463
0.0506631
0.13664
0.0047226
0.264546
-0.269269
-0.285131
0.47618
0.0958589
0.105496
0.0418844
-0.14738
-1.17413
0.829922
0.159228
0.00773222
-0.206404
-0.145747
-0.393198
0.12138
0.0730758
-0.190385
-0.279588
-0.0453121
0.175549
0.33372
1.51892
-0.625864
1.48363
1.01188
0.414222
-0.800059
-0.0473213
-1.30743
0.54173
-0.36684
0.438391
-0.0715514
-0.112996
-0.0283717
0.319834
0.020938
-0.0712302
0.164109
-0.0152499
1.42002
-1.40477
0.0971808
-0.799778
-0.141008
-0.292571
-0.0819453
-0.319695
-0.31826
0.404753
-0.0864937
0.0475188
-1.48002
1.43251
0.474299
0.155462
0.355667
-0.969518
-0.541828
1.01748
-0.475651
0.0467417
0.0709748
-0.200566
-0.593264
0.425236
0.168028
0.41158
-0.494866
0.0832865
-0.254134
-0.521399
0.775533
-0.310281
-0.0734941
-2.00314
0.00863359
0.251586
-0.248772
0.0721931
0.182723
-0.0234945
0.36754
-0.723101
2.17256
-0.966517
-1.20604
0.338984
0.468033
0.230911
-0.226188
0.245426
0.113539
-0.218664
-0.00891596
-0.239201
0.288221
-0.624372
0.777994
-1.03213
0.180106
-0.119344
-0.0607618
-0.408699
-1.69003
0.799363
0.890665
-1.71437
1.69807
-1.02737
0.546779
0.480591
-0.528201
-0.0435185
0.57172
0.234373
0.657334
0.354276
0.22731
0.546379
0.539948
0.0839352
-0.293733
-0.0243163
1.01989
1.15266
0.107061
0.0431156
1.21809
-1.02583
-0.0536453
-1.35789
1.41154
1.13498
0.0539096
-0.32594
-0.0926261
-0.290286
-0.49526
-0.299954
-0.282442
-0.104794
0.19354
-0.927309
0.733769
-0.54053
2.22964
-1.39705
-0.832588
0.0355195
0.180992
0.0532004
0.602889
0.184168
1.65296
-1.58379
0.993285
-1.92435
-1.19922
-0.036524
1.23575
-0.82338
0.348802
0.474578
-0.302924
0.155325
1.96746
0.0287081
-1.99617
-1.00577
1.61158
-0.605811
0.0711219
0.268097
-1.26725
0.657802
-0.0129268
0.170613
-1.30307
0.158582
-0.00285354
0.00338034
-0.000526796
-0.194595
0.233883
-0.0392886
0.0635765
-0.43524
0.371663
0.654622
0.316701
-0.547066
-0.148348
-0.0192724
0.918747
-0.900249
-0.0838211
-0.0847296
-0.290371
0.0623124
0.172802
0.596628
-0.76943
0.136201
0.433132
-0.569333
0.191209
-0.612309
0.4211
-0.457063
-1.34976
0.533501
0.816257
-0.0338909
0.802505
0.327993
-1.1305
-0.654187
0.25932
-0.28768
0.0283604
0.207291
-0.0441525
-0.294871
0.00747469
-0.329967
-0.775691
0.222086
-0.529382
0.859686
-0.330304
-0.70973
-0.209741
1.92765
-0.788106
-0.107356
0.203596
-1.21511
-0.0492022
-1.24686
1.29606
0.16199
0.0777766
-0.239767
0.780994
-0.456785
-0.324209
0.305644
-0.0182209
-0.178471
-1.08647
0.376743
-0.712386
1.08744
-0.0222668
-0.325874
0.344279
0.271587
0.0249501
0.883566
-0.415143
0.0780297
0.688665
-0.957322
0.336299
-1.89252
0.926877
1.59262
-1.5451
-1.642
1.62675
-0.0834999
-1.51318
0.308038
1.20514
0.354301
0.524114
0.0438748
-0.87928
0.775273
-0.167208
-0.132245
0.299453
-1.1497
0.437118
0.71258
0.146799
0.655198
-0.801997
-0.102223
-1.19732
0.860141
-0.0194203
-0.840721
0.207192
0.706179
-1.20124
-0.28353
-0.0202763
0.0786293
1.6329
-1.59386
-0.355292
-0.986012
-0.363745
0.656366
0.0441824
-1.24341
1.09448
-0.291977
-1.80973
-0.0156208
-0.144654
-0.959796
0.377812
0.184873
1.80489
0.306695
0.0638461
-1.12085
0.176326
-0.13536
0.0979289
-0.450325
0.341273
-0.624086
0.282813
-0.174408
0.00681094
0.167597
0.266213
-0.286846
0.00352821
-0.288165
-1.07898
1.17288
-0.0939033
-0.720109
0.718446
-1.30417
0.585722
-0.852489
-0.0759443
0.133736
-1.36787
0.045914
1.32196
-0.421991
0.992389
-0.682254
0.76267
0.151977
0.918126
0.69794
-0.928879
-0.818077
-0.243243
1.06132
-0.83414
-1.31239
0.564411
-0.161013
0.164862
-0.00384951
0.102143
-0.113863
0.717724
-1.35644
0.154674
-0.54667
0.391996
-0.189363
0.639223
-0.449861
-1.03477
0.513375
0.0477565
0.0310348
-0.265895
0.432217
1.76375
0.203705
-0.769595
0.879012
-0.3105
0.104096
-0.687599
1.31112
-0.623523
-0.0937529
0.0860433
0.111122
0.425771
-0.0165568
0.958965
1.17097
0.463759
-0.919107
0.259349
-1.75986
-0.219711
0.168649
0.023531
-1.04116
-0.25866
-0.976833
-0.258078
0.0680514
0.862585
-0.430369
-0.584463
-0.155186
0.744238
0.227044
-1.66657
0.326918
1.33966
-0.0649403
0.54112
0.382115
-1.40134
-0.378941
0.825582
-0.371822
-0.45376
0.950638
-0.368176
-0.582461
-0.226614
0.0517095
0.722674
-0.685562
-0.0371125
-1.72047
0.801292
0.919176
0.898373
0.797347
0.0015198
0.158993
0.834683
-0.544281
-1.40346
0.627505
0.775958
-1.94155
1.642
0.525113
0.751822
-1.27694
0.837387
-0.716077
1.56642
-0.734835
-0.831584
-1.07674
0.222161
-0.100796
0.076407
-0.110173
0.234869
-0.0651384
0.161765
-0.0966268
0.14558
-0.302309
-1.23511
-0.204109
0.407118
-0.36799
-0.0439715
-0.0483148
0.886619
-0.188771
-0.697848
0.859269
-0.49874
-0.174829
0.14756
-0.0155449
1.17274
0.220812
-0.0588221
-0.224611
-0.810163
-1.4844
0.531948
-0.0511026
-0.125949
0.144658
0.185455
0.154932
-0.10521
-0.552068
-0.97342
0.141083
-0.102555
-0.0385278
0.215573
-0.669439
-0.843619
1.51306
0.165793
0.0169301
0.0181782
1.01622
0.964822
-1.98104
-0.58341
0.977205
0.268389
-0.110128
0.232431
-1.01798
-0.656165
1.67414
-0.904016
-0.973496
0.412101
0.304025
-0.101784
-0.20224
0.323472
-0.704496
-0.227154
1.17
-0.451556
-0.230428
0.136764
-0.182559
-0.728162
0.00114963
1.84423
-1.69748
-0.146742
-0.968408
-0.515995
0.18812
0.197209
0.0788137
-0.985808
-0.228698
1.21451
0.25944
0.420943
-0.00936319
-1.54306
-2.10968
0.828367
1.28131
-0.232439
-0.00700868
0.239448
1.02909
-0.657823
-0.371269
0.132475
-0.203705
0.104088
0.119718
0.944921
-2.00669
0.795048
0.15559
-0.470394
-0.472346
-0.1683
0.0369139
0.17738
0.710059
-1.3795
0.0233879
0.405289
-0.225519
0.707224
-0.653661
0.345183
0.308478
0.668867
0.897552
0.503149
0.0485739
0.505875
-0.768579
0.262704
2.0686
-1.74168
0.215131
-0.57991
0.173516
0.0337748
0.10943
0.0246673
0.163684
0.0031177
-0.16413
0.63334
0.0417582
-1.72744
-0.0292114
-0.203228
-0.0919481
-0.0282216
1.18973
-0.565285
0.845193
-0.639999
-0.205194
0.00614044
0.153303
0.00814106
-0.0109946
0.40881
0.0294881
0.229329
-0.29068
-0.342568
-1.94472
0.894154
1.05056
-0.125781
0.0170933
-0.0553794
0.139996
0.179746
-0.300669
-0.326631
0.507347
-1.52532
-0.141915
-0.953947
1.97017
0.634269
-0.199526
-0.434743
-0.782598
-0.402601
-0.171114
0.11109
-1.1155
0.411251
-0.713233
0.301982
-0.248172
0.200496
0.0476761
-0.0409796
1.01753
0.99316
-1.67692
1.74168
-1.48625
0.802601
0.683649
1.01383
-1.96777
2.10522
-1.06757
-1.00923
-0.959169
0.549177
0.190954
-0.162258
-0.32226
-1.49092
-0.0222584
0.0139748
-1.30579
1.17904
-1.90882
0.729778
-0.0672618
0.302068
-0.576411
0.767291
-0.174446
0.905703
1.32394
-1.46737
0.779768
-0.055201
-0.848815
-1.3563
0.213814
-0.0133185
1.71437
-1.74766
-0.0671005
-1.28925
0.0278143
0.741351
-0.283073
-1.48952
1.72671
-0.237192
0.330424
1.61862
0.467505
-0.0117128
-0.455792
1.89774
-0.904454
0.269411
0.197295
0.576367
-0.738493
0.119462
0.152124
0.14692
0.69871
-0.84563
-0.700185
-0.318874
1.06424
-1.05438
-0.00986688
-0.325089
0.289305
-1.50291
0.772028
0.730887
0.56597
0.215024
-0.822095
0.139654
0.955033
-0.526485
0.327563
-0.615966
0.18412
-0.239873
-0.699927
0.466554
-0.985104
-0.919917
1.90502
0.25901
-0.282301
0.284951
-0.322926
1.14446
-0.607949
0.176189
0.996347
-1.62221
0.133122
0.143975
0.252422
-1.21187
-0.0263613
0.660578
0.0535702
0.175706
-0.604682
-1.37904
0.596892
0.281003
-0.420138
0.139135
0.0807146
-0.353213
1.09443
1.05507
1.27276
-0.962081
-0.080951
0.183868
0.172087
0.49951
0.291903
-0.328277
-0.713513
-0.956045
1.96987
0.172293
-0.206184
-0.834411
-1.03901
1.87342
-1.5505
0.544729
-0.0801509
-0.402635
0.313686
-1.52293
-0.00751086
-0.259387
0.670638
-1.02613
-0.918584
1.84423
0.659172
-1.21075
1.05307
-0.736364
-0.394924
-0.366089
0.351336
-0.312567
0.249518
-1.68187
0.297489
-0.839317
1.01514
-1.97119
-0.845081
0.310497
-0.364672
-0.0738645
-1.41566
0.896276
-0.551255
1.26842
0.895209
-1.76889
0.873683
1.72996
-0.928669
2.04313
-0.951159
-0.977814
1.92897
0.336594
1.2828
-1.02336
-0.804755
-1.30492
-0.957688
-0.528562
0.481069
-0.916334
1.70229
-0.785958
-0.145643
1.3614
-1.21576
-1.0175
-0.964125
1.98163
0.881707
0.182537
0.287617
0.416883
-0.763974
0.140928
0.623046
0.0634144
-0.318238
0.501579
-1.46999
-0.785911
-0.418512
-0.294079
0.28888
-0.393567
-0.787558
1.267
-1.94655
0.956341
0.990207
0.00647016
-1.69932
1.69285
0.153961
-0.298013
0.0991966
0.411192
-1.72699
1.72699
-0.147777
-0.00128237
0.149059
-0.491864
1.04048
0.186842
0.0269719
-0.789268
-0.601656
0.699807
-1.67692
-0.112278
-1.28417
0.279271
1.24984
-1.27416
-1.25055
0.264741
0.316327
-0.37191
0.055583
0.185384
0.53729
-0.193582
0.0191741
-0.971207
-1.22714
0.151005
1.07613
-1.39013
0.0253452
-0.382245
-0.921923
-0.0440348
0.149531
0.197649
-0.113339
0.358764
-0.0807882
0.0354761
0.394084
-0.342927
-0.357
-0.84288
1.6707
-0.827818
0.376542
0.226067
-0.218423
0.451085
-0.232663
-0.385654
0.230315
0.429677
-0.641281
0.211604
-0.81774
1.31628
-0.791164
-1.595
-1.73451
0.254481
-1.07985
0.0643719
1.05413
1.19063
0.0142374
-0.974034
1.21193
-0.479335
-0.322085
0.299819
0.64146
0.587445
0.249941
1.95939
-0.944248
-0.980074
-0.920995
1.90107
1.18041
-0.0580333
-1.12238
-0.108737
0.543983
-0.24832
0.224042
0.163344
1.31975
-1.4831
-1.55289
1.5451
0.00779202
1.55289
-1.62675
0.24834
-0.315601
-0.550485
1.25666
0.102817
-0.276925
0.305375
-1.62702
0.184801
1.75147
-0.856263
-0.486724
-0.146111
0.149951
-0.480645
0.944338
0.291197
-0.0936125
0.744649
-0.576622
0.203582
-0.2777
-0.613353
-0.067332
0.511091
-2.16719
0.554317
-0.0909223
0.483992
-0.393069
-1.00807
-0.900745
0.126034
0.397076
0.642725
-0.934068
0.164473
-0.21536
-0.396949
0.128542
-1.99502
0.98579
0.046227
-0.126416
-0.206287
0.00618462
-0.19657
-0.188473
-1.35663
0.933507
-1.65166
0.718154
0.0748741
0.288796
-0.36367
-0.498211
0.417788
-1.00427
1.28354
0.386114
0.591091
1.25263
-1.40134
0.22094
0.0523046
1.66693
-1.9574
0.290474
-0.313334
-0.142984
-0.896589
0.0558684
0.406867
-0.518227
-0.206275
0.299411
-0.839861
-0.155511
-0.0510127
0.206524
-1.48613
0.213784
1.27235
-0.233905
0.284568
-0.0440974
-0.186615
0.230712
1.18986
-1.14568
0.233687
-0.226876
0.64747
0.135942
0.269424
-0.216555
-0.253078
0.344001
0.234042
0.629456
-0.863498
-0.453531
0.0182907
-0.89484
-0.976239
1.87108
0.0372372
-0.560382
0.631093
-0.711893
1.69807
-0.285458
0.282525
0.0779441
0.0765033
0.00390086
1.98393
-0.964038
-1.30801
0.859878
-0.562389
-0.540036
1.31599
-0.239737
0.269225
0.122256
-0.124666
-0.380026
0.388032
-0.34035
0.22935
-0.145148
-0.419382
0.306043
0.997761
0.259969
-0.253784
0.253673
-0.00631269
0.0490065
-0.433187
0.328393
0.5279
-0.870827
0.242596
-0.282771
0.0401749
0.301193
-0.223416
0.367117
0.697269
-1.06439
-0.294524
0.162279
0.251
-0.654925
1.29045
-0.692471
1.0496
0.936373
0.00387107
0.488097
-1.0302
0.386565
-0.495342
-0.181384
1.00613
0.942773
-1.6722
1.6722
1.44089
-0.931026
1.1111
-0.0138986
1.55093
-1.53703
0.914796
1.02965
0.931463
-1.91657
0.0294271
-1.06156
-1.32279
-0.168045
-1.3811
1.54914
-0.444759
-0.150957
0.0963827
0.622977
0.216026
-0.323282
-0.954125
1.79363
-0.839506
-0.195262
0.314724
0.0101952
0.194632
0.511856
2.01527
-0.780453
-1.23482
1.53612
-1.49021
1.13776
0.226898
0.247085
-0.0063764
0.0453677
1.61343
0.553441
1.01074
0.871847
0.0282531
0.230792
-0.259046
-0.391861
0.246114
0.214891
-0.231508
0.0166169
0.192448
-0.263855
0.0714071
0.431327
-0.4506
0.37231
-0.550202
-0.0641358
0.465427
0.0523775
0.127436
-0.0177698
-0.812256
0.332582
0.479674
0.148185
-0.137869
-0.0103163
1.74766
-1.60087
-0.447742
0.149921
0.297821
-1.6329
-0.383017
0.298115
-0.980319
1.89512
0.288173
-0.370118
1.92337
-0.99191
0.276862
-0.352802
-0.200563
-0.817233
-1.34908
-0.210376
1.44673
1.34817
-1.09575
-0.10796
0.187826
-0.145833
-1.49175
-0.332788
0.32476
0.274421
-0.415429
-0.408439
0.321945
-0.119622
-1.30844
1.25479
-1.42682
1.4756
-1.13347
-0.552894
0.463376
0.699884
0.426859
-0.451175
-0.0962866
0.104253
0.388866
-0.493119
-0.383231
1.27806
-0.988808
-0.966583
-1.91861
-0.113648
0.109058
0.00458953
-0.00524897
1.41738
-1.41214
0.818168
-0.596083
0.357317
-0.428868
1.50075
-0.877771
0.858882
0.896718
-1.7556
0.261722
0.0294754
0.670695
-0.202662
0.232655
-0.848536