/*--------------------------------*- C++ -*----------------------------------*\
| =========                 |                                                 |
| \\      /  F ield         | OpenFOAM: The Open Source CFD Toolbox           |
|  \\    /   O peration     | Version:  2306                                  |
|   \\  /    A nd           | Website:  www.openfoam.com                      |
|    \\/     M anipulation  |                                                 |
\*---------------------------------------------------------------------------*/
FoamFile
{
    version     2.0;
    format      ascii;
    arch        "LSB;label=32;scalar=64";
    class       surfaceScalarField;
    location    "4.6";
    object      phi;
}
// * * * * * * * * * * * * * * * * * * * * * * * * * * * * * * * * * * * * * //

dimensions      [0 3 -1 0 0 0 0];

oriented        oriented;

internalField   nonuniform List<scalar> 
20045
(
1.46829
-1.74553
0.277249
-2.91354
1.35642
1.55713
0.56096
5.11484
-5.6758
1.5725
-2.51619
0.943691
-2.86338
2.27948
0.583902
-1.40169
5.11469
-3.713
-2.6373
0.136118
2.50118
0.0946825
1.44457
-1.53925
1.49839
1.16006
-2.65845
-1.47286
-0.624236
2.0971
0.186555
0.0428434
-0.229399
4.54711
-2.32799
-2.21912
1.19811
-1.1673
-0.0308143
-2.73258
2.15796
0.574621
-0.0654054
2.3878
-2.32239
-2.40677
0.933906
-0.187626
-0.762809
0.950435
0.422107
2.44436
-2.86647
-3.7733
5.3997
-1.6264
-1.98254
-0.18152
2.16406
3.09359
-1.91574
-1.17785
0.440548
0.757566
-0.755395
-2.15815
2.64872
-0.352663
-2.29606
2.13854
0.0876611
-2.22621
-0.705565
3.35429
0.66113
-0.678182
0.0170514
-3.37498
7.19324
-3.81826
7.66453
-4.38789
-3.27663
-8.18731
4.86037
3.32695
3.83294
-3.25188
-0.581055
2.93517
-2.99094
0.0557705
0.317829
3.35938
-3.67721
7.80288
-4.18089
-3.62198
-1.8141
1.90878
10.2915
-6.31542
-3.97608
1.25632
4.628
-5.88432
-0.191676
1.21873
-1.02705
-6.05143
4.13998
1.91146
1.67275
1.52966
-3.20241
-0.222721
1.8474
-1.62468
0.598618
-0.817808
0.21919
6.54548
-6.65148
0.106002
3.3785
-0.96495
-2.41356
1.32563
2.05287
2.1377
2.40941
0.188891
-1.15564
0.966746
-3.93328
6.26188
-2.3286
5.16141
-3.90509
0.897504
4.36686
-5.26436
3.32783
-5.48006
2.15223
4.07996
-2.23977
-1.84019
-1.67756
-1.85472
3.53227
-0.297221
-0.932208
1.22943
-2.62455
2.96805
-0.343503
-1.98991
-0.873467
0.753947
4.26826
-5.02221
2.75177
1.53362
-4.2854
4.90995
-4.59212
8.08636
-7.58046
-0.505905
0.947852
-0.365118
-0.582734
0.83986
7.2465
-0.235501
-1.83083
2.06633
1.10816
1.98543
-4.12182
0.18939
3.93243
3.40098
4.28772
-7.6887
-1.01078
2.48175
-1.47097
-1.76685
0.0762131
1.69064
2.55136
-1.05297
0.356511
-0.28515
-0.0713615
-2.12961
1.11883
-2.93857
0.314027
-0.781409
-2.81645
3.59786
0.357093
-0.206198
-0.150895
7.48845
0.24145
-7.7299
4.28087
-3.52693
-1.69115
9.1796
1.96162
-2.02703
0.512575
0.14977
-0.662345
-0.376566
-4.00344
4.38001
-0.377909
9.09746
-8.71955
2.20447
-2.13129
-0.0731801
0.834771
-1.07027
-5.84414
0.633043
5.21109
-0.0823204
1.55061
-0.669339
1.17573
-0.50639
0.411577
-3.99316
3.58159
-3.9553
0.0671502
3.88815
2.30262
0.862948
-3.16557
-2.05098
1.51767
0.533317
-3.38752
0.772677
2.61484
2.41058
-0.650163
-1.76041
1.19359
-1.83318
0.639591
-0.789933
-1.94451
2.73444
1.79123
-1.96155
0.17032
-5.04562
6.08108
-1.03546
0.445981
0.215149
0.399539
-2.51538
2.11584
3.45835
-1.7856
-0.0344001
-0.802348
0.836748
5.24564
5.04586
-1.13817
-1.59441
-2.42809
2.82763
-2.12706
4.87884
0.419547
-1.08889
0.895496
-0.929897
0.867218
3.23579
-4.10301
2.07784
-5.57091
3.49307
0.701466
-1.56744
1.3168
0.250643
-0.943518
1.18337
-0.239853
2.67723
-3.00205
0.324827
-1.54643
1.24921
4.14453
-6.68986
2.54533
-0.79899
1.10423
-0.305244
0.160163
-1.13094
0.970773
2.51997
-0.381425
5.40226
2.40062
-3.29786
2.51645
3.44015
-0.777781
-2.66237
-1.87073
2.29283
0.791675
0.156177
-2.41057
1.91907
0.491504
-3.9736
0.373668
-1.85435
1.48068
1.7554
2.32456
2.74123
-3.99179
1.25056
3.8557
0.401472
-4.25717
-6.9026
4.7572
2.1454
0.249561
3.69031
-3.93987
3.71568
-1.96028
-0.0726497
-1.08299
0.920834
-0.639003
-0.281831
-0.138355
0.105846
0.0325088
2.89823
1.9579
-4.85614
3.12796
-2.59918
-0.528782
-0.610021
-0.0456428
0.655664
-1.12626
-0.441184
0.273131
3.16702
-2.08816
2.09304
-0.00487151
1.97244
-5.44728
3.47484
0.996886
-2.67444
1.46001
1.7585
-3.21851
4.31061
-4.68718
6.04427
-0.839437
-5.20483
2.26523
-1.55364
-0.711593
4.31797
-2.01635
-2.30162
-0.75721
0.683456
0.0737541
-0.807037
5.58255
-4.77551
4.11326
3.55127
-4.09093
0.08399
4.00694
-3.02013
1.94859
1.07154
7.1203
-7.49821
0.405988
1.79848
-3.08392
3.55076
-0.466848
-4.41451
4.97547
0.0257796
-1.44938
1.4236
-0.290627
-2.04416
2.33478
-0.1426
-1.13878
1.28138
3.66082
1.81366
-5.47448
6.61149
-3.32922
-3.28227
-1.38891
1.24631
3.20328
-2.82122
-0.382058
0.743995
-0.145377
-4.36683
-2.05913
2.77808
-0.718949
-2.82283
2.23836
0.584475
-0.0454026
-0.383099
0.428502
2.68465
1.63333
-0.049864
-0.0884906
0.337172
0.583662
-3.21916
0.135248
-3.78284
4.64813
-0.865292
-3.76608
3.71636
0.0497129
-9.50928
4.62284
4.88644
-1.38973
0.1203
1.26943
1.62794
-1.96399
0.336052
5.48118
-1.24218
-4.239
-0.195177
-3.68893
3.8841
-2.19258
3.65259
1.02122
-3.12244
2.10121
-2.69134
6.83586
-3.69146
3.03139
0.660074
-1.0369
1.11334
-0.0764321
2.71604
-5.49516
2.77912
-5.64708
2.2721
-4.8261
-1.37829
7.36682
-4.62074
-2.74608
-2.23795
2.01523
1.10353
-1.1858
0.0822688
-3.45252
-0.240413
3.69294
-5.07608
7.14834
-2.07226
5.01714
-4.76832
-0.248819
-0.19073
-0.789746
0.980476
-2.86143
-2.09519
4.95662
-0.25624
0.442795
4.17615
-3.92659
-3.59468
-1.01509
4.60976
0.770719
0.180143
-0.950862
0.407989
-2.46712
2.97207
0.86087
4.06465
-0.208955
-1.02563
0.833955
-1.31065
1.63447
-0.323817
-2.85702
6.51784
-5.1513
2.28987
2.22795
-2.72498
0.497024
-3.87164
0.925315
2.94632
0.751189
4.26595
5.83299
-3.11695
4.85379
-7.83088
2.97709
2.01891
-2.59438
0.575469
0.449644
-2.43218
-2.66992
3.53714
2.97679
-4.37848
3.9856
-6.8822
2.89659
-8.63692
4.55388
4.08304
-0.525004
-1.52598
1.05332
0.93571
-1.98903
2.64828
-0.884573
-1.76371
-0.989974
-3.90433
3.09729
-1.52068
-0.567486
3.01682
3.40044
-2.90347
-0.496975
-0.0681713
-0.850618
0.91879
2.88763
0.580058
-3.46768
-2.00375
2.17325
-0.169502
-2.46568
5.74477
-3.27909
-3.84298
4.25456
3.22392
-2.2027
-0.51553
2.60592
-2.09039
4.73697
-2.76454
0.78023
-0.0741391
-0.706091
1.2424
1.55677
-2.79917
-0.887966
0.925147
-0.037181
7.13706
-4.45574
-2.68132
1.42463
-6.50071
-0.989281
0.101315
-3.86614
0.829746
3.03639
7.49759
-4.13821
1.08555
-4.86838
8.24687
-3.7151
-4.53178
-0.118148
0.888867
5.67205
-4.64577
-1.02628
-3.056
0.362716
2.69328
-4.58092
4.44334
0.137584
3.59522
-7.44826
3.85304
0.250616
0.0891391
-0.339756
-2.40638
2.81149
-0.405111
-0.477132
-1.76023
2.23737
-1.02706
0.228067
-1.16053
0.217008
-2.40217
-3.16874
1.84293
-5.7926
3.94966
2.30311
-0.324068
-1.97904
2.64702
0.288151
6.70232
-2.71671
-2.33125
2.04063
2.28385
5.21373
-2.79058
0.51648
2.2741
4.02233
1.64972
2.39083
-0.00303022
1.14225
1.16085
-1.73964
-0.358254
2.0979
-0.0868454
-0.950058
-5.90754
3.44186
0.762331
1.75751
-2.51984
-4.76938
4.57362
0.195756
0.792074
0.159871
-0.951945
-0.502934
-0.914844
1.41778
3.70281
-4.26127
0.558462
-4.69883
-3.93809
4.81686
-3.20499
-1.61187
-0.696083
0.627912
7.69301
-4.0978
-3.90097
5.74391
4.42135
-1.26136
-3.15999
6.39759
-3.09958
-3.29802
4.71428
-2.08026
-2.63402
3.45375
0.967601
4.57037
-2.83138
-1.73899
-1.16966
4.19756
-3.02791
-1.59206
-0.10627
1.69833
-0.217019
-0.785158
1.00218
-1.05099
-0.0757763
1.12676
5.63005
-5.42014
-0.209915
-4.08858
-2.81401
2.299
1.10144
-4.3065
-0.462877
-1.38631
2.62871
4.51116
-5.8414
1.33024
0.00945279
1.09408
-2.66354
5.56177
3.009
4.12806
7.96472
-4.90075
-3.06398
-5.19288
4.1778
2.71834
-4.60145
1.8831
-3.0811
-0.514875
3.59597
-2.12126
-0.581808
2.70307
2.3143
0.888977
3.47324
-1.24529
2.69793
-1.09743
-1.89351
0.516389
-0.13342
-0.382969
-1.61119
0.300539
-2.06555
1.55002
0.431279
-5.0122
0.893153
-4.73613
1.70889
-1.217
1.53739
-0.320387
-0.311049
1.88354
-2.12816
1.33483
0.793339
2.48058
0.196644
0.0096176
-0.772323
0.762705
2.2033
0.924659
-1.40715
5.91832
2.93376
-0.631141
-1.32186
-2.54978
7.24272
-6.14324
-1.09948
8.02898
-5.94974
5.134
0.815745
3.89609
-4.44681
0.550723
-2.53753
1.7476
-0.813911
0.20389
-1.42866
-1.95886
1.9988
-3.06351
1.06471
2.16503
2.40534
2.39199
-4.49459
2.1026
1.7718
-3.07286
1.30106
-4.88072
0.925424
0.258755
2.15182
-2.98953
2.8062
0.183328
-0.967244
1.71752
-0.750272
-3.08822
0.450917
-0.695359
-1.44435
2.13971
0.733651
0.00777435
-0.741426
-1.46309
-1.55704
1.57481
2.33987
-3.91468
5.35477
-1.33244
1.33518
-2.26159
-0.275942
2.82678
-1.05498
-3.45656
-0.234907
-1.48531
1.49951
-0.0142042
0.545298
-4.47857
-2.85435
4.06497
-1.21061
-0.819179
0.978866
-0.159687
2.60755
0.040728
-4.85521
-0.986189
-2.83174
4.74542
-1.91368
2.18689
-4.33885
2.15197
2.16746
2.6494
-0.47636
0.409643
0.0667169
0.747077
-3.82817
6.18473
-5.81972
-0.365017
0.0302216
0.326871
-0.72851
3.46974
-3.48366
4.37681
-1.7698
3.78871
0.816732
-4.59003
-2.81407
2.37334
0.440731
3.52624
-0.927001
-2.59924
4.78805
-1.08524
-3.63343
0.0628519
-6.28948
3.50898
1.40775
-0.1204
-1.28735
1.71537
-1.89689
-4.12134
3.39283
5.26696
1.27853
-4.19812
1.34376
3.33569
-1.03669
2.24772
-1.95441
-0.293314
-0.0338501
-2.66755
2.7014
-4.47945
0.76901
3.71044
4.29031
-4.29031
-4.42527
5.47663
-1.05135
-1.09628
1.1059
2.40355
-1.47099
-0.932563
-4.923
5.11512
-0.19212
2.04184
-0.102476
-1.93936
1.59517
-0.456799
-1.13837
0.83622
-1.33915
1.3351
2.17238
-6.07336
-3.84952
4.55464
-0.705123
-1.576
3.15081
0.145145
0.195646
-0.340791
1.59745
0.624829
-2.22228
-1.98033
2.42997
7.55628
-5.55316
-2.00312
-0.619181
-2.37577
2.99495
-1.48019
1.56167
-0.0814844
1.05547
-1.55293
0.497457
-1.45659
-4.5905
6.04709
-1.50536
-1.01083
2.32906
-0.0813358
-0.321595
-0.390417
0.712011
3.70049
1.92957
0.547937
-0.402792
-0.579523
-0.895073
1.4746
-2.76713
4.34102
-1.5739
0.198698
1.06337
-1.26207
2.18675
-2.05063
3.97418
-2.36159
-1.6126
0.444859
-2.38937
2.05862
3.42257
2.54254
1.29941
-3.84195
2.62531
-1.90286
-0.722441
-5.06117
0.970244
-1.52429
0.808417
0.715872
2.0784
4.3404
-6.4188
-3.38605
2.87118
0.375347
-4.61025
4.23491
-0.75315
0.562421
-1.21571
1.35939
-0.14368
0.338023
-2.07767
-0.786695
0.471451
0.315244
-3.34516
-0.520976
3.04061
3.317
-1.92498
-1.39203
-0.921887
0.102708
0.541369
-3.33343
2.79207
1.29818
2.26277
-3.56096
2.46607
-3.4298
4.01769
-0.587895
-3.78445
2.61479
-0.264056
-0.414126
-1.83138
-0.991447
-1.6049
0.3443
1.26061
-4.65921
1.89208
3.10155
-3.72073
1.47928
1.85641
-2.08609
1.8592
0.226891
1.58114
-7.08354
5.5024
1.13914
-1.64085
0.501706
0.567896
-5.42311
-3.17865
-0.587423
-1.94474
0.177887
0.411122
-1.23936
0.828233
2.85745
0.0980927
-0.191171
0.0930779
6.08981
-4.01141
-2.37335
5.55627
-3.18292
1.48786
1.12801
-2.61587
-1.57638
0.823228
-1.43939
-0.165516
1.36299
1.04056
1.06748
-1.84526
-1.28535
-0.199954
2.88124
2.42785
0.505907
-4.34412
5.24162
0.243741
-1.64673
1.40299
-0.474109
-4.11398
4.58809
1.92664
-2.10535
0.178712
-0.761804
-0.627925
-0.779142
-0.812922
1.24841
1.01682
-1.55472
-0.573446
-0.111798
-2.29117
2.40296
-2.80453
-6.70475
-0.260322
-2.19284
2.45316
1.48081
-2.73593
1.25512
-3.08356
-0.112491
3.19605
4.48665
1.77523
0.0338606
0.643611
-0.677471
-1.32527
-0.15492
1.00688
2.01963
-3.0265
0.982802
-1.16375
0.18095
6.28547
4.32812
-10.6136
-5.70392
0.658294
0.70233
0.0313213
-2.49472
-2.887
5.38172
-4.0008
4.27393
4.342
-3.04381
-2.1082
1.41284
-1.09347
0.0424832
-1.72809
4.44643
0.49761
-3.72709
3.22948
4.26258
-3.06038
-1.2022
-1.80667
2.87862
-1.07195
1.86991
-1.89611
-1.31439
3.2105
0.882796
-0.613687
-0.269108
-1.32001
-2.47926
3.79927
2.53906
-0.941613
0.410406
-0.455809
2.58597
-3.90598
-3.3936
-1.19032
4.58391
-0.00781704
-2.73837
2.74619
1.26255
5.8429
-6.14011
0.297215
1.19793
-0.419011
-0.778917
-0.238807
-1.84728
1.23903
1.49542
-1.98797
-0.133285
-3.94645
4.95238
-1.00594
3.0094
-2.24707
0.519464
3.79115
-5.02027
-1.63122
-0.0388356
-0.854563
0.893398
2.63439
-0.206539
-1.2978
1.40395
-0.106145
-2.35742
1.88028
-6.71167
1.88557
4.21081
0.903882
-0.344495
1.39997
-1.23074
2.7186
5.8411
-3.66872
-1.30767
0.00986495
-0.839803
-3.28154
0.971406
1.51112
-1.48534
-4.62043
0.140983
-0.449523
1.27134
-0.1322
-6.16233
7.82376
-1.66142
0.212275
0.144237
1.25313
-0.473771
-0.779359
1.86858
-1.60096
-0.267621
-8.71108
2.39567
-5.30859
2.47685
-1.71087
-0.991109
2.70198
0.156572
-2.03861
1.88204
4.73819
-0.0822223
-4.65597
1.31759
0.112556
-1.43015
-0.852535
-1.55804
1.4046
-0.211011
-0.678056
0.589694
0.0883626
2.39776
-0.0710925
-2.32667
-0.149104
-0.528953
2.81181
3.26928
-0.173346
-0.889554
1.0629
-5.02779
1.08134
-0.102371
0.710594
-3.13869
1.81451
1.50249
-0.215055
-2.1162
1.29921
1.13654
-2.43574
-3.77152
-0.350307
1.59782
-1.35408
1.36808
-1.20791
0.717303
-1.68455
3.38859
1.88033
-5.26892
2.97908
-0.601358
-2.37772
-0.238474
-1.31516
2.13512
-0.579536
-1.55559
1.35601
-1.64896
0.292954
5.40186
-0.133042
-5.26882
1.5471
-0.483162
-1.06394
-2.65293
3.68026
-1.02733
2.93708
2.55104
-5.48811
-1.29872
0.933598
-1.73064
2.50261
-0.771967
1.28132
0.569489
-1.85081
-6.3262
5.75229
0.573907
0.458188
0.131506
-4.24219
0.848593
1.8629
-1.07848
-0.784424
1.95981
-2.77249
0.812687
-0.660504
-1.08503
0.583933
5.25896
4.15582
-0.85713
-3.29869
-3.9192
0.4894
1.65781
-2.97967
4.49085
-7.13954
2.6487
-0.652468
1.70579
-0.0303787
-1.69802
1.1185
-0.935495
1.30916
-1.55313
-4.60461
6.15773
4.02483
3.66819
-3.63733
3.915
-0.27767
1.02552
-0.6144
-2.43399
-0.740158
-0.740733
0.829846
-0.0891134
-4.52585
2.84137
1.68448
-0.768682
2.96512
-2.19643
-0.613638
2.57345
-2.15776
-0.72363
2.88139
-4.19634
-1.24539
5.44173
2.04771
-1.90092
-0.14679
-1.67968
0.0967932
1.58289
0.770318
0.232477
-1.00279
-4.55052
0.218293
4.33223
0.111634
1.18845
-1.30008
3.72861
-4.17175
0.443141
-2.09171
-2.47903
-1.02101
3.50004
0.0711462
-0.811879
-1.8228
-2.6053
4.4281
3.84005
-6.53138
-4.72994
4.14508
0.584866
1.19585
-0.213049
4.69559
-4.17613
-0.454117
-0.553988
1.00811
-0.0906693
1.17184
-1.08117
-0.261966
3.51515
-3.25318
4.36711
-1.09417
-3.27294
5.01594
-4.80217
-0.213772
3.04702
-1.19406
-1.85296
0.206659
-1.37558
1.16892
-1.72192
-0.132424
-5.23653
4.52765
0.70888
0.196095
-5.43262
-1.33906
1.78717
-0.448114
-2.15102
-3.26912
1.28287
-0.991191
-0.291678
-3.93541
-1.09238
-1.19292
0.859836
0.333086
-0.412996
-1.59075
-4.90859
4.65367
0.254918
-2.42562
0.0122819
-0.21848
1.4575
-0.139909
-2.68218
0.275797
1.0501
-1.09941
0.04931
3.91235
-3.79134
-0.121001
2.34845
-0.306617
-1.07407
2.4366
0.170954
1.84654
2.91315
-1.86655
-1.0466
-0.598402
2.22634
-3.46436
2.29269
1.17167
0.716479
-0.258291
7.33844
-3.31362
6.0208
-4.43966
-0.639745
-0.90363
1.54337
3.38262
-6.19813
2.81552
3.08242
-3.09024
6.69812
0.586123
-7.28424
-0.0375783
-2.95208
-0.512279
-2.78984
6.44962
-3.65978
0.180714
-1.76955
6.62334
-5.16456
1.22915
-0.669094
0.452075
-0.629166
0.856661
0.955316
-0.0301687
2.0713
-8.93692
7.05175
-2.77088
2.01521
-0.467876
-1.54734
0.214615
1.38056
-4.30283
-1.97854
6.28136
2.70268
-0.388383
-0.0291045
-0.891409
0.920514
4.09684
1.39824
-0.282228
-1.11601
5.29506
-1.90647
-1.65557
-4.64767
0.798146
-1.36073
0.0954877
1.26524
3.62929
4.61758
-4.7705
2.06789
2.70261
4.79865
0.217294
3.2386
-4.52503
1.28643
-3.99175
0.0383324
3.95342
-4.27038
5.42666
-1.15628
0.87341
-0.0263015
-0.847108
-2.74056
6.5806
-0.621097
1.52816
-0.907064
0.246352
-3.88368
3.60327
-2.31179
-1.29149
-4.46741
5.84265
-1.37524
-1.06136
3.04413
-1.98277
5.8045
-2.56891
-3.23558
0.274594
-2.9825
2.7079
1.08837
0.271016
-2.06461
5.00169
0.724916
-5.15019
4.25924
-2.07235
-1.10583
0.932487
-4.1146
0.122844
4.7569
-2.36491
0.228722
-6.07286
1.73952
0.107881
2.99885
2.21064
-5.20949
2.80132
-0.950495
-1.85082
2.70074
-6.19883
3.49809
-1.13368
0.0497671
1.08391
-1.04051
-2.65918
3.69969
1.93373
-1.21643
-0.423681
1.93279
-1.50911
0.6335
0.906373
-1.53987
0.422621
0.860248
-5.52683
6.35885
-0.832025
1.98782
-0.0611776
2.38271
1.18441
-3.56712
2.4882
4.51559
-7.00379
1.14286
2.38338
-0.0575342
6.10181
-0.0996553
3.97936
-3.8797
0.713741
-0.515043
0.322618
-0.156731
-0.165887
3.04141
-2.07929
-0.962118
-0.887615
7.58573
-0.799198
0.803529
-0.0043304
-1.10138
3.77313
-2.67175
-0.06682
1.13082
-1.064
4.46621
-7.05281
2.5866
1.01845
-2.3906
1.37215
3.6344
-0.746773
1.15225
1.64907
0.0526905
-0.69248
0.639789
1.58089
-3.95667
-1.43153
1.50279
-0.0712508
1.09636
-0.151835
-0.944524
-0.25861
1.34698
-0.240466
3.76674
-3.52627
-1.18323
5.55009
3.57761
-3.1481
-0.42951
3.41789
-2.55494
-2.28237
1.02844
1.25393
0.181621
-1.65261
-2.47639
0.565261
1.91113
0.426636
0.826494
0.768562
3.61517
-4.38373
1.54822
0.849541
0.65789
-4.85423
-2.63067
0.258035
2.37264
-2.02426
-1.09792
3.12218
2.85013
-1.55092
-4.18766
2.61166
1.50505
-1.13463
-0.370417
-2.22329
5.90079
-3.67749
-2.15717
2.60203
-3.1767
2.73847
0.438225
-2.18129
5.43578
-3.25449
-0.10023
1.29061
-1.19038
2.22763
-2.07106
-2.41599
-0.904614
3.30781
-2.4032
-2.82453
3.74984
2.39884
-2.82568
0.426835
-0.665101
-0.949904
1.615
-5.42192
3.14303
2.27889
-0.184946
-1.20335
1.38829
-1.36824
3.06633
-3.3283
5.99566
-2.61304
-0.239059
-2.57501
-3.54469
3.44503
2.06964
0.168714
1.31627
0.622628
-1.9389
-1.94936
1.79348
0.155879
1.18172
0.647461
-1.82918
1.2712
2.79036
-4.06157
-0.60676
0.413923
0.192837
-3.14056
-1.16674
4.30731
1.46193
-2.12703
1.43012
1.61129
-5.46102
1.8464
3.61462
1.70813
-2.05803
0.349893
0.0496929
1.16194
-1.43329
0.271344
-5.45739
4.37588
-3.10468
0.844305
1.19903
-0.992375
-2.69821
-1.82764
0.433565
3.25675
0.120253
1.67097
1.65904
-1.33128
-0.327761
-3.94056
-2.89412
6.83468
0.220877
-0.168187
-2.34419
-0.268724
2.61292
0.365869
1.3995
-1.76537
0.0835974
5.50597
-3.53404
-1.97193
1.0435
3.11232
0.493836
-0.310649
3.54495
-3.2343
-4.41247
4.64959
-0.237127
-2.56252
-1.09802
3.66055
-2.57494
0.844299
-1.43656
-0.845803
5.48336
-2.39775
-3.08561
-1.61672
-0.19182
1.80854
1.42113
0.631636
-2.05276
-1.03814
1.14977
0.214554
-0.619156
0.404602
1.38407
-0.177098
-1.21181
-0.0452177
3.22333
2.26003
-1.02359
5.16357
-2.27915
7.13952
-1.90322
0.286504
-3.8617
1.29918
3.80266
-3.05559
-0.770301
-3.45369
0.80076
0.0894521
-1.42851
3.10423
-3.13808
4.19141
-0.295319
-1.07446
-0.75872
-0.665359
-0.53985
1.20521
-1.72304
-0.23851
3.85411
0.639339
-4.49345
-0.24975
-1.24815
1.4979
-0.989948
4.53647
-5.48831
0.951835
3.98562
-0.257005
-5.5289
6.87317
-1.34426
1.06618
-0.989968
-4.23972
-1.1822
-1.11948
4.58691
-0.0592651
3.61781
4.65468
-1.76816
-2.88652
-2.87646
-0.202844
3.07931
1.53188
1.67727
-3.20915
-3.58642
0.502859
-1.00341
-0.148853
1.15226
-2.42933
2.92694
0.94056
2.23398
-3.17454
-0.01306
0.427265
-0.414205
-4.36581
0.576173
3.78964
2.8467
3.14896
-1.62404
2.14217
0.904848
-0.827988
-0.6963
4.89734
-5.73678
-2.15011
3.24436
-1.09424
-0.655878
-0.642839
3.3745
0.0260683
-3.40057
4.71902
-6.99817
-0.067673
0.318289
-0.57761
0.74455
-0.16694
-3.14854
1.32574
-0.209863
1.7346
-1.52474
0.227607
0.175168
-0.402775
0.794346
-1.55615
-1.49736
3.15517
-2.16922
0.458348
-0.913424
0.98457
-0.309855
2.48311
0.393316
-0.304177
-1.15659
1.0945
0.0620898
1.20115
-1.33708
0.135938
-5.73283
5.97428
0.424416
-2.76861
-0.467067
-1.77088
-0.326871
2.98904
-2.66217
1.81844
-2.17669
-0.396531
-2.31326
2.70979
-0.597188
4.71152
-4.11433
2.17007
-1.65368
3.1431
-0.103415
-4.62653
2.79538
4.25637
-3.47506
-0.712596
-1.49163
-4.45811
-2.38307
0.938719
-0.616063
-0.565441
1.1815
7.39085
-3.76156
5.39968
0.785052
-1.27818
-0.905727
2.18391
-5.76905
3.20364
2.56541
0.584554
-0.541711
1.22103
-3.70006
0.954415
-0.513866
0.0995945
-0.036155
-0.584942
-0.231122
0.0197108
0.211412
-0.615389
4.46949
2.08105
-1.50979
-0.571258
5.70189
-5.37957
2.40718
2.97239
0.561557
1.70078
-2.26233
3.18526
0.0900174
-3.27528
-2.88358
1.82222
4.36554
-0.375456
1.79658
4.39794
-4.87204
2.31146
-1.03014
-1.71314
3.29403
-1.02107
0.286578
0.734493
4.45207
-7.11119
2.65912
-3.24617
3.70628
-0.460111
1.52284
-2.12124
0.06214
0.663835
1.38387
2.23029
-6.23373
3.99543
-6.70957
4.4767
2.23287
1.07471
-3.95118
0.934062
0.0720143
-3.12801
0.599693
1.6783
5.19205
-1.8866
-3.30546
-0.494211
1.19048
-3.21474
0.983284
-4.34813
4.14528
-2.91849
1.02238
2.2188
-3.89108
1.18463
2.70645
-3.68725
0.647967
3.03928
-0.964808
-0.547414
2.02822
-4.97908
3.57769
1.40139
3.79971
-6.54027
-5.3284
-0.198429
7.08064
-2.58979
1.864
-1.43313
-0.430875
-0.149154
-0.889124
1.03828
1.2133
7.18315
2.52213
-1.35815
-2.53293
0.565701
1.36803
0.794744
2.02796
-2.8227
2.17367
-1.23796
-0.11829
-4.5288
4.64709
-1.74293
1.0413
-3.23389
-3.49144
-2.41575
5.90719
1.28599
-1.93615
-3.61518
1.09746
2.51772
-0.0598932
0.181324
-0.121431
4.47993
-6.03306
0.213706
-0.791317
4.39925
2.47838
-6.87763
1.24717
0.768047
-4.22769
1.26343
2.96427
-1.92298
2.94143
-0.652525
-3.75994
-3.59122
1.44111
0.0635153
-0.123408
1.88182
2.38076
-2.81467
3.84048
-1.02581
7.75989
0.726477
-8.48637
-2.21685
-0.0778794
-1.13912
0.204391
4.08592
0.793477
0.185388
2.61604
-0.347798
-0.748483
2.47623
2.81222
-1.6305
-4.5619
-0.346685
-5.64685
0.312907
-4.95868
0.978229
1.05566
-2.03389
3.08781
0.476141
-3.56396
-0.65952
0.633219
-1.83022
-3.47837
-3.6968
-0.750009
-2.47699
7.19601
-1.69525
2.5229
-0.827644
-5.53078
1.59022
-1.6783
2.47304
1.5635
-7.72583
-4.04235
-1.04966
1.38571
4.66192
-0.749571
5.36032
-0.773414
3.79009
-0.222381
-3.56771
0.18725
2.41867
1.50624
4.83565
-4.46031
-0.391739
-1.2057
1.84529
-2.2412
2.75768
-2.50892
-3.29653
1.26471
0.910364
-2.17507
-4.34967
0.0593649
-0.832284
3.89622
-3.06394
0.37839
-5.90729
-2.93651
3.51657
6.96466
-3.50263
-3.46204
-0.263094
1.07151
3.22055
-1.01353
-2.20702
1.46718
-1.64428
0.141675
0.180944
-0.493418
-0.25135
0.744768
-0.572951
1.88922
-2.85345
6.65316
0.0186915
-1.00988
-1.39876
-0.620379
2.01914
-0.558932
5.03886
-1.14224
-1.17166
2.3139
-2.00113
3.00801
1.70199
2.07113
-2.5539
-0.0767701
2.92283
-1.15853
-1.7643
-0.201447
0.142472
0.0589752
0.553615
-3.24733
2.69371
-4.50853
0.811723
1.21043
-4.03266
4.34557
-0.0771404
1.54432
0.850131
-2.54538
-7.32918
1.0397
-4.65847
1.32925
-2.47427
0.493939
-1.44573
-2.7842
4.22993
-2.08568
-0.277367
-0.670884
0.948251
4.37043
-3.73739
3.36253
-1.83065
0.387614
2.71486
-3.10248
0.448789
-1.4522
-1.48374
-5.46419
6.94793
-2.34302
0.66524
1.67778
-3.89244
7.06414
-3.1717
3.25842
-2.9966
-0.261819
1.61273
-0.186388
-1.42635
-2.19961
-3.17996
-1.5458
-0.398943
2.45801
1.25766
-0.0370293
0.617969
-0.58094
-3.3116
-0.916091
2.86343
2.53627
-2.67575
3.38222
-0.706469
1.27272
-1.55495
0.354943
1.46756
-1.8225
0.304552
1.7765
-0.459791
-4.51929
-5.05625
1.52029
-0.0152446
2.94108
0.0309861
0.462317
3.35507
-3.81739
-2.45516
-0.227023
1.54369
3.81108
0.399766
-1.52602
1.60368
-0.679018
-0.924665
-0.0586502
-1.73445
1.7931
0.506746
-0.346875
3.985
4.28338
-2.11835
3.41806
-2.37675
-0.668149
-1.35029
2.01844
3.51162
0.685945
-0.191283
-3.4931
2.45259
3.36202
-3.92096
-1.32187
-4.77135
6.09322
-2.44643
-3.32262
-4.9666
4.92399
0.0426093
-1.92913
-1.3122
0.772346
2.72888
1.5545
2.99544
-0.893187
-2.10225
0.147793
-0.432942
-4.48627
-2.36086
6.84713
2.42728
0.275403
-1.04119
-0.39034
2.65859
-4.48881
1.80484
-1.71718
-3.71337
5.4901
-1.77673
3.446
1.69069
1.94452
-3.6352
4.92411
-2.52597
-2.39814
-4.59534
-2.37878
4.06153
-1.68275
0.660987
3.1291
-1.60588
1.52874
2.04075
3.76375
-1.20908
1.05992
0.132368
-0.0342752
4.48937
-2.53147
2.77249
4.61835
-2.22727
1.25993
0.967332
1.01234
-1.65208
3.3832
-0.00869454
0.430989
1.43302
-2.8957
-0.427427
3.32313
1.04249
-0.0840568
-0.958438
1.00569
0.192241
0.631748
-4.90213
-1.57338
1.9114
3.07561
-2.95671
-0.118909
0.987852
1.93498
-0.888468
0.414698
1.61948
1.00795
-2.62743
-0.687633
5.59758
1.03491
-2.03808
4.32384
-2.28576
-0.847749
1.48125
-0.183112
0.170052
5.04005
-2.59347
-1.71303
0.146985
3.03827
1.64159
-2.10866
-1.033
0.932771
-1.42061
-0.858448
-0.063439
-1.14219
-0.951117
3.83205
-2.88094
0.440024
-0.761619
-1.11819
0.564201
-1.82795
0.282147
-5.36354
2.86882
1.45077
1.05183
2.92675
0.21802
-3.14477
0.573233
0.602496
3.29989
2.16053
-5.46043
-0.709389
-0.0462965
0.755686
2.14771
-4.52106
5.00066
1.96401
3.66538
-3.20307
-4.10687
0.261752
-0.0597724
-2.29441
2.05208
1.73257
2.99301
-4.72559
2.27947
-0.461035
-0.114978
-1.60221
-0.625051
-2.15245
-1.6084
1.79002
3.93322
1.62305
2.49653
-2.35678
-0.139747
1.07131
0.0231893
-0.349374
1.38114
-0.179998
3.57751
0.853087
-4.43059
0.22366
-0.454783
-1.26425
0.781129
0.483121
-1.8413
-0.106435
1.94773
0.306514
2.44088
-2.74739
1.02717
1.82296
3.09102
-0.104404
-1.44203
-1.36272
1.01492
-0.313748
0.861779
-0.548031
-4.99447
3.61618
3.97578
-3.02564
-0.950138
0.0948531
-0.846633
0.75178
3.76681
-4.00727
1.33853
1.08876
2.20102
1.16152
-0.843943
-0.0145043
-0.521431
0.363135
0.158296
-1.74679
-0.733659
4.99254
-2.56622
-2.42632
1.59553
0.617414
-2.21295
2.31827
-3.56041
1.24214
0.976392
2.47244
0.354339
-1.24199
4.90103
-3.65903
-0.277341
-0.244091
-3.91733
-2.24052
0.730732
4.18123
0.00325302
-4.18449
-2.60074
0.824584
0.83446
0.934571
-0.131042
1.17888
-0.434327
-3.20829
2.43961
0.157521
0.568827
-0.222661
0.642207
-2.02803
2.41565
0.0266034
1.48452
1.48328
-0.210419
2.85744
0.00914633
2.48738
-1.27585
-0.746418
-1.00106
2.62054
-0.157068
3.84177
-3.6847
-3.60709
-0.635094
-3.90492
6.87708
-2.97216
-0.806022
-1.4345
1.73359
-0.289023
-0.0660332
-1.36958
1.43562
-3.91486
1.32139
0.84619
-0.81233
2.39126
-6.69408
3.13852
-6.02552
-1.6463
1.29364
-2.35213
2.67305
-1.6651
0.0432222
-2.47911
3.03273
-0.00108284
-0.849536
0.203665
-2.10458
-0.739877
-2.68174
3.42162
2.01829
4.0984
7.51118
-5.05079
-2.46038
-1.11836
0.502483
1.27881
0.102444
-1.38126
-3.78504
0.970369
1.1559
-0.0595383
-0.0446649
-0.740251
0.784916
3.14241
-7.04733
0.489741
2.08814
0.428063
-2.5162
-4.39932
4.24225
0.826255
0.202001
-1.02826
2.77911
-3.68373
-0.818724
-0.00242472
0.821149
1.07938
-0.253122
0.0041192
3.49149
-2.34862
2.64255
2.60651
-1.57934
-5.00144
1.51
-2.90915
2.67283
0.236315
4.28802
-5.60989
-2.55626
-1.35825
3.91451
-0.289438
2.23803
-1.57886
1.47638
4.68187
-0.709524
-3.97234
0.0106663
-4.57257
0.878946
0.733787
2.20953
1.01102
-0.888608
-0.0028019
0.852409
-1.07244
-1.99107
0.179858
-0.167631
-0.0122267
0.0194847
-3.70103
3.68155
-1.02251
2.13954
-1.11702
3.42657
-6.02649
2.59992
-0.0389095
-2.56027
-0.136817
-0.0113125
2.97038
-1.81473
-0.899087
2.71382
-1.94823
-1.39693
2.31459
-1.40422
-0.629669
-1.26591
1.89558
4.63548
-1.70872
-5.97001
-0.446892
-0.539426
0.986318
1.52159
0.538811
-2.0604
1.46217
-4.77419
3.31202
0.565344
-2.72349
0.761306
-5.22871
-2.70588
-3.58155
6.28743
-4.21094
0.147952
4.06299
-4.47206
-3.603
0.356827
-1.735
1.68465
0.0503497
-7.09773
-1.39699
4.97449
2.05434
-0.917805
0.649843
-1.6509
-0.667759
2.49072
0.839138
0.63183
-2.03059
0.093023
-0.892512
0.799489
-0.569533
-0.187677
-0.61642
0.711273
-1.77151
2.33307
-3.58303
0.959345
2.62368
2.90242
0.570824
1.97864
1.14389
-0.101392
2.56199
0.433443
-2.34355
-1.27163
-2.73319
0.82478
1.90841
0.350601
-1.74597
1.39537
-2.37016
2.31151
-0.571353
3.51768
-3.65894
2.51669
1.87921
-3.82744
2.00704
-2.23555
0.228515
0.727136
-0.0835257
0.401943
0.00770026
-4.2136
2.76787
-0.712421
2.30795
0.0609319
-1.06594
1.00501
-6.82692
2.41241
-1.30389
2.86066
-1.00665
-0.0935173
-1.15634
1.24985
-2.81073
0.996001
-4.71498
4.25519
7.6994
-3.30016
-1.50373
1.40709
0.0966466
-0.75203
-0.102533
-0.863389
-6.22871
-0.766899
6.99561
-0.845405
0.799108
0.112592
1.74662
-1.85921
2.10517
-0.766644
0.498385
-0.511301
0.0129164
-1.54823
1.57483
0.273884
-0.243662
2.56714
-5.28086
4.5086
0.290047
-4.28491
0.291746
4.12144
-0.21777
-3.90367
1.15235
1.63607
-2.78842
7.43565
-5.36436
1.91778
-4.74078
2.823
-0.145877
-0.0579861
0.203863
-5.29254
5.45309
-0.160554
-1.67829
1.28176
4.2006
0.16651
4.85037
-1.87247
-2.9779
-0.578052
-1.04818
1.62623
0.00651704
-1.67636
-0.0455651
-1.58084
-0.0955177
0.542904
-1.46478
0.921871
-0.469147
4.22132
-3.75218
-3.5088
0.757862
2.75094
1.17194
3.56625
0.080669
0.471516
-0.552185
2.73316
1.15994
-3.8931
0.471628
-1.08769
3.96782
2.59489
-6.56271
-3.33624
0.440543
2.75517
1.20121
-3.75747
-0.0115376
-0.682081
0.693619
4.62319
-1.85345
-2.76973
2.47217
1.22458
-8.20984
-0.727082
4.05771
-4.17599
-2.19582
0.160396
2.03542
-0.227404
-0.74742
-0.943942
1.69136
0.904819
-0.281143
-0.623676
-0.0605426
0.724315
-0.663772
-2.50415
2.69761
-0.193462
-2.65717
5.31576
-1.55702
1.44522
1.76581
-1.65322
1.56491
-2.75062
1.18571
-0.893952
-0.127119
0.939231
-0.168913
-0.504394
0.0595529
0.444842
6.38904
-3.94011
-2.44893
0.184024
2.89159
-1.24483
-0.704535
-2.88106
0.589888
2.33911
0.209948
-2.54906
-0.00772845
-0.101068
0.108797
-0.0157015
1.88428
0.209101
-0.191953
-0.0171487
7.00359
-3.61656
-3.38703
-6.20032
1.59571
0.0398312
-3.26031
1.81865
1.44166
0.970153
-4.45381
2.60695
-1.89635
0.442351
-0.0404081
-0.674054
3.26178
-2.58772
0.827956
0.126458
-0.19904
-1.7167
-1.23344
1.25213
0.925162
-1.40832
-4.74495
5.35404
-0.609095
2.79777
-2.31911
-0.478658
1.18722
-0.680473
1.29374
0.26793
-1.26193
1.02208
-0.544241
-1.58705
2.81309
-3.90726
-4.93949
3.69749
0.891334
-0.658858
0.737812
0.341565
-0.0649946
-0.0808822
3.72048
-3.89924
0.178756
5.26139
-2.16662
1.25826
0.908356
0.608501
-1.8142
-3.64191
-4.07564
-1.26585
1.1818
-0.835672
-1.4205
2.25617
-3.79701
0.972478
0.939026
1.04804
-1.98707
-1.50235
-0.840665
-0.477411
-2.44989
6.96548
1.02828
-4.32629
0.985081
-2.64078
1.6557
-1.44111
1.84088
-2.94192
-3.885
-0.0664508
0.294058
2.45507
-6.02711
2.62921
3.39789
-0.186748
-1.62735
0.258249
-1.92232
1.66407
-4.98107
-2.84981
-0.889067
0.886643
3.39053
2.44247
-4.1257
4.671
-2.46826
-1.8706
4.01984
-0.297425
-3.72242
-2.33018
2.76374
3.29266
1.42163
-4.71428
1.58974
0.939102
-2.52884
-1.82332
2.80102
-0.9777
-6.86518
3.58537
3.27981
-0.155007
1.28826
3.5507
-2.51051
-2.89884
5.40935
4.75155
-3.78139
-3.09313
-0.493287
2.39068
-0.790056
2.53622
-1.74617
-3.64245
6.78486
-6.56854
0.155638
-2.6895
2.53387
2.17198
-3.39815
1.22617
3.32597
-1.12495
-0.30964
0.64581
-0.33617
-0.252597
0.216442
2.51043
-2.43526
-0.0751741
-1.65262
2.62901
8.06924
-2.8236