/*--------------------------------*- C++ -*----------------------------------*\
| =========                 |                                                 |
| \\      /  F ield         | OpenFOAM: The Open Source CFD Toolbox           |
|  \\    /   O peration     | Version:  2306                                  |
|   \\  /    A nd           | Website:  www.openfoam.com                      |
|    \\/     M anipulation  |                                                 |
\*---------------------------------------------------------------------------*/
FoamFile
{
    version     2.0;
    format      ascii;
    arch        "LSB;label=32;scalar=64";
    class       volVectorField;
    location    "4.6";
    object      U;
}
// * * * * * * * * * * * * * * * * * * * * * * * * * * * * * * * * * * * * * //

dimensions      [0 1 -1 0 0 0 0];

internalField   nonuniform List<vector> 
13486
(
(8.69362 -2.08238 2.60242e-20)
(8.88927 -0.0327057 1.57403e-20)
(12.6483 -0.317535 0)
(19.1637 -7.06125 -1.64998e-19)
(14.5053 -0.623231 -7.38674e-21)
(11.084 0.758786 -6.79266e-21)
(15.3783 3.129 1.54395e-22)
(12.4513 -3.87315 -2.7451e-21)
(11.3582 -1.93999 0)
(9.25735 1.68786 0)
(1.34171 -2.17828 -4.50339e-21)
(10.2439 0.0710471 0)
(8.14919 -2.9813 -2.5066e-20)
(10.4272 2.27333 -9.5907e-21)
(13.4631 1.79666 -1.59285e-21)
(9.14433 1.71013 -1.70619e-20)
(9.18201 -5.02664 3.58357e-21)
(3.20423 10.4675 -6.57616e-21)
(9.72597 0.0984406 2.8714e-22)
(9.23994 -1.24686 -2.7884e-20)
(19.9533 1.40033 -8.38091e-20)
(8.21636 -3.03702 3.22938e-20)
(8.93673 -0.0793938 -1.26089e-20)
(8.51138 3.50944 0)
(9.63105 1.37129 6.40593e-21)
(11.4882 1.69348 -2.29584e-20)
(5.66232 -1.66732 1.34985e-20)
(16.0026 0.00904219 7.00781e-21)
(6.40025 -9.22369 0)
(16.8667 -1.62616 -1.94626e-20)
(14.2211 13.082 -6.87147e-20)
(11.0682 2.83373 -7.80374e-21)
(16.219 4.78296 -5.78126e-22)
(13.4535 -1.19519 0)
(12.514 -3.5979 0)
(16.1546 -2.36348 2.77298e-21)
(11.0369 -7.27418 -1.55892e-19)
(9.62775 -4.39571 1.00447e-20)
(10.0107 -3.71605 7.90542e-22)
(11.0597 -1.19018 1.14968e-20)
(18.7738 -2.02755 0)
(7.60817 -3.59296 -3.00819e-20)
(12.3127 -0.226941 0)
(9.75319 1.1393 -2.97551e-20)
(9.72536 1.1646 1.22323e-20)
(10.1274 0.0579105 1.38195e-20)
(-2.04007 -6.86536 2.141e-21)
(2.93268 -11.5202 -1.20788e-21)
(10.6457 -6.47439 1.20875e-19)
(13.724 0.956481 -7.86892e-21)
(9.96615 -0.00370015 2.1925e-20)
(7.5307 -1.57479 0)
(8.84014 0.436622 -2.64598e-20)
(9.955 -3.56513 -1.53276e-20)
(0.907291 11.3833 0)
(14.1456 -1.02613 2.98635e-21)
(12.6563 -0.282842 -5.07521e-21)
(9.46684 -3.0201 6.28117e-21)
(16.3824 5.08098 3.53902e-21)
(16.166 -6.28527 0)
(-0.195384 -6.05661 -1.17169e-20)
(16.4081 -4.98247 0)
(8.82194 4.52414 1.29761e-20)
(19.6675 0.625959 -9.16019e-22)
(-15.0477 11.7577 0)
(13.6551 -6.37688 -6.76322e-20)
(19.9445 -7.70762 -1.71891e-19)
(8.36284 -1.07743 9.57125e-21)
(11.3538 -2.0838 -5.31695e-21)
(0.822461 0.581488 -2.67058e-23)
(20.6185 -8.8489 1.98477e-19)
(1.52906 11.1654 -6.31567e-22)
(10.7371 -0.780725 9.69335e-21)
(-1.10043 2.45742 -8.11387e-21)
(18.7334 -4.40818 -7.91608e-21)
(12.2573 -0.283363 1.16575e-21)
(20.072 -1.10273 2.32638e-20)
(13.7088 1.81594 9.09452e-22)
(-1.78497 -3.88886 -3.9641e-21)
(13.3976 -7.75174 0)
(17.4499 -8.97106 -8.9812e-21)
(8.8262 0.209701 -1.029e-21)
(5.01621 2.7223 1.17876e-21)
(12.7496 -0.636191 -3.95054e-21)
(8.70894 -2.08599 -5.06084e-20)
(7.11884 3.8646 0)
(9.95129 -5.65353 6.74296e-21)
(9.95101 0.0436645 -3.51854e-20)
(9.59884 -0.0302078 -1.39829e-20)
(8.51682 2.38047 -2.25209e-20)
(9.36148 2.81043 -9.19275e-21)
(13.315 -2.75111 -1.47717e-22)
(9.06385 -2.45565 6.3815e-21)
(9.16221 -0.720154 7.76524e-22)
(11.1858 -3.16891 1.95477e-21)
(-0.634453 -12.0928 -2.21979e-21)
(4.85645 -2.00414 0)
(22.6754 -9.60326 1.12092e-19)
(11.076 -1.11896 -2.20731e-20)
(8.32113 -4.76422 8.53675e-23)
(19.4301 -3.2172 0)
(10.3862 2.27689 -3.83116e-21)
(20.6065 -8.98196 5.26679e-21)
(8.81035 -3.60867 -7.42897e-21)
(6.61285 3.34095 0)
(7.08655 -4.89787 3.11875e-22)
(10.0462 -0.218173 -3.38052e-23)
(9.83253 -3.60231 1.76915e-21)
(-1.41438 -4.03736 5.47381e-21)
(13.3182 -6.16941 0)
(10.8306 -4.9221 0)
(12.2776 4.23063 1.02642e-21)
(10.0003 -3.48204 2.50849e-22)
(13.0302 0.503255 5.52292e-22)
(7.17131 -1.75729 0)
(10.6372 -4.93239 -5.23915e-21)
(9.53816 1.4706 0)
(14.829 -1.36138 0)
(10.7394 -0.747666 0)
(3.3769 8.64257 -8.83347e-20)
(1.70112 8.14202 -1.69778e-21)
(-1.45494 -6.22662 0)
(10.9214 -2.88859 0)
(10.3295 -3.97407 -2.52643e-21)
(11.6036 -3.7314 0)
(8.21251 -2.48275 0)
(12.0573 -0.33035 2.06439e-22)
(10.3645 0.257773 1.7951e-20)
(13.4492 -1.39501 6.28078e-23)
(-11.8682 9.65474 -2.99477e-20)
(6.50601 -1.71491 9.74737e-22)
(-2.11148 -6.13636 6.20578e-23)
(6.55353 0.867867 1.70675e-20)
(-0.916022 0.633879 7.71268e-21)
(9.99072 -0.0114156 -3.45761e-21)
(9.42905 0.730256 -1.92079e-20)
(5.09982 0.752383 -9.30796e-21)
(12.7918 -4.96266 0)
(1.14821 6.01377 2.08974e-20)
(12.3372 -2.78721 -1.94171e-21)
(14.7637 3.28118 3.79947e-21)
(9.0438 0.625215 2.26792e-20)
(10.135 1.6139 0)
(11.6137 -6.43076 0)
(12.8638 -0.0202988 1.5337e-21)
(4.40908 6.96394 5.27254e-21)
(9.0111 -2.74889 -7.14833e-21)
(2.1139 1.81585 0)
(13.6311 1.397 0)
(8.71398 -9.25108 0)
(10.0153 -0.0115747 4.78867e-22)
(14.6325 1.20561 0)
(14.5997 -7.55849 9.39957e-21)
(8.73802 0.198484 -8.75114e-21)
(10.1978 0.873487 0)
(13.9649 -0.506035 0)
(14.8176 -5.98953 0)
(14.1862 5.72699 5.14637e-20)
(10.6671 -3.96598 1.80072e-20)
(11.8981 -3.62021 6.3776e-21)
(11.947 0.425426 -8.74294e-21)
(10.6704 -3.94071 -2.67303e-20)
(8.79169 5.22809 6.22909e-21)
(6.79178 -3.39591 1.30681e-20)
(8.92697 -2.1682 0)
(10.7224 2.40935 1.04973e-20)
(10.248 2.01823 2.42417e-20)
(4.69545 -1.96962 -3.58988e-20)
(8.89182 -2.66272 1.82645e-20)
(-0.890734 0.892961 2.05084e-21)
(3.47465 0.855469 2.23362e-21)
(10.1861 0.756402 1.32564e-20)
(10.0824 0.0623525 -3.32831e-20)
(11.9392 0.685566 3.73034e-22)
(10.0136 -11.6961 -2.33194e-20)
(-0.870654 -9.06906 0)
(10.1607 3.1454 -1.83396e-20)
(13.9707 4.4198 -7.44689e-21)
(10.0756 -0.240063 -3.08585e-20)
(10.0665 1.41009 0)
(11.4301 -1.27613 2.07473e-20)
(13.2073 0.334845 1.27546e-21)
(11.5817 1.13592 1.29593e-22)
(9.247 -6.54188 0)
(11.5812 -1.26749 9.78584e-21)
(14.6827 0.067995 -2.98358e-21)
(12.3959 -2.18915 -2.90546e-21)
(16.6899 -1.41358 -3.27748e-21)
(19.6132 -4.33773 0)
(9.80588 -4.66618 -8.90782e-21)
(8.73229 0.2919 0)
(13.5574 0.223591 0)
(8.65959 -3.00774 0)
(7.29314 1.49628 -1.98032e-20)
(13.1072 -3.6622 0)
(1.11332 -2.52878 -2.02286e-21)
(-15.4266 13.6238 6.40602e-20)
(11.9388 0.30468 -4.26586e-21)
(8.82761 -4.25846 -5.06392e-21)
(10.6489 2.26613 7.9041e-21)
(13.8838 12.8429 7.12571e-20)
(10.3864 0.326105 -5.71368e-22)
(9.61543 -4.50144 -1.16401e-20)
(14.6287 -4.67504 -9.95777e-21)
(12.2192 -3.44086 -7.68536e-21)
(9.21886 -2.6271 1.94045e-21)
(4.19148 12.9533 -1.63208e-20)
(10.2799 -0.692235 2.13432e-20)
(12.3152 -3.28957 0)
(11.3395 -1.14662 0)
(15.8224 -0.231482 7.05559e-21)
(8.1929 -0.129806 3.43909e-20)
(9.29638 -1.11034 2.56169e-20)
(9.99961 -0.162128 -3.53162e-23)
(11.2653 0.887164 7.83343e-21)
(17.1118 -6.77923 6.56752e-21)
(16.5516 -1.02423 0)
(8.56224 2.27244 5.0976e-20)
(9.48876 -2.43924 0)
(11.3449 2.82627 0)
(7.95459 -5.31382 -5.36283e-21)
(13.5089 1.55386 0)
(12.2516 -2.86125 4.15564e-21)
(13.4512 0.530955 0)
(8.05094 -0.173796 -5.51803e-21)
(8.33505 -3.89494 8.65317e-21)
(11.2812 1.62302 8.07805e-22)
(4.34683 10.0017 5.98768e-20)
(13.9198 -4.72832 1.5045e-21)
(9.23628 -5.13334 -5.0161e-22)
(11.4267 -1.14901 -6.75278e-21)
(22.3074 3.21203 9.48848e-20)
(14.8365 3.77422 -5.09125e-21)
(7.45113 -3.48171 1.03703e-20)
(19.6668 -3.90832 0)
(8.13897 -3.93741 9.78412e-22)
(15.6606 -1.61171 5.51095e-21)
(13.8257 0.157802 -2.87782e-21)
(8.38991 -3.98893 2.72178e-20)
(11.2997 0.652506 0)
(17.5646 6.65345 0)
(9.95317 0.0774973 5.14306e-20)
(13.8099 0.571204 0)
(8.11804 -3.98622 8.62098e-21)
(10.0622 -5.60545 1.22215e-21)
(9.67111 -0.611282 0)
(11.153 0.212524 -2.87396e-21)
(22.4468 -2.32893 5.74287e-20)
(-2.67725 2.53509 1.03466e-20)
(9.65676 1.02378 0)
(14.6609 -12.2056 -3.73191e-20)
(7.06666 -1.64687 4.09457e-21)
(10.2545 -4.96062 5.71154e-21)
(10.55 -4.35881 0)
(12.9039 -5.46309 3.58705e-21)
(-3.21159 -8.61519 2.41712e-20)
(10.933 2.76376 8.04847e-21)
(17.5618 -7.06838 -8.29923e-21)
(16.6633 8.03068 -5.38744e-20)
(17.7478 5.08386 9.13794e-21)
(9.24979 -0.0931873 0)
(10.5472 -4.33427 9.03028e-23)
(13.4347 1.83348 3.28519e-21)
(-3.60512 -13.1985 -3.01827e-20)
(14.6946 -3.41145 1.13139e-20)
(7.31399 -5.53758 0)
(14.5719 -4.97426 -7.99353e-21)
(16.8622 9.93429 -1.04583e-19)
(10.7429 -0.111847 -1.24858e-20)
(0.50736 3.17912 0)
(8.2275 1.86186 1.67341e-20)
(10.0063 -0.141229 -8.71585e-21)
(17.0376 -1.1122 0)
(9.70825 -0.129196 1.37364e-20)
(8.69092 -4.09917 1.14936e-20)
(20.0792 -1.91871 -3.18583e-20)
(12.9574 -5.07017 0)
(-5.24191 14.7171 0)
(11.3186 -5.13253 -2.59132e-22)
(8.96927 -2.85865 1.43593e-20)
(-5.43388 14.0601 4.27172e-20)
(11.5361 -0.501016 -8.15265e-21)
(9.97349 -0.256284 1.85056e-20)
(0.337557 3.8584 -2.12488e-20)
(0.717707 -6.49182 2.01439e-20)
(9.22344 -2.76963 1.72275e-20)
(13.6478 3.45906 -1.07489e-20)
(12.5567 -1.34214 -8.25889e-23)
(9.19398 -0.358973 9.67355e-21)
(10.6748 -0.11247 0)
(22.0406 -3.09083 0)
(11.7976 -6.17876 1.46669e-21)
(10.4257 -4.75605 6.70448e-21)
(10.0027 -0.00260105 -3.35914e-21)
(14.4984 -1.51408 4.10226e-21)
(16.3931 -1.61698 0)
(13.1398 0.0630614 1.05396e-20)
(9.77684 -0.333934 -1.2256e-20)
(10.0101 -0.317936 -1.66774e-20)
(16.8166 1.23053 -2.0958e-20)
(8.34924 5.19769 -7.14416e-21)
(3.43056 13.5235 2.30938e-21)
(8.85392 -2.70222 -1.22368e-20)
(11.3228 2.66506 8.04419e-21)
(-0.926086 -1.86602 2.53843e-20)
(14.7793 -7.82561 0)
(21.0999 6.03982 0)
(10.0874 0.147975 5.31719e-21)
(8.9155 -5.20697 -5.12726e-21)
(9.98765 -0.861482 0)
(9.29578 5.91428 -5.0344e-21)
(16.2184 -5.0377 0)
(9.85513 3.00014 1.05997e-20)
(12.12 4.18411 -1.40533e-21)
(-6.11022 1.62867 0)
(9.39164 0.567578 -1.21075e-20)
(10.7923 -5.76425 -2.50988e-21)
(9.48957 -0.0533802 -1.18396e-21)
(10.204 -0.696836 -2.40233e-20)
(15.0453 -4.71078 0)
(18.4748 -7.2109 1.17894e-19)
(11.6648 -6.04854 -2.61881e-22)
(10.0935 -0.107953 3.92118e-21)
(9.12307 -0.581563 -1.49272e-20)
(5.60155 0.287473 1.6989e-20)
(9.61482 2.88093 1.96483e-20)
(12.8885 -0.402161 -8.17372e-21)
(11.6 -0.463531 0)
(10.1072 -1.10384 -1.15101e-22)
(13.074 -0.150983 -2.386e-25)
(10.0329 -0.0482185 5.08045e-20)
(13.5294 -2.58473 0)
(8.9104 3.1474 -5.04628e-21)
(8.24893 0.103591 0)
(15.4049 3.33559 3.45819e-20)
(11.51 -2.79053 -4.64549e-21)
(5.97749 -2.83994 1.30764e-20)
(14.5862 0.925109 8.21766e-21)
(9.86357 0.293125 0)
(10.2822 -5.62036 1.80897e-21)
(14.1227 -4.42926 8.06162e-21)
(9.07054 -0.572587 1.41156e-20)
(13.2092 -0.142244 2.82413e-21)
(11.4661 1.18411 1.07217e-20)
(8.10917 -9.00992 -3.79864e-20)
(1.46618 -11.1982 2.45294e-21)
(11.8531 0.0906047 0)
(7.15587 -2.79982 3.04947e-20)
(11.6018 2.62825 0)
(10.6155 -5.70602 2.63773e-22)
(11.2685 0.135895 1.61644e-20)
(9.81012 -0.835268 -1.4691e-20)
(9.59629 -0.151976 1.19492e-20)
(4.08518 -2.34327 -1.9113e-20)
(10.0263 -0.282682 2.0732e-20)
(12.2006 4.27249 0)
(-0.459546 2.33296 -7.83721e-21)
(12.0309 -0.223266 -4.12438e-21)
(9.87854 -5.53126 2.24193e-21)
(10.9969 0.076404 3.29069e-20)
(11.2514 0.0653653 0)
(8.77018 2.53668 1.67469e-20)
(9.49826 -0.336761 3.25313e-20)
(9.976 -0.163691 2.65472e-20)
(17.1822 -1.48481 0)
(12.4724 -5.14807 -8.65314e-24)
(14.9386 -1.43375 -5.17583e-21)
(-1.86326 -8.48222 1.649e-21)
(9.20914 -1.22655 3.55205e-21)
(12.0052 -0.187324 3.93386e-21)
(12.6267 -0.229842 -1.09834e-21)
(11.7698 0.0121135 0)
(7.9251 -0.623911 -2.29315e-20)
(12.7251 -12.5048 2.78026e-20)
(10.7343 1.44707 -1.45846e-20)
(10.0207 -0.0159557 1.82262e-20)
(8.33953 0.0174391 0)
(9.55622 -5.74597 1.23132e-21)
(-6.41827 1.81796 0)
(12.7426 3.25192 1.11849e-21)
(10.8259 -0.140167 0)
(13.6667 -3.27942 -6.10586e-22)
(8.1674 -1.75856 -7.44508e-21)
(8.80344 1.60473 3.8209e-20)
(-1.01033 -8.9805 3.05482e-21)
(13.1963 -4.97979 0)
(10.5491 0.188525 -1.98877e-20)
(9.90941 0.306459 -1.49447e-20)
(1.51004 -3.56668 3.87698e-21)
(15.8572 6.68353 8.61603e-21)
(9.41842 -1.1871 -3.85313e-20)
(17.0242 -0.74484 6.74146e-21)
(10.0343 0.401134 1.27554e-20)
(9.05786 -3.01921 0)
(8.01064 -0.2791 1.66165e-20)
(4.61802 13.5258 -5.32015e-20)
(18.2262 -6.42677 9.46907e-20)
(12.3508 -11.7889 -1.06494e-19)
(3.99114 -4.33552 5.68087e-21)
(13.9661 3.47377 0)
(2.21688 -4.0817 0)
(9.05326 3.05033 0)
(11.3803 -0.299021 0)
(15.6922 3.32338 -4.71525e-20)
(14.3806 3.3159 0)
(7.95203 -4.71309 0)
(9.23734 -0.618901 5.75893e-21)
(14.0112 4.43074 7.65196e-21)
(11.6928 -0.0907242 -1.11966e-20)
(8.96775 0.102047 5.60349e-20)
(9.98331 0.0689198 -7.55808e-21)
(9.39867 4.87202 0)
(16.8558 0.165336 0)
(9.99188 -0.320647 1.77864e-20)
(10.2249 0.022955 3.14603e-21)
(4.61085 0.920958 0)
(10.3925 -7.03129 4.44113e-20)
(14.745 -3.42603 -1.26916e-20)
(3.62763 -0.00188992 0)
(11.1598 0.681257 1.19884e-20)
(10.1041 -0.160468 -2.07271e-20)
(11.1328 10.1381 1.05055e-20)
(7.13502 -2.77541 0)
(9.9169 0.326169 2.62661e-20)
(11.7325 1.31838 0)
(15.4347 -1.31208 0)
(10.3456 0.564537 -2.66318e-21)
(9.96352 -0.245383 9.85509e-21)
(6.08479 -2.16179 -1.76528e-20)
(10.2339 1.94139 7.57606e-21)
(8.3664 -2.61594 -1.23428e-20)
(11.113 -0.258209 1.68513e-21)
(10.1348 0.480584 1.0394e-20)
(8.83226 -0.862613 6.08645e-20)
(15.2988 -2.85148 0)
(21.1585 -0.643544 2.30739e-20)
(8.15184 -1.52258 0)
(11.1721 -5.58714 3.02304e-22)
(11.8876 0.531235 0)
(8.41702 -1.02727 2.06545e-20)
(-2.07822 -9.63937 -6.43782e-21)
(16.038 -0.497958 0)
(-1.4017 0.163956 3.43244e-22)
(16.1965 0.114423 -1.14461e-20)
(10.2543 -4.4213 8.56112e-21)
(10.3636 -1.74638 3.13213e-20)
(7.76095 1.29138 -2.3337e-20)
(8.33661 -2.60736 -3.57135e-20)
(12.8745 3.0969 0)
(1.49539 1.43733 7.91089e-20)
(8.08162 -8.93855 -8.80073e-20)
(9.90328 0.30633 0)
(9.49305 -0.0403321 1.29712e-21)
(12.981 0.637106 1.56509e-21)
(10.8478 3.39455 0)
(9.99922 -0.0296693 0)
(16.6476 -10.0473 0)
(-1.99793 -5.19503 1.23328e-19)
(-0.136957 7.38426 2.51627e-20)
(5.46016 6.97285 -8.26126e-22)
(9.85147 2.84982 0)
(9.86239 -1.54032 2.3201e-20)
(11.0054 -11.8684 5.24688e-20)
(10.2645 1.79853 -1.87083e-20)
(21.5781 -3.17585 1.46888e-19)
(9.6875 -0.0793692 0)
(4.18996 -10.844 0)
(6.02707 -2.03518 -2.16007e-20)
(8.88264 -3.0041 -8.37865e-21)
(10.9466 -0.954601 0)
(12.1046 -5.4755 4.39847e-22)
(22.2147 -0.486592 -3.7788e-21)
(-0.0991628 -10.9819 5.30048e-21)
(6.34833 -2.96797 0)
(11.0659 -1.85903 1.39719e-21)
(2.05933 11.5179 4.81239e-20)
(11.8771 1.29492 -1.36472e-20)
(11.5285 -2.97996 0)
(9.72283 -3.48001 -2.64664e-20)
(9.9813 -0.562697 1.33848e-20)
(9.98636 0.149046 5.06057e-21)
(6.85725 5.56006 -1.05539e-20)
(10.8752 2.44106 0)
(8.9403 0.0989056 -1.49448e-20)
(11.4726 3.1642 6.96719e-21)
(5.58366 -4.47333 -1.39777e-21)
(9.94755 0.0306408 0)
(14.8783 8.06156 -8.84229e-21)
(4.88289 -1.74143 0)
(9.95305 0.066476 -2.07596e-20)
(9.93687 -0.0280873 7.34976e-21)
(10.0295 -0.487928 -3.43409e-21)
(1.84865 -10.3834 0)
(12.2762 -0.399442 -6.53143e-21)
(7.07477 0.0671449 4.52658e-20)
(15.0906 -2.76248 0)
(9.18412 -0.699813 1.74154e-20)
(16.6022 0.754822 2.41363e-20)
(10.8063 0.0114454 0)
(15.4192 8.32895 5.60232e-20)
(12.2595 -6.70253 -7.30563e-21)
(12.6153 -0.206543 0)
(6.72521 -4.17243 1.42888e-20)
(9.42061 -0.068558 0)
(11.1103 -4.8766 5.2433e-21)
(12.9581 -13.6334 6.73474e-20)
(11.7064 -2.40505 2.94714e-21)
(11.3538 0.742071 1.33889e-20)
(7.99127 -0.328666 8.61829e-21)
(10.3435 -1.85036 -1.13763e-20)
(12.9604 -4.69354 -2.45027e-21)
(11.1767 -4.66831 2.637e-22)
(11.9729 -0.289782 4.06479e-21)
(10.8098 2.43188 -1.94805e-20)
(14.4262 -6.00111 0)
(10.0021 -0.0250642 -1.61687e-20)
(4.98135 1.90846 -9.07449e-21)
(8.26299 -1.53771 0)
(10.5915 9.73489 -9.59545e-21)
(0.749206 -0.383152 0)
(7.89379 -2.74553 3.13808e-20)
(13.5567 -3.94383 0)
(20.6749 -2.05136 -4.41964e-21)
(11.6313 0.0773302 -9.32599e-21)
(11.1352 11.5163 1.07614e-19)
(19.3425 -10.1311 1.17605e-19)
(11.2275 0.189207 -1.38134e-22)
(12.2073 -5.62825 -8.49161e-21)
(10.8684 -2.94654 9.06133e-21)
(9.06729 -2.43535 0)
(5.46941 -4.38241 -1.3667e-20)
(15.511 -2.41943 2.62444e-21)
(4.83789 -3.76941 -1.62368e-20)
(-0.925936 -11.1486 -8.10231e-22)
(9.04623 -3.52849 0)
(10.8398 0.0083635 -1.91171e-22)
(8.75943 -6.16248 0)
(20.4533 -9.11412 8.71925e-21)
(11.1824 9.4248 -1.46378e-20)
(17.8417 7.9322 0)
(12.6865 -2.25433 1.16831e-21)
(-13.0138 10.8043 0)
(10.8507 3.25721 0)
(10.5442 -4.87862 -7.0047e-21)
(8.32464 -0.0874061 1.38791e-20)
(11.7836 -10.0093 0)
(9.46426 -0.252746 -9.16558e-21)
(5.05973 6.12685 -8.44586e-21)
(11.9253 -12.0958 1.12179e-19)
(10.968 4.35672 0)
(10.5891 -0.0349037 0)
(7.12297 -8.63274 -3.32927e-20)
(10.3848 -0.916597 0)
(11.5957 -0.60436 0)
(-3.96702 -6.93583 2.39989e-21)
(12.0895 -1.45033 -1.01027e-20)
(10.5181 -2.49392 8.5851e-21)
(19.7434 5.63261 1.69796e-21)
(5.25816 -3.4919 3.31248e-20)
(9.96302 -0.0319978 8.2871e-21)
(9.27472 -2.50037 0)
(10.0067 1.25337 -6.19248e-21)
(8.63897 -1.98336 0)
(11.0331 -0.201868 0)
(9.9935 0.168401 0)
(10.4425 0.542026 -2.19041e-21)
(10.2098 -0.738298 1.09881e-20)
(13.7786 0.364993 -3.35535e-21)
(9.47812 -2.51089 0)
(4.12795 -1.58447 -1.47201e-20)
(9.00571 2.88203 1.37099e-20)
(11.66 -3.71273 5.0239e-22)
(12.8357 -2.20281 4.57736e-22)
(20.4475 -2.24048 4.92806e-20)
(10.1178 0.0291501 -1.18574e-20)
(-2.07747 -8.38742 0)
(9.89079 -0.278385 0)
(6.54848 1.31595 0)
(7.95911 -3.59446 -2.19687e-20)
(-3.85461 17.1952 -7.43969e-20)
(17.374 8.00317 0)
(10.0813 1.29121 0)
(8.50917 0.523594 2.09726e-20)
(10.3964 -0.0369863 -2.73362e-21)
(9.17697 1.33979 2.25506e-20)
(15.4687 -4.36722 0)
(7.30675 -3.97255 -4.40553e-21)
(10.7067 0.224756 1.23086e-20)
(8.69596 -2.87891 -2.01801e-20)
(10.3957 0.275619 -1.50493e-20)
(10.1692 1.79533 2.2816e-20)
(-13.4774 3.38742 2.82229e-20)
(7.86581 -3.56175 3.80574e-20)
(12.6499 -2.57586 4.58651e-20)
(13.4602 0.807783 1.23582e-21)
(10.0025 -0.0245194 -3.78312e-21)
(11.5085 -5.50323 1.13069e-21)
(11.8013 -6.3066 3.27187e-21)
(6.96481 5.1303 -1.48309e-20)
(11.6987 -5.3 7.38227e-22)
(11.7263 -1.4053 0)
(9.18661 -4.97622 -2.26009e-21)
(10.6868 -0.0253834 -2.71783e-20)
(11.4075 2.76771 -4.62309e-21)
(8.5207 -2.73028 -1.87558e-20)
(11.5161 -3.54283 -6.69415e-21)
(10.7107 0.0912451 2.62455e-20)
(13.5696 -0.0406936 -1.50826e-20)
(4.85304 -1.8817 -1.83885e-20)
(13.5458 3.3619 5.4734e-21)
(7.49864 -2.06457 -4.43832e-20)
(10.7217 -0.0204008 -2.45139e-20)
(7.50606 -2.32637 0)
(6.7056 11.512 -2.55631e-19)
(11.3136 -0.0100205 2.74603e-20)
(17.4624 -1.00782 7.81385e-23)
(-0.523131 1.96217 0)
(14.1457 -6.02761 0)
(9.69036 0.948368 2.18093e-20)
(7.04849 -2.0897 2.77952e-20)
(-18.0855 7.70921 -7.88357e-20)
(13.8249 -3.33093 2.46103e-21)
(12.9735 -0.294938 4.21848e-21)
(11.3936 2.89043 0)
(9.65584 1.0337 1.26592e-20)
(3.63534 11.6062 -1.39117e-21)
(10.3288 3.0987 -1.6876e-20)
(11.29 -1.23919 -1.25258e-20)
(6.49798 -5.59757 -5.49524e-20)
(19.0007 -2.14519 -4.44343e-20)
(23.2926 -1.35864 1.38922e-20)
(9.5375 3.40623 0)
(15.2218 -3.50465 -5.09795e-21)
(10.0212 -0.473232 3.02101e-21)
(13.741 -8.1051 -1.87884e-20)
(6.76955 -3.29134 3.66123e-20)
(11.1802 -1.27421 1.89485e-20)
(12.4728 -3.96952 -2.13695e-21)
(10.7334 -12.0009 -6.63972e-20)
(14.8009 -0.462778 -3.64646e-21)
(10.7195 0.0776416 2.20249e-20)
(2.53288 -5.5453 -2.43411e-21)
(10.1113 2.93949 3.21689e-20)
(8.23906 -4.73381 -1.55257e-20)
(8.52197 -4.06911 -1.05851e-20)
(13.8117 -9.42901 0)
(12.6225 0.388294 -4.81235e-21)
(0.193657 -11.4841 -2.64231e-20)
(8.14843 -1.85447 3.96278e-20)
(12.599 -0.534801 0)
(7.79769 5.03103 9.46542e-21)
(7.68447 -3.24615 8.87575e-21)
(9.95332 0.00053585 -3.57533e-20)
(10.9045 -8.07369 -5.30526e-20)
(11.36 -9.61502 -4.04711e-21)
(11.7697 -0.0319934 7.65618e-21)
(10.6025 0.295843 3.02765e-20)
(11.2916 -4.95797 -5.75726e-21)
(13.791 0.542895 4.56818e-21)
(-7.03026 17.3775 -2.01764e-19)
(10.5124 -0.0256436 2.55105e-20)
(11.0529 -0.250919 -7.38666e-21)
(10.2989 0.32114 -9.1421e-23)
(12.4736 0.0751641 -1.58735e-20)
(7.56502 -3.29459 -1.71516e-20)
(13.4788 0.646187 0)
(3.29414 -7.2253 1.46466e-19)
(10.72 0.0319176 2.29447e-21)
(11.4807 9.12466 1.2123e-20)
(11.8627 0.289938 1.23711e-20)
(12.8424 -0.759445 -3.19038e-21)
(9.94171 0.0734853 -3.20011e-20)
(9.9989 0.7549 7.65691e-21)
(10.2343 -6.67793 -4.56478e-20)
(12.1519 -0.622368 0)
(10.6126 -4.90989 -3.97181e-22)
(10.228 -1.08237 1.50574e-20)
(9.09478 -3.47634 0)
(10.2352 0.216705 1.80701e-20)
(11.073 -1.3695 1.91081e-20)
(11.9065 -0.575849 1.88208e-24)
(19.9057 -6.02904 2.77937e-20)
(9.22023 -2.33942 0)
(9.14637 0.391059 2.94802e-20)
(12.9864 -3.07502 2.63223e-21)
(11.2673 -5.13463 4.59368e-21)
(11.1755 -0.790142 0)
(8.16698 -0.130105 -3.99131e-20)
(2.68562 6.2415 -4.91997e-21)
(10.0723 4.43842 1.59358e-20)
(7.55735 -2.12019 4.32671e-20)
(13.1979 -0.240838 4.90385e-21)
(18.2536 -9.91428 8.59889e-20)
(10.6512 -0.76479 -1.61485e-20)
(20.0841 0.827976 -2.52817e-20)
(9.49221 -0.2917 -1.86848e-20)
(12.5021 0.000829902 0)
(10.0058 -0.0538594 -1.41733e-20)
(15.082 -7.29909 1.99768e-19)
(-0.820601 2.15121 0)
(8.10913 1.75879 0)
(14.5964 -10.5265 0)
(6.76279 -4.71968 0)
(9.88852 0.64395 0)
(7.3124 -2.05227 0)
(17.6242 -5.73304 -1.34766e-22)
(6.12945 7.76776 -1.69298e-21)
(11.3184 1.71837 0)
(9.38293 0.251052 4.34803e-20)
(1.37412 0.84592 5.36774e-21)
(10.0584 0.464558 1.14145e-22)
(-1.99598 -9.17888 -8.41899e-21)
(7.25429 -1.21266 1.17046e-22)
(11.2529 -7.42284 4.45596e-20)
(9.55214 0.0976315 -8.21328e-21)
(13.3351 0.980175 -8.46972e-22)
(9.85064 0.57713 -1.48813e-20)
(9.54309 -0.11397 -2.72979e-20)
(8.94671 2.4913 -2.32534e-20)
(12.6448 3.36277 0)
(18.3418 2.27265 2.58095e-20)
(7.99168 -2.81452 -3.43391e-20)
(10.0183 0.0178275 -4.20148e-20)
(15.4318 -2.03803 2.35213e-20)
(12.1739 -0.0374671 2.62424e-21)
(18.6212 1.97518 -3.49867e-20)
(12.1099 -0.686458 -1.24021e-21)
(12.71 -2.22259 -3.92311e-21)
(9.95488 0.281385 1.54904e-20)
(11.5826 7.33376 0)
(13.6669 -4.71745 -1.92859e-21)
(9.33064 -0.708479 -5.53926e-21)
(14.0067 3.84493 0)
(10.9648 -4.53017 0)
(12.051 -5.13347 -1.80574e-22)
(17.9145 -10.7158 9.87952e-20)
(17.538 -6.35154 -3.22403e-20)
(5.97762 -2.812 0)
(10.3915 -0.699828 -2.22761e-20)
(9.33866 -0.0751842 -5.15898e-21)
(9.91854 -2.1522 9.6281e-20)
(11.1739 -1.13274 9.80037e-21)
(12.5038 -7.94561 0)
(18.1612 3.17911 2.99594e-20)
(10.9003 -1.22541 0)
(15.1302 -3.69651 5.96629e-21)
(8.7719 2.59097 -1.17829e-20)
(10.0337 -0.0181455 7.00375e-24)
(10.2842 2.06388 -4.28609e-20)
(10.9089 3.81481 -8.15154e-22)
(10.5173 -2.89831 1.96644e-20)
(5.9779 8.07891 0)
(-11.0478 12.5024 -7.07063e-20)
(1.52804 1.55227 0)
(11.4541 1.84001 4.78096e-21)
(12.8732 -5.00578 1.91703e-19)
(9.66214 -0.0228083 4.24443e-20)
(10.3234 -4.60075 2.96559e-22)
(-6.66778 -8.50317 -1.13829e-19)
(10.4563 -4.79167 -5.30565e-21)
(8.16389 -2.80433 -1.97074e-20)
(5.17097 10.079 2.08257e-20)
(-10.8835 11.8732 5.76829e-20)
(7.56938 -3.35807 1.40898e-20)
(8.41991 -2.87988 2.10398e-20)
(-4.30315 16.558 1.11456e-19)
(-11.4763 10.807 -2.89724e-20)
(11.3104 -3.14876 7.56857e-21)
(-2.13834 -9.71526 4.4324e-21)
(14.3611 0.300744 2.10724e-21)
(1.3384 1.25318 -2.84659e-21)
(10.4954 1.40326 -1.08611e-20)
(14.2846 -1.07421 0)
(6.18776 -4.8811 6.73322e-21)
(10.3347 -0.0320379 -2.85929e-20)
(9.93389 0.098929 0)
(11.4252 1.74961 0)
(-6.44923 16.0299 -5.19848e-20)
(15.5848 6.28682 -3.43616e-20)
(11.074 0.99086 -2.96122e-20)
(12.0581 -1.40859 1.31597e-20)
(8.95968 2.49483 2.01683e-20)
(9.1589 0.0133522 1.79833e-20)
(9.96158 -7.1584 -5.4322e-21)
(8.80946 1.22957 0)
(8.62324 -2.9913 1.96978e-20)
(-2.54376 4.2171 1.34248e-21)
(-2.21832 -11.3313 9.06721e-20)
(10.5728 -3.78309 2.8206e-21)
(15.9103 -8.0108 1.17306e-20)
(10.024 0.0148663 9.47969e-21)
(9.90826 -4.31041 -5.15143e-22)
(16.8847 -1.67493 1.9074e-20)
(11.5545 -9.13374 -1.12394e-19)
(10.9645 0.935 2.23313e-20)
(10.0395 -0.305634 1.02766e-20)
(7.44808 -2.2997 -1.77436e-20)
(10.4339 -0.831448 1.33541e-20)
(4.34192 -2.0101 0)
(10.7724 1.40775 2.53189e-20)
(10.0667 -0.201836 2.32375e-21)
(8.98793 -2.30609 -6.51279e-21)
(7.85115 4.62778 -1.35732e-20)
(11.0944 -3.15172 6.30293e-21)
(10.1304 -0.0517285 4.23748e-21)
(7.96318 -0.817528 -2.82612e-20)
(14.6222 3.20941 0)
(10.3829 -5.51261 -2.24472e-22)
(10.3966 0.317414 2.0343e-20)
(13.291 -2.80613 0)
(8.2541 -1.14869 1.57027e-20)
(11.0734 -1.16284 0)
(6.98883 4.47645 4.85462e-20)
(12.9333 0.027192 0)
(12.5769 -4.606 0)
(10.5497 -0.0446414 6.5354e-21)
(11.1535 0.741088 1.67625e-20)
(12.4604 3.1524 1.22068e-20)
(9.79179 -0.0564475 -1.28316e-20)
(7.48061 2.39306 -1.24809e-20)
(10.0818 0.0325496 -6.40423e-21)
(9.97285 0.697145 0)
(-0.544606 2.97792 4.13406e-21)
(11.5169 0.825271 -1.54263e-20)
(15.1008 -4.11435 -1.15435e-20)
(14.3996 -1.15086 0)
(11.4012 2.82172 -5.74499e-21)
(8.85177 4.77881 -2.46622e-21)
(14.5128 0.0997992 9.05496e-21)
(-15.4774 -1.35759 0)
(-2.13987 -6.08792 1.42448e-20)
(10.1355 0.317933 0)
(16.1386 -1.35715 -8.53211e-21)
(-2.21134 1.80853 0)
(4.89539 1.89554 0)
(9.88418 -0.86663 0)
(13.1598 -4.04426 0)
(2.07014 0.489999 -8.38967e-22)
(-6.69277 -6.42852 -2.97475e-20)
(10.2372 -0.71405 -1.64783e-20)
(9.54777 9.09178 -1.33208e-19)
(7.95443 -3.47604 0)
(1.25108 13.6894 -9.99787e-20)
(-2.44139 2.28519 -1.0262e-20)
(9.81741 -4.47858 0)
(9.06306 -3.28095 -2.00647e-20)
(17.5159 -1.19144 -7.91056e-21)
(10.4656 1.3216 2.88291e-20)
(17.9252 -2.64497 -2.26809e-20)
(9.61728 -0.182576 0)
(14.4364 -2.97296 0)
(10.772 3.8281 -3.95317e-21)
(11.2706 -5.65916 4.94972e-22)
(3.3209 -3.44746 -5.19264e-20)
(-6.09902 16.0464 5.18275e-22)
(10.0073 0.00934589 1.05211e-21)
(12.7584 0.305116 -3.71744e-22)
(9.96474 0.282342 2.21138e-20)
(9.35681 -5.84625 7.46859e-22)
(11.5023 -2.71857 0)
(9.43607 -2.11471 0)
(13.7481 0.399842 0)
(10.2934 6.01479 0)
(10.2068 -2.08389 8.36404e-21)
(14.5342 1.98083 0)
(-0.808576 -3.60228 1.43324e-20)
(-13.1528 5.2336 -8.70578e-22)
(8.31195 -2.94555 -3.17603e-20)
(1.1953 2.40536 -4.68279e-21)
(-0.284157 -3.6916 -7.77196e-20)
(-1.45559 -0.523098 -3.98366e-21)
(11.2358 0.0401296 3.33858e-21)
(8.87152 -10.0565 -8.29863e-20)
(10.3361 -6.25475 2.48313e-21)
(10.7741 -0.102623 0)
(13.3114 0.881911 0)
(7.00362 -6.80568 0)
(12.9154 -0.917302 1.39797e-21)
(-14.0335 10.6212 0)
(8.86452 1.2055 0)
(9.99176 0.0139213 0)
(10.5518 -2.48132 8.18399e-21)
(10.0611 0.391617 -2.54712e-20)
(2.34777 -0.87144 0)
(17.8349 -4.93921 -2.35493e-20)
(9.81693 0.262703 -1.80511e-20)
(10.3336 2.90226 3.54307e-20)
(9.96868 -4.41382 9.8978e-21)
(9.06266 1.52049 1.85801e-22)
(13.146 -7.84425 -9.55329e-22)
(11.642 -5.26737 2.54678e-22)
(13.4019 -5.14217 -7.51695e-21)
(10.937 0.767705 -2.28304e-20)
(0.765056 3.60705 -1.19001e-19)
(9.73763 -0.429701 -1.74369e-20)
(10.4375 -0.015054 0)
(11.694 8.18484 -8.91185e-21)
(9.98969 -0.164569 1.93872e-20)
(1.6945 11.5302 4.59434e-21)
(12.0344 -0.763995 -3.87582e-21)
(7.16021 -2.17875 -3.02366e-20)
(10.9408 0.64749 3.89778e-21)
(11.4985 2.96524 -1.00789e-20)
(10.0006 0.0919191 0)
(7.93757 -4.33614 -6.82834e-21)
(5.80224 -3.13696 1.48772e-21)
(14.0554 -5.38102 1.54352e-20)
(20.0486 -1.54987 -1.6765e-19)
(10.4196 -0.119629 9.03462e-21)
(13.8615 0.857423 -1.29232e-21)
(13.0209 -0.206983 -3.68739e-21)
(13.657 0.310507 0)
(3.05708 4.45418 0)
(9.31121 -4.33402 1.35193e-20)
(11.2834 -8.56693 5.72985e-20)
(15.3364 -9.32232 -1.77028e-21)
(10.0253 -0.17678 3.82151e-20)
(8.40296 -4.57027 2.08684e-20)
(8.14743 -0.292696 0)
(9.6107 -0.510396 0)
(9.61871 -2.36857 -3.42705e-22)
(10.5653 -0.0928181 9.92318e-21)
(9.17709 1.42859 3.30093e-20)
(10.3756 1.34947 0)
(12.465 -0.0274685 0)
(13.0667 -2.43427 -5.14661e-23)
(11.0474 -0.774108 1.14341e-20)
(0.996541 -0.382457 -2.29016e-20)
(12.137 -1.56307 0)
(2.22665 -1.19445 -5.84057e-21)
(18.9356 -3.66022 -8.92978e-21)
(-0.500128 -11.6878 -3.19295e-20)
(10.6046 -0.329605 -1.82411e-20)
(8.24821 8.24641 0)
(15.5069 7.58158 2.87136e-20)
(-16.8455 0.896156 -5.35635e-20)
(1.41265 0.139836 0)
(5.89864 3.7563 2.72723e-20)
(9.84716 -0.245037 -1.2804e-20)
(17.5759 2.28914 2.55905e-23)
(9.30654 3.26875 5.43472e-21)
(9.52466 9.41931 2.04808e-21)
(10.9502 0.0427312 0)
(7.22404 -2.87074 -2.78621e-22)
(7.56621 -4.49382 -1.94341e-20)
(-7.02667 1.57148 -1.79059e-20)
(9.84399 0.597792 1.7622e-20)
(7.25862 13.0208 6.94366e-20)
(10.1758 -0.0293 -4.20864e-20)
(12.3712 -3.92224 1.64963e-21)
(10.9083 -4.37079 -1.34525e-21)
(10.3875 -2.32351 0)
(7.25288 0.838597 7.416e-21)
(7.45451 -3.39991 1.13409e-20)
(11.4273 0.0757252 -1.77545e-20)
(10.0527 -0.176999 -1.72651e-20)
(16.5815 -1.58721 6.85611e-21)
(9.61927 -1.48998 3.4534e-20)
(13.6976 0.32369 -2.42297e-21)
(9.5636 -0.408359 1.02978e-20)
(16.8732 9.6717 -3.92719e-20)
(18.1773 6.66481 -1.54225e-20)
(10.1419 3.1567 2.69263e-20)
(-17.8352 6.1565 6.19795e-20)
(10.414 0.102386 0)
(8.57934 -6.78525 0)
(17.3897 5.41349 0)
(8.24782 -2.80971 2.47264e-20)
(9.80527 0.0152039 -2.74224e-20)
(9.31109 -0.0984387 0)
(9.18119 -2.33383 -1.88477e-20)
(9.3007 -0.188884 0)
(10.1941 -1.84351 -1.39848e-20)
(14.6268 -4.01057 -1.52281e-20)
(11.3014 -2.53378 -8.8588e-21)
(11.0588 0.0435132 0)
(10.0801 -0.336951 0)
(13.145 -2.5549 2.24239e-22)
(11.3286 1.53696 -8.0366e-22)
(14.0054 0.761527 -2.69582e-21)
(9.08314 5.08789 -8.26842e-22)
(10.0525 2.31946 0)
(10.6292 -3.72329 -4.55434e-21)
(-0.943539 2.41085 0)
(4.96255 1.16155 -1.88554e-20)
(10.8997 3.82493 0)
(13.6849 0.694515 2.50029e-21)
(7.49138 -1.96416 1.15649e-20)
(8.9615 -1.59583 1.13646e-20)
(10.2741 -1.30121 1.99283e-21)
(-11.6191 4.69156 -1.11873e-19)
(10.9891 -0.984075 2.843e-20)
(9.88053 0.659062 -1.39424e-22)
(18.3474 0.123622 4.3493e-20)
(11.7292 -1.91769 -4.28129e-21)
(-0.0828581 1.66445 5.49688e-21)
(11.1364 2.09824 0)
(10.0787 -0.0813516 -2.20941e-23)
(9.35353 -2.60339 0)
(8.84849 -4.40179 1.53585e-21)
(10.846 -3.6629 -2.24838e-21)
(9.67564 -1.37826 -1.12302e-20)
(14.3012 -6.84621 9.60801e-24)
(12.6613 0.649889 1.16626e-20)
(9.45393 -1.03814 2.47374e-20)
(11.0679 0.529936 -9.37458e-21)
(4.81523 1.90428 0)
(5.84336 -4.98946 0)
(12.6205 -0.727572 5.2188e-21)
(12.3002 3.0161 0)
(9.70143 0.00497148 -7.14109e-21)
(7.76916 2.64227 -2.02431e-20)