/*--------------------------------*- C++ -*----------------------------------*\
| =========                 |                                                 |
| \\      /  F ield         | OpenFOAM: The Open Source CFD Toolbox           |
|  \\    /   O peration     | Version:  2306                                  |
|   \\  /    A nd           | Website:  www.openfoam.com                      |
|    \\/     M anipulation  |                                                 |
\*---------------------------------------------------------------------------*/
FoamFile
{
    version     2.0;
    format      ascii;
    arch        "LSB;label=32;scalar=64";
    class       volScalarField;
    location    "5";
    object      p;
}
// * * * * * * * * * * * * * * * * * * * * * * * * * * * * * * * * * * * * * //

dimensions      [0 2 -2 0 0 0 0];

internalField   nonuniform List<scalar> 
13486
(
2.51131
2.00137
0.125373
-0.0975217
0.869378
-0.222851
0.41009
1.44876
1.72343
0.882811
-12.1513
0.429869
2.64673
-0.28844
0.685705
0.9821
-5.67375
0.0954362
0.601487
2.25976
-0.0794664
2.61635
1.96149
-1.85516
0.84403
-1.69759
-7.18784
-0.917284
0.00328883
-0.77157
-0.0730949
0.514068
-1.83259
-0.551818
1.45135
0.0168647
0.0216572
2.06797
-0.083241
1.71553
0.321393
2.74632
0.0359052
0.844835
0.806128
0.404678
-5.30729
0.00534984
0.0208992
-0.915737
1.46331
-0.106161
0.309785
2.1009
0.0335205
0.932778
0.0670915
-0.108809
-1.74106
0.0362928
-11.0852
0.0369255
-3.68865
-0.0715309
-0.812975
0.0260504
-0.130453
2.50406
1.71377
-0.012154
-0.132348
0.0482345
1.71824
-4.98437
0.0341495
0.0698724
0.0311062
0.671311
-6.58976
-0.204512
0.00805056
2.02424
-3.92762
0.138812
2.52202
0.835152
-0.41449
1.38328
1.6604
0.965139
0.378318
1.26717
2.41362
2.14601
1.79229
0.00398542
-7.32712
-0.211716
1.68909
-5.69419
0.0317488
-0.193209
-0.223808
-0.102454
1.02578
-5.72959
1.67845
-0.0920394
-6.18776
1.16024
1.66593
0.424934
2.09949
0.0592881
2.93859
1.7402
0.845531
-0.5156
1.7329
0.0199205
0.0903309
-10.8998
1.86982
-0.0907197
1.65901
-0.0949428
1.2325
0.401522
-0.450851
-0.673535
-0.0907484
-4.80427
-5.0229
-4.61948
1.53785
1.34824
2.89587
1.20364
0.0192253
1.48714
-1.4606
0.303878
0.502742
-0.206871
0.0550947
-4.68062
-0.359965
1.68965
-0.995907
0.00212451
0.968635
0.649319
0.00895279
2.06454
0.472841
0.120422
0.97491
0.109749
1.88224
0.0398151
-0.696872
1.88283
0.326332
2.73841
-0.108942
-0.563284
-0.0359747
3.36239
-0.369059
-4.5966
-5.13118
0.488084
1.16021
0.931292
0.00461173
-1.54922
-0.514861
-1.73647
1.68357
0.513223
1.6153
0.0583333
0.753473
-4.20271
0.120781
-0.921037
0.00155333
-0.718861
0.387764
1.82411
0.0217223
0.103514
-0.136271
2.12835
-0.165577
-11.7777
-0.694253
-0.726769
2.27107
-0.47325
-0.0883037
0.377137
2.07226
0.738141
0.0457251
-0.172421
0.080573
1.83808
-0.124645
0.13091
-0.809355
-1.20367
2.22938
1.67917
-0.221024
-0.384335
-0.813296
0.996721
2.29054
-2.15817
-5.59903
-1.0244
1.52354
-0.738259
0.190905
2.45741
-0.529026
-0.332503
-0.313334
-0.368162
1.59599
-0.0419441
-1.52856
2.79897
-0.174009
2.36296
-0.610953
0.105119
2.38655
0.782149
-1.82566
1.13774
0.0636302
2.25276
-0.0704443
1.91686
0.811012
-1.15407
-4.64438
0.952756
-1.1278
2.97063
1.68452
-0.0997546
-0.245864
-2.35082
0.497967
-0.369565
0.124738
-1.7351
1.83395
-0.0612675
0.672063
-2.11385
0.974391
-4.40394
-0.319207
-0.0947545
1.59584
0.0284825
1.65877
1.64278
-0.844988
0.312311
2.46133
-1.08785
-0.246139
-0.166595
-0.115204
-0.29113
-0.193004
1.41806
1.69625
-3.51545
-9.75201
-6.69769
-1.43262
-0.474029
0.185233
1.60787
-0.149023
0.00832277
1.79752
1.55406
-0.580241
-0.660636
-0.695439
0.285153
1.73219
0.390996
0.311854
0.0772338
-0.306399
0.543912
0.01412
0.767023
-0.0670628
0.850576
-0.299574
0.0225035
-4.52382
-0.0916486
-0.231727
0.428219
-9.86381
1.37838
0.0110122
1.66299
1.84556
-0.366739
0.0247319
-0.00579102
1.67131
2.15815
2.86484
0.404266
1.1042
1.38938
0.159613
1.02692
1.3953
1.21564
0.346057
2.29866
0.403844
1.69396
3.04576
0.690387
1.03417
-0.0572678
-0.341348
2.13588
0.99251
0.773591
-4.58852
0.00368056
1.1542
2.94193
-2.17147
0.00133977
1.11368
0.202295
0.293559
-7.38432
1.71855
0.00831693
-5.06268
1.20602
-0.272946
-1.15971
0.620651
0.334588
1.8664
1.64606
-0.806371
0.00255098
-0.629452
-3.88879
2.28437
1.21771
0.0302469
1.17261
0.161315
-1.61294
-0.168507
1.49742
1.70756
-0.0217132
-9.33936
-3.36977
1.57609
1.18547
2.6429
1.75952
-4.27206
-0.2602
0.112972
1.00795
-5.48259
-0.00373558
2.1934
-0.92385
0.717519
2.40443
2.45095
0.0224082
-0.11029
-1.45713
-5.511
-1.49338
-5.4967
0.410215
1.50544
-0.134446
0.448773
-0.181624
2.11307
-1.66731
1.23162
1.88896
0.987407
-1.23308
-1.01839
1.73548
1.69181
2.05133
-3.63288
0.999919
-4.9313
0.80934
1.68252
0.258522
2.95153
1.08271
-0.624462
-0.682406
0.36379
1.69289
-7.20703
0.0737353
2.59443
1.51066
0.699489
0.150978
0.822562
-1.29567
2.62802
-0.00223787
0.975614
2.46286
-5.36294
-0.863174
-4.65114
-1.03197
-0.591642
2.0063
1.93969
2.60876
-3.428
0.0180625
-4.91142
1.05478
1.69257
-0.896064
-1.38731
1.66639
-0.992425
-1.56314
-3.70601
-4.27753
-0.101643
2.11565
0.00557804
0.104326
-0.0802232
1.60003
0.00565168
3.20536
2.44299
1.72326
1.4011
0.0189455
0.00245368
3.02884
-0.265557
0.0193209
-0.611421
1.70947
-6.64049
0.261173
1.18734
0.0124863
-0.72416
1.9402
-1.94274
-5.52765
1.09798
-0.016246
3.35046
1.11901
1.47921
1.82687
-1.76416
0.168561
2.70204
0.885554
2.1724
0.444697
0.475159
-0.119066
-0.200813
0.0373273
-6.10895
1.72665
1.70361
-1.1687
0.0016454
-0.278679
2.47572
2.01304
-0.258669
1.73409
1.25696
-0.689501
0.985245
1.5049
-5.04223
2.59899
0.0308152
-0.00823912
2.72438
1.20061
0.00567047
1.13249
-0.16922
-0.659175
0.702473
1.11289
1.89602
2.41997
-6.28677
0.813408
-6.5258
0.00286105
2.35789
0.473595
-3.85787
-0.270366
0.256683
0.117387
1.39367
-0.741523
-1.31288
1.73934
2.27491
-0.171775
1.82901
-4.79103
-2.16522
-1.80981
0.701483
-5.74254
1.8558
0.15861
-10.4934
1.46081
1.99836
-1.75122
-5.93741
1.48472
2.3602
0.530425
2.53118
0.161727
1.12788
0.389755
1.86672
0.0523226
2.2982
-7.28366
0.388196
1.65427
-0.418726
-1.02425
1.66646
-5.39833
0.30115
1.90831
2.61269
-0.293914
0.1066
0.465387
0.239255
1.50696
1.19471
0.633621
-8.75953
0.034045
2.49897
0.279203
0.136631
-1.90155
2.62904
-0.463775
0.0607214
1.63069
1.38155
-0.201477
-0.522569
1.47643
0.124067
-0.684179
0.662928
-1.58507
2.5493
1.69823
1.19101
1.22524
0.0386895
-1.44393
2.85029
0.513358
2.85882
-0.281949
1.61247
0.0154066
-5.02712
1.07213
0.947389
2.98467
-1.1952
1.14012
1.06728
-2.31719
0.907783
0.101903
-0.663551
1.65903
-5.80611
-0.975192
-1.33375
-0.268344
-0.451165
1.8138
0.00645057
2.77977
1.69622
0.0362567
-1.94342
-0.79671
0.551013
-10.074
-0.369797
-5.91168
2.34446
0.00181992
0.0689853
-6.03575
2.65204
0.00270355
0.298554
2.7229
1.48306
-2.88346
-0.172782
1.20669
0.151566
1.64517
0.0613049
-0.404052
0.644906
1.53748
0.50211
1.38321
2.76144
0.0615394
-0.762462
1.66462
0.252951
-0.276852
1.17942
1.24985
0.737834
-3.28157
0.159655
-0.0263384
0.17852
2.35419
0.52226
0.133348
0.144153
0.236044
-0.191718
1.69237
0.0625203
1.61116
1.60466
2.30708
0.107979
-1.29466
2.83631
0.0267612
-0.870721
1.76728
-1.32915
1.894
0.0487553
1.63005
-0.130983
-4.89121
-1.48079
0.0055678
-5.57066
0.899582
2.91461
-0.434743
-3.89985
-0.605411
1.73273
-0.0109403
0.748707
-7.50882
2.87577
-3.08383
0.911345
-0.962895
0.977109
1.6767
0.624953
-3.13721
-0.0482545
2.69495
1.70814
0.778451
1.5092
0.200197
1.3412
1.37081
0.987442
-4.52095
-0.242157
2.09475
0.407599
-0.121629
1.44109
-0.654633
-0.418324
-0.0555235
1.81532
1.78547
-0.451538
0.133497
-2.52417
-0.0589523
0.139621
-0.436401
0.342732
1.62455
-0.0902859
-1.55275
1.98204
0.0323069
-0.501662
-0.116279
-0.753221
-0.419728
-1.32329
-0.0382838
-3.24844
1.63447
2.64263
0.0223286
-0.509073
2.73006
2.56419
-0.264695
-0.73973
1.7606
-4.4878
0.0634086
-0.0189417
0.067464
0.976642
-5.54001
0.788405
1.13845
-0.669984
-0.245296
-1.87632
-0.199342
1.47199
0.726627
1.09971
-0.564071
1.43618
2.51296
-11.3914
-2.8667
1.90777
0.667575
1.13315
-0.0762064
-0.744387
-0.616396
-0.155182
1.71582
2.86534
1.84818
0.020166
-0.165423
1.67459
2.44384
-0.481856
1.81961
1.65485
2.53236
0.440727
-0.0292899
0.255504
-0.352742
2.5261
0.132871
-0.218909
1.16629
-0.24496
0.414762
-0.127128
-1.54228
1.59615
1.20474
1.17062
0.803253
-6.72381
-0.38744
-0.404896
0.982171
-1.6812
-0.892037
0.0571281
-3.48509
-10.5315
0.890051
-0.754036
-4.58808
-4.99363
-0.46457
1.28725
-11.4842
-1.34786
1.88418
-0.183222
2.6221
-0.344402
-4.72322
2.00881
2.37226
0.0370381
0.103878
0.470432
1.72482
1.00254
-2.71469
-0.191241
0.0148539
-0.233299
1.63776
0.0657695
0.990142
-0.0118717
1.71185
-7.62467
0.0596621
0.00574469
2.05454
-1.19973
-11.9608
-1.82318
2.59673
0.0141619
-0.79692
-13.3026
1.65857
-0.998235
-0.000891103
0.390163
0.827532
-0.0997983
1.18343
-0.79687
1.37108
1.65467
1.96203
0.767109
-0.0174893
-0.488487
1.27347
-0.576306
2.03778
1.14403
-0.210544
-0.102966
-0.277294
-0.0898763
0.0150061
1.89826
0.689058
0.282096
1.66744
0.0759751
1.35948
2.95395
-0.126251
-2.00642
1.15655
-0.493256
-0.0535676
-0.294752
-0.0782541
1.65647
0.0626419
0.0283974
0.0496578
0.121883
2.16675
-2.55897
0.00446464
1.67341
-0.3718
2.36878
1.92171
2.25105
0.425483
1.05014
0.539835
0.0950567
1.28918
1.65477
-0.0875574
-0.425217
-4.85354
-0.696616
-5.47988
1.6682
-3.60578
-2.01596
-3.16229
-0.0824885
0.0103308
1.68452
0.013442
0.36834
-4.73618
1.70162
2.91876
-0.265247
-8.35712
0.946121
0.042231
1.61769
0.0313977
-0.0751956
2.03468
-0.114926
2.76989
1.17057
1.66483
-0.73172
2.18146
0.0617231
1.93267
0.0310951
-1.79587
-0.510432
-1.34516
1.13796
-0.186707
0.00970234
2.61201
1.69614
1.80796
2.38219
1.84373
2.04828
-0.396413
1.77174
1.71127
1.72163
-0.365941
-0.523743
-0.980901
-1.55456
0.464918
1.90621
-4.99854
2.46676
-1.55154
0.0618851
2.84039
2.3986
-0.417695
-1.44031
1.70004
0.874208
0.182542
1.59833
-4.93736
-0.655008
1.6606
2.33034
-0.0724296
1.87628
2.15814
0.0026815
-0.678961
2.16343
0.766146
0.0191869
-8.12879
0.133286
-1.48352
1.5661
1.1521
0.0203177
-0.0244694
-0.873911
0.473302
-0.0452669
0.405016
2.44047
-0.0826394
3.15209
1.67761
0.576515
1.88717
-2.95386
-4.99395
-0.853952
1.65396
-0.0775134
-4.42081
-0.086952
0.835957
0.987522
-0.0487658
1.24149
-3.36533
0.899007
0.0201521
-0.013716
1.3618
0.546107
2.18879
1.70936
1.75899
1.62555
-0.424481
-1.49646
-1.19518
0.149843
-0.348291
-0.289373
1.33706
-0.165396
-0.0188818
0.0245759
0.277564
-7.53859
1.19544
0.799365
0.0200153
-0.917221
0.832553
-0.987114
-1.36132
0.228856
-0.213482
1.87271
1.25184
2.16954
-4.65932
1.52146
0.0561954
2.34576
-0.203575
0.890352
0.0948188
-0.218441
2.71893
2.77814
1.40262
0.971249
1.14728
1.56052
2.74959
1.18106
-1.63007
-6.80303
0.332583
-1.51545
-6.07816
1.6918
1.61632
-0.109246
0.524171
1.44432
1.53112
2.98404
-4.25806
1.3233
-5.49319
-0.406528
2.39457
-0.273924
1.41942
-0.202721
0.50651
0.674859
3.10409
-0.841057
-0.988711
0.853299
0.252338
-5.32717
-4.91
0.112025
1.85944
-0.11101
0.974275
2.5608
2.35294
-0.184841
-2.94029
-0.509888
0.2985
1.98736
1.59035
2.34188
1.04352
-13.317
2.45363
1.55311
-2.43344
1.31979
1.71512
2.1272
-7.74794
-0.0677228
0.0024387
1.43256
2.68625
0.91514
0.260344
-1.48079
2.99658
-12.3006
-1.43787
2.79814
1.48032
-0.0328515
1.35621
-0.11399
0.958722
-0.578438
-12.4094
-0.0458604
-1.18854
0.0692295
-0.469796
-4.91239
-5.59212
-5.42226
0.163593
-5.5083
-1.25865
1.28416
1.55176
0.941694
-3.68086
0.477831
0.263243
-0.432118
3.13658
1.14209
-1.0707
1.47742
-0.588259
-1.38604
1.41411
1.40566
1.61404
3.16832
0.00494509
-0.268063
-1.88092
0.121109
1.17397
1.6715
-0.638716
2.48035
1.16195
1.77426
-0.134433
-0.192199
0.0738535
1.7576
1.67882
1.82183
1.67332
2.91374
2.86937
-0.609817
1.48667
2.13151
-1.03341
2.33538
-0.0577661
2.83638
2.31385
0.0721015
1.89849
0.831714
1.30795
0.0593967
1.69961
-1.44513
1.47627
0.653133
1.17483
-0.21961
1.61272
-0.0391222
0.45429
2.74306
2.73721
1.14372
-4.70647
0.414892
0.203853
-0.249994
1.35992
2.46109
-4.73529
1.72433
1.62297
0.842472
1.74668
-3.79228
-0.215508
0.020569
2.94867
0.523403
-0.456389
1.92601
-0.219474
0.0717091
0.852934
0.329831
1.28433
0.73999
-0.743463
1.0206
1.376
1.14135
1.28559
2.88723
2.37281
2.10327
1.8794
2.68612
0.833077
-0.0694216
0.0556192
-1.80016
2.71047
-0.178379
1.67811
1.52401
-2.74277
0.908803
1.85139
-1.38374
0.85874
1.06441
3.20726
-7.31389
0.762775
-0.0637194
1.93652
0.120977
-0.189938
2.66709
2.28582
1.63719
1.64395
-0.65982
0.858769
-6.06545
2.86328
0.0347637
3.08183
-0.0106946
0.230553
-5.47978
0.955051
-5.0502
0.331858
-0.124863
0.612517
-0.354754
0.58193
-0.240136
0.00127926
-0.330608
-4.60757
-0.921336
-2.85151
-0.973101
-0.176517
-0.0788953
-9.96754
1.73794
1.77003
2.11127
1.65837
0.702093
0.671672
3.34594
1.63668
-7.75469
0.00600182
-0.162164
1.29314
1.48768
2.48541
-1.40322
-1.39639
1.40454
0.00240834
0.43553
2.08901
-4.78263
-3.88462
-5.75468
2.89549
-0.201323
1.17946
2.14248
-0.0647112
1.34969
-0.0292019
-8.36473
-7.02506
0.0502697
1.13272
2.00804
2.10084
-2.99882
-4.68754
1.14975
-7.76595
-0.783355
-0.430279
0.367116
-0.541704
-0.232313
-0.285735
-7.33339
-1.79525
2.57458
-0.0883426
2.79844
-5.9566
-0.27108
0.664112
-0.00760606
2.38319
1.67232
1.96719
-0.566213
-0.58882
-9.16583
2.2974
-4.6003
1.23333
-0.0245933
2.01408
2.37445
-0.0361195
1.64658
2.69261
1.85833
1.80066
-3.27035
-0.0212779
0.723343
-1.25053
-0.122534
1.05023
1.23844
0.124139
-11.0076
0.403202
0.0631185
1.49057
1.27983
-0.847117
2.82697
0.128044
0.00233708
0.219359
1.64627
-0.714788
0.0080319
1.83418
-0.865058
0.0943062
-0.347047
1.79561
1.65144
1.57632
-0.207966
1.5753
1.92636
1.89998
-0.587836
0.0644516
0.38949
1.4613
-1.43408
-4.56562
-0.691162
-2.08386
-0.114621
0.0395976
-0.109603
0.0584169
-5.02535
-1.02757
-8.1607
0.0608107
-0.582461
0.635596
-5.68491
1.7763
3.37916
0.583399
-0.334023
0.763027
0.203685
0.413792
0.0274516
-0.735416
-2.70646
0.170807
2.21837
0.00423006
2.64731
0.0327592
1.57197
1.39897
0.76055
-5.5417
1.02623
2.89419
-0.0821612
1.67656
1.61348
2.47472
0.167879
2.27631
1.82138
-5.43313
1.93314
-7.6625
-9.33469
2.32592
1.48277
-2.60437
0.0319013
2.16197
0.279241
-1.12565
0.0552164
0.0548573
1.298
0.913831
1.6782
1.59399
1.43521
-3.23337
-0.933356
-0.54774
1.63989
3.08084
-0.821665
-11.6908
-5.42502
1.70445
0.154155
0.157911
0.790511
0.125691
1.32202
-0.0654454
0.429194
2.53381
0.762256
0.058384
-0.078297
-0.412442
-1.27641
-5.49022
-1.77043
-4.02384
1.9837
0.910253
-1.02621
2.66598
0.00595089
-8.54285
-0.380533
-9.84043
1.82582
-4.51018
0.569641
1.68696
-0.429617
-0.604511
-0.174999
-8.09584
-0.244732
1.8204
-8.28618
-0.0386547
-5.80586
1.61354
1.79203
-0.22407
2.11907
1.96849
2.55199
2.60724
1.88084
0.277047
2.94794
-5.92439
1.6501
0.379259
-4.70707
2.02741
-0.55232
2.54205
0.803152
-1.793
-3.19595
-3.79876
1.78773
-0.711668
-0.582151
-0.296319
-1.3204
0.0616259
1.04875
0.310691
1.24459
2.89257
-4.75328
-1.67131
-0.968879
1.76574
1.26929
-1.109
3.33894
-0.0598829
0.0624522
1.08555
-1.65765
1.607
1.73785
1.93371
1.9611
0.0807128
0.935743
1.61004
0.372894
-0.111882
0.0108287
1.83146
1.87356
2.31798
-0.0670352
0.119314
0.923949
1.03104
0.304004
-3.2204
1.391
-0.278769
1.46438
1.7233
-5.62632
2.64323
-1.23943
2.83859
1.92192
-6.66411
0.00599685
0.0294102
0.653067
1.76103
-4.42426
2.28089
1.58742
0.914938
0.0483459
0.344871
-0.381583
0.916189
-5.58709
1.07393
-0.225615
1.63243
-4.19703
0.0791858
-0.523415
2.05935
2.40401
0.820417
-3.8927
0.831659
-0.20026
0.11576
0.951626
-0.0750222
-0.0402992
2.80151
-0.841148
-0.102483
-1.37215
-10.3899
0.033492
1.71745
-5.61346
-0.451894
1.75311
1.09888
1.79434
-1.11057
0.785107
2.82136
-3.0968
1.61687
0.550942
-0.0321024
0.597808
0.38763
-1.23409
2.88308
1.92673
-0.252856
2.78241
2.18558
2.04111
-7.19088
-4.19854
1.12423
-1.95802
0.0417136
-3.79387
-1.70501
-3.49658
1.33874
0.657775
1.04509
1.14723
-0.0543487
1.30091
1.64579
-13.1421
1.77513
1.05633
1.66612
-0.202934
0.0134475
-0.239178
-5.4655
-0.762453
-0.526856
1.62687
-5.18172
2.56651
-2.67219
1.61464
1.07927
0.0251611
0.342161
1.71724
0.778803
0.412683
1.52056
0.156974
0.0784139
2.4319
1.97288
-1.16985
-4.05289
0.101152
1.48088
0.0322478
0.826688
-2.87724
0.0279767
-0.231303
-0.326326
1.46564
1.44308
0.209756
0.770593
-0.0199507
-0.0296765
-4.06524
2.05899
-0.355109
1.60688
0.00361786
1.44505
1.77711
0.966093
1.56723
0.125002
-0.259073
0.0186672
-4.8987
-0.612567
-1.18915
-0.0187816
0.0194575
1.34271
-0.0657386
1.63749
0.0272272
0.1064
-2.49353
-0.0519151
1.74069
-7.17679
1.63355
0.434467
-2.48102
0.0201042
-0.412927
1.20281
1.75848
-0.0276695
0.316885
-5.11344
1.98279
0.157363
0.540195
-4.21726
2.09832
0.84705
0.0189715
1.78134
1.74721
2.03441
0.249916
2.04951
-3.2809
0.0548694
-0.200803
1.64747
1.08652
0.461595
0.270298
-2.67731
-4.17222
0.94788
0.114865
-4.54347
2.57696
-3.55973
2.00742
1.21868
-0.583819
-0.0811217
-0.00359003
-0.180611
0.207881
0.244851
1.57089
0.0242156
1.67385
-2.58054
0.759914
-0.0327089
0.442254
-2.908
2.09971
2.8335
1.82121
0.999131
0.435633
1.10549
-7.37057
0.0999778
-0.222472
-0.239537
-1.28462
-7.31456
-2.9625
-0.983771
1.50163
1.67404
-4.25313
0.434197
1.88412
-0.903458
-2.34008
1.7929
-0.0772327
-10.7903
0.0456745
-0.322297
0.00479778
2.63807
-0.216182
1.62793
-1.61015
-1.03868
-0.875091
1.64411
0.468444
1.40374
-1.3239
-1.1939
0.00637306
0.341972
1.92455
1.4777
0.316619
-0.132856
-0.575768
2.94643
-0.0574099
1.90694
2.09701
-0.0889605
-0.105447
0.793319
-5.23235
-1.08895
1.46152
0.977826
1.61663
-0.888886
1.82096
0.218739
2.37426
0.347285
1.47954
2.10337
1.39213
0.338176
-3.13364
0.561032
-8.59928
1.47977
0.775268
2.02554
0.161742
2.54346
0.292778
2.70476
-0.0605592
2.12057
-0.219028
1.26839
-8.45252
1.60369
0.829538
0.709986
2.47959
1.65611
0.431833
-0.925767
0.979155
1.58561
-0.0483229
-5.52165
1.23011
-0.0825762
2.16879
-0.247252
2.58883
0.435091
3.37845
2.59212
1.26906
1.13866
-9.08734
0.110748
2.76773
-0.280096
-0.0653374
-0.21044
2.69973
0.839654
1.44745
2.28614
-1.08906
1.80613
-0.439653
2.0041
0.0716474
1.9011
1.69821
2.32142
-0.0767601
-6.48201
0.502925
-0.494136
0.803249
0.366967
-0.589134
2.12634
2.43613
0.0260123
0.62975
-0.404928
2.19539
1.38347
1.54801
1.0496
-0.187286
-4.49557
-0.105331
1.71049
-2.56193
-0.00305967
0.0751677
1.20886
0.82067
-0.935564
2.91256
-0.000886071
2.56608
0.573522
2.57692
-0.7199
0.423836
0.0320174
0.0694403
1.41897
1.64631
0.0956081
-0.00550997
-0.0530749
-0.00437351
2.42645
-0.515118
0.0190554
-0.0366523
-0.0193632
0.653474
2.05938
0.844796
0.0433133
0.0350871
1.65788
3.08866
-0.557569
0.0101295
1.64425
0.104106
0.866441
-0.0337979
1.23836
-0.0101027
-2.93737
-0.455884
-0.264009
-0.269283
-0.81492
-3.6095
-1.16487
-0.00219571
1.31245
1.78046
1.46077
3.00552
-11.8302
2.68995
-4.76994
2.55074
-4.32638
-1.224
2.9078
0.702092
-0.484887
1.72251
-0.0750617
1.84869
-0.136741
-5.69395
0.284774
-0.936375
-1.11436
0.00580135
-0.25974
0.683045
2.09266
-3.9904
0.758698
-2.54049
0.458695
-0.0223055
-0.0446826
0.316397
-0.0136675
-2.08442
2.16448
-0.00587355
2.38371
0.65986
-7.21882
0.579587
-1.39768
0.0348928
1.44317
2.09306
2.9999
1.27133
1.41374
0.835552
-4.65208
2.89505
3.10411
1.81857
-1.00112
-0.855472
-9.01899
1.55914
1.13155
0.644477
1.35588
-0.111501
-0.0247932
-13.21
2.4732
0.188447
0.210115
-0.231985
1.63288
0.332913
3.30216
3.09838
1.48636
0.152835
0.488254
-3.79296
0.669859
3.17891
0.197585
0.0347217
1.26335
0.0094497
0.348572
-0.219581
-0.434317
0.365824
0.235862
0.785784
0.0291397
0.545324
2.33784
0.602938
1.76885
-0.306838
-0.53282
2.81461
-3.61217
0.362111
0.513329
0.73693
0.283079
-0.283211
0.434438
0.0509485
0.289535
3.32286
-5.60794
-3.97227
-1.70383
-1.06446
0.166373
0.512503
-0.179753
-3.2974
0.0194181
-3.4998
-1.29336
-1.22942
0.279906
0.0120038
0.168
3.25235
0.177074
0.503498
-0.266934
0.353704
-4.63554
-0.543626
2.2748
1.63726
0.513616
-0.030944
1.5791
1.77391
0.116143
-6.77326
-0.174923
2.26622
-0.967635
1.56206
0.0670308
2.56234
0.164462
-0.397255
0.11412
1.81238
-0.841774
1.48855
-1.10569
3.1532
-0.162831
-0.374544
-11.9058
0.770756
-0.311594
-1.2858
-0.199159
0.191221
0.823092
-1.12614
-0.0460891
-0.162924
0.349785
-1.06711
-1.31362
1.35197
-8.88783
1.46683
-0.250671
1.83411
2.88442
1.58955
-4.78259
1.70696
0.173359
0.374676
-0.186699
-0.591692
-6.09398
-1.05237
-0.602645
0.803227
0.0129038
-1.12777
0.0286599
-7.6309
0.880627
1.69422
-1.74173
-0.358109
-0.559677
0.0237329
-0.040734
1.01839
-3.24841
-0.426099
1.68956
0.013203
1.01448
-1.56104
-9.83331
-6.13819
-11.8362
3.23577
0.565106
-1.15982
0.478059
2.70849
2.82116
-0.500268
-0.45468
1.65495
-0.0231203
-1.34977
2.78612
0.959392
1.5122
3.30492
-0.474765
0.573892
0.271296
2.49467
1.72437
1.75044
2.08024
1.19455
0.0463325
0.0896029
0.794482
0.411045
-5.48278
2.86277
-0.831349
-0.889091
0.0293685
-1.02789
0.855584
-0.251893
-0.497496
0.42607
1.76104
1.79923
1.93397
-7.0395
2.44845
2.789
-4.05054
1.07243
-0.204601
-0.150935
0.362209
0.991226
0.0259227
-0.918739
-1.11703
3.08941
-7.85672
1.94605
1.66879
2.22457
1.29601
1.33212
-0.0281775
0.0397982
1.04444
-0.10464
-11.6165
-2.4262
0.100751
-0.126966
2.06073
-0.963442
-0.000993965
0.362628
-4.59848
-0.317056
-5.56012
1.50024
-0.442776
-0.381175
0.799148
-2.19231
0.629275
-4.59027
-0.202775
1.79445
-8.13086
2.84106
0.0241657
3.01035
0.00468336
-0.268508
0.239315
1.46965
1.44862
-3.08786
-0.228073
-0.31806
0.217777
1.20801
3.3043
2.23168
0.604733
-0.920076
0.922408
0.0409564
1.93664
-0.0757098
1.00111
-0.131011
-0.199663
-4.4977
0.693382
0.0444227
-4.58116
1.11049
1.08654
2.76197
2.94703
-5.51158
-6.12236
0.0969444
-1.51078
2.88167
0.147358
-0.657937
0.749414
1.2198
-0.217335
0.159488
0.152705
-0.0731468
1.56296
-0.156135
0.574112
-0.19462
-1.15038
-2.8468
-0.429201
-2.82868
-2.63127
1.8683
-0.61787
-0.328939
-0.476104
0.124942
3.13151
1.28766
1.56978
-0.497446
0.887951
-0.063591
0.72906
0.526771
-0.178845
-3.86312
2.87354
1.76796
-0.00892001
-5.24287
3.23862
-0.328501
-4.57999
-0.107841
0.903842
-0.378333
-0.187025
2.48623
-0.102458
1.56279
0.691815
-0.103268
0.222972
-1.24442
0.85328
-2.97704
0.0334065
0.537811
1.65191
-0.483063
-5.01691
0.160739
-0.673007
-1.74967
-1.60531
3.04422
1.1131
-5.18346
0.861187
0.447245
2.69641
0.983665
-4.51128
1.05773
2.11144
1.84571
-0.955846
1.48556
-0.0199451
2.85047
0.042247
1.70995
-6.83414
-0.881315
0.027161
-0.17295
1.05372
0.591698
-5.16736
-0.529263
1.9847
0.0282233
-0.118944
2.33483
1.33111
2.27191
1.56369
-1.25187
0.0211986
0.0713328
1.67409
0.00242199
2.08907
1.34603
2.82324
-0.14211
2.21136
0.910585
2.83966
-0.0972325
-1.05316
2.91379
-0.168978
1.32246
-8.4485
2.52582
2.8043
1.80439
-2.59028
1.66118
2.17194
-1.00701
0.74727
-0.381138
2.31831
-0.208651
-0.0235227
-6.24307
-6.46532
2.13217
0.883768
-9.08496
0.904536
2.80327
-0.819736
-0.237972
-6.77374
-1.31302
1.45203
-0.286901
1.59585
1.58
-9.00971
3.13015
-0.102903
2.37852
2.37992
0.0459634
0.00933587
1.50769
-2.34182
-0.369291
1.50061
1.29111
-0.574383
1.58888
-0.0881642
2.44074
1.81016
0.691537
0.151459
1.88255
-0.0968196
1.03599
2.22965
0.370138
0.0251497
2.15909
1.80419
-0.998187
-4.70969
1.32217
1.88794
2.84588
-5.25529
3.00009
2.91399
3.0439
-0.118666
2.09065
-6.18908
1.67148
2.26017
2.18176
1.86851
2.46378
3.30065
1.45883
-5.26825
0.290966
-3.4213
3.26785
0.933288
-0.0177176
-0.307357
1.57755
2.46406
1.5757
0.617176
-0.209357
2.45581
-3.62607
1.80961
-0.360782
0.785224
-0.0312085
0.620881
1.11681
-3.6211
-3.11856
0.00181078
-0.645684
-0.10994
2.04845
-0.33041
0.175361
1.56991
-6.96946
1.10327
0.0264708
-5.6472
-6.82343
-5.03826
2.3563
2.52293
-0.270215
0.649384
2.15329
1.94996
0.0285875
-2.13061
1.84392
-5.50696
2.308
-4.61723
2.24612
1.06834
0.262112
2.08852
1.13202
2.20521
0.651262
0.801376
-0.84177
-4.80623
-11.6697
-0.161772
2.16318
-3.07175
-0.297241
-2.87745
2.37759
2.18641
0.621648
1.27324
2.41853
-2.57868
1.60734
-0.186143
-0.929643
1.59904
-0.416317
-7.85462
-1.49597
-5.49824
-0.496682
-5.8242
-0.189747
-10.3119
-4.71243
1.39199
2.87208
3.12857
2.73218
-3.25332
1.82953
-7.61588
1.55656
2.40134
0.267755
2.12275
-2.6859
0.636582
-0.894056
-0.100963
2.3103
-1.16257
1.9117
-7.47321
-0.413284
-5.57583
1.92686
1.89513
1.66873
-8.72423
1.58955
-0.0572648
-8.01115
-7.04187
0.595136
2.89149
-3.01001
-0.490588
-0.438881
1.61047
1.60329
-0.0976115
1.0633
-9.14835
2.45274
2.21356
-0.241428
-0.336177
2.40045
-0.451437
-11.1632
0.0243774
2.18642
2.46616
-5.41631
1.24017
-0.196792
2.8209
-10.5546
-1.04266
-0.113825
2.65674
0.0112058
-0.811561
-0.0179177
2.29803
1.33373
2.2758
-0.169351
-2.79026
1.87168
3.23538
-4.99594
1.54493
-0.034348
-8.71847
-0.0120743
0.652767
-0.484863
1.2156
-0.0871754
1.11166
-0.119877
-1.18935
2.08132
2.49499
1.57746
-2.18115
-1.06129
1.95988
-8.39947
0.686324
-0.930113
0.862602
-12.3787
1.80718
1.96272
-0.0590384
1.84979
2.7941
-0.343449
1.40453
1.89742
-6.25303
1.04439
-0.649434
0.859874
0.685166
1.32563
0.00684428
0.614722
-0.369319
-3.27015
2.34993
0.744529
0.328643
-0.549156
-0.343497
1.72856
-10.7234
3.03244
-7.70845
-5.52182
0.0120897
2.1265
1.91023
2.24996
-3.3787
2.69266
-4.86972
1.36861
0.0329813
-6.47461
1.54817
0.797394
-0.425498
1.17587
-3.94423
1.36353
-5.55764
-0.520027
0.0094353
-3.84996
-4.66059
1.5234
2.75628
-1.33176
-6.74874
2.15888
-3.18026
2.51367
0.845582
0.065886
0.951057
1.68165
0.904358
-0.0529323
0.169025
-0.0197356
0.443669
0.638086
-7.79613
-0.479617
0.0829154
1.05505
-0.185051
3.27818
1.82207
1.66315
2.54166
0.299934
1.86551
-2.44807
-3.40064
-0.841641
1.67743
3.20454
1.56335
-1.16592
2.35109
1.61156
1.63109
-0.348185
-0.0497024
0.918153
3.04849
0.14267
-1.18535
2.21424
2.39992
1.79289
1.65778
2.0382
1.19055
-0.0778619
-1.88593
1.84704
-5.16551
-4.66762
1.61144
-1.15418
0.128631
0.633317
1.83816
1.90537
1.92747
-0.126865
2.24385
2.29723
0.399576
2.02425
1.76808
1.38866
1.28229
1.19069
0.888115
-0.101896
2.12738
2.01173
0.0764941
1.55626
-0.148281
0.0164766
2.73213
2.08563
0.0126295
-4.56624
0.167872
2.14733
1.23821
0.386144
-0.0332741
0.198725
-0.434473
0.316246
-0.999983
-0.269851
1.28307
-0.275884
-3.6944
-9.03794
2.59024
-0.450799
-4.33116
-1.41748
2.76467
-0.207027
0.433855
0.364983
-7.82707
1.32785
1.56853
1.09805
2.44798
1.34651
0.0411645
-4.03414
-3.62245
0.0283183
1.93495
0.127107
-6.33408
-10.1311
-0.521037
-4.22672
-1.02209
-3.78334
-0.335402
0.646634
1.64541
2.18979
-0.423423
-0.143156
2.456
1.85741
-5.00579
-0.202864
-3.45053
1.05951
0.0588172
0.946157
1.42791
0.0389514
-0.248865
-0.331868
0.473094
-4.18077
-4.76711
0.117893
-2.134
-5.47899
-8.89888
-2.59717
0.142521
-2.95704
0.882724
-6.40233
1.64835
1.48436
0.492361
2.15151
-5.15977
2.7746
-0.983534
0.105286
-1.40982
1.65869
1.0327
-4.67229
-2.92046
1.7019
2.0162
2.87375
-5.59215
-5.50663
-3.67674
-0.296861
0.00931746
-8.21381
0.68019
-6.50347
1.00469
-7.07735
1.32685
0.250167
-0.148838
2.51271
1.49486
-1.15344
-0.00537667
-1.99081
-5.4155
2.15995
3.13396
-5.13534
2.06512
1.56661
0.00311418
-0.0532277
2.09538
2.01057
-4.16248
-0.182653
-0.978266
-4.86998
-1.31082
-8.20521
-1.16573
1.11899
-0.086375
1.83896
-9.08389
-9.39651
1.56366
-1.19388
-6.53221
0.111525
1.28738
-6.83413
-0.71364
-9.41726
-7.53135
-6.27325
2.91623
-3.12595
-0.274656
-7.62125
1.8189
-5.8362
-0.0860245
-3.42208
-12.3001
-0.88411
1.90215
0.0121068
-7.70963
1.45632
0.0156858
-0.904617
-6.39874
-9.87497
1.22785
1.39739
1.67279
-4.41706
2.50605
-0.636965
0.00420718
0.0371083
-2.6203
-2.29571
-8.89236
-2.65411
0.413903
0.730194
-0.299344
-0.340079
-1.57841
1.58606
-10.1579
1.75017
-7.37907
1.06959
-0.482895
-0.00485021
0.0323133
3.19829
-0.132442
-7.19128
-4.06183
-1.47637
1.67336
-0.127791
0.0495643
0.0625698
-9.70563
-5.03615
-4.68942
-7.45097
1.85058
-12.6354
0.247493
-9.29578
-0.0651648
1.45912
0.0572025
0.803308
-0.634204
2.2078
-5.4814
-1.45866
2.3596
0.708983
-5.6065
-0.352189
-6.19581
-1.476
-0.451801
2.15289
-0.575895
0.738439
-5.49533
-5.04943
-13.2777
-12.8236
-4.2524
1.04988
-0.303979
1.64212
0.661689
-6.78205
-0.584901
-3.22074
2.05542
2.48576
-7.75902
0.137315
1.78054
1.64659
1.35736
-2.01258
-3.47126
-3.39437
1.68358
0.504134
-1.62251
-8.52304
0.999844
1.98244
-0.2691
0.101962
0.0974586
2.33109
-1.81163
-1.95509
-0.00154031
1.44498
0.15395
0.0157178
2.52146
2.07077
-0.216145
-2.8052
2.12741
0.850259
-0.0986561
1.57956
-0.682154
-2.8511
-4.1583
-2.64328
2.02916
1.80791
-0.221259
-0.944408
-0.0377072
0.0595189
1.84283
-2.95682
1.31212
2.22258
2.37661
-0.375739
1.6637
1.50216
1.87817
1.9862
-0.172674
1.99629
0.00650677
1.67174
0.945269
1.80551
-3.33997
2.09565
2.00705
1.50937
1.11606
-1.25832
1.21482
0.0596324
-1.19032
2.275
2.22279
-1.9417
1.86036
-2.4501
-5.16143
1.81997
1.80622
-3.06246
-0.116482
-5.48149
-2.59312
-1.35703
-0.342434
-3.34179
-0.420994
1.53847
3.00668
2.12318
-0.469126
-0.142659
1.79593
0.900828
-0.0373556
-2.90232
-0.998939
-1.91356
-4.92784
-4.83281
1.5984
-0.083018
0.851278
0.036052
0.0332682
-0.0113961
0.0383655
0.423887
0.909151
1.1457
-0.935069
0.871911
-2.98783
-8.79755
1.18062
0.938706
-0.162843
0.135779
1.12801
-0.0718012
0.676722
-0.957291
1.64697
1.39716
2.66145
1.67272
-1.98232
-0.425452
-0.944035
-0.890895
-0.0269325
0.00873413
-0.293782
-1.98789
3.06345
0.125197
0.0778134
2.4795
-0.491153
-0.99792
-0.0457615
-3.46845
-4.1101
0.57557
-1.56329
1.65394
-0.365144
-1.75624
0.0614375
-0.477148
-1.27829
-0.0484219
-0.706037
1.31376
-0.18237
-0.353938
-1.69173
0.688237
-1.56719
1.79479
2.54381
-0.838431
1.82995
0.987212
1.2263
2.79592
-0.751105
1.03464
0.906385
0.791225
2.40576
-0.431113
-0.292999
-0.0645384
1.76943
2.54118
-0.630924
-0.14139
-1.81192
-1.39381
0.883212
-1.40902
-2.68627
-0.976126
0.687868
-5.51464
0.391101
0.578689
1.46768
0.299094
-5.229
-0.3159
-0.0538306
-0.218399
2.70673
3.02443
2.26159
3.17073
1.49091
0.77438
1.90891
1.66563
1.53287
-1.56324
1.72285
-0.405852
-4.81195
2.47694
-0.385003
-1.52115
2.89258
0.0565383
-6.01287
0.913735
0.790811
2.03418
-4.92341
1.55117
2.65804
-0.558978
-5.12101
-2.17942
1.19928
-7.07127
2.16578
-0.163696
2.03914
1.66405
-0.368597
1.96547
-0.864367
-4.69454
-5.10039
-1.34811
2.03811
-1.52757
1.72106
-0.0849414
-8.23557
-0.202105
-0.0476921
-1.56883
-1.16011
-4.5741
2.06577
0.36301
-5.95586
-0.657875
1.09475
0.455474
-2.55413
0.832743
-0.113349
0.858126
-6.33753
0.994923
0.466602