/*--------------------------------*- C++ -*----------------------------------*\
| =========                 |                                                 |
| \\      /  F ield         | OpenFOAM: The Open Source CFD Toolbox           |
|  \\    /   O peration     | Version:  2306                                  |
|   \\  /    A nd           | Website:  www.openfoam.com                      |
|    \\/     M anipulation  |                                                 |
\*---------------------------------------------------------------------------*/
FoamFile
{
    version     2.0;
    format      ascii;
    arch        "LSB;label=32;scalar=64";
    class       surfaceScalarField;
    location    "5";
    object      phi;
}
// * * * * * * * * * * * * * * * * * * * * * * * * * * * * * * * * * * * * * //

dimensions      [0 3 -1 0 0 0 0];

oriented        oriented;

internalField   nonuniform List<scalar> 
20045
(
0.249024
-0.268104
0.0190795
-0.537051
0.191073
0.345978
0.179626
0.924211
-1.10384
0.0499648
-0.0632542
0.0132894
-0.421261
0.411813
0.00944728
-0.289809
1.1103
-0.82049
-0.512677
0.223595
0.289082
0.0338078
0.217362
-0.25117
0.237073
0.209874
-0.446948
-0.416763
-0.0533718
0.470135
0.105342
-0.183024
0.0776821
1.14053
-0.550571
-0.589963
0.178794
-0.180413
0.00161944
-0.649019
0.546209
0.102811
-0.165604
0.534587
-0.368983
-0.547522
0.13076
0.0145268
-0.0432606
0.0287338
0.424863
-0.32009
-0.104773
-0.845712
1.24176
-0.396053
-0.381793
0.0308714
0.350921
0.134595
-0.132384
-0.00221135
0.0604286
0.118365
-0.065634
-0.471417
0.279941
0.51678
-0.796721
0.415062
0.104347
-0.51941
-0.542579
0.82252
-0.283031
0.319559
-0.0365275
-0.610921
1.16835
-0.557433
0.876208
0.121003
-0.997211
-1.12276
0.623774
0.498984
-0.0871754
-0.118115
0.205291
0.719767
-0.506383
-0.213385
-0.420518
0.79968
-0.379162
1.14375
-0.664171
-0.479576
-0.27988
0.313688
1.08098
-0.531734
-0.549249
0.732792
0.0957073
-0.8285
-0.0303543
0.185957
-0.155602
-0.954205
0.380359
0.573846
0.299758
0.258956
-0.558714
0.0264752
0.197092
-0.223567
0.0646276
-0.0931406
0.028513
1.07231
-1.07266
0.000346539
0.745754
-0.273953
-0.471801
0.344173
0.401581
0.522339
0.618195
-0.146629
0.393444
-0.246815
0.635079
0.280336
-0.915415
0.912162
-0.179369
0.0745927
0.940865
-1.01546
0.649593
-1.09998
0.450385
0.891237
-0.658924
-0.232313
-0.604038
-0.433578
1.03762
-0.0443319
-0.152567
0.196899
0.413924
-0.104992
-0.308932
-0.348747
-0.0725137
0.00613431
0.771356
-0.777491
0.798961
0.0448807
-0.843842
0.4626
-0.883118
1.05167
-0.685577
-0.366089
0.179971
-0.104707
-0.0752637
0.447347
0.604318
0.312083
-0.92617
0.614088
0.127038
0.00755741
0.433893
0.0172494
-0.451143
0.830498
0.0952332
-0.925732
-0.0108001
0.0585264
-0.0477263
-0.336679
0.0878075
0.248872
0.425051
-0.187978
0.892221
-0.906535
0.0143144
-0.0329276
0.0221275
-0.0539652
0.467889
-0.120907
-0.52652
0.647427
-0.0281749
-0.0906559
0.118831
0.919345
-0.181524
-0.737821
0.690121
-0.683987
-0.0040411
0.923386
0.217145
-0.382749
-0.160411
-0.238846
0.399257
0.208102
-0.596425
0.388323
0.518789
0.608605
-1.12739
0.45108
-0.350719
-0.10036
0.801558
-0.489476
-1.24106
0.235528
1.00553
0.0113184
0.237706
-0.277682
0.315473
-0.037791
0.11799
-0.544633
0.426643
-0.803464
0.0355685
0.767896
0.518576
0.0762658
-0.594842
-0.430334
0.394064
0.0362696
-0.720908
-0.113914
0.834822
0.36355
-0.0630858
-0.300464
0.202773
-0.288853
0.0860805
-0.0807156
-0.407764
0.488479
0.296646
-0.314898
0.0182523
0.753539
0.195622
-0.949161
-0.290763
0.00773205
-0.035841
-0.0308731
0.0667141
0.609578
-0.30982
0.0678674
-0.00946132
-0.0584061
0.72755
0.353433
-0.241817
-0.407203
-0.0947438
0.0589028
-0.141458
0.94042
-0.000690764
-0.276992
-0.0906275
0.158495
0.229062
0.603032
-0.832094
0.569477
-0.865149
0.295672
-0.30704
-0.208297
0.181786
0.0265114
-0.0984149
0.125678
-0.0272627
0.622778
-0.457084
-0.165694
-0.247347
0.203015
0.658028
-1.09165
0.433622
-0.0832311
0.158333
-0.0751016
0.0226711
-0.122075
0.0994035
0.581177
-0.166115
0.836436
0.30731
-0.582429
0.461522
0.698883
-0.99412
0.295237
0.281562
0.143301
0.00214177
0.177829
-0.389651
0.317329
0.0723217
-0.384728
0.0485432
-0.293788
0.245244
0.642817
0.24842
0.561696
-0.715255
0.153559
0.814512
0.0886983
-0.90321
-0.988228
0.753744
0.234483
-0.136709
-0.405721
0.54243
0.945419
-0.302602
0.0558896
0.337554
0.0450022
-0.0637025
0.0187003
-0.0601551
0.0377357
0.0224194
0.568979
0.403046
-0.972025
0.599453
-0.579069
-0.0203845
-0.178815
0.109487
0.0693279
-0.149398
-0.0588989
1.1156
-0.416715
-0.325692
0.347622
-0.0219301
0.637862
-1.09513
0.457266
0.180467
-0.784506
0.571907
0.225468
-0.797375
0.656425
-0.448323
0.971794
-0.12988
-0.841914
0.36537
-0.959113
0.593743
1.31365
-0.84709
-0.466564
-0.130474
0.239226
-0.108752
-0.00471086
1.03802
-1.03331
1.07566
-0.199452
-0.82595
0.0269465
0.799003
-0.47736
0.418797
0.0585626
1.01578
-0.496991
0.167586
0.283493
-0.637286
0.778444
-0.141158
-0.76503
0.944655
0.0108007
-0.152148
0.141347
0.0285607
-0.0366035
0.00804281
-0.0157191
-0.188404
0.204123
0.991523
-0.194365
-0.797158
1.31392
-0.649094
-0.664831
-0.221693
0.205974
0.332907
-0.655287
0.322379
0.0760556
-0.0114279
-0.800382
-0.485643
0.68665
-0.201007
-0.676156
0.501627
0.174529
-0.0128366
-0.0228564
0.0356931
0.492295
0.821359
-0.044277
-0.0158781
-0.00269962
0.0477018
-0.70918
0.0718938
-0.733046
0.932296
-0.199251
-0.658638
0.759883
-0.101245
-0.602449
-0.427859
1.03031
-0.276366
0.0219821
0.254384
0.452037
-0.480677
0.0286403
0.880143
0.092583
-0.972726
0.0155708
-0.758084
0.742513
-0.362474
0.934381
0.19486
-0.544557
0.349697
-0.424262
1.08229
-0.83303
0.542789
0.290241
0.165298
-0.209243
0.0439449
0.425128
-1.2091
0.783972
-0.933696
0.322776
-0.618719
-0.410983
1.05713
-0.644665
-0.412462
-0.266533
0.293009
0.122916
-0.129899
0.00698322
-0.77645
-0.169376
0.945826
-0.824438
1.15962
-0.335185
0.910744
-0.645344
-0.2654
0.0863566
-0.253
0.166644
-0.243466
-0.476203
0.719669
0.204746
-0.0994045
-0.466348
0.329639
-0.666689
-0.221031
0.88772
0.0890902
0.0247778
-0.113868
0.121274
-0.606917
0.108704
-0.195879
0.870619
-0.0561072
-0.139448
0.109094
-0.129025
0.157058
-0.028033
0.000196828
0.991326
-0.768368
0.524902
0.292709
-0.011644
-0.281065
-0.698168
0.130702
0.567466
0.308868
0.601875
1.25891
-0.833778
0.723224
-1.21628
0.493057
0.207388
-0.763908
0.556521
0.0261987
-0.407991
-0.485151
0.714214
0.663319
-0.953128
0.306594
-0.719443
0.412849
-1.22257
0.693147
0.529426
-0.0202167
-0.410117
0.180235
0.139162
-0.319398
0.720393
-0.217678
-0.502716
0.00506548
-0.720251
0.71554
-0.254158
-0.071534
0.647235
1.08499
-0.88186
-0.203126
-0.0107336
-0.127387
0.138121
0.680909
0.10217
-0.783079
0.203802
-0.00218525
-0.201617
-0.138311
0.653845
-0.515534
-0.401628
0.519618
0.566276
-0.371416
-0.0537533
0.147909
-0.0941552
0.917933
-0.280071
0.0895854
-0.00803068
-0.0815547
0.134775
-0.026809
-0.107966
-0.103626
0.107373
-0.00374708
1.04574
-0.669207
-0.376536
0.238768
-1.06321
-0.113144
0.0095186
-0.877297
0.285553
0.591744
1.14319
-0.343514
0.248379
-0.981425
1.28217
-0.586851
-0.695316
-0.0117371
0.100827
0.809032
-0.344651
-0.46438
-0.611427
0.14169
0.469737
-0.960373
0.961877
-0.00150432
0.279707
-0.831044
0.551336
-0.00850608
-0.0530149
0.061521
-0.471999
0.631936
-0.159937
-0.128543
0.107589
0.0209537
-0.143578
0.0603472
-0.114214
0.0157994
-0.582252
-0.282897
0.423454
-0.768315
0.344861
0.407362
-0.147794
-0.259569
0.407104
0.312663
0.643501
-0.336907
0.0115583
0.0170024
0.683703
0.459492
-0.489496
0.00977317
0.479723
0.249788
0.559244
0.381815
0.152772
0.202325
0.205037
-0.285437
-0.0195857
0.305023
-0.0602828
0.225581
-0.693389
0.555078
-0.17874
0.212161
-0.0334207
-0.912767
0.873935
0.0388318
-0.363077
0.586424
-0.223347
-0.218816
-0.10863
0.327446
0.765271
-0.828911
0.0636402
-0.742681
-0.479891
1.3046
-0.836282
-0.468316
-0.093296
0.0825624
0.925314
-0.645607
-0.371193
0.794647
-0.122313
-0.228123
0.350435
0.800324
-0.139274
-0.66105
1.33073
-0.383096
-0.947631
-0.389075
0.266763
0.827343
-0.48478
-0.342563
-0.159984
0.783783
-0.6238
0.672269
-0.8932
0.220931
0.255717
-0.190419
-0.0652977
0.355522
-0.131791
-0.223731
1.23008
-0.990809
-0.239269
-0.524812
-0.463416
0.731162
0.353824
-0.834569
-0.0781982
0.00383958
0.130936
0.118763
-0.736356
0.617593
0.00398876
0.118927
-0.540223
1.1092
0.39635
0.649393
1.15047
-0.706847
-0.443619
-0.756284
0.535254
0.74446
-1.21939
0.474925
-0.626488
-0.0395832
0.666071
-0.230179
-0.177735
0.407914
0.535513
-0.202606
0.0485986
0.24411
0.483636
-0.0266903
-0.479692
-0.707433
0.973104
-0.265671
-0.147957
0.0189321
-0.0571754
0.0034221
0.115571
-1.07594
0.24645
-0.648078
0.135712
-0.212532
0.296332
-0.0837992
-0.00114935
0.0511141
-0.512208
0.374317
0.137891
0.35138
0.271398
-0.229817
0.605414
-0.375597
0.492556
0.106897
-0.642009
0.760772
0.572563
-0.0539867
-0.201683
-0.496485
0.987754
-0.740334
-0.24742
0.926206
-0.849991
0.246034
0.603957
0.798329
-0.863678
0.0653491
-0.434845
0.354129
-0.112058
-0.0667573
-0.11467
-0.606238
0.281708
-0.54178
0.260072
0.419623
0.40772
0.748265
-1.15149
0.403226
0.222783
-0.53561
0.312827
-0.971601
0.168137
0.00956051
0.353989
-0.569334
0.878427
-0.309093
-0.255554
0.306662
-0.0511079
-0.404505
-0.108172
-0.128673
-0.223523
0.352196
0.0819253
0.000877744
-0.082803
-0.331694
-0.145666
0.374803
0.447222
-0.822025
0.762366
-0.512578
0.294365
-0.447969
0.0131244
0.462026
-0.239243
-0.665446
-0.167583
0.0662749
-0.193951
0.127677
0.97868
-0.343601
-0.452345
0.747428
-0.295084
-0.114888
0.133393
-0.0185046
0.747337
-0.0269438
-0.172995
-0.563361
-0.498178
0.921232
-0.423055
0.660543
-1.15312
0.492582
0.58665
0.717948
0.281638
-0.282418
0.000779975
0.0875507
-0.714038
0.683403
-1.03577
0.352363
0.102949
-0.131124
-0.0712729
0.632969
-0.288724
0.535174
-0.551672
0.75906
0.189681
-1.03539
-0.897063
0.485081
0.411982
0.638097
-0.0998381
-0.538259
0.935383
-0.170112
-0.429611
-0.534967
-0.481283
0.48126
-0.284499
0.0383704
0.246129
0.321806
-0.290935
-0.710394
0.639121
0.846787
0.225526
-0.783879
0.331534
1.07264
-0.341475
0.0680978
0.0866007
-0.154698
0.00603416
-0.618221
0.612187
-0.902404
0.170005
0.7324
0.726678
-0.726678
-0.218463
0.782107
-0.563644
0.46459
-0.694407
0.678285
-0.401081
-0.277204
-0.93704
0.969118
-0.032078
0.337695
-0.0461802
-0.291515
0.259441
-0.110151
-0.14929
0.107593
-0.326409
-0.22861
0.459694
-0.830887
-0.852536
1.00936
-0.156823
-0.284861
0.659664
0.0810785
-0.00161795
-0.0794606
-0.102762
0.168659
-0.0658972
-0.37998
0.406178
1.0918
-0.887018
-0.204786
-0.0876324
-0.525124
0.612756
-0.229637
0.249356
-0.0197196
0.118264
-0.275956
0.157693
-1.03766
0.41891
0.618752
-0.0483525
-0.0149017
-0.037415
0.105513
0.00693511
-0.063873
0.0569379
0.540769
0.689309
0.0607656
0.0203129
-0.0525235
-0.290139
0.342663
-0.498231
0.794017
-0.295786
-0.00601158
0.0744208
-0.0684093
0.433698
-0.210103
0.861389
-0.353887
-0.507502
0.00559407
-0.413358
0.0734089
0.806734
0.423286
0.301896
-0.725182
0.462936
-0.411644
-0.0512919
-1.01234
0.186387
-0.433613
0.185726
0.247888
0.442272
0.562326
-1.0046
-0.627302
0.587718
0.0444375
-0.913387
0.86895
-0.123346
0.209703
0.15414
-0.197343
0.0432029
0.0204609
-0.305898
0.107228
-0.084346
-0.0228819
-0.673785
-0.203512
0.618602
0.0927292
0.0174619
-0.110191
-0.120092
0.00520343
0.16811
-0.707952
0.539842
0.208937
0.548575
-0.757512
0.35028
-0.716516
0.868378
-0.151863
-0.717756
0.557773
0.186556
0.133003
-0.401173
-0.274983
-0.253745
0.0658255
0.187919
-0.862589
0.364358
0.667117
-0.754749
0.427565
0.645072
-0.297519
0.302803
-0.00528377
0.378552
-0.918399
0.539847
0.142003
-0.261774
0.119772
0.544208
-0.717203
-0.640575
-0.0180625
-0.303038
-0.0336412
0.0284592
0.162757
-0.191216
0.349122
-0.0112361
-0.025118
0.0363541
0.939586
-0.497314
-0.504283
0.490813
0.0134701
0.261198
0.176868
-0.438066
-0.366013
0.242666
-0.211698
-0.0420467
0.395995
0.282291
-0.239148
-0.754972
0.247752
-0.181477
0.615331
0.405697
0.166867
-0.890855
0.965448
0.0985311
-0.462375
0.363844
-0.0853064
-0.828364
0.91367
-0.0591232
0.0520308
0.0070924
0.0980834
-0.37445
-0.250154
0.922424
0.980357
-0.614988
-0.428883
-0.0833255
0.0136722
-0.411275
0.397603
0.405957
-1.00841
-0.114801
-0.47837
0.593171
0.015569
-0.101218
0.0856493
-0.652717
0.0538172
0.598899
0.959556
-0.67922
-0.0185948
0.0813357
-0.0627409
-0.211929
-0.0177078
0.176774
0.357377
-0.534151
0.0953564
-0.120882
0.0255254
0.635818
0.363996
-0.999813
-0.395585
1.14912
0.0794699
0.00245537
-0.262168
-0.56231
0.824478
0.382883
0.732715
0.913823
-0.704886
-0.349465
0.220793
0.187159
0.168364
-0.439337
1.1838
0.137498
-0.768013
0.630515
0.930683
-0.144928
-0.785755
-0.459218
0.709111
-0.249893
0.397302
-0.398341
-0.463657
0.861998
0.0584147
-0.0575995
-0.000815196
-0.285777
-0.484447
0.770225
0.0549561
-0.157718
0.0290346
-0.0418712
0.505483
-0.791261
-0.707293
-0.206127
0.91342
-0.0653423
-0.476502
0.541845
0.224307
1.17212
-1.19645
0.0243299
0.208076
-0.152249
-0.0558268
0.00881292
-0.306332
0.25944
0.229039
-0.314238
0.0840591
-0.813929
1.01987
-0.205936
-0.0170162
-0.161724
0.323166
0.333259
-0.830417
-0.242243
-0.123429
0.293057
-0.169628
0.533571
-0.127875
-0.194427
0.214618
-0.0201906
-0.0601408
-0.0684018
-1.17282
0.554097
0.931706
0.178593
-0.130741
0.249004
-0.197422
0.45862
0.816037
-0.356343
-0.202249
0.00782194
-0.0963341
-0.61406
0.227433
0.205391
-0.19459
-0.918334
0.0159297
0.104528
0.206028
-0.0640258
-0.989913
0.641078
0.348836
0.749877
0.142343
0.183865
-0.0597433
-0.124122
0.275545
-0.258834
-0.0167111
-0.824234
0.2925
-1.02347
0.52529
-0.184699
0.196764
-0.0120649
-0.0267211
0.0362982
-0.00957709
1.03488
-0.00186556
-1.03301
0.140003
0.00775784
-0.147761
-0.1333
-0.25635
0.222346
-0.0195738
0.22718
-0.237069
0.00988864
0.384886
-0.0606848
-0.324202
-0.0334838
0.260664
0.847144
-0.651522
-0.0282245
-0.140498
0.168722
-1.01568
0.201753
-0.0551033
-0.0459463
-0.0487976
-0.0775893
0.170319
0.0104858
0.00107244
0.244168
0.153411
-0.397579
0.431368
0.00252548
0.436742
-0.338211
0.188852
-0.166181
0.0641395
-0.319693
0.624726
-0.0331758
-0.59155
0.533199
-0.0327501
-0.500449
-0.663281
-0.295832
0.0223026
-0.163378
0.141076
0.396623
-0.445029
0.048406
1.1116
-0.0401906
-1.0714
-0.119349
-0.175642
0.294991
-0.493972
0.652363
-0.158391
0.524233
0.647465
-1.1717
-0.225994
0.121287
-0.262
0.427157
-0.165158
0.212258
0.0927084
-0.304966
-1.00405
0.501411
0.502638
-0.220567
-0.0165017
-0.843027
0.135734
0.297305
-0.183793
-0.113512
0.481242
-0.615657
0.134415
-0.0792568
-0.188847
0.181272
0.990849
0.820517
-0.134271
-0.686246
-0.844357
0.127842
0.339818
-0.541501
0.694303
-1.10522
0.410919
-0.0971539
0.277389
-0.0091253
-0.393056
0.340533
-0.159284
0.207827
-0.117154
-0.768445
0.885598
0.391024
0.534291
-0.743228
0.773364
-0.0301361
-0.0844508
0.11291
-0.632735
-0.25842
-0.111163
0.124263
-0.0131
0.226316
-0.312322
0.0860062
0.0349188
0.00532652
-0.0402453
-0.0770511
0.558293
-0.794386
-0.107322
0.901708
-0.725359
-0.243408
0.968767
0.476772
-0.354265
-0.122506
-0.163864
0.0190728
0.144791
-0.253232
-0.101515
0.354747
-1.0057
0.0413963
0.964302
0.0258886
0.18235
-0.208239
0.805215
-0.903328
0.0981124
-0.515974
0.655225
0.0491933
-0.704418
0.0111694
-0.122333
-0.189989
-0.445451
0.635441
0.61926
-1.04352
-0.948533
0.823106
0.125427
0.110699
-0.0153423
0.665933
-0.342767
-0.051877
-0.250376
0.302253
-0.00808992
0.121258
-0.113168
-0.262694
0.949436
-0.686742
0.623333
-0.130641
-0.492692
1.03478
-0.978697
-0.0560799
0.798009
-0.321997
-0.476012
0.0432726
-0.219321
0.176049
-0.284799
-0.00898819
-0.928754
0.820617
0.108137
0.0554419
-0.984196
-0.338674
0.58714
-0.248466
-0.587605
-0.403204
0.18036
-0.158529
-0.0218317
-0.795015
-0.220667
-0.172055
0.113303
0.0587526
0.217898
-0.0140958
-0.893276
0.8564
0.0368759
-0.188416
-0.138735
0.0480794
0.151024
-0.0110208
-0.602895
0.130896
0.123973
-0.151889
0.0279156
-0.53946
0.347234
0.192226
0.353254
-0.0155588
-0.253902
0.659273
0.088064
0.357983
0.0727143
0.258917
-0.331631
-0.106323
0.55836
-0.604191
0.388077
0.216114
-0.2148
-0.00576762
0.912217
-0.521193
0.777686
-0.399134
-0.236486
-0.167115
0.403602
0.36625
-0.806624
0.440374
0.544625
-0.609967
0.987683
-0.432333
-0.55535
-0.00355524
-0.50837
-0.0958206
-0.836859
0.971658
-0.134798
0.108903
-0.284539
1.00776
-1.0642
0.269182
0.135768
0.119949
-0.10636
-0.214057
0.110343
-0.00297049
-0.493065
-0.519017
1.18428
-0.494163
0.252615
0.0610738
-0.313689
0.0641532
0.195287
-0.668313
-0.370285
1.0386
0.1994
0.336113
-0.00378885
-0.134188
0.137977
0.819598
-0.112995
-0.0721218
0.185117
0.605479
0.0192471
-0.360593
-1.02606
0.17352
-0.202129
0.0089312
0.193197
0.568783
0.713384
0.304179
-0.0130108
-0.291168
0.979292
0.0554843
0.59424
-0.841676
0.247436
-0.831361
-0.00870828
0.840069
-0.756684
0.980556
-0.223872
0.129237
-0.00511862
-0.124118
-0.407735
1.027
-0.147304
0.244411
-0.0971068
0.0222485
-0.765476
0.145258
-0.0382408
-0.107018
-0.941389
1.22074
-0.279347
-0.241288
0.533085
-0.291797
1.16195
-0.511027
-0.650922
-0.00261838
-0.597539
0.600157
-0.187368
-0.00997508
-0.509855
1.03409
0.530585
-0.749048
1.129
-0.468455
-0.17551
0.147285
-0.866888
0.0355269
1.22455
-0.476284
-0.027573
-1.21349
0.21928
-0.022189
0.282933
0.523045
-0.805978
0.547329
-0.121774
-0.425556
0.728919
-0.976253
0.247334
-0.122448
0.00928722
0.113161
-0.196751
-0.471689
0.66844
0.343253
-0.279113
-0.441763
0.16936
0.272402
0.133873
0.285728
-0.419601
0.0761166
0.104244
-0.866704
1.01411
-0.147401
-0.0251594
-0.0339638
0.451066
0.192379
-0.643445
0.538899
0.419021
-0.95792
0.15129
0.486808
-0.0184811
0.990275
0.00320399
0.783254
-0.786458
0.000427639
-0.00643922
0.0315501
0.0577585
-0.0893086
0.768726
-0.732139
-0.0365873
0.446898
0.540785
-0.0568619
0.0446225
0.0122393
-0.284093
0.803979
-0.519885
0.0141571
0.144125
-0.158282
0.412037
-0.757746
0.345709
-0.581224
-0.376456
0.95768
0.822438
-0.141529
0.299371
0.247959
-0.448624
-0.117762
0.566386
0.284914
-0.810038
-0.290539
0.194421
0.0961179
0.179045
-0.0790082
-0.100037
-0.0442054
-0.143162
-0.0722566
0.644957
-0.572701
-0.130975
1.07184
0.769671
-0.621291
-0.14838
0.621072
-0.544806
-0.525262
0.160609
0.364654
0.0677383
-0.46882
-0.13579
0.113834
0.0219568
0.0554618
0.128403
0.137354
0.735144
-0.872498
0.20277
0.182116
0.120156
-0.845515
-0.417954
0.172697
0.245257
-0.312438
-0.238829
0.551266
0.466813
-0.222645
-0.841834
0.556973
0.293522
-0.240078
-0.0534436
-0.468055
0.788881
-0.320826
-0.429234
0.434829
-0.425047
0.551136
-0.126088
-0.596893
0.869441
-0.272548
-0.0204189
0.192288
-0.171869
-0.0241312
-0.00258994
-0.307407
-0.611132
0.919574
-0.308442
-0.542623
0.673325
0.498794
-0.502287
0.00349355
0.0853681
-0.207042
0.121674
-1.20055
0.853709
0.346837
-0.0399647
0.14917
-0.109205
-0.00875279
0.653277
-0.915971
0.75203
-0.38578
-0.371725
-0.525339
-0.696389
0.699593
0.500174
0.00145298
0.380066
0.141063
-0.521129
-0.316799
0.294323
0.0224755
0.266548
-0.233076
-0.0334722
0.0463559
-0.395994
0.349638
-0.210149
0.514021
-0.303872
-0.762458
-0.224618
0.987076
0.171437
-0.0860685
0.64613
0.122596
-0.827012
0.646242
0.18077
0.415483
-0.32425
-0.0912326
0.00322931
0.166296
-0.216292
0.0499968
-0.654778
-0.408351
0.454707
0.125448
0.188755
-0.145482
0.294669
-0.0683534
0.116508
-0.522229
0.0303326
0.266313
-0.180329
0.221568
-0.0412384
-0.584458
-0.455622
1.04008
-0.0642214
-0.384403
-0.511543
-0.0887683
0.600311
0.129997
0.171288
-0.301285
0.00155284
1.13107
-0.738511
-0.392561
0.169207
0.651309
0.0599802
0.405906
-0.410001
0.00409426
-0.338901
0.856844
-0.517943
-0.571434
-0.238381
0.809815
-0.439745
0.177745
-0.411367
-0.113896
0.916667
-0.43418
-0.482487
-0.0231503
-0.148014
0.171164
0.385757
0.0497585
-0.435515
-0.156342
0.182231
0.248418
-0.244716
-0.00370251
0.267689
-0.0214977
-0.200195
-0.00680633
0.496118
0.420549
-0.435947
0.816306
-0.355665
0.979439
-0.132583
0.109433
-0.850572
0.279139
0.712739
-0.625188
-0.0959388
-0.611164
0.117192
0.215149
-0.553823
0.710559
-0.704525
0.815491
-0.0171624
-0.187148
-0.101705
-0.285128
-0.0740361
0.359164
-0.28451
-0.0303882
0.716103
0.143636
-0.859739
0.0341912
-0.246461
0.21227
0.008651
0.282693
-0.856814
0.574121
0.868475
-0.0632595
-0.914734
0.955402
-0.0406687
0.207896
-0.120089
-1.07505
-0.125497
-0.337005
0.852055
-0.0314382
0.347981
1.12772
-0.418465
-0.709253
-0.622738
-0.0512515
0.67399
0.164429
0.515708
-0.680137
-0.683437
0.0307202
-0.165325
-0.146886
0.312212
-0.46359
0.601088
0.132773
0.511792
-0.644565
-0.453722
0.33949
0.114232
-0.937963
0.0952879
0.842675
0.25736
0.494671
-0.21875
0.546021
0.251987
-0.300352
-0.133261
0.744831
-0.874711
-0.203598
-0.374535
0.578133
-0.221706
-0.00428821
0.666692
0.045283
-0.711975
0.641633
-0.997298
0.0173161
-0.0258221
-0.589659
0.77391
-0.18425
-0.618517
0.428528
-0.0139441
0.262898
-0.248954
-0.206475
-0.0356536
0.242128
0.302991
-0.204907
-0.239411
0.579229
0.0144437
-0.199143
-0.140739
0.151908
0.247429
-0.249614
-0.0517933
-0.00122165
-0.172579
0.166687
0.00589219
0.188773
-0.212842
0.0240698
-0.701432
0.519908
0.12227
-0.633813
-0.0103111
-0.256222
0.0239456
0.539258
-0.563204
0.306523
-0.326109
0.218138
-0.804011
0.585873
-0.302436
0.672838
-0.370401
0.220846
-0.928278
0.0168312
-0.0257001
-0.922833
0.485037
0.699246
-0.738962
-0.102873
-0.62959
-0.220401
-0.392148
0.168625
0.288276
0.0344412
-0.322717
1.14637
-0.577584
0.897765
-0.214362
-0.223145
-0.141199
0.364344
-1.09275
0.446691
0.646062
-0.0685977
-0.114426
-0.0317316
0.686957
0.147068
-0.0866393
-0.480839
0.126225
-0.273529
0.0132518
0.00531612
-0.0185679
-0.108721
0.824824
0.196259
-0.0325678
-0.163691
0.790242
-1.28939
0.588238
0.701156
0.228557
0.187791
-0.416348
0.615243
-0.268602
-0.346641
-0.50002
0.258732
-0.449099
0.0112561
0.3745
0.886101
-0.971407
0.382246
-0.169988
-0.39124
0.676154
-0.941672
0.672094
0.269578
0.449692
-0.794562
0.34487
-0.687562
0.72213
-0.0345679
0.413276
-0.519599
0.0133774
0.231765
0.245006
0.0762677
-0.672692
0.218073
-0.911433
0.446291
0.465142
0.237617
-0.860355
0.733956
-0.0470738
-0.564353
0.132899
0.16272
1.01246
-0.33421
-0.678252
-0.374055
0.254592
-0.567029
0.13813
-0.954654
0.903403
-0.756817
0.358476
0.468707
-0.874969
0.258644
0.616324
-0.856874
0.577301
0.279573
-0.257589
-0.0782792
0.0938482
-0.98799
0.693239
0.294751
0.610741
-1.01848
-0.851312
-0.0153921
1.09953
-0.405232
0.313418
0.110318
-0.423736
-0.0194735
-0.123473
0.142946
-0.15296
0.480813
0.52731
-0.393201
-0.481767
0.169336
0.173916
0.222629
0.334566
-0.557196
0.350386
-0.211224
-0.0462408
-1.06757
1.11381
-0.315757
0.413771
-0.776245
-0.55622
-0.402356
0.958575
0.234884
-0.297969
-0.64685
0.199413
0.447437
0.00275156
0.00726816
-0.0100197
0.759676
-0.876829
0.0401426
-0.629802
0.448573
0.338206
-0.786779
0.0408193
0.211795
-0.786187
0.215187
0.571
-0.956052
0.374827
0.52419
-0.863092
0.447857
-0.651455
0.0014494
0.00130216
-0.0374057
0.968089
-0.587033
0.724922
-0.137888
0.915029
0.000725533
-0.915754
-0.683248
-0.00979212
-0.20274
0.063417
0.663261
0.10579
0.0276028
0.468188
-0.162123
0.626713
0.485578
0.0693967
0.197151
-0.834073
-0.0592026
-0.836662
0.366263
-0.710914
0.158304
0.17615
-0.334454
0.81207
0.0522537
-0.864323
-0.0921769
0.0870583
-0.318602
-0.704866
-0.757062
-0.106616
-0.377015
1.01865
-0.321009
0.430096
-0.109087
-0.854697
0.27024
-0.261175
0.483804
-0.368773
-0.621141
-0.320346
-0.303215
0.331855
-0.445444
-0.0940162
0.978601
-0.126546
0.582567
-0.241467
-0.3411
0.0813244
0.0665841
0.232121
0.985434
-0.940997
0.00929757
-0.207426
0.293506
-0.472337
0.48211
-0.420566
-0.482975
0.197646
0.162215
-0.359862
-0.764191
0.0375125
-0.1095
0.729571
-0.620071
-0.0836677
-0.831066
-0.680931
0.783101
1.28445
-0.554787
-0.729664
-0.131828
0.317554
0.790901
-0.42758
-0.363321
0.240703
-0.262201
0.0505465
-0.0189964
-0.200541
0.0529955
0.147545
-0.129169
0.509235
-0.425616
1.03636
-0.0318375
-0.126691
-0.25684
-0.0636915
0.320531
-0.01186
0.771536
0.0895483
0.277712
-0.36726
-0.358036
0.53481
0.406871
0.397107
-0.319307
-0.0986471
0.480808
-0.173218
-0.30759
-0.0484388
0.0431125
0.00532634
0.112756
-0.763757
0.651002
-0.880089
0.123027
0.200151
-0.362566
0.728829
-0.00474192
0.245445
0.103592
-0.424601
-0.968712
0.487429
-0.975993
0.3269
-0.414023
0.0340438
-0.397413
-0.546526
0.943939
-0.924347
-0.0198599
0.296736
-0.276876
0.917806
-0.682278
0.737149
-0.572719
0.150746
0.495499
-0.646245
0.203894
-0.369219
-0.691634
-0.190039
0.881673
-0.0883526
0.252029
-0.163676
-0.407972
0.898723
-0.49075
0.775866
-0.48785
-0.288016
0.747169
0.0222094
-0.769378
-0.529167
-0.760226
-0.30115
-0.00188764
0.340286
0.605134
-0.0133798
0.0771081
-0.0637283
-0.637954
-0.148233
0.666019
0.575746
-0.502061
0.593316
-0.0912543
-0.184891
0.11277
0.0564246
0.353059
-0.409484
0.144059
0.0522003
-0.109294
-0.878696
-0.798513
0.292932
0.000590104
-0.137215
0.245918
0.0673229
0.696408
-0.763731
-0.479733
-0.123162
0.555413
0.206954
0.0628994
-0.212297
-0.173887
0.0547217
0.119165
0.0939847
-0.341058
0.247073
0.301904
0.28452
0.152517
0.7729
-0.353278
0.852573
-0.438801
-0.0975438
-0.229723
0.327267
0.711379
0.0724048
0.0312839
-0.625929
0.429178
0.418409
-0.430269
-0.503532
-0.473318
0.97685
-0.606795
-0.485958
-1.00926
1.04942
-0.0401551
-0.00814304
-0.362357
0.288321
0.523292
0.249609
0.00450503
-0.198323
0.193818
-0.30161
-0.604925
-0.109111
-0.722456
0.831567
0.411035
-0.211635
-0.258785
-0.0317541
0.553591
-0.872193
0.443044
-0.338696
-0.270186
1.00485
-0.734667
0.504244
0.478654
0.27254
-0.751194
1.04057
-0.621095
-0.419474
-0.379501
-0.679791
1.11147
-0.43168
0.242642
0.339925
-0.256542
0.2518
0.398949
0.763
-0.185426
0.165953
0.0246885
-0.0359246
0.902056
-0.49901
0.433575
0.712792
-0.366443
0.185517
0.180926
0.214036
-0.450522
0.711807
-0.0451152
0.522281
-0.208863
-0.652334
-0.10081
0.753144
0.164945
-0.0317333
-0.133212
0.115345
0.0927307
0.129679
-0.886362
-0.254744
0.275205
0.656026
-0.573465
-0.0825614
0.142637
0.338171
-0.128004
0.068261
0.217727
0.220109
-0.437836
-0.477907
0.940507
0.255495
-0.533463
1.11629
-0.582822
-0.273491
0.407363
-0.364114
-0.0896079
1.04885
-0.511545
-0.323024
0.279411
0.335832
0.26881
-0.279122
-0.137863
0.117444
-0.268349
-0.117978
-0.0021143
0.603902
-0.133434
0.762107
-0.628673
0.0694497
-0.0625146
-0.331229
0.0808536
-0.285194
-0.0159561
-0.848676
0.586507
0.209581
0.217577
0.0213191
-0.265798
0.244479
0.273536
0.0419377
0.788957
0.428477
-1.21743
-0.0791556
-0.0192004
0.098356
-0.176387
-0.327897
0.839629
0.444822
0.734132
-0.666809
-1.11913
0.128402
0.00210767
-0.1602
0.433361
0.810673
0.069905
-0.880578
0.33213
-0.0256063
-0.0314019
-0.295247
-0.0711969
-0.485434
-0.443056
0.510794
-0.0791164
0.56993
0.536243
-0.543198
0.00695583
0.158987
0.00770003
-0.0631052
0.220184
-0.0314114
0.688502
0.173565
-0.862067
-0.117503
0.130755
-0.198033
0.120242
0.077791
-0.307106
0.00244172
0.304665
0.335042
0.507416
-0.842458
0.20973
0.257083
0.645017
-0.0147649
-0.232582
0.564186
-0.726309
-0.042779
0.0568787
-0.0140996
-0.924523
0.513539
0.778387
-0.624028
-0.154359
0.0113994
-0.113782
0.102383
0.779041
-0.851298
0.500997
-0.0899622
0.295073
0.442076
-0.104759
-0.0132185
-0.216467
0.0515844
0.164883
-0.554359
-0.100208
0.998781
-0.510301
-0.48848
0.566469
-0.0583548
-0.508114
0.36727
-0.637558
0.270288
0.0101739
0.471412
-0.00938536
-0.217591
0.601949
-0.384358
-0.146783
-0.0696846
-0.271599
-0.19509
0.162522
0.670886
0.00635326
-0.677239
-0.308054
-0.200514
0.0201842
0.0507909
-0.0061684
0.477959
0.295951
-0.119459
0.154378
-0.00310739
0.070174
-0.133537
0.132847
-0.350177
0.500923
0.0129938
0.192397
-0.135517
-0.29116
0.698264
-0.0387848
0.575027
-0.123085
-0.0925355
-0.217641
0.435369
-0.191511
0.820715
-0.629203
-0.743945
-0.0990822
-0.478038
0.803967
-0.325929
-0.182413
-0.0126764
0.274545
-0.0571832
-0.0190644
-0.205199
0.224263
-0.759149
0.247604
0.0855896
-0.104184
0.449562
-1.11787
0.315795
-0.878105
-0.226765
0.743544
-0.35539
0.4497
-0.229591
0.012489
-0.594355
0.707111
0.000893199
-0.12828
0.134964
-0.489229
-0.0815601
-0.54928
0.63084
0.179748
0.363497
1.16491
-0.761796
-0.403117
-0.194502
0.0574072
0.178095
0.0194367
-0.197532
-0.719103
0.132069
0.150665
0.0283796
-0.00579155
-0.100987
0.106779
0.374863
-0.852901
0.0756532
0.401865
0.0208302
-0.422695
-0.907042
0.715531
0.11761
0.0325699
-0.15018
0.296342
-0.907474
-0.115852
-0.00230557
0.118157
0.150657
-0.0330473
0.0036601
0.645847
-0.494558
0.539644
0.436828
-0.227098
-0.793305
0.237086
-0.606375
0.482016
0.124359
0.4599
-0.963431
-0.437898
-0.269401
0.7073
0.0761476
0.342649
-0.260278
0.214098
1.03101
-0.141503
-0.889506
-0.00166618
-0.832407
0.680789
0.0663803
0.373147
0.417753
-0.130405
-0.00378289
0.115571
-0.253721
-0.288059
0.0577357
-0.058709
0.000973264
0.0217905
-0.677913
0.656123
-0.0392413
0.236256
-0.197014
0.307755
-0.824454
0.516699
-0.101051
-0.478017
-0.0295789
0.0326177
0.603239
-0.293342
-0.170674
0.464016
-0.309392
-0.364393
0.384265
-0.22205
0.147675
-0.250746
0.103071
-0.281569
0.302888
-0.800744
-0.121375
-0.014867
0.136242
0.102029
0.273443
-0.375473
0.693673
-0.605995
-0.0876781
0.0126176
-0.484035
0.145727
-1.08712
-0.429336
-0.610741
1.04008
-0.847699
0.0377569
0.809942
-1.1662
-0.702928
0.015366
-0.228612
0.236671
-0.00805956
-1.02168
-0.312373
1.00087
0.323157
-0.169746
0.0688202
-0.286461
-0.148941
0.406023
0.122293
0.0661086
-0.322948
0.0127215
-0.0978314
0.0851099
-0.207205
0.0767311
-0.0658604
0.0772598
-0.224628
0.453185
-0.900697
0.57539
0.325306
-0.293044
0.341643
0.537686
0.165077
-0.000132303
-0.218517
0.223022
-0.423774
-0.223076
-0.469876
0.170492
0.299385
0.111524
0.0586318
-0.170156
-0.341871
0.435856
-0.0596757
0.627141
0.626912
-0.537363
0.489433
-0.798825
0.383265
-0.517918
0.134653
0.0803821
0.000953558
-0.281479
-0.000938855
-0.936784
0.539371
0.0774557
0.489013
0.0135229
-0.161086
0.147563
-1.30414
0.539111
-0.138941
0.112132
-0.160831
-0.0164009
-0.183499
0.1999
-0.482324
0.188981
-0.958133
0.848839
0.870336
-0.421763
-0.146701
0.131106
0.015595
0.123674
0.169383
-0.121643
-0.971692
0.357836
0.613856
-0.112401
0.0932003
-0.0565062
0.230609
-0.174103
0.302673
0.198324
0.0541713
-0.0740449
0.0198736
-0.216854
0.229848
0.0108489