/*--------------------------------*- C++ -*----------------------------------*\
| =========                 |                                                 |
| \\      /  F ield         | OpenFOAM: The Open Source CFD Toolbox           |
|  \\    /   O peration     | Version:  2306                                  |
|   \\  /    A nd           | Website:  www.openfoam.com                      |
|    \\/     M anipulation  |                                                 |
\*---------------------------------------------------------------------------*/
FoamFile
{
    version     2.0;
    format      ascii;
    arch        "LSB;label=32;scalar=64";
    class       volVectorField;
    location    "5";
    object      U;
}
// * * * * * * * * * * * * * * * * * * * * * * * * * * * * * * * * * * * * * //

dimensions      [0 1 -1 0 0 0 0];

internalField   nonuniform List<vector> 
13486
(
(1.40173 -0.187162 6.11155e-19)
(1.66562 0.30331 2.84655e-19)
(2.42453 0.029462 0)
(0.478665 -0.266835 -3.34315e-20)
(2.28024 -0.545072 2.11362e-19)
(2.45224 0.127291 2.17177e-20)
(2.5027 -0.462372 4.68459e-21)
(1.94554 -0.716299 -3.30179e-19)
(1.89362 -0.384918 0)
(2.02256 0.774361 0)
(-1.08801 0.0368496 -2.11725e-18)
(2.55276 -0.0592865 0)
(1.25328 -0.403102 -6.04904e-19)
(2.51361 0.707561 4.04818e-20)
(2.39823 -0.388535 1.12797e-19)
(1.97962 0.768471 -1.66044e-19)
(0.361653 -0.12998 8.9102e-19)
(1.36236 -0.431602 4.72868e-20)
(2.2585 -0.00847147 3.01939e-21)
(1.60325 -0.0212078 -6.1734e-19)
(0.844223 -0.546126 -1.36932e-20)
(1.27271 -0.417378 7.80278e-19)
(1.69019 0.300495 -2.27538e-19)
(2.66826 -0.955685 0)
(2.06281 0.611665 5.46151e-20)
(2.62018 -0.887284 -1.5066e-19)
(-2.08375 1.44827 1.33996e-18)
(2.54071 -0.128878 4.09579e-19)
(2.04067 0.0308623 0)
(2.30688 -0.359095 -2.344e-19)
(0.985742 -0.638995 -9.59097e-21)
(2.48798 -0.280881 -1.42877e-19)
(2.95719 -0.342437 3.89919e-19)
(2.05124 -0.0727879 0)
(1.95402 -0.690705 0)
(1.84002 0.000940189 -3.00749e-21)
(1.93215 0.121271 9.41148e-21)
(1.43915 -0.682076 3.12152e-19)
(1.72664 0.0289012 -6.64361e-21)
(1.92626 -0.228076 3.13446e-19)
(2.30258 -0.798963 0)
(0.841282 -0.417826 -7.00948e-19)
(2.00816 0.00615434 0)
(2.07785 0.502335 -2.63647e-19)
(2.09889 0.497272 1.08601e-19)
(2.55475 -0.0552533 9.13823e-20)
(0.0837411 2.15409 1.63492e-18)
(2.03472 0.033437 -7.12915e-22)
(1.93602 0.116499 -7.06514e-21)
(2.6581 -0.033015 1.96656e-19)
(1.99928 0.034438 3.48703e-19)
(1.80276 0.0221832 0)
(2.62074 -0.154828 -1.20495e-19)
(1.5981 -0.598269 -4.55901e-19)
(1.37694 -0.488296 0)
(2.25131 -0.550247 -1.40544e-19)
(2.10456 0.149702 -1.25913e-20)
(1.79558 0.0163589 -3.11595e-20)
(2.93251 -0.325696 4.48168e-19)
(1.94548 0.189253 0)
(-0.703037 -0.862854 -2.16741e-18)
(1.94766 0.180663 0)
(3.75297 0.25132 -5.34916e-19)
(0.878881 -0.554671 -1.36319e-22)
(1.65247 -1.16484 0)
(1.93876 0.134573 5.2135e-21)
(0.43176 -0.276814 -4.0507e-20)
(1.38825 0.0987797 2.0537e-19)
(1.89434 -0.409388 -1.81207e-19)
(1.83203 0.00675821 2.33605e-21)
(0.344739 -0.201312 4.64583e-20)
(1.38512 -0.466222 1.17728e-21)
(1.95701 -0.0946845 2.31054e-19)
(-0.908148 -0.605357 -7.06945e-19)
(1.95914 0.146476 1.46717e-21)
(2.10609 0.146318 2.91884e-21)
(1.96401 0.141241 -4.67954e-21)
(2.40146 -0.408144 -4.60512e-20)
(0.232386 2.32146 -1.12688e-18)
(1.70037 -0.33411 0)
(2.02365 -0.000197478 2.14917e-21)
(1.6037 0.401294 -1.80668e-20)
(4.05117 0.196623 3.85713e-20)
(2.51231 0.0692003 -1.04232e-20)
(1.39448 -0.202647 -1.1965e-18)
(1.36104 1.76268 0)
(1.29266 -0.599188 -8.82933e-20)
(2.00042 0.0479035 -5.2306e-19)
(1.86575 0.230761 -2.30694e-19)
(1.8826 1.04407 -1.72823e-19)
(2.56323 -0.271463 -7.91475e-20)
(2.06729 -0.622512 -1.73926e-19)
(1.4636 -0.298682 1.581e-19)
(1.63853 0.106959 1.59913e-20)
(1.80522 -0.572716 7.35617e-20)
(2.03006 0.0279933 2.43194e-22)
(-2.49715 1.64791 0)
(0.348118 -0.474919 3.6924e-20)
(1.94396 -0.229237 -5.98315e-19)
(-0.107742 0.528734 -4.42959e-22)
(2.01117 0.00619957 0)
(2.47631 0.707456 1.14961e-20)
(0.336885 -0.538148 7.41077e-21)
(1.79746 0.022994 3.61961e-20)
(1.3325 1.71478 0)
(-0.566143 1.17103 2.45265e-22)
(1.96895 0.0704157 8.11127e-22)
(1.7033 0.0115969 -1.55061e-20)
(0.130364 2.40297 1.27771e-18)
(1.70571 -0.779202 0)
(1.20545 -0.581381 0)
(2.51379 -0.343335 -1.30853e-19)
(1.60595 -0.5788 3.24965e-21)
(2.11137 0.0860148 1.01147e-21)
(1.03499 -0.0149502 0)
(1.15474 -0.573466 -2.7679e-19)
(2.06306 0.631636 0)
(2.13616 -0.0564132 0)
(1.9464 -0.093303 0)
(1.94762 0.0927003 4.80773e-21)
(1.38342 -0.42292 -1.72913e-20)
(-0.950164 -0.637021 0)
(1.77677 -0.515201 0)
(1.72091 0.0221062 2.21168e-20)
(1.84854 -0.663968 0)
(1.80669 0.0274084 0)
(2.17256 -0.284439 6.94924e-21)
(2.20297 0.0655316 9.22916e-20)
(1.90241 -0.0314135 -3.47761e-20)
(1.72047 -0.994666 -7.00094e-20)
(1.80833 0.0268004 -3.39346e-21)
(0.112807 1.9595 -4.10147e-19)
(0.471314 0.0160549 1.13779e-18)
(-0.469672 0.168067 9.31806e-19)
(1.99768 0.0182986 -5.72745e-20)
(1.90489 0.437735 -2.55739e-19)
(0.600823 0.806452 -1.65454e-19)
(1.73305 -0.778577 0)
(1.9491 0.0851676 -1.42375e-21)
(1.96989 -0.580327 -1.17476e-19)
(2.85812 -0.121595 -4.08355e-19)
(2.61015 -0.170117 1.00777e-19)
(2.50773 -0.209126 0)
(1.7011 -0.322824 0)
(2.09974 0.00580575 4.08e-21)
(4.19066 -0.510842 -1.17124e-18)
(2.80563 -0.00909123 4.61065e-20)
(0.238169 1.81326 0)
(2.67971 -0.0352557 0)
(2.04179 0.0289324 0)
(2.01203 0.023247 5.11651e-21)
(2.39647 -0.473416 0)
(2.02784 -0.0043099 -2.25609e-21)
(1.58417 0.400134 -1.53324e-19)
(2.20591 0.30825 0)
(2.45252 0.0647795 0)
(1.50607 -0.691727 0)
(0.151295 -0.157591 -2.47345e-20)
(1.70277 -0.694799 6.53499e-19)
(2.05402 0.431469 1.35915e-20)
(2.53914 -0.00664854 1.18395e-19)
(1.70957 -0.674543 -9.92701e-19)
(2.33779 -0.286076 4.96403e-20)
(0.746304 -0.356253 3.08044e-19)
(1.80075 0.0196345 0)
(2.6091 0.674885 -9.36969e-20)
(2.41955 0.658723 -2.02705e-20)
(0.390214 -0.093908 -7.31383e-19)
(2.88971 0.0542009 -1.37906e-19)
(-0.463388 0.115698 2.48732e-19)
(-0.0134807 -0.173682 1.93787e-21)
(2.20004 0.285816 7.97052e-20)
(1.999 0.0906532 -4.1761e-19)
(2.31945 -0.229607 1.05938e-20)
(2.01752 0.0166597 6.46934e-22)
(0.172519 -1.75682 0)
(2.52335 1.04606 1.2103e-19)
(2.99537 -0.124257 5.71639e-19)
(1.97389 0.0630298 -5.75552e-19)
(2.50602 -0.194107 0)
(1.97543 -0.284587 6.36038e-19)
(2.11127 0.0855217 2.02322e-21)
(2.3955 -0.215674 -4.77307e-21)
(-1.99306 0.843607 0)
(2.58731 0.138731 2.0419e-20)
(2.43524 -0.123071 -1.86813e-19)
(2.0593 0.0238943 -4.39836e-22)
(2.30907 -0.217697 -7.35276e-20)
(2.35497 -0.790533 0)
(1.03329 -0.500403 -3.54302e-19)
(1.94538 0.106564 0)
(2.22482 0.0274166 0)
(1.77659 -0.0128515 0)
(1.28449 0.899467 -3.13777e-19)
(1.78664 -0.0432194 0)
(-1.22149 0.404671 -5.38641e-19)
(1.67555 -1.05309 1.65812e-19)
(2.43873 -0.0178169 6.55811e-20)
(1.05548 -0.523533 -1.34946e-19)
(2.57747 0.639565 -4.37279e-20)
(0.979712 -0.670186 1.2046e-20)
(2.21681 0.0818557 -2.7116e-21)
(1.31434 -0.639318 -3.60712e-19)
(1.57737 -0.694379 6.36939e-20)
(2.04903 0.403778 -1.62183e-20)
(1.8002 -0.0401249 -3.32317e-20)
(1.2733 -0.479883 1.65147e-20)
(1.87233 -0.0273172 4.69483e-19)
(1.77067 -0.0156117 0)
(2.56466 0.140114 0)
(2.4863 -0.129856 2.69429e-19)
(2.26641 -0.978476 2.15072e-19)
(1.62202 -0.00745914 5.6496e-19)
(1.95753 0.0699257 1.11485e-21)
(2.45826 0.167253 -2.50205e-20)
(1.88424 -0.454179 2.30609e-20)
(2.35803 -0.329218 0)
(1.87675 1.0293 4.55526e-19)
(1.54522 -0.325899 0)
(3.22595 0.602695 0)
(0.140606 0.169222 -1.7119e-18)
(2.70849 -0.016075 0)
(1.95316 -0.574381 2.73537e-19)
(2.54404 0.0125088 0)
(2.67806 -0.163498 -1.68902e-20)
(1.23026 -0.581367 2.18468e-19)
(2.58846 0.275245 -6.44625e-21)
(0.847123 -0.965568 1.88296e-20)
(1.87234 -0.295533 3.14838e-21)
(1.16876 -0.445257 1.13291e-20)
(1.98278 -0.273748 -2.04196e-19)
(1.11893 -0.234413 1.01389e-20)
(2.8804 -0.172521 5.12659e-19)
(0.864786 -0.419101 2.39675e-19)
(0.602598 -0.674275 0)
(1.02976 -0.503307 2.58844e-20)
(2.22001 -0.161795 1.21662e-19)
(2.24203 0.0165119 -7.35636e-21)
(0.89631 -0.434923 6.99897e-19)
(2.3885 -0.133104 0)
(2.93863 -0.406177 0)
(2.00397 0.0706629 6.37204e-19)
(2.14317 0.0701158 0)
(0.900999 -0.449251 2.3416e-19)
(1.64851 0.0717289 -1.24024e-20)
(1.79585 0.0957694 0)
(2.31177 -0.0103351 -4.46675e-20)
(2.45359 -0.64556 4.51268e-19)
(0.139886 -0.485896 1.56086e-18)
(2.0454 0.48123 0)
(-0.610392 -0.590045 -5.41994e-20)
(0.997467 0.016762 8.74838e-20)
(0.967071 -0.47578 3.51043e-19)
(1.70242 -0.000836885 0)
(1.7921 -0.271643 2.56808e-20)
(0.0141094 -1.94977 7.7235e-20)
(2.49352 -0.279154 1.15111e-19)
(1.85969 -0.461555 -2.91707e-20)
(0.075992 -0.127359 2.59302e-20)
(2.90183 -0.397122 2.9599e-19)
(1.76889 0.253609 0)
(1.66183 0.0873132 -1.00195e-22)
(2.40204 -0.396555 -2.64496e-19)
(0.0719884 -1.85498 -9.69944e-20)
(2.17587 -0.736429 -2.18842e-19)
(-2.00119 0.81501 0)
(1.88731 -0.28655 -6.10354e-20)
(0.917386 -0.660571 -1.58655e-20)
(2.06891 -0.0148156 -2.67077e-19)
(1.49323 -0.386414 0)
(1.54809 0.964168 2.17994e-19)
(1.97118 0.0728436 -1.55595e-19)
(2.37499 -0.339203 0)
(2.60739 -0.086652 6.97007e-20)
(1.15528 -0.558316 2.89586e-19)
(2.42216 -0.603438 -2.51378e-19)
(1.79569 -0.252052 0)
(1.47721 -0.64135 0)
(1.69306 -0.0316209 -1.89529e-20)
(2.73548 -0.0867903 -7.07003e-20)
(1.4916 -0.668018 4.72206e-20)
(2.09297 -0.199997 -2.31109e-19)
(1.9381 0.0923728 3.39544e-19)
(3.27624 -1.25644 -4.7524e-19)
(-1.48317 -0.375809 2.3126e-18)
(-1.71867 1.83448 2.01627e-18)
(2.87737 -0.0696633 4.47512e-19)
(1.85336 -0.0437241 4.56091e-20)
(2.72614 -0.15577 2.23594e-20)
(2.05876 -0.0052791 0)
(0.643813 -0.640362 0)
(1.80206 0.257444 -1.74953e-21)
(1.18951 -0.576014 2.70299e-19)
(1.99776 0.0254807 -5.64463e-20)
(2.21181 -0.153606 1.12698e-19)
(2.26497 -0.189902 0)
(2.0099 -0.0374855 -1.51416e-19)
(2.61668 -0.0554238 -5.1148e-20)
(1.92553 0.0750756 -3.12358e-19)
(2.479 -0.584304 8.72649e-20)
(1.94724 -0.25086 -6.11171e-20)
(1.28948 -0.477119 2.18949e-21)
(2.83777 -0.0308719 6.09341e-20)
(2.47452 -0.284681 1.35508e-19)
(1.92992 0.086632 -1.15673e-21)
(1.28776 -0.593059 0)
(0.374692 -0.100568 0)
(2.29324 -0.0302422 9.19473e-20)
(1.30045 -0.396138 6.2765e-20)
(1.94177 0.111919 0)
(2.16972 1.42028 -1.69317e-18)
(0.40215 -0.219882 0)
(2.41115 1.03476 -2.32662e-20)
(2.51898 -0.339592 -1.32178e-19)
(3.08298 -1.86491 0)
(1.8919 0.426911 -1.56617e-19)
(1.82217 0.280748 2.98926e-21)
(1.86659 0.217453 -1.97508e-20)
(1.87215 -0.0240079 -5.15908e-19)
(1.93246 -0.296136 0)
(1.94124 0.127719 -9.61543e-21)
(1.78291 0.19777 3.72371e-22)
(1.98225 0.0628565 7.26673e-20)
(1.62055 0.144598 -2.98482e-19)
(0.709213 0.780055 3.0907e-19)
(2.54515 -0.271787 1.47804e-19)
(2.20837 -0.394331 -6.57353e-19)
(2.10526 -0.198527 0)
(2.67301 0.0199811 3.5589e-21)
(2.24394 -0.405352 -1.20919e-19)
(2.00054 0.0351442 7.58568e-19)
(2.09235 -0.627141 0)
(2.54854 -0.293281 -3.39156e-20)
(1.43885 0.410705 0)
(2.50308 -0.473213 -2.11722e-19)
(1.87176 -0.537188 -2.01365e-19)
(0.660488 -0.30787 2.84561e-19)
(2.37482 -0.488624 -1.822e-19)
(2.02685 0.194161 0)
(1.64623 0.114675 -1.59458e-20)
(1.91174 -0.296634 6.62133e-20)
(1.6274 0.152484 2.81843e-19)
(2.25943 -0.413138 4.70408e-19)
(2.3881 -0.219612 2.16309e-19)
(-2.08074 0.188955 -8.2148e-19)
(2.03618 0.0325889 7.86601e-23)
(2.21978 -0.214646 0)
(0.989234 -0.336737 6.88083e-19)
(3.23308 0.579413 0)
(1.77856 0.259816 -4.30921e-23)
(2.24096 -0.119342 3.82145e-19)
(2.6622 -0.0318868 -4.25827e-20)
(2.61847 -0.0816158 5.0422e-20)
(-2.57849 1.60985 -1.54022e-18)
(1.93331 0.0739502 3.90232e-19)
(2.01189 0.0123374 0)
(-0.876229 -0.505165 -6.3633e-19)
(2.18364 -0.288339 -1.36628e-19)
(1.2459 -0.311062 -2.72194e-20)
(2.2643 -0.897641 1.9805e-19)
(2.49661 -0.00926055 0)
(2.6288 -0.270125 9.01326e-20)
(1.79128 0.173604 5.9986e-19)
(1.96889 0.0797068 4.72801e-19)
(2.32668 -0.372168 0)
(2.03169 -0.000907796 -3.47247e-22)
(2.25341 -0.183348 -1.1427e-19)
(0.0136445 1.55617 2.05872e-19)
(1.581 -0.0195609 7.85463e-20)
(2.18222 -0.249811 1.29879e-19)
(2.03896 0.00935128 -2.00882e-21)
(2.21023 -0.203405 0)
(2.67334 -0.1675 -5.05102e-20)
(-0.891378 -0.562345 9.31881e-20)
(2.44981 0.367013 3.87935e-20)
(1.99737 0.0310976 2.94899e-19)
(1.37099 0.0309972 0)
(1.7168 0.203694 -8.02693e-21)
(3.40101 -1.86189 0)
(3.53214 1.00412 -3.46637e-19)
(2.06821 -0.0282121 0)
(2.08277 -0.711043 -6.03903e-21)
(1.30626 -0.0807635 -1.6791e-19)
(1.53477 0.890358 5.30047e-19)
(0.0623279 1.67366 -7.73198e-19)
(1.82354 -0.248298 0)
(2.37394 0.0538841 -3.85582e-20)
(2.03353 0.203934 -1.62496e-19)
(0.691652 -0.220486 -5.54266e-19)
(1.02083 -0.555406 2.42568e-22)
(1.64521 -0.0186143 -8.52691e-19)
(2.43658 -0.308598 1.23794e-19)
(2.101 0.191722 1.09545e-19)
(1.44061 -0.441329 0)
(1.36184 0.354703 3.19411e-19)
(1.95839 0.0790409 5.07955e-21)
(0.429752 -0.248652 1.98578e-20)
(-0.840772 -0.439341 -2.8195e-19)
(0.572347 -0.259815 -1.06708e-18)
(2.8913 -0.077603 0)
(0.708785 -0.224986 0)
(2.07601 1.19631 0)
(2.07061 -0.0789258 0)
(0.629241 -0.163304 -1.62947e-20)
(2.49195 -0.442735 0)
(1.75429 -0.547129 0)
(1.65392 0.124188 1.16269e-19)
(2.96798 -0.119728 -5.92026e-19)
(2.18425 -0.190939 -3.12666e-19)
(1.7026 0.348615 9.64874e-19)
(2.00522 0.0240736 -8.41062e-20)
(2.48255 1.75361 0)
(2.52466 -0.282819 0)
(1.91606 0.0820631 3.33246e-19)
(2.02198 0.0541144 5.89492e-20)
(1.29872 0.955451 0)
(-1.78794 0.712785 6.64111e-19)
(2.15973 -0.749347 2.46291e-19)
(-0.567854 -0.663568 0)
(2.37905 -0.134793 2.11758e-19)
(1.97268 0.0661551 -3.85142e-19)
(0.653575 -0.169048 -4.59137e-20)
(0.983205 -0.319638 0)
(2.01454 0.208108 3.07649e-19)
(2.58992 0.126822 0)
(2.28546 -0.21267 0)
(2.22798 0.186436 -1.22876e-20)
(1.93223 0.09648 1.7775e-19)
(-2.24239 1.52022 -1.75317e-18)
(2.37487 0.65794 1.03905e-20)
(1.32132 -0.324156 -2.99728e-19)
(2.07254 -0.0674165 3.9782e-20)
(2.10492 0.187424 8.45295e-20)
(2.7549 -0.154563 1.15446e-19)
(2.24708 -0.735559 0)
(2.56709 -0.580604 2.4604e-19)
(1.31127 -0.0115731 0)
(1.76941 0.238554 7.85075e-23)
(2.29934 -0.234546 0)
(1.41312 0.112375 4.3395e-19)
(-0.439834 1.46335 -1.45395e-18)
(2.40692 -0.297157 0)
(-0.177916 0.292814 4.33062e-20)
(2.51903 -0.310739 -2.8754e-19)
(1.04169 0.468215 -1.8487e-19)
(1.75269 -0.244937 8.21853e-19)
(1.42315 0.882347 -3.34552e-19)
(1.31241 -0.310959 -8.5118e-19)
(3.60255 0.970025 0)
(1.94221 0.0949601 -3.82629e-21)
(-2.05894 0.017168 -2.14016e-18)
(2.02057 0.216721 0)
(1.84284 0.242971 2.15046e-20)
(2.70375 -0.0453684 -4.11743e-20)
(2.85237 1.07378 0)
(2.00339 0.0212552 0)
(-0.534551 0.0967256 0)
(0.305258 -1.8349 2.65093e-19)
(3.24633 -1.47727 5.7403e-19)
(3.87988 -0.652839 7.80629e-20)
(2.36895 0.991046 0)
(1.69479 -0.139896 5.55805e-19)
(2.00771 0.0152491 -1.42693e-21)
(2.36227 0.600766 -1.12416e-20)
(0.783518 -0.458883 2.37357e-20)
(1.91149 0.175408 0)
(2.03551 0.0327543 0)
(0.708024 -0.0781108 -4.64085e-19)
(1.41412 -0.432454 -2.10077e-19)
(1.93509 -0.167585 0)
(1.23975 -0.604029 -2.67544e-19)
(2.05232 0.0157151 2.62834e-21)
(2.03022 0.0237806 -3.65675e-22)
(0.74625 -0.344551 0)
(1.86876 -0.0232222 4.30466e-20)
(1.95401 0.0813159 -4.19931e-21)
(2.58404 0.11163 1.31703e-19)
(1.85847 -0.555971 0)
(-1.80777 2.07487 -3.12591e-18)
(2.63262 -0.0531912 5.57806e-20)
(2.00387 0.0971642 6.64602e-20)
(1.97239 0.0232446 -1.65284e-21)
(2.66454 0.649741 0)
(1.67508 0.341842 -2.56939e-19)
(3.14798 0.356869 -2.5255e-19)
(0.501083 -0.276227 2.31319e-19)
(2.00842 0.0597482 0)
(0.99798 -0.56756 -2.4721e-22)
(0.436804 -0.058672 0)
(2.00557 0.0524115 -2.54554e-19)
(1.98968 0.0778835 1.15815e-19)
(1.87001 0.0598511 -6.52107e-20)
(0.0434487 -1.765 0)
(2.26812 0.0312762 -1.99142e-20)
(1.07723 0.524901 8.71468e-19)
(2.22012 -0.730316 0)
(1.62513 0.108737 3.63646e-19)
(2.4553 -0.592084 -9.938e-20)
(2.19183 -0.0216924 0)
(0.895853 -0.694793 1.01066e-20)
(1.69666 -0.30159 -4.86859e-20)
(2.05413 0.0086809 0)
(-1.10484 1.94118 1.7727e-18)
(1.82968 0.229249 0)
(1.65674 -0.760948 2.67913e-19)
(-0.606575 -0.673933 1.57445e-19)
(2.06454 0.0318992 4.53873e-22)
(2.46777 0.1379 -6.29147e-20)
(1.35084 0.34086 1.69728e-19)
(1.74553 -0.274679 -3.0318e-19)
(1.82654 -0.225614 -2.73243e-20)
(1.70151 -0.771826 2.60738e-21)
(2.16251 -0.252763 1.2569e-19)
(2.65476 0.655932 1.93512e-19)
(1.76709 -0.792519 0)
(1.99695 0.0267694 -2.61486e-19)
(-0.566497 -0.50744 -5.90936e-19)
(1.33415 -0.0222958 0)
(1.98017 0.0969526 2.38019e-21)
(1.79083 0.00423415 0)
(1.20306 -0.338576 7.34422e-19)
(2.05466 -0.772309 0)
(1.9213 0.00274833 3.11392e-21)
(2.25061 -0.113317 -2.17613e-19)
(0.895043 -0.766681 2.16858e-20)
(-0.290775 -0.046649 1.37858e-19)
(2.38838 -0.0199273 -1.84325e-21)
(1.26217 -0.599812 2.4726e-19)
(1.76252 -0.509332 2.93679e-19)
(1.45872 -0.307288 0)
(-2.37888 1.12864 -7.40524e-19)
(2.26795 -0.681193 -5.10887e-20)
(-2.56791 1.26784 -9.21456e-19)
(2.03236 0.0302784 1.67943e-22)
(1.43181 -0.558336 0)
(2.22715 -0.0232153 -1.14988e-21)
(-1.85119 0.69282 0)
(0.275229 -0.592848 7.60806e-21)
(0.82083 -0.23668 5.89251e-20)
(0.0157563 -0.0987308 0)
(2.0301 -0.543579 8.74814e-20)
(1.61676 -1.11621 0)
(2.86431 0.979455 0)
(1.42433 -0.676358 -3.53255e-19)
(1.46822 0.375758 2.58453e-19)
(1.62793 -0.411449 0)
(1.80275 0.20068 -1.63735e-19)
(4.10223 -0.463186 1.34865e-18)
(-1.11892 -0.594937 5.90501e-19)
(2.88346 1.37963 0)
(2.17881 -0.044509 0)
(-2.14876 0.147653 -1.06973e-18)
(1.85964 -0.0843851 0)
(2.57662 0.0792403 0)
(-0.436986 -1.21573 -7.79892e-20)
(2.03254 -0.396021 -4.15725e-19)
(1.72435 -0.413766 2.5293e-19)
(2.87644 -0.482108 4.22067e-20)
(-2.41401 1.0696 1.51568e-18)
(1.98922 0.0660618 1.32683e-19)
(1.49568 -0.340063 0)
(2.20133 0.470349 -3.8484e-20)
(1.38682 -0.166751 0)
(2.3068 0.0324555 0)
(2.00255 0.121137 0)
(2.21954 0.170978 -1.01335e-20)
(1.85726 -0.0200779 2.39834e-19)
(2.13085 0.0472479 -6.16023e-21)
(1.53833 -0.346563 0)
(-2.26784 1.37276 -1.23103e-18)
(2.10676 1.13941 4.07963e-20)
(1.84559 -0.677601 2.82109e-20)
(1.9507 -0.0541095 -7.29854e-20)
(2.38455 -0.592481 3.98559e-19)
(2.03859 0.0640191 -2.22291e-19)
(-0.251483 1.09868 0)
(2.61068 -0.0650909 0)
(1.44046 0.899134 0)
(1.19384 -0.54109 -5.28192e-19)
(1.2193 -0.891378 -4.7482e-20)
(0.220678 -0.0823913 0)
(2.22416 0.480682 0)
(2.65057 -0.179756 6.90267e-20)
(1.94929 -0.0277981 -6.27393e-20)
(1.92918 0.646616 2.52369e-19)
(1.56701 -0.682939 0)
(-2.57777 1.37724 -5.86844e-19)
(2.40637 0.0586839 1.12087e-21)
(1.38218 -0.39578 -5.01892e-19)
(2.25414 0.0607927 -5.05442e-20)
(2.35431 0.606797 5.11804e-20)
(2.28341 -1.45529 2.13264e-19)
(1.19222 -0.544309 9.22655e-19)
(1.83402 -0.658585 1.05993e-19)
(2.12288 0.0846221 2.29241e-21)
(1.99947 0.0171068 -6.66889e-20)
(1.12103 -0.526654 -8.51078e-20)
(1.69483 -0.285398 2.15241e-20)
(1.69932 2.21239 4.48918e-20)
(1.25957 -0.604261 1.36877e-19)
(2.66411 0.0661145 0)
(1.39896 -0.883997 4.50255e-20)
(2.20788 -0.0441999 -2.09175e-19)
(3.00194 0.662839 1.40438e-19)
(1.35114 -0.359174 -4.57304e-19)
(1.83115 -0.651225 -3.05422e-19)
(1.97097 -0.0151297 6.11911e-19)
(2.38662 -0.0622965 -3.49324e-19)
(1.66361 -0.275087 -1.11259e-20)
(2.88712 -0.0456831 -2.30562e-19)
(1.12231 -0.126434 -9.92666e-19)
(2.12776 -0.0262154 -1.56553e-19)
(1.1047 -0.194649 0)
(0.858079 -0.90426 -7.63149e-20)
(1.93352 0.0181726 5.54171e-19)
(1.70651 -0.00356859 -1.78604e-21)
(-0.978599 -0.744199 0)
(1.48052 -0.683105 0)
(2.05289 0.447888 2.19379e-19)
(0.98358 -0.117917 6.15672e-19)
(1.57264 -1.49624 -2.37891e-19)
(2.10475 -0.707717 -1.54137e-19)
(2.22399 -0.409176 3.588e-19)
(3.28232 0.539765 0)
(2.06475 0.480923 1.16338e-19)
(1.31355 -0.444353 -3.01228e-21)
(2.58292 1.04019 1.41297e-19)
(1.95497 -0.256275 -3.61099e-19)
(-2.37877 1.08649 -2.3856e-18)
(2.36082 -0.558346 -3.86598e-19)
(2.56589 -0.620494 1.35396e-19)
(2.3465 1.22863 0)
(2.02694 -0.29153 -4.86655e-20)
(1.8754 0.0572762 6.00005e-20)
(2.01841 0.00667648 1.26527e-21)
(0.777225 -0.376123 8.44842e-19)
(1.93297 -0.252496 5.40677e-19)
(1.99849 0.382195 -5.76037e-21)
(-1.10191 -0.424587 -3.17262e-19)
(2.23092 -0.118093 -1.33873e-19)
(2.27015 -0.0251346 1.39129e-19)
(-1.64521 -0.23588 -2.99363e-19)
(2.4787 0.997886 -1.34636e-19)
(-0.977796 1.62049 -1.91678e-18)
(0.927397 -0.454741 -2.80977e-19)
(2.02383 0.00702955 0)
(2.1112 0.134917 -1.12289e-20)
(-0.839172 -1.70923 -5.04568e-19)
(1.29916 -0.112174 9.04251e-19)
(2.0762 0.0209843 0)
(1.97028 -0.262687 5.23208e-20)
(1.15578 -0.480215 2.08936e-19)
(1.99163 0.0478134 -5.67426e-19)
(-1.57694 0.242758 -4.97517e-19)
(1.62561 -0.406871 -1.31381e-20)
(2.19439 -0.205083 2.12817e-19)
(2.3431 0.0538626 5.21238e-20)
(1.67471 -0.769226 -3.72531e-19)
(2.1426 0.0632065 8.62466e-21)
(1.22108 -1.00005 -1.49519e-19)
(2.12106 -0.0455968 1.96199e-19)
(2.06071 -0.0578181 -1.71894e-19)
(2.16242 0.0942336 -6.77663e-21)
(2.12505 -0.0329446 -3.76855e-19)
(1.09452 -0.487995 -4.03559e-19)
(2.11878 0.0773553 0)
(0.373747 -1.32786 1.08696e-19)
(2.10858 0.0703666 4.28419e-20)
(0.700462 -0.099538 -6.37495e-20)
(2.41665 0.0243941 -4.34672e-20)
(2.16752 -0.422155 -2.1993e-19)
(2.00041 0.0199389 -4.36434e-19)
(2.11583 0.321232 6.39714e-20)
(-1.6491 0.52737 -6.85411e-19)
(2.56072 0.0735035 0)
(1.71503 0.175904 4.20876e-21)
(2.67632 -0.02497 4.35817e-20)
(1.43982 -0.542303 0)
(2.1555 0.0741729 1.10925e-19)
(2.68547 0.0391933 4.23457e-20)
(2.50922 0.0675058 5.14222e-24)
(2.33163 -0.788693 -2.66716e-20)
(1.8164 -0.0485007 0)
(1.78404 0.380008 4.62995e-19)
(2.06694 0.30469 1.18808e-20)
(1.23366 -0.597792 2.98439e-19)
(2.0063 -0.170459 0)
(1.46079 0.335714 -7.48535e-19)
(1.4124 -0.390238 -2.08842e-20)
(2.63291 1.51958 -3.56372e-19)
(1.13244 -0.151912 9.65106e-19)
(2.08542 -0.00520848 9.58383e-21)
(-0.465678 -0.00744866 1.39045e-19)
(1.93188 -0.0722354 -3.74624e-19)
(2.62733 -0.507989 -3.59054e-19)
(1.77439 0.170659 -3.46482e-19)
(1.99725 0.0104421 0)
(1.99938 0.0358312 -2.52306e-19)
(0.106429 -0.109208 7.80558e-20)
(-0.724871 -0.153788 0)
(2.42913 -0.977592 0)
(2.01754 0.00610853 0)
(0.462785 -0.263776 0)
(2.06512 0.325453 0)
(1.05897 -0.117387 0)
(1.93621 -0.459036 -3.45246e-21)
(3.68787 -0.76017 -6.02609e-19)
(2.61687 0.293978 0)
(1.76473 0.381355 6.98814e-19)
(1.54451 -0.413075 -4.52054e-21)
(2.09456 0.201957 6.61083e-21)
(-0.686453 -1.63177 -3.57354e-19)
(1.07668 0.137013 -2.88681e-21)
(-1.63246 0.548117 4.79954e-19)
(1.89476 0.00215763 -1.42868e-19)
(2.66496 -0.0574508 2.73928e-20)
(2.04172 0.307938 -1.53485e-19)
(1.87273 0.208088 -4.6171e-19)
(2.03186 1.06665 -1.42571e-19)
(3.48027 0.99338 0)
(0.928209 -0.541456 2.09192e-21)
(1.22357 -0.353581 -8.04777e-19)
(2.01105 0.0278008 -7.81197e-19)
(2.28014 -0.689223 -2.96819e-19)
(2.00203 -0.023208 5.9217e-20)
(2.55234 -0.653555 3.98232e-20)
(2.11493 -0.324713 -4.7343e-20)
(2.04536 -0.533319 -3.0293e-19)
(2.0353 0.184339 1.69181e-19)
(2.19339 1.32381 0)
(1.81487 -0.191399 -2.48975e-20)
(1.67574 0.107736 -1.06665e-19)
(2.51467 -0.41491 0)
(1.72188 -0.0223 0)
(1.72386 -0.792363 -3.49048e-21)
(-0.287638 -0.138092 1.27826e-19)
(1.91082 -0.470037 -1.18175e-19)
(1.82322 0.0481117 0)
(1.89627 -0.0321977 -4.90454e-19)
(1.79335 0.242679 -8.96816e-20)
(0.535127 -1.06285 4.9847e-20)
(2.6004 0.110808 2.40252e-20)
(-1.40727 0.400581 0)
(0.890402 -0.535486 3.86227e-21)
(2.65135 0.0706363 0)
(2.00143 -0.306248 5.11492e-20)
(2.58398 -0.271345 -7.32796e-20)
(1.99947 0.0327459 -3.48768e-22)
(2.43921 0.670369 3.67645e-20)
(2.84388 1.24771 -3.87303e-20)
(1.71526 -0.485576 6.09021e-19)
(1.1046 -0.552688 0)
(1.59515 -0.932592 -1.36071e-19)
(1.55147 -0.501876 0)
(2.67231 0.272972 -6.07151e-20)
(0.487808 -1.01165 7.16135e-20)
(2.36852 -0.963474 2.68181e-19)
(1.70316 0.139693 -6.23783e-21)
(0.0115666 -2.13554 -6.90491e-19)
(1.0584 -0.522025 -3.44615e-19)
(1.26858 -0.362561 -4.67229e-19)
(1.95639 0.0835468 -1.78743e-21)
(1.64196 -0.905098 1.11614e-19)
(1.13683 -0.503023 3.31804e-19)
(1.32983 -0.39045 5.13115e-19)
(1.2142 -0.853469 5.24395e-20)
(1.77712 -1.01876 -8.28052e-20)
(1.82314 -0.575258 3.03955e-19)
(-0.299148 1.32979 9.33046e-19)
(2.15475 0.01069 5.07661e-21)
(1.51546 -0.421096 6.37967e-21)
(2.37254 0.407197 -1.86558e-20)
(2.22421 -0.570609 0)
(0.484831 -0.268426 -2.10409e-18)
(2.10663 -0.0388888 -2.61269e-19)
(1.99911 0.12832 0)
(2.64071 0.253922 0)
(1.49354 -0.724065 -6.2319e-20)
(2.84668 -0.680793 -4.11954e-19)
(2.44971 0.19104 7.7759e-20)
(2.02876 -0.384935 5.45075e-19)
(2.00649 1.02238 1.36837e-19)
(1.47251 -0.0127716 3.9229e-19)
(0.365045 -1.13844 -1.34596e-20)
(1.81355 0.671262 0)
(1.36231 -0.423038 4.91594e-19)
(0.246081 1.56341 5.10763e-19)
(0.0118381 -2.00395 5.00711e-19)
(1.69985 -0.659281 1.00822e-19)
(1.38087 -0.627208 -7.47238e-20)
(1.79484 -0.00615104 2.03231e-19)
(1.71211 0.0469281 6.32936e-21)
(2.28612 -0.337706 2.49088e-19)
(0.265338 -1.15184 -6.96179e-20)
(2.4321 0.187445 -5.52307e-20)
(1.93947 0.0726644 1.94626e-19)
(1.0999 -0.182132 -3.96419e-19)
(1.86335 -0.0602362 3.06369e-19)
(1.6489 -0.278823 0)
(2.45405 0.365308 -5.60677e-20)
(1.97957 0.0656417 4.34194e-20)
(1.44591 -0.272735 -1.57497e-19)
(1.95229 1.97381 9.61843e-20)
(1.79262 -0.561282 2.25829e-19)
(2.06349 0.0167846 8.33934e-20)
(1.35193 0.198926 -5.8602e-19)
(2.49519 -0.424117 0)
(1.73845 0.144854 -9.01676e-21)
(2.26511 0.0800595 6.868e-20)
(1.98504 -0.0582191 0)
(1.37243 0.0892861 3.36265e-19)
(2.60872 0.10902 0)
(1.84253 1.97997 -5.00896e-20)
(2.35095 -0.0371816 0)
(1.81657 -0.212505 0)
(2.56807 -0.0240587 4.70301e-20)
(2.42316 0.147572 -2.32427e-20)
(2.95768 0.114009 -3.99944e-19)
(1.91841 0.162891 -2.09882e-19)
(1.61102 1.2858 -1.26369e-19)
(2.00396 0.108542 -8.00114e-20)
(2.09629 0.32983 0)
(2.53231 0.913208 -1.7957e-19)
(2.50606 0.119588 8.63729e-20)
(1.97744 -0.290752 -1.05139e-19)
(2.22403 -0.566037 0)
(3.03167 0.650237 2.11021e-19)
(2.3176 1.76082 2.37694e-20)
(2.14214 0.0104707 2.10287e-20)
(1.7232 -2.5255 0)
(-0.131937 -1.39729 1.61015e-18)
(2.05337 0.177528 0)
(2.31441 -0.298116 -1.25553e-19)
(0.183246 -0.370794 0)
(3.47663 0.57103 0)
(1.80877 -0.697562 0)
(2.01307 -0.765151 0)
(-1.61979 0.965436 -3.41985e-19)
(0.415666 -1.73128 -5.1559e-20)
(1.84418 -0.0140971 -3.59727e-19)
(0.854738 -0.787865 -2.83616e-20)
(1.22106 -0.532027 0)
(0.916901 -0.980752 -3.53377e-20)
(-0.0245888 -0.523338 -1.54382e-18)
(1.45574 -0.689163 0)
(1.44071 -0.502969 -5.26543e-19)
(1.96452 0.153624 1.89272e-21)
(2.35666 0.393642 3.69839e-20)
(2.36009 -0.813126 7.79461e-20)
(1.85906 0.193219 0)
(2.17131 -0.709096 0)
(3.42004 0.183065 2.11361e-19)
(1.69081 -0.247521 5.43349e-21)
(1.92477 0.0921407 2.38162e-21)
(1.49446 -0.714744 -6.59402e-22)
(1.99756 0.00936646 1.87584e-20)
(2.10806 0.130237 4.61609e-22)
(2.0335 0.185565 2.43847e-19)
(1.76141 0.197275 2.37948e-21)
(1.8682 -0.515332 0)
(-2.47631 1.80242 0)
(2.13231 0.0508649 0)
(1.92761 0.0130043 0)
(1.71391 -0.291527 2.23161e-19)
(2.74872 -0.0949428 0)
(-0.93846 -0.25111 3.97165e-18)
(2.13174 -1.49287 -2.53722e-20)
(1.29443 -0.406805 -7.70509e-19)
(1.52511 -0.390786 -1.20263e-21)
(0.495063 -1.39082 -6.21227e-20)
(0.18013 -0.0272663 -2.21332e-18)
(1.90058 0.0300088 6.65275e-20)
(-0.0347551 -1.27326 -1.16336e-19)
(1.78885 0.22187 3.95469e-22)
(2.5792 -0.0127809 0)
(2.3376 -0.396874 0)
(1.64331 -0.44724 0)
(2.16388 -0.438696 1.16442e-19)
(1.72632 -1.09457 0)
(1.84977 0.676803 0)
(2.00176 0.0122295 0)
(1.74576 -0.417854 2.35853e-19)
(2.09089 0.199463 -2.19775e-19)
(1.84687 0.020138 0)
(1.98736 -0.468365 -1.16962e-19)
(1.9808 0.194252 -2.42581e-19)
(2.58396 0.932083 -2.95903e-19)
(1.49873 -0.705749 3.15536e-19)
(1.92517 0.723286 -1.73175e-22)
(1.70151 -0.354607 -4.01131e-21)
(1.68967 -0.0135242 1.86976e-20)
(1.83228 -0.285315 -5.1341e-20)
(2.40935 0.153985 3.58232e-20)
(1.93505 0.0853973 5.98315e-21)
(1.80389 0.0975727 -3.38835e-19)
(2.12267 -0.0395691 0)
(0.731784 -0.121252 4.81715e-20)
(1.96117 0.0764839 3.49279e-19)
(1.35457 -0.45429 -2.04952e-20)
(2.11163 -0.307791 -1.37958e-19)
(1.01481 -0.140463 -6.71197e-19)
(2.41887 0.12744 -6.91254e-21)
(3.17363 0.362047 3.62854e-19)
(2.00147 0.0856614 0)
(1.95643 -0.981317 5.58166e-20)
(1.80816 0.0572427 -4.92404e-21)
(1.84358 -0.29477 1.01193e-19)
(0.802438 -0.496256 -2.71281e-20)
(2.04799 0.021668 1.81576e-19)
(2.12917 0.0747122 -2.49662e-21)
(2.08461 0.00646756 -7.36622e-21)
(2.12764 0.0459723 0)
(1.45913 -0.343705 0)
(1.31815 -0.636275 3.84815e-19)
(-1.44082 0.288144 5.37839e-19)
(2.03794 0.00145946 4.40589e-22)
(1.95821 0.0745503 6.99138e-19)
(1.82422 -0.826243 -1.386e-19)
(1.42765 0.323388 0)
(1.79045 0.118156 0)
(1.57146 -0.328444 -3.03286e-21)
(2.51361 0.0130192 7.37875e-20)
(1.97479 0.69918 3.30544e-19)
(2.49466 -0.183085 0)
(2.04967 -0.00466213 0)
(2.06389 -0.602618 4.20948e-19)
(1.97917 -0.149732 2.8944e-19)
(0.0810846 -0.0805246 -4.74328e-21)
(1.79838 -0.0299097 0)
(3.42442 0.547838 2.71172e-19)
(2.1176 -0.595521 -4.91486e-20)
(-0.838301 -1.45963 -6.72153e-19)
(2.00614 -0.00857563 -3.90473e-19)
(3.58816 -0.535193 0)
(2.91628 -0.67579 3.26128e-19)
(1.98768 -2.31792 -5.72235e-19)
(-0.00109442 -0.0342872 0)
(1.95507 0.0185334 4.99458e-21)
(1.90829 0.130057 -2.27281e-19)
(1.94699 0.00561495 9.04685e-24)
(2.60141 -0.289316 4.33209e-20)
(1.51034 1.26391 5.30359e-19)
(1.86769 0.044127 0)
(1.00554 -0.360413 -4.27808e-21)
(1.95424 -0.685438 1.04331e-19)
(3.23075 -2.1128 -1.94669e-18)
(2.05622 0.305953 1.82157e-19)
(1.12342 -0.538789 -7.89672e-21)
(2.00797 0.00392109 -8.44755e-19)
(2.00171 0.411752 3.39281e-21)
(1.6635 0.0493845 1.36421e-20)
(1.70963 -0.376307 0)
(1.82271 0.0224014 -3.43716e-20)
(1.06364 -0.49185 2.65162e-19)
(2.22174 -0.114604 -4.20589e-19)
(1.98439 0.0668939 -3.16188e-19)
(2.30005 -0.276532 1.1581e-19)
(1.65614 -0.127046 8.13754e-19)
(2.13924 0.00796038 -5.61606e-21)
(1.77921 0.119217 1.97065e-19)
(1.97796 0.102825 7.93201e-21)
(2.90007 -0.486731 -4.82433e-19)
(2.52223 1.07108 -2.10574e-19)
(1.62688 -1.56967 1.84128e-19)
(1.91394 -0.0234212 0)
(1.52964 -0.460503 0)
(0.922388 -0.202093 0)
(1.29448 -0.36981 5.96323e-19)
(2.14774 0.0721196 -5.14707e-19)
(1.77807 0.264844 0)
(1.48642 -0.290262 -4.68338e-19)
(1.77538 0.23841 0)
(1.72355 -0.263237 -3.66514e-19)
(1.95884 -0.303351 -1.09566e-19)
(1.84396 -0.483998 -3.33763e-19)
(1.94922 0.0450603 0)
(1.94316 0.0593352 0)
(2.00124 -0.0641253 6.36257e-20)
(2.57845 0.240569 6.43093e-21)
(2.62834 -0.102405 1.93433e-19)