/*--------------------------------*- C++ -*----------------------------------*\
| =========                 |                                                 |
| \\      /  F ield         | OpenFOAM: The Open Source CFD Toolbox           |
|  \\    /   O peration     | Version:  2306                                  |
|   \\  /    A nd           | Website:  www.openfoam.com                      |
|    \\/     M anipulation  |                                                 |
\*---------------------------------------------------------------------------*/
FoamFile
{
    version     2.0;
    format      ascii;
    arch        "LSB;label=32;scalar=64";
    class       surfaceScalarField;
    location    "0.1";
    object      phi;
}
// * * * * * * * * * * * * * * * * * * * * * * * * * * * * * * * * * * * * * //

dimensions      [0 3 -1 0 0 0 0];

oriented        oriented;

internalField   nonuniform List<scalar> 
20045
(
0.563654
-0.646468
0.0828137
-1.0964
0.42921
0.667187
0.287509
1.64463
-1.93214
0.149785
-0.2226
0.072815
-1.01407
0.814501
0.199572
-0.477076
1.94068
-1.4636
-0.930319
0.137113
0.793207
0.0489776
0.519675
-0.568652
0.514242
0.450881
-0.965123
-0.655941
-0.251238
0.907179
-0.245708
0.650345
-0.404637
1.83853
-0.946238
-0.892289
0.429021
-0.429899
0.000877345
-1.19923
0.8165
0.382728
-0.113776
0.927847
-0.814071
-1.076
0.420059
-0.0168731
-0.361463
0.378336
1.12323
-0.450408
-0.672823
-1.55492
2.17045
-0.615532
-0.793973
-0.00276716
0.79674
0.264781
-0.153265
-0.111516
0.142195
0.286826
-0.212914
-0.883482
0.678136
0.413608
-1.09174
0.938687
0.0633626
-1.00205
-0.491129
1.16927
0.418711
-0.438442
0.0197303
-0.936957
1.89403
-0.957068
1.77007
0.177759
-1.94783
-1.86706
1.19536
0.671695
0.312502
-0.479869
0.167366
1.22057
-1.06241
-0.158154
-0.519296
1.05918
-0.539884
2.11161
-1.25701
-0.854598
-0.666447
0.715425
2.2474
-1.11128
-1.13612
1.39494
0.339171
-1.73411
-0.0695189
0.458469
-0.38895
-2.12808
0.864451
1.26363
0.639296
0.574654
-1.21395
-0.0770175
0.688045
-0.611028
0.228665
-0.30659
0.0779255
2.1466
-2.16566
0.0190508
1.40572
-0.381794
-1.02392
0.547019
0.858699
0.912748
0.925779
0.575937
-0.382082
-0.193855
1.21014
0.658264
-1.86841
1.88183
-0.48689
0.117929
1.53459
-1.65252
1.33012
-2.28561
0.955484
1.95452
-1.42561
-0.528917
-0.853823
-0.830229
1.68405
-0.117899
-0.34069
0.458589
0.692034
0.158304
-0.850338
-0.715687
-0.298385
0.146058
1.40651
-1.55257
1.73176
0.114714
-1.84648
0.747138
-1.26643
2.15839
-1.54568
-0.612709
-0.154242
0.551184
-0.396942
0.793849
1.36454
0.564136
-1.11045
0.546318
0.0478053
0.216976
0.300119
0.567556
-0.867675
1.58142
0.347886
-1.92931
-0.0892328
0.221955
-0.132722
-0.71821
0.100383
0.617827
0.886175
-0.371934
1.96824
-2.03569
0.0674512
-0.198398
0.109165
-0.560634
1.25267
-0.219822
-1.11046
1.33028
-0.526897
0.701215
-0.174319
1.77867
-0.221545
-1.55713
1.37107
-1.22502
-0.166318
1.94499
0.619066
-0.732842
-0.623217
0.577289
0.045928
0.784861
-1.45773
0.672867
1.01082
1.22609
-2.23691
0.900126
-0.818265
-0.0818611
0.863375
-0.299239
-2.01322
0.365129
1.64809
-0.00901713
0.572671
-0.418188
0.638206
-0.220018
1.06391
-1.66171
0.597797
-1.62235
0.135696
1.48665
1.00428
0.283841
-1.28812
-0.923567
0.713141
0.210425
-1.35696
0.0495385
1.30743
0.868719
-0.20912
-0.659598
0.452179
-0.681788
0.229609
-0.236883
-0.781721
1.0186
0.654225
-0.719491
0.0652657
1.48613
0.428937
-1.91507
0.364253
0.0544588
0.0669152
-0.24824
0.181325
1.32787
-0.688569
0.0521616
-0.395704
0.343542
1.55209
0.695308
-0.589332
-0.609897
-0.220841
0.287756
-0.331934
2.0637
0.162481
-0.580669
0.447935
-0.395774
0.374831
1.27877
-1.6536
1.27681
-1.97299
0.696184
-0.0472802
-0.589923
0.496586
0.0933369
-0.367908
0.460205
-0.0922965
1.029
-0.967091
-0.0619068
-0.57999
0.462091
1.34287
-2.10973
0.766864
-0.263605
0.404906
-0.141301
0.0689168
-0.438619
0.369702
1.09546
-0.156771
1.55065
0.56096
-1.1691
0.949279
1.35711
-2.02604
0.668925
0.364979
0.758252
0.384125
-0.538367
-0.876492
0.711411
0.165081
-0.85127
0.137699
-0.687815
0.550116
1.37052
0.584001
1.05771
-1.50782
0.450109
1.54038
0.157951
-1.69834
-2.09298
1.60352
0.489467
-0.807632
-0.301583
1.10922
2.04006
-0.669541
-0.666564
0.284482
0.736727
-0.734442
-0.00228472
0.580223
-0.54668
-0.0335422
1.17018
0.820849
-1.99103
1.27249
-1.11099
-0.161497
-0.340991
0.0995915
0.2414
-0.417084
-0.17284
2.24171
-0.884599
-0.760417
0.76587
-0.00545238
0.965947
-1.64418
0.678233
0.443129
-1.29695
0.816823
0.573006
-1.38983
1.53265
-0.747791
1.96697
-0.24698
-1.71999
0.286703
-0.877561
0.590858
1.84276
-1.26884
-0.573926
-0.321155
0.413174
-0.0920188
0.0372547
1.62051
-1.65776
2.09623
-0.326162
-1.68248
0.129136
1.55334
-1.05934
0.733102
0.326235
1.99155
-0.980727
0.217403
0.682724
-1.28342
1.41021
-0.126797
-1.27828
1.56578
0.0224472
-0.553537
0.53109
-0.139413
-0.414837
0.55425
-0.0525452
-0.426779
0.479324
1.6702
0.0332484
-1.70345
2.2152
-1.04265
-1.17255
-0.516166
0.463621
0.951289
-1.27233
0.321045
0.284533
-0.055868
-1.75754
-1.03761
1.15963
-0.122022
-1.1945
1.04221
0.15229
-0.0282888
-0.123489
0.151778
0.717823
1.12494
0.235576
0.344646
0.662497
0.0742301
-1.33235
0.0489335
-1.44192
1.80807
-0.366151
-1.41793
1.41402
0.00391256
-1.2009
-0.833522
2.03443
0.212576
-0.527042
0.314466
0.678599
-0.974022
0.295423
1.2333
0.23256
-1.46586
-0.0510077
-1.45764
1.50865
-0.815154
1.63198
0.38443
-1.16825
0.783818
-0.75353
2.0964
-1.43756
1.11473
0.322821
-0.276001
0.327604
-0.0516028
0.732405
-1.91128
1.17888
-1.55379
0.616838
-1.19942
-0.778296
1.77963
-1.16582
-0.61381
-0.793521
0.716503
0.43632
-0.469092
0.0327713
-1.49259
-0.46122
1.95381
-1.47224
2.07263
-0.600398
2.01786
-1.43324
-0.584618
0.00120755
-0.433615
0.432408
-0.459365
-1.09465
1.55401
-0.525125
0.279417
-0.904414
0.0967814
-1.12163
-0.442657
1.56428
0.304412
0.0630356
-0.367448
-0.0115396
-1.02607
0.491017
-0.178515
1.59701
-0.0566304
-0.381168
0.311649
-0.491852
0.611762
-0.11991
-0.340827
2.01102
-1.65329
1.19392
1.02745
-0.393092
-0.634356
-1.48314
0.357965
1.12518
0.705351
1.31251
1.99222
-1.25981
1.28897
-2.05168
0.762711
0.720826
-1.28193
0.561103
0.136963
-0.930936
-0.992028
1.36686
1.2527
-1.72977
0.204489
-1.34917
1.14469
-2.01205
0.997356
1.01469
-0.218565
-0.705002
0.383718
0.347764
-0.731483
0.886272
-0.072892
-0.81338
-0.412577
-1.08886
1.12611
-0.556127
-0.20429
1.09357
1.58451
-1.44345
-0.141054
-0.0248047
-0.321177
0.345982
1.23849
0.0349335
-1.27342
0.0548096
0.460201
-0.515011
0.0495552
1.17879
-1.22835
-0.664006
1.72792
1.1968
-0.812372
0.0384819
0.820153
-0.858634
1.33569
-0.369745
0.296292
-0.0255673
-0.270725
0.0950964
0.214619
-0.309715
-0.344994
0.359734
-0.0147403
1.80713
-1.22378
-0.583356
0.464808
-1.93704
-0.388743
0.0437491
-1.52714
0.36578
1.16136
1.5728
-0.513621
0.55437
-1.99629
2.34862
-1.11798
-1.23065
-0.0491267
0.353539
1.92672
-0.832507
-1.09421
-1.19918
0.179563
1.01962
-1.84125
1.68217
0.159086
0.689629
-1.35868
0.669049
-0.477149
0.0615415
0.415607
-1.00328
1.17062
-0.167346
0.0916283
-0.352192
0.260564
-0.375177
0.111573
-0.447297
0.0793884
-1.35337
-0.619621
1.11157
-1.64965
0.538075
0.194024
-0.518602
0.324578
0.905501
0.315066
1.08307
-0.87858
-0.607291
0.467878
0.900123
0.672678
-1.06544
0.1271
0.938336
0.672517
1.2542
0.815322
0.112526
0.427172
-0.233147
-0.630788
-0.121351
0.752139
0.0525925
-0.328594
-1.27927
1.32883
-0.060992
0.356467
-0.295475
-1.78479
1.75575
0.0290385
-0.487154
1.39874
-0.911584
-0.273243
-0.348408
0.621651
1.45244
-1.65358
0.201139
-1.11376
-0.898288
2.04809
-1.43349
-0.614596
-0.26422
0.239415
1.45305
-0.763421
-0.596974
1.70855
0.287967
-0.84129
0.553323
1.84251
-0.254725
-1.58779
1.89782
-0.445884
-1.45194
-0.642562
0.930529
1.64924
-1.0053
-0.643935
-0.439757
1.64449
-1.20474
0.466195
-0.991493
0.525298
-0.514712
0.146261
0.368451
-0.461551
0.0413671
0.420184
1.86595
-1.422
-0.443948
-1.13154
-0.961447
1.23609
0.348414
-1.60667
-0.178121
-0.159279
0.254375
0.548303
-1.74878
1.20047
0.0107153
0.425605
-1.06882
2.239
0.601108
1.20602
1.93642
-1.27395
-0.662475
-1.94274
1.50009
1.21701
-1.88851
0.671498
-1.24386
-0.122906
1.36676
-0.734105
-0.182678
0.916783
1.16001
-0.208724
0.576731
0.450716
0.628985
-0.254011
-0.808402
-1.38089
2.00168
-0.620792
-0.596997
0.105145
-0.839852
0.878334
0.287623
-2.12888
1.17408
-1.83808
0.38924
-0.680271
1.17801
-0.497735
-0.0190472
0.168833
-1.01991
0.56488
0.45503
0.779161
0.249837
0.0443733
0.507943
-0.552316
0.93943
0.333061
-1.20804
1.75634
1.16564
-0.161359
-0.504924
-0.97822
2.06841
-1.33105
-0.737361
1.9206
-1.93987
0.739934
1.19994
1.54971
-1.73621
0.186496
-0.933078
0.696195
-0.327079
-0.013912
-0.400313
-0.956652
0.698929
-1.14401
0.445083
0.799332
0.849904
1.16981
-1.79605
0.626239
0.575428
-1.1296
0.554174
-2.01237
0.390021
0.0694134
0.799305
-1.11096
1.37278
-0.261823
-0.448997
0.648762
-0.199765
-1.0418
0.111477
-0.255303
-0.51551
0.770813
0.27255
0.00439011
-0.27694
-0.546615
-0.512722
0.653846
0.984571
-1.63842
1.83902
-1.16651
0.789138
-0.889382
-0.0436964
0.974556
-0.399128
-1.25449
-0.183064
-0.253264
0.374539
-0.121275
1.88621
-0.676068
-0.973498
1.46585
-0.492348
-0.293347
0.343964
-0.0506171
1.16988
-0.283607
-0.657782
-1.09099
-0.979615
1.72466
-0.745048
1.06602
-1.78493
0.718908
0.807054
1.24103
-0.386161
0.34218
0.0439804
0.219311
-1.46317
1.3962
-2.14182
0.745626
-0.68888
0.161983
-0.223243
1.28095
-0.493716
1.66779
-0.524876
1.2457
0.371299
-1.92621
-1.39259
0.942706
0.44988
1.30381
-0.269944
-1.03387
1.82307
-0.370635
-0.8697
-1.05403
-0.978507
0.712647
0.530624
-0.701659
0.171034
0.657953
-0.660721
-1.46965
1.24641
1.65832
0.488281
-1.57531
0.60181
1.58515
-0.349053
0.219156
-0.363178
0.144022
-0.183966
-0.955771
1.13974
-1.75513
0.318685
1.43645
1.69374
-1.69374
-0.693269
1.86604
-1.17277
0.614509
-0.570136
0.883435
-0.784642
-0.0987936
-1.87786
1.8598
0.0180579
0.760399
-0.0433094
-0.71709
0.601507
-0.194999
-0.406507
0.329611
-0.602853
-0.13594
1.14212
-1.7391
-1.48791
1.7881
-0.300194
-0.563835
1.21768
0.456696
0.0307527
-0.487449
0.245901
0.151289
-0.397191
-0.775979
0.912942
1.81375
-1.34476
-0.468993
-0.220271
-1.03421
1.25448
-0.544467
0.586005
-0.0415384
0.360445
-0.618031
0.257586
-2.10426
0.881281
1.22298
-0.138904
-0.0836964
0.338581
-0.119425
0.0234719
-0.450462
0.42699
0.834386
1.03156
0.437513
0.0191834
-0.279739
-0.392989
0.672728
-0.955657
1.5124
-0.556746
0.262267
0.413589
-0.675856
0.76127
-0.624157
1.63953
-0.251548
-1.38798
0.130089
-0.91181
0.0533683
1.17993
0.903559
0.548713
-1.45227
1.03536
-0.830366
-0.204997
-2.06753
0.385055
-0.837581
0.544869
0.292712
0.547098
1.01087
-1.55796
-1.27727
1.15436
0.145594
-1.83564
1.69005
-0.336191
0.337399
-0.281734
0.337229
-0.0554954
0.114625
-0.745413
-0.787491
0.160797
0.626693
-1.2551
-0.272046
1.22776
0.807625
-0.224384
-0.583241
-0.32199
0.0286431
0.235417
-1.37562
1.14021
0.229966
0.982136
-1.2121
0.505681
-1.41603
1.56469
-0.148665
-1.4975
1.05775
-0.184246
-0.254196
-0.817491
-0.377005
-0.602326
0.152474
0.449851
-1.73599
0.780334
1.28637
-1.50664
0.501817
1.08333
-0.74205
0.667142
0.0749085
0.305949
-1.3436
1.03765
0.387523
-0.625737
0.238214
1.07152
-1.7293
-1.25145
-0.166476
-0.730212
0.0120026
-0.545994
0.0308661
0.515128
0.699993
-0.00638788
0.77525
-0.768862
1.4217
-0.874604
-1.49078
1.96397
-0.473185
0.548533
0.4163
-0.964833
-0.757865
0.421673
-0.52698
-0.0753451
0.229526
0.653909
-0.574211
-1.45183
-0.408214
0.15495
1.21999
0.889337
0.276305
-1.48191
1.59984
-0.145588
-0.572876
0.718464
-0.166771
-1.62159
1.78836
0.278357
-0.2876
0.00924271
0.565763
-0.353187
-0.472102
0.938297
0.993218
-0.706515
-0.663182
-0.356727
0.0316358
-0.901709
0.870073
0.836244
-2.03715
0.0134032
-1.00938
0.99598
0.106671
-0.197329
0.0906582
-1.26456
0.0126386
1.25192
1.93962
-1.28136
-0.00876944
0.227827
-0.219058
-0.503215
-0.0412514
0.375013
0.760537
-1.13555
0.366605
-0.447188
0.0805831
1.35904
0.774009
-2.13305
-0.785228
2.27136
0.267991
0.00455937
-0.539109
-1.17257
1.71168
0.832886
1.40883
1.54617
-1.3162
-0.773273
0.51797
-0.438161
-0.0233901
-0.6253
1.84231
0.27456
-1.57106
1.2965
1.90313
-0.263131
-1.64
-0.529182
1.17761
-0.648429
0.822449
-0.29962
-0.890476
1.1901
0.438086
-0.448276
0.0101897
-0.537422
-0.965579
1.503
0.390122
-0.14422
0.127818
-0.156107
1.0312
-1.56863
-1.40386
-0.39438
1.79824
-0.0697296
-0.993617
1.06335
-0.0998697
2.09009
-2.16711
0.0770219
0.46607
-0.230243
-0.235827
-0.0772836
-0.664767
0.544549
0.474055
-0.687965
-0.0461406
-1.5032
1.8903
-0.387095
0.330152
-0.391144
1.00996
0.522687
-1.68933
-0.476322
-0.0823233
-0.396935
0.479258
1.04254
-0.153204
-0.478342
0.523076
-0.0447334
-0.270927
0.362556
-2.29146
1.09204
1.6614
0.279277
-0.194315
0.554759
-0.426331
0.974864
1.71709
-0.574971
-0.482342
0.003999
-0.234708
-1.23494
0.630445
0.576656
-0.554209
-1.82378
0.0686435
-0.124994
0.467148
-0.0796248
-1.99558
1.2274
0.768179
1.65791
0.310324
0.452254
-0.14933
-0.302924
0.681821
-0.592829
-0.0889911
-1.78701
0.675734
-2.02143
1.04181
-0.487173
0.14297
0.344203
0.0476072
-0.266787
0.21918
1.88025
0.0741998
-1.95445
0.51206
0.0388867
-0.550947
-0.314372
-0.56212
0.493693
-0.0415144
-0.287342
0.301252
-0.0139105
0.883363
-0.0285347
-0.854828
0.0356049
-0.322946
1.66727
-1.23834
-0.0685435
-0.327705
0.396249
-1.95651
0.453306
0.0458701
0.130422
-0.351263
0.087252
0.720373
-0.0712871
-0.536004
0.520932
0.387447
-0.908379
0.765912
-0.465793
0.598821
-0.744409
0.523436
-0.454519
0.244025
-0.693023
1.62502
-0.403273
-1.22174
1.14085
-0.152373
-0.988481
-0.644388
-0.233173
0.266986
0.10038
-0.367366
0.466568
-0.831701
0.365133
2.07287
-0.0229013
-2.04997
0.315411
0.11289
-0.4283
-1.00312
1.3541
-0.350984
0.876469
1.04341
-1.91988
0.172691
0.378493
-0.621927
0.934624
-0.312697
0.47706
0.227457
-0.704516
-1.39465
0.782819
0.611832
0.280037
0.0212152
-1.69367
0.289806
0.669555
-0.408252
-0.261302
0.751761
-1.13961
0.387853
-0.219524
-0.426944
0.340012
1.75007
1.60521
-0.28844
-1.31677
-1.62328
0.207249
0.652995
-1.15792
1.25922
-2.05249
0.793265
-0.225918
0.609636
-0.0219082
-0.814222
0.534484
-0.344208
0.481906
-0.210483
-1.52644
1.73692
0.831242
0.621808
-1.43357
1.5572
-0.123632
-0.0866976
-0.459297
-1.08145
-0.428254
-0.279316
0.30944
-0.0301241
-0.062362
-0.587464
0.649826
-0.13351
0.682064
-0.548554
-0.32869
1.08045
-1.13728
-0.257811
1.39509
-1.52133
-0.467556
1.98889
0.908477
-0.804554
-0.103923
-0.639568
0.0243462
0.615222
0.291956
0.158522
-0.450479
-1.74862
0.0308889
1.71773
0.0490619
0.434816
-0.483878
1.49267
-1.68816
0.195492
-0.804088
0.325187
0.58842
-0.913607
0.0238701
-0.303186
-0.740252
-0.509166
1.24942
1.22143
-1.97496
-1.94449
1.65776
0.286738
0.45033
-0.0837253
1.54009
-0.530125
-0.240761
-0.356414
0.597175
-0.0285633
0.450586
-0.422022
-0.392299
1.42437
-1.03207
1.77014
-1.24847
-0.521671
1.93739
-1.87056
-0.0668294
1.3215
-0.742329
-0.579174
0.0898468
-0.509932
0.420085
-0.647897
-0.0399177
-1.82948
1.62055
0.208923
0.227806
-2.05728
-0.546624
1.3597
-0.813074
-0.90297
-0.519032
0.44259
-0.366417
-0.0761727
-1.56594
-0.390566
-0.430365
0.303616
0.126749
0.356313
-0.301504
-1.85812
1.70875
0.149365
-0.427975
0.392131
0.309085
0.552754
-0.0406939
-1.12605
0.12278
0.349618
-0.395186
0.0455679
-0.516488
0.717988
-0.2015
0.861239
-0.10084
-0.430674
0.777459
0.39242
0.788827
0.591319
0.369694
-0.961013
-0.399416
1.07801
-1.26257
0.86536
0.397211
0.284431
-0.00439375
1.47533
-0.64409
1.03841
-0.732464
-0.230514
-0.533889
0.764403
0.469991
-1.52925
1.05925
1.16959
-1.23932
1.93455
-0.854269
-1.08028
-0.0102984
-1.05577
-0.206802
-1.38341
1.95714
-0.573723
-0.0961921
-0.45733
1.7463
-2.04689
0.480949
-0.418917
-0.0957942
-0.409142
0.365612
0.371673
-0.0119383
-0.999166
-1.04144
2.1767
-0.805631
0.253279
-0.511194
0.257915
0.124292
0.477214
-1.29143
-0.658429
1.94986
0.757595
0.402419
-0.00640655
-0.331169
0.337576
1.64881
0.278259
0.037866
-0.316125
1.26833
0.356684
-0.671749
-1.84214
0.354234
-0.505067
0.0328595
0.472208
1.06745
1.28118
0.155004
0.511952
-0.666957
1.87873
0.0586647
1.18972
-1.69326
0.503547
-1.60154
0.0294207
1.57212
-1.55858
1.95323
-0.394656
0.323616
-0.00588805
-0.317727
-0.751826
1.97326
0.248167
0.324399
-0.572566
0.082891
-1.51646
1.03046
-0.43724
-0.593218
-1.66725
2.08038
-0.413124
-0.414465
1.11384
-0.699374
2.31299
-1.0186
-1.29439
0.106685
-1.2279
1.12122
0.30553
0.0316991
-0.795899
1.67237
1.10303
-1.7963
1.73339
-0.667366
-0.424035
0.355492
-1.64171
0.0401669
1.8414
-0.671586
0.00815281
-2.02137
0.661856
0.0261897
0.534206
1.19048
-1.72469
1.14668
-0.370315
-0.776364
1.18404
-1.89617
0.712126
-0.445595
0.0221712
0.423423
-0.403128
-0.977266
1.38039
0.781039
-0.537013
-1.13774
0.801539
0.3362
0.470044
0.33084
-0.800885
0.168715
0.273875
-1.67875
1.90816
-0.229405
0.247925
0.0304327
0.932588
0.480164
-1.41275
0.596439
0.81013
-1.40657
0.34737
0.956443
0.0481508
1.91882
-0.0334463
1.59648
-1.56303
0.512015
-0.249748
-0.598726
-0.0357447
0.634471
1.27058
-0.918619
-0.351964
0.873002
1.06155
-0.445109
0.340808
0.104302
-0.416566
1.50299
-1.08642
0.00851888
0.381296
-0.389815
0.454692
-1.38846
0.933765
-0.63705
-0.394555
1.03161
1.35827
-0.119783
0.556726
0.589953
-0.733269
-0.694132
1.4274
0.617112
-1.65132
0.209642
0.32717
-0.536812
0.41026
-0.100984
-0.309276
0.0172509
0.288279
-0.110477
1.7685
-1.65802
-0.158305
1.6929
1.43067
-1.25056
-0.180107
1.33753
-1.05369
-1.05443
0.496919
0.55751
-0.313229
-0.471412
-0.208938
-0.0458258
0.254764
0.139262
0.312993
0.300027
1.45823
-1.75826
0.552379
0.330984
0.269313
-1.79065
-0.918967
0.0770316
0.841936
-0.705647
-0.429116
1.13476
1.06528
-0.544353
-1.63163
1.0678
0.689407
-0.865175
0.175768
-1.15429
1.67972
-0.525431
-0.875924
1.00601
-1.01203
0.970875
0.0411513
-1.39189
1.95162
-0.559728
-0.0451003
0.489344
-0.444244
0.279081
-0.231474
-0.894483
-1.27276
1.96794
-0.695185
-1.07391
1.43188
0.967445
-1.06962
0.102173
-0.223636
-0.228914
0.45255
-1.91575
1.3164
0.599351
0.0175582
-0.280326
0.262768
-0.161133
1.0196
-1.41189
1.42844
-0.958448
-0.370662
-1.02192
-1.43295
1.3995
0.877695
0.164511
0.443338
0.505051
-0.948389
-0.708844
0.656727
0.0521167
0.708501
-0.2547
-0.453801
0.603419
-0.968412
0.364993
-0.844978
1.14932
-0.304339
-1.3915
-0.228271
1.61977
0.203138
-0.426774
0.77178
0.498804
-1.94327
1.36967
0.573601
0.315225
0.233634
-0.548859
0.0146103
0.408977
-0.513286
0.104308
-1.27137
-0.359944
0.963363
0.317209
0.442527
-0.35268
0.425839
-0.488201
0.692075
-0.993659
0.0434403
0.610785
-0.0231255
-0.591253
0.614379
-1.09201
-0.836109
1.92812
0.27065
-1.00392
-1.01406
0.00532901
1.00873
0.142311
0.503206
-0.645517
-0.00702333
2.15934
-1.38532
-0.774013
0.327137
1.27807
-0.0332322
1.16589
-0.70723
-0.458655
-0.604911
1.17249
-0.567581
-1.06259
-0.285086
1.34767
-0.964482
0.342555
-0.667268
-0.387162
2.48001
-0.933204
-1.54681
-0.436581
0.169774
0.266807
0.645071
0.253573
-0.898644
-0.367977
0.417039
0.184384
0.430144
-0.614528
-0.203377
-0.0682782
-0.447888
-0.0278067
1.47827
1.00175
-1.00662
1.87108
-0.469392
1.66475
-0.351916
-0.0846644
-1.57537
0.51278
1.45223
-1.23292
-0.261649
-1.27505
0.271931
0.784484
-1.33111
1.18945
-1.37341
1.59858
-0.048871
-0.430908
-0.25088
-0.405798
-0.303927
0.709725
-0.629211
-0.09028
1.436
0.268978
-1.70498
-0.0115142
-0.535272
0.546786
-0.250757
0.776304
-1.97536
1.19905
1.52147
-0.0287997
-1.83312
1.84527
-0.0121532
0.397788
-0.297405
-1.69755
-0.218199
-0.646558
1.59661
0.0239467
0.562805
1.7751
-0.691154
-1.08395
-0.969082
-0.247911
1.21699
0.0827658
0.810536
-0.893302
-1.38845
0.123898
-0.459184
-0.134904
0.594088
-0.955827
1.23039
0.386951
0.953827
-1.34078
-0.743153
0.158703
0.58445
-1.57739
0.111772
1.46562
0.242033
1.18641
-0.573376
0.723077
0.598426
-0.405998
-0.431584
1.44098
-1.68796
0.33777
-0.71914
0.381369
-0.408638
0.581329
1.33265
0.0369743
-1.36962
1.19373
-1.66312
0.0248946
-0.502043
-0.481727
0.95985
-0.478123
-1.21101
0.470754
-0.07163
0.634346
-0.562716
0.339858
0.159799
-0.499658
0.313642
0.252121
-0.554887
1.20788
-0.276496
-0.210677
-0.344742
0.368612
0.631231
-0.17103
-0.432809
0.494351
-0.434756
0.410036
0.0247192
0.437599
-0.497164
0.0595652
-1.39864
1.1771
0.101644
-1.11571
-0.157735
-0.635786
-0.0808803
1.16782
-1.08694
0.679221
-0.800572
0.489027
-1.12638
0.637353
-0.932527
1.55665
-0.624123
0.548126
-1.92902
0.523323
-0.0468408
-1.89765
0.83315
1.34356
-1.41081
-0.22082
-1.28325
-0.656625
-0.88017
0.36466
-0.296876
-0.135937
0.432813
2.12773
-1.06028
1.84837
-0.45217
-0.492009
-0.331587
0.823596
-1.64913
0.683826
0.965306
0.48601
0.164335
-0.496692
0.821879
0.350967
-0.208772
-1.18129
0.527196
-0.279028
0.0948639
0.439492
-0.534356
-0.227229
1.66323
0.205964
-0.39533
0.189366
1.81146
-2.11493
1.0339
1.08102
0.286054
0.573444
-0.859498
1.38274
-0.978339
-0.404398
-1.06944
0.654977
-0.336858
-0.125758
0.770829
1.76964
-1.93641
0.871204
-0.394144
-0.658935
1.27605
-2.10075
1.44106
0.659692
0.497429
-1.43219
0.934759
-1.31055
1.41631
-0.105757
0.587448
-0.986864
0.0237133
0.312042
0.596435
-0.109065
-1.34866
0.489142
-1.96238
0.764245
1.19813
0.516913
-1.486
1.42747
-0.0368285
-1.16235
0.20231
0.806075
1.99268
-0.661401
-1.33127
-1.01104
0.468709
-1.17436
0.358137
-1.77484
1.52693
-0.943158
0.643539
0.852241
-1.65491
1.1621
0.492819
-1.87752
1.21406
0.663454
-0.783585
-0.0329887
0.13966
-1.8557
1.31939
0.536307
1.17297
-1.92479
-1.64865
-0.0301018
2.04689
-0.787668
1.15675
-0.0980705
-1.05868
-0.0612918
-0.329802
0.391094
0.295817
0.937515
1.00065
-1.27055
-0.384359
0.303265
0.477774
0.367984
0.779155
-1.14714
0.823147
-0.475383
-0.0461084
-1.76698
1.81309
-0.763957
0.540595
-1.35575
-1.11615
-0.73404
1.85019
0.468056
-0.677176
-1.34714
0.407555
0.939581
-0.00151755
0.062416
-0.0608985
1.68115
-1.89163
0.386066
-0.867793
1.12937
0.23494
-1.36431
0.440639
-0.18736
-1.56563
0.444217
1.12142
-1.09147
0.454421
0.551117
-1.15603
0.75841
-0.420639
-0.0949601
0.0934425
-0.0477897
1.95092
-1.13828
1.4755
-0.337219
1.91551
0.0361018
-1.95162
-1.06142
0.322366
-1.00264
0.00333871
1.6904
0.272587
0.071377
0.368976
0.1739
0.440609
1.0141
0.553898
0.154603
-1.72381
-0.134307
-1.72424
0.887202
-1.71971
0.363984
0.401467
-0.765451
1.79374
0.119528
-1.91327
-0.249742
0.243854
-0.697034
-1.3244
-1.4622
-0.274001
-0.53163
1.72536
-0.628815
0.890015
-0.2612
-1.62023
0.528224
-0.567668
0.935652
-0.799489
-1.19609
-0.494529
-0.419834
0.715257
-0.913142
0.396654
1.96473
-0.368124
1.35458
-0.978269
-0.376306
-0.110449
0.930602
0.561452
1.92612
-1.78052
-0.0979918
-0.448179
0.677789
-0.940884
1.06798
-0.91834
-1.08902
0.469725
0.34233
-0.812055
-1.73785
0.0441153
-0.259046
1.48443
-1.22539
-0.226485
-1.60663
-1.24309
1.27802
2.03386
-0.895681
-1.13818
-0.0694688
0.614338
1.36935
-0.580437
-0.788908
0.550154
-0.618433
-0.661716
0.0629897
-0.341184
-0.0189619
0.360146
-0.406276
0.849615
-0.788945
1.96191
-0.0247769
-0.34164
-0.545647
-0.188996
0.734642
-0.0207223
1.70187
0.575173
0.0483369
-0.623509
-0.769717
1.14473
0.652046
0.850941
-0.950823
0.0318555
1.0611
-0.408308
-0.652787
0.671907
0.0661692
-0.738077
0.0563001
-1.23702
1.18072
-1.74677
0.284568
0.443637
-0.853249
1.74045
-0.0284665
0.578621
0.320071
-0.948886
-1.97195
0.993439
-1.59811
0.555455
-0.920056
0.144077
-0.578786
-1.09015
1.66894
-1.91305
0.0155866
-0.366824
0.351238
1.47379
-1.10866
1.09655
-1.01379
0.253836
1.05787
-1.31171
0.256501
-0.715685
-1.3004
-0.576986
1.87738
-0.615295
0.673622
-0.0583262
-0.87791
1.48552
-0.60761
1.36032
-1.03513
-0.325198
1.68125
0.0880807
-1.76934
-0.823919
-1.29101
-0.608895
-0.121318
0.742173
1.29789
-0.0279807
0.224288
-0.196307
-1.23489
-0.330746
1.12026
1.05019
-1.02296
1.25095
-0.227994
0.340593
-0.302727
0.588566
0.248597
-0.837163
-0.160914
0.366877
-0.153105
-1.7026
-1.85987
1.07998
-0.390572
0.0705675
0.42045
0.152987
1.38382
-1.5368
-1.01017
-0.115885
1.2119
0.627128
0.143386
-0.56047
0.566329
-0.745267
0.178938
0.041411
-0.659189
0.617778
1.02058
0.378154
0.582793
1.5553
-0.755972
1.46615
-0.925554
-0.247125
-0.510138
0.757263
1.43502
0.209469
-0.0270765
-1.30852
0.905389
1.68306
-1.70379
-0.667978
-0.779334
1.44731
-0.933821
-0.715311
-1.69637
1.71602
-0.0196473
-0.432459
-0.72567
0.421743
0.962742
0.592562
0.402778
-0.531882
0.129104
-0.657024
-1.37867
-0.433601
-1.34852
1.78212
1.1169
-0.359305
-0.369056
0.578699
0.936667
-1.6337
0.77305
-0.709688
-0.824762
1.83826
-1.01349
0.597422
0.760865
0.670415
-1.43128
1.67679
-1.00551
-0.67128
-0.747157
-1.14626
1.72742
-0.581156
1.00198
0.352598
-0.597007
0.56854
0.749758
1.56323
-0.455127
0.393835
-0.589918
0.58353
1.7606
-0.939752
0.832495
1.29523
-0.784873
0.394711
0.390162
0.56415
-0.794664
1.32553
0.00711557
1.30925
-0.152495
-1.25132
-0.0275916
1.27891
0.396897
-0.0539746
-0.342922
0.332117
0.133953
0.309496
-1.86807
-0.583619
0.698244
1.26899
-1.18737
-0.0816231
0.355744
0.705352
-0.31462
0.16529
0.594437
0.397902
-0.99234
-0.658947
1.40608
-0.184024
-0.814274
1.8015
-0.987221
-0.337397
0.807441
-0.223894
-0.519259
1.92945
-1.00149
-0.605175
1.01791
0.364826
0.61628
-0.774015
-0.391222
0.346121
-0.546275
-0.310943
-0.0110469
0.598663
-0.28261
1.49371
-1.21109
0.471003
-0.447531
-0.654952
0.298538
-0.669785
0.0608901
-1.8135
1.27439
0.512437
0.422187
0.524064
-0.760553
0.236489
0.382862
0.255344
1.38311
0.766529
-2.14964
-0.232619
-0.0365668
0.269186
0.0939392
-1.58472
1.33101
0.702846
1.48484
-1.33185
-1.77156
-0.092803
0.0101918
-0.77276
0.87091
1.07492
0.650416
-1.72533
0.832318
-0.153097
-0.0600804
-0.588303
-0.19657
-1.11908
-0.852641
0.539412
0.744898
1.21907
1.08681
-0.960002
-0.126806
0.401114
0.00892265
-0.122115
0.511223
-0.0736242
1.41578
0.433241
-1.84902
-0.526651
0.621515
-0.478088
0.289061
0.189027
-0.690567
-0.0259662
0.716534
0.647999
0.525587
-1.17359
0.423261
0.642024
1.25665
-0.0381861
-0.541804
0.686981
-0.513081
0.0843678
0.129209
-0.213577
-1.79096
1.01266
1.54913
-1.22973
-0.319397
0.0469414
-0.318338
0.271396
1.55548
-1.66595
1.1044
0.0125011
0.32002
0.776532
-0.292094
-0.0188489
0.401762
-0.562574
0.160812
-0.809795
-0.27531
2.01757
-1.02343
-0.994148
1.4702
-0.432213
-1.03799
0.814561
-1.32518
0.510617
0.083051
0.8874
0.0871566
0.0324046
0.829706
-0.862111
-0.124098
0.52586
-0.731374
-0.269603
-0.125727
1.80607
0.0325925
-1.83866
-0.891029
0.543727
-0.566853
0.419342
-0.0785347
0.325326
0.634524
-0.828494
0.694984
-0.0129494
-0.0136105
-0.158667
0.321149
-0.698771
0.952607
0.00399228
0.572664
-0.13533
-0.274466
1.17997
0.0953287
0.991479
-0.288118
-0.2606
-0.344203
0.93864
-0.300761
1.24756
-0.946802
-1.4706
-0.223064
-0.562363
1.47052
-0.908161
0.169416
-0.439019
0.634318
-0.114643
-0.033458
-0.501507
0.534965
-1.52451
0.523021
0.277887
-0.286656
0.90052
-2.19195
0.648345
-1.82091
-0.575168
0.988776
-0.594883
1.00389
-0.605984
0.0180088
-1.08989
1.14619
-0.00603097
-0.315146
0.123904
-0.928458
-0.261253
-1.08709
1.34834
0.473122
0.607563
2.19635
-1.44393
-0.752421
-0.410445
0.140938
0.472789
0.0402091
-0.512998
-1.43295
0.294668
0.38985
0.0204095
-0.0191373
-0.271836
0.290973
0.938812
-1.50117
0.178206
0.824487
0.110031
-0.934519
-1.4622
1.16144
0.312461
0.0690654
-0.381527
0.685277
-1.95804
-0.2981
-0.00778103
0.305881
0.407317
-0.0948557
0.0394832
1.30474
-0.957368
1.039
0.994149
-0.570888
-1.65305
0.5369
-1.20617
1.05774
0.148425
0.752756
-1.42073
-0.906957
-0.515517
1.42247
-0.0402816
0.773383
-0.584981
0.541671
1.75664
-0.188198
-1.56844
-0.0265214
-1.69729
1.5255
0.155757
0.811065
0.55828
-0.323697
-0.00747243
0.32178
-0.426728
-0.717284
-0.776859
0.716613
0.0602457
0.0538355
-1.82327
1.76944
-0.3417
0.78858
-0.44688
0.548125
-1.69876
1.15063
-0.0971841
-1.01381
-0.0683989
-0.00160908
1.19318
-0.664119
-0.362345
1.02646
-0.698126
-0.556972
0.860044
-0.517714
-0.437758
0.109949
0.327809
-0.20456
0.728624
-1.734
-0.211973
-0.144578
0.356551
0.44003
0.325913
-0.765943
1.10687
-1.76837
0.661503
0.168371
-1.05185
0.283051
-1.9503
-0.945274
-1.07629
2.02157
-1.7117
0.128712
1.58299
-1.89573
-1.42921
0.118652
-0.637284
0.611146
0.0261372
-1.69745
-0.529379
1.94515
0.714044
-0.326597
0.216813
-0.561016
-0.234614
0.876638
0.305123
0.201967
-0.747613
0.0304242
-0.356342
0.325918
-0.32663
0.0054745
-0.233742
0.280683
-0.602881
0.888934
-1.95129
1.22743
0.723862
-0.364726
0.941457
0.971619
0.41393
-0.0170335
-0.160865
0.563643
-0.893472
-0.453664
-1.0307
0.333878
0.696826
-0.068057
-0.288545
0.356602
-0.836897
0.878308
-0.168653
1.29383
1.05096
-0.475791
0.839919
-1.53804
0.83942
-0.954503
0.115082
0.240545
-0.012718
0.364522
-0.0223417
-1.64248
1.06369
0.589666
0.880535
0.0220618
-0.400687
0.378625
-2.17177
0.893496
-0.136465
0.351084
-0.374024
-0.0399477
-0.428674
0.468622
-1.04052
0.376401
-1.81856
1.66545
1.56982
-0.440445
-0.551628
0.509649
0.0419792
-0.482448
0.0855129
-0.317237
-1.95284
0.776438
1.1764
-0.303769
0.267202
0.102729
0.617897
-0.720626
0.950464
0.153935
-0.497361
0.00378206
0.493579
-0.583186
0.587178
-0.580248
-0.108632
1.00212
-1.64662
1.78281
0.0959148
-1.08991
-0.571797
1.65496
-0.0764418
-1.57851
0.184638
0.155447
-0.340085
0.97789
-1.97706
0.906468
0.0517846
-0.958252
0.16145
0.609134
-0.770584
-1.63296
1.62518
0.00778255
-0.311529
0.800556
0.932863
0.837274
1.82813
-0.613775
-1.21435
0.0148798
-0.0984069
0.083527
0.530386
-0.625685
-0.0222118
-0.596872
-0.0288135
0.165863
-0.638984
0.473122
-0.17406
1.67728
-1.50322
-1.39337
0.399776
0.99359
0.454775
1.42547
0.0549358
0.132384
-0.18732
1.01294
0.430788
-1.44373
0.0777466
-0.374622
-0.663594
1.76186
-1.09827
-1.30402
0.0527085
1.1337
0.490956
-1.39791
-0.00852223
-0.269579
0.278101
1.26024
-0.218941
-1.04129
0.357266
0.455886
-2.09909
1.05765
1.69046
-1.73656
-0.902146
0.136468
0.765679
0.726805
0.0192191
-0.337061
0.317842
0.418233
0.0838505
-0.502084
-0.0207737
0.275773
-0.254999
-0.236868
0.266882
-0.0300135
-1.09613
2.03279
-0.507347
0.538982
0.659611
-0.556882
0.622828
-1.03526
0.412432
-1.22405
-0.876701
0.418209
-0.126253
-0.306791
-0.0203852
0.327177
1.95573
-0.72452
-1.23121
0.104639
1.16435
-0.448536
-0.260308
-1.09791
0.196201
0.268572
0.684397
-0.952969
0.0238288
-0.145678
0.12185
-0.0126144
0.694435
-0.653525
0.164295
0.48923
1.52295
-0.888215
-0.634735
-1.77495
0.248515
0.285502
-1.18065
0.658094