/*--------------------------------*- C++ -*----------------------------------*\
| =========                 |                                                 |
| \\      /  F ield         | OpenFOAM: The Open Source CFD Toolbox           |
|  \\    /   O peration     | Version:  2306                                  |
|   \\  /    A nd           | Website:  www.openfoam.com                      |
|    \\/     M anipulation  |                                                 |
\*---------------------------------------------------------------------------*/
FoamFile
{
    version     2.0;
    format      ascii;
    arch        "LSB;label=32;scalar=64";
    class       volScalarField;
    location    "0.6";
    object      p;
}
// * * * * * * * * * * * * * * * * * * * * * * * * * * * * * * * * * * * * * //

dimensions      [0 2 -2 0 0 0 0];

internalField   nonuniform List<scalar> 
13486
(
18.2901
13.8704
1.42088
-6.06335
5.40996
-2.20106
1.77507
9.97115
12.218
5.73163
-8.92441
3.0202
19.355
-3.62093
3.86587
6.37297
-12.9114
-16.66
3.47375
16.2486
-5.52225
19.1615
13.6815
-5.65539
4.74193
-5.4224
-6.31442
-4.26695
-0.106185
-3.34622
-4.92036
2.52151
-7.32413
-2.34751
9.99385
-0.631967
0.139425
14.966
-0.202449
12.0176
-0.396054
20.167
0.166879
5.09483
4.82895
2.77815
-36.9227
0.0701634
0.281217
-5.39744
9.88237
-0.225974
2.11511
15.2233
-5.75455
5.77212
0.523407
-0.252048
-7.03117
0.265405
-8.37168
0.293385
-18.6651
-5.40933
-3.76421
0.121919
-6.44082
18.1543
12.1106
0.0797076
-6.43167
-6.99852
12.1922
-106.355
0.184172
0.647077
0.121936
3.73543
-25.7074
-0.354263
-0.126422
13.9949
-18.8879
1.71959
18.3675
5.01189
0.731243
8.78659
11.6504
6.78894
1.31017
8.55907
17.5013
15.3219
12.754
-0.103783
-6.46985
-6.11158
12.0566
-11.6309
0.254279
-2.96941
-6.08378
-0.504551
7.79437
-12.0687
11.7825
-0.182958
-27.9584
7.88167
12.1299
1.2099
15.1783
0.601056
21.7788
12.1979
4.92757
-2.38615
12.2894
0.1945
-12.6025
-8.36178
13.4044
-0.163451
11.7295
-0.301339
8.38868
1.71016
-2.4265
-3.26348
-0.179286
-35.0552
-88.4446
-58.298
10.7387
8.94109
21.2257
8.04579
0.24113
10.3205
-6.82162
2.27259
3.10407
-0.419255
0.458073
-11.9662
1.18301
17.0025
-5.50394
-0.0610087
5.72929
3.50527
0.16973
14.5471
2.5409
1.21154
6.01931
-0.06124
13.5067
0.360024
-4.24
13.4898
-3.51173
19.9643
-0.180657
-5.79193
-1.33282
25.7785
1.35491
-55.1359
-85.2035
2.42391
7.50355
6.23474
0.0465073
-6.03463
-6.11583
-7.88908
11.8751
3.03293
11.3445
0.263618
4.83291
-7.08028
1.40564
-4.36878
-0.0464904
-3.29259
0.362679
13.2072
0.116619
0.769843
-0.489886
16.1075
-0.522503
-8.87999
-3.24579
-4.34285
16.7972
-4.89079
-4.69854
1.87433
14.9555
4.56163
0.83952
-0.47969
-10.065
13.0723
-0.276745
1.63032
-3.60585
-4.27556
16.0309
11.8732
-1.80912
-1.51458
-3.54216
7.15209
16.5871
-17.531
-13.1381
-5.44426
10.5507
-4.45404
1.91444
17.9183
-4.1953
-4.84768
-1.46141
0.573226
11.1726
-9.35298
-6.76815
20.679
-5.71591
17.2912
-2.62068
1.08017
17.5322
5.44014
-6.92266
7.6727
0.466927
16.5085
-0.0156178
13.4684
5.00992
-4.48076
-86.1074
5.90653
-6.5666
21.9896
11.5171
-0.128142
-0.803246
-6.27386
2.3742
-1.42061
0.103531
-6.74973
12.6744
0.017533
3.77488
-6.3132
5.9492
-6.9768
-1.20569
-4.9132
11.2594
0.256036
12.1501
11.2755
-3.6781
2.65162
18.0129
-4.30181
-0.910234
-1.94725
-0.14306
1.40365
-1.78425
9.99284
11.5627
-7.59905
-8.07012
-6.43066
-7.38276
-2.38276
1.75606
11.3108
-5.74009
0.246082
13.0172
10.4876
-2.60286
-2.87494
-4.35879
2.48607
12.3274
0.827275
-4.39828
-10.9689
1.46497
2.82261
0.174703
3.688
-3.48013
6.00486
0.490307
0.261137
-41.3794
-6.0208
-3.49267
1.06155
-9.33709
9.22303
0.293232
11.4809
13.115
-1.4325
0.118837
0.235749
11.4373
15.3718
21.9602
1.39521
7.33969
9.75848
2.01789
6.75212
9.81526
8.13698
0.303195
16.5011
1.41753
12.0641
22.7404
3.75523
6.75241
0.1245
-1.35954
15.0121
6.52553
4.92717
-7.24305
-0.0295186
7.8112
21.8123
-17.8522
0.402511
7.87656
2.26188
2.63277
-6.83858
12.1152
0.224336
-98.5269
8.49066
0.595174
-4.20467
4.29454
1.05912
13.0628
11.4983
-3.34385
-0.0286027
-2.85034
-44.7382
16.3608
8.69551
0.373039
8.32675
1.69745
-6.73924
-2.05612
9.72797
10.9523
0.262649
-9.26843
-32.8158
11.0007
7.74568
19.2534
12.1846
-47.4076
-1.02005
0.258146
6.7056
-66.8229
-4.32725
15.6719
-3.9473
4.20102
17.4936
17.81
0.121976
-6.252
-6.7256
-46.6647
-7.35214
-64.438
1.41481
10.6024
-6.78353
1.72151
0.994576
15.0784
-7.75873
8.30846
13.1579
6.20847
-11.2976
-4.42725
12.1068
11.5207
15.0933
-7.25067
6.19305
-96.0854
5.51731
11.609
-4.59497
21.8656
7.1307
-4.24419
-2.94998
1.85407
11.8568
-6.17345
-0.87139
19.0254
11.0301
4.12675
1.92063
4.71008
-4.5095
19.1013
0.431278
6.33569
17.8345
-64.8251
-3.88197
-50.9621
-4.20303
0.606269
14.3485
14.2785
19.0592
-33.5381
0.100921
-7.28623
6.70901
11.6571
-5.20273
-12.5316
11.4194
-6.65689
-5.95746
-7.61234
-11.4596
-2.6982
15.1139
0.185381
-0.537951
-6.08323
10.9878
-0.0142355
24.0037
17.7703
12.25
9.44444
0.266287
0.170528
22.636
-1.02085
0.23057
-4.30314
12.109
-7.42419
2.60165
7.7749
-0.210706
-6.63276
13.3746
-12.7679
-32.3237
6.95472
-5.03724
25.5038
8.02969
9.89636
12.856
-6.17587
1.40619
19.8788
5.175
15.5084
1.02995
2.68937
-4.79522
-0.383569
0.0880795
-11.3783
11.7108
12.0585
-6.53198
-0.0266311
-2.11524
18.0198
14.4477
-0.985455
12.2987
8.75664
-6.51149
6.04934
10.3921
-100.435
18.8742
0.170191
-0.222189
20.0087
7.93251
0.682589
7.88388
-4.87908
-6.66196
4.50472
7.22923
13.5156
17.5814
-7.49438
4.60192
-7.53883
0.0682255
17.1725
2.53349
-7.47909
-6.08491
-8.73103
1.4315
9.51703
-3.63867
-12.3585
12.3301
16.3335
-0.0973334
12.7044
-12.4267
-6.83463
-17.9893
3.53885
-7.42583
13.0873
1.57244
-8.20875
10.1887
14.2669
-6.54472
-7.51835
10.2474
17.095
2.63931
18.4035
1.49674
7.55736
2.02255
13.2303
0.406838
16.6423
-6.63587
2.04302
11.7321
-1.76543
-3.99615
11.708
-73.0945
2.772
14.8489
19.1548
-3.77894
-1.64186
2.11454
1.89231
10.5581
7.56833
2.68451
-7.67815
-0.60375
18.2449
1.28034
-0.39339
-5.20463
19.2199
-2.06338
0.369062
11.0295
8.91708
-0.386597
-3.12555
10.3504
1.97858
0.807415
3.78169
-12.625
18.6241
12.0137
7.89235
8.89278
0.978197
-7.57362
20.9894
2.74043
21.0756
-4.91523
11.4532
0.322931
-111.019
7.13511
5.74006
22.1331
-4.60378
7.42382
7.1292
-18.5497
5.66668
-17.4732
-6.54525
11.8271
-7.46195
-3.95649
-4.84647
-3.10219
-1.9693
12.7666
0.13079
20.4831
12.0057
0.607107
-6.81689
-3.29099
3.08385
-8.14454
-4.61694
-11.3681
17.2342
0.103141
0.601248
-7.23228
19.3902
0.145745
-4.45298
20.0412
10.4533
-7.1231
-0.132442
8.31861
0.472232
11.6925
0.429396
-3.93784
4.23331
10.642
2.95751
9.72811
20.3169
0.341487
-5.64684
11.4463
-4.4399
-1.90691
7.97296
8.6061
4.35119
-7.35311
1.94477
0.220453
2.11306
17.1253
2.97735
2.13684
1.2367
-1.61764
-0.627818
11.703
0.876495
11.2417
11.2297
16.6395
-9.81724
-12.0315
20.8556
0.395469
-6.65709
12.3705
-5.13058
13.236
0.315816
11.0893
-8.58814
-70.2898
-4.64492
0.153016
-21.5107
5.6467
21.5106
-1.9277
-10.182
-4.63735
11.9539
0.314669
4.3469
-7.48454
21.1464
-6.99113
6.15742
-5.07309
5.89639
11.6988
3.79062
-30.1294
-5.15038
19.7919
11.0587
4.37434
10.8962
-0.971582
9.31403
9.40551
6.36023
-48.6574
-0.828329
14.8696
1.90419
-0.232732
9.97735
-6.68414
-1.92878
-0.140281
12.9035
12.3174
-5.46435
1.90261
-7.09796
-5.35653
1.8974
-2.0052
1.14128
11.0271
-1.65853
-14.5984
14.2614
-4.70494
-2.90277
-0.434949
-5.66623
-5.58896
-4.54895
0.0589786
-6.50591
11.7214
19.3666
0.209116
-2.82953
20.0628
18.7433
-3.86779
-3.27366
12.5298
-61.6892
0.306193
-0.680304
-0.608831
5.96525
-28.5137
4.26588
7.10627
-4.97318
-2.24398
-6.267
-2.15402
10.2065
4.32438
7.37677
-5.71072
9.78819
18.276
-13.0994
-6.4597
13.7084
3.24676
7.62002
-0.0973816
-3.28992
-5.80065
-1.87869
11.9015
21.1504
13.1086
0.955457
-1.88961
11.4977
17.7332
-4.65717
12.9452
12.1526
18.4705
1.93243
0.18387
1.28303
-1.5217
18.2068
1.86623
1.64989
8.38916
-0.889835
2.94955
-1.68107
-8.67122
10.9248
10.2932
7.68978
4.80253
-18.9966
-3.24452
-1.79279
5.98573
-13.4082
-8.25183
0.56556
-6.27964
-8.20004
5.32055
-3.32539
-82.5304
-19.6312
-2.10029
8.63556
-9.04069
-5.78538
13.1754
-4.90804
19.2432
-4.6589
-95.1723
14.4914
17.2577
0.289169
-0.365726
1.43385
12.0438
6.30664
-14.3791
-0.461529
0.167147
-2.03743
10.9903
0.556254
6.23824
0.21215
12.1386
-6.48829
0.405501
-0.264866
14.7553
-5.8287
-8.75526
-5.11859
19.0396
-1.26175
-5.53765
-9.89262
11.8825
-6.12058
0.332458
2.81948
4.99141
0.688873
8.03581
-3.50521
9.43102
10.8713
14.0733
4.5361
-0.0563782
-2.01124
8.42454
-6.18336
14.7219
7.62358
-0.406072
-0.275182
-1.08676
-1.2547
0.0936912
13.2508
3.81429
-5.44699
11.2341
-11.7891
9.46735
21.8812
-1.50166
-13.5131
7.85818
1.03217
-0.263354
-1.17867
-5.91738
11.6602
0.361049
0.167657
0.340285
-3.16155
15.8377
-7.10388
0.0622138
11.334
0.979623
16.983
13.4981
16.2287
3.40422
6.79091
3.17199
0.659621
8.73143
11.7136
-8.27142
-2.28261
-21.5614
-2.79523
-7.17425
11.7847
-10.1361
-6.58209
-6.14316
-8.7323
0.0935322
11.625
0.396037
0.3646
-55.3378
11.7363
21.6071
1.00344
-8.77076
6.02382
-5.26017
12.0605
0.928124
0.0593499
14.541
-0.43085
20.3794
8.16702
11.7165
-3.06006
15.5694
0.368616
13.6245
0.268244
-6.82638
-6.07918
-4.74492
7.70466
0.655084
-2.8655
19.1726
11.4721
12.6128
17.273
12.8049
14.6904
-1.80347
12.5526
10.9913
12.1292
-1.8269
-4.0865
-5.04976
-11.8041
2.27574
13.6943
-64.2247
20.9402
-14.9393
0.366232
20.9022
17.3379
-2.04205
-4.718
12.0854
5.35483
-1.9715
11.2025
-50.6562
-5.50122
11.9456
16.8838
0.0938087
13.432
15.5299
-0.157365
-3.78803
15.4636
5.18129
0.128231
-7.73185
1.28895
-8.4544
10.6486
8.17364
0.321644
-4.70291
-3.5833
2.22903
-0.114964
3.03461
17.5476
-0.453376
23.6384
11.8042
3.82859
13.4752
-7.08652
-56.6467
-6.10169
12.1364
-0.011218
-54.5432
-4.26941
4.8252
5.96874
0.28461
8.33165
-55.6041
5.7146
-0.549718
0.291944
9.53232
3.52699
15.7995
12.044
12.1279
11.3653
-2.10301
-6.13413
-6.00862
1.45882
-3.93282
-3.87759
9.1885
-4.57036
0.194226
0.406275
-5.16037
-7.45167
8.29412
4.45479
0.957942
-3.65743
5.53298
-5.50187
-4.99264
2.25836
0.666107
13.3989
8.32098
15.8079
-53.1979
9.90526
0.365205
16.8737
-2.31246
5.58419
-2.23677
-2.19849
19.8692
20.4952
9.67208
5.90216
7.39656
10.9867
20.1773
7.86178
-6.7551
-7.39254
2.79868
-14.6891
-21.1018
11.6899
11.3558
0.501491
1.86607
9.87077
10.9752
22.1611
-10.5704
8.90913
-48.4592
-6.43388
17.2813
-0.914867
9.79107
-3.74943
3.0205
4.81466
23.127
0.80855
-4.81904
4.93172
2.38491
-7.36182
-54.5255
-15.3534
13.0483
0.811919
6.04347
18.6847
16.9608
-0.500395
-27.6278
0.568576
0.968251
14.3228
11.5078
17.0195
6.61531
-9.8641
17.9195
10.8898
-14.2713
8.95725
12.1619
15.3487
-8.67215
-7.373
0.034762
9.96331
19.7759
6.24417
-3.67047
-8.26128
22.2297
-11.5776
-6.98175
20.5805
9.83887
0.917533
9.28504
-6.29613
6.29113
-2.4924
-11.1521
0.154194
-6.22187
-0.37659
-1.9505
-69.037
-17.9727
-18.0322
1.86259
-53.9128
-6.65027
11.7806
10.5972
5.7793
-56.5029
2.23558
0.539645
-2.51681
23.4479
7.52527
-5.3968
9.49409
-2.49455
-6.25097
9.74368
9.64494
11.5925
23.8086
-0.0142855
-1.05998
-5.62052
1.40413
7.86094
11.9126
-5.14698
18.134
7.32753
12.5422
-4.87334
-0.525051
0.465817
12.4557
11.7563
13.0552
11.7833
21.4591
21.2447
-2.47634
9.74788
15.2407
-5.52115
17.1118
-0.172229
20.9283
17.0199
-0.174421
13.4979
4.9694
8.91108
0.471649
11.5988
-6.30623
10.3277
3.51154
7.68395
-2.00669
11.4241
-0.257431
2.30304
20.1715
20.0716
7.63104
-52.4333
3.10807
-1.0239
-0.951704
8.69119
17.9144
-51.0106
12.1373
11.5509
5.56549
12.369
-6.88789
-3.53746
0.362548
21.9675
2.493
0.731958
13.5412
-1.7877
0.57502
5.17343
2.61957
8.28022
3.95419
-3.41789
6.99507
9.46377
7.6533
8.73159
21.3054
17.1596
15.2158
20.6444
19.9201
5.07464
-0.219507
-9.34404
-16.6428
19.8383
-4.49776
11.9909
10.6724
-7.045
5.80156
13.1175
-4.51696
5.5339
6.63227
24.1073
-7.02153
4.83637
0.875639
13.9297
1.08594
-5.58851
19.5303
16.5975
11.5725
11.4933
-2.88125
4.2022
-15.0835
21.1619
0.220242
22.9471
-6.33227
-1.9752
-124.467
5.91378
-87.25
0.54366
-0.190104
4.05389
0.687254
3.08349
-5.75662
-0.0708355
-2.34955
-58.7854
-4.40926
-15.202
0.768136
-0.698688
-6.63361
-8.09604
12.3493
12.5811
15.6172
11.1066
4.35888
4.96745
25.61
11.6735
-6.71622
0.184813
-1.89313
8.3934
10.2599
18.1155
-7.32322
-7.44557
9.64272
0.120128
3.3948
14.7503
-57.1082
-7.14757
-21.6691
21.448
-6.2767
8.43756
15.2695
-4.23272
9.15694
0.134881
-7.55753
-7.40663
0.495418
7.2495
14.3954
15.1075
-14.6428
-57.1088
7.52624
-19.9355
-3.3544
-1.79626
1.4
-2.30834
0.519046
-6.04613
-7.09648
-5.64447
18.7742
-5.55585
20.545
-7.43913
-1.04607
3.90346
0.507522
17.3722
11.9091
14.0084
0.980234
-2.55004
-7.92433
16.8973
-54.6136
8.23566
0.224577
14.206
17.2058
0.195784
11.3766
19.6876
13.2703
12.581
-30.1908
-4.41406
4.6438
-4.91329
-0.0310913
6.79002
8.349
1.05585
-8.67385
3.11256
0.664197
10.3057
8.60464
-3.74844
20.8556
1.79635
0.0196589
2.13503
11.0888
-3.17202
0.272798
13.0158
-7.5465
1.26487
-2.51524
12.8287
10.767
10.7456
0.411749
10.7402
13.5674
13.55
-2.64152
0.381292
1.57171
10.1178
-7.99448
-99.7509
-5.38917
-15.7459
-6.17432
-0.0583216
-0.0269381
0.477666
-54.1482
-5.69848
-7.53982
0.782453
-2.50865
3.31792
-7.46862
12.6034
25.8954
3.09944
-2.17568
4.54549
0.418025
3.61808
0.079735
-3.12048
-5.89295
1.2213
16.0288
0.00596277
19.3695
0.223267
10.5524
9.62727
4.92726
-114.984
6.67744
21.4234
-6.90855
11.0248
10.9072
18.0594
2.15685
16.5314
13.0423
-123.681
13.9035
-6.96576
-11.2724
16.9711
10.7409
-14.9626
-0.763266
15.4595
-0.703248
-4.27751
0.430894
0.398566
8.65939
5.42815
11.5924
11.1542
10.2246
-31.0894
-4.23994
-2.27043
11.4229
23.0143
-3.24483
-13.1084
-121.707
12.1545
1.72896
1.07155
4.45979
-13.8384
9.14116
-8.08409
0.951732
20.2589
4.03839
-5.60643
-4.57775
-6.43285
-4.58399
-42.5343
-5.64777
-7.16535
13.9797
5.64788
-4.46317
19.4381
0.174526
-7.79686
-2.20644
-11.6259
12.9753
-53.477
2.86776
11.9874
0.390836
-2.60777
-1.42349
-7.08414
-4.88427
12.6026
-7.61679
0.0878488
-16.3387
10.9394
12.7013
-6.23662
15.2922
14.0044
18.6211
19.042
13.4163
2.63469
21.8937
-21.4663
11.5706
1.00824
-7.00361
14.248
-5.49362
18.4051
4.82956
-11.8591
-60.9887
-40.158
12.4738
-5.30382
-2.77222
1.37969
-12.4322
-6.57038
6.57385
1.37627
8.5551
21.4285
-67.4348
-5.33955
-6.31832
12.6022
8.36539
-3.97988
25.5378
-0.0572607
0.668445
6.86045
-12.8887
11.0275
12.2695
13.8062
14.1043
-5.17413
6.13517
11.2941
2.78331
-14.7628
0.184755
13.1214
13.4011
16.8397
-6.922
1.17373
5.43478
6.32698
0.715299
-6.64148
9.20057
-3.28089
9.57962
12.0594
-15.5276
19.3858
-4.25334
20.9648
13.8033
-7.23598
0.00379706
0.442813
4.00737
12.2082
-6.77249
16.4731
10.8077
5.52421
0.460902
2.94055
-4.47693
5.46832
-17.8388
6.97991
-4.75108
11.1594
-81.1531
-2.31965
-2.15244
14.6004
17.4995
5.22597
-71.3636
5.22239
-0.68752
1.37719
6.12831
-8.43873
-5.67804
20.5907
-7.56146
-0.296107
-6.07906
-10.2993
-7.10452
10.8867
-17.9247
-1.99575
12.1608
7.35793
12.7502
-6.88875
5.12493
20.7778
-29.5857
11.1467
3.18328
-7.15849
3.09829
2.70138
-6.67305
21.2256
13.8305
0.839477
20.4587
15.7736
14.4334
-22.5131
-91.9616
7.61317
-14.1019
-4.21213
-12.3277
-13.7747
-12.07
9.28373
4.19801
6.75057
7.65539
-6.44352
8.75351
11.1302
-10.9333
12.7943
6.53797
11.4331
-0.678357
0.171367
-6.14943
-41.1915
-6.62224
-2.449
11.0237
-7.06071
18.8937
-7.01883
10.9362
7.01378
0.538219
0.39445
12.2165
4.52243
2.36478
10.6177
-0.305901
-13.9312
17.749
13.8558
-4.17534
-8.9358
-3.35374
9.85146
-0.913174
4.28425
-13.7309
-0.11447
-0.719444
0.690861
10.0033
9.96646
-3.1264
4.40974
-1.1496
-0.0666094
-6.60524
14.4335
-6.39764
11.8909
-0.0939781
9.4316
12.4725
5.92762
11.0538
0.231753
-5.66014
0.387856
-67.4587
-5.61768
-4.20161
0.0641657
-4.77101
8.88153
-1.212
11.3776
-4.34808
-14.2005
-19.4983
-0.285212
12.6507
-7.27532
11.5828
3.08129
-5.73973
-3.94696
-6.42772
8.52394
11.5032
-0.00500441
2.73843
-65.5725
14.2562
-2.47794
2.84154
-7.2078
15.0464
5.48233
0.0860495
12.6466
12.4147
14.4228
4.0916
14.6196
-32.0184
0.61036
-1.63461
11.6123
6.76809
3.70584
-1.26902
-6.3356
-6.99389
6.16885
1.09882
-6.91744
20.0569
-34.9072
14.3929
8.17504
-2.9298
-0.37999
0.929562
-0.306684
0.382161
2.42655
10.8055
0.374791
11.8127
-19.8417
4.30321
-5.21431
1.54083
-6.46477
15.1587
20.8824
12.8784
6.12681
0.880609
6.84569
-6.35831
-4.33856
0.473101
-0.868684
-4.53975
-7.38696
-6.51076
-4.36465
10.4433
11.8834
-14.6684
3.10134
13.1384
-4.88518
-13.3241
12.5718
-0.292261
-8.39456
0.332063
-2.47432
0.0350521
19.4928
0.473087
11.4511
-12.5816
-7.47079
-4.81999
11.5733
2.00434
9.6007
-11.799
-5.76719
0.83143
0.649216
13.3619
10.3544
1.36908
-2.29737
-2.59902
21.7975
-6.07015
13.6117
15.1953
-2.3637
-0.404313
5.03175
-117.172
-12.3928
9.73618
6.00618
11.5544
-5.77104
12.8801
0.422746
17.0819
1.76782
10.1481
15.0524
9.4203
2.35923
-7.1269
3.38896
-10.1782
10.1303
4.55832
14.4476
0.218046
18.5097
2.51
19.8803
0.34779
15.324
-2.35201
8.61961
-10.4273
11.034
5.61693
4.2229
18.5652
11.4285
2.77911
-4.10291
6.55229
10.4242
-0.134082
-39.324
8.76588
0.779855
15.563
-5.85217
18.9509
2.14443
25.6846
18.9027
8.46737
7.60701
-10.0858
0.0914004
20.3497
1.51398
-0.863678
-0.735817
20.5153
4.96676
9.99487
16.9254
-7.26941
12.7724
-1.87106
14.3768
0.467152
13.6394
12.1178
17.0256
-0.516355
-24.977
3.12365
-6.75816
5.13321
0.405148
0.764803
15.1551
17.6444
0.170771
2.81277
-1.95199
15.9789
9.21654
10.8998
6.71497
-1.31979
-59.0467
-5.3835
12.1083
-20.4337
-4.99384
0.0283331
8.28553
5.49011
-4.30092
21.4361
-4.77263
18.8596
2.42925
19.6455
-3.09566
0.431277
0.433896
0.322555
9.70821
11.3421
1.15688
-5.26946
0.548993
-4.78013
17.7399
-4.70202
-0.380439
-7.97557
-4.35134
2.94321
14.8508
5.19968
0.451252
0.175864
11.5062
23.0362
-6.56316
0.62221
11.6216
-5.2954
5.10257
0.0938984
8.2447
-5.11199
-52.7157
-3.05372
-3.52891
-0.795576
1.08525
-10.7935
-4.37563
-1.18919
9.82275
12.6147
9.68512
22.3206
-8.66045
20.1227
-56.5601
19.0029
-6.69955
-7.45302
21.5411
3.75695
-3.62788
11.9647
-0.195079
13.194
-10.2114
-16.1115
2.57316
-3.72992
-4.37949
0.0496683
-0.86511
4.15823
15.1494
-6.55412
4.18491
-18.0742
2.24459
-6.49091
-0.0549961
-6.31786
-4.71795
-15.2868
15.5401
0.266636
17.6199
4.1548
-7.26255
3.07976
-12.4814
0.271396
10.3677
14.9681
22.2475
8.29431
9.54819
5.06792
-71.2905
21.3761
23.1968
12.8414
-7.3686
-5.89218
-10.2682
10.8923
7.48201
3.75987
9.48411
-4.74771
-0.0147423
-10.844
18.1109
-1.24675
0.998465
-5.54706
11.4983
2.87296
25.0036
23.1949
10.4461
-1.04882
2.36093
-38.7778
3.71654
23.7752
0.268553
0.222185
8.55263
-0.303681
2.41964
-1.50063
-3.35661
3.05401
1.51001
5.1281
0.214362
2.91294
16.9118
2.63733
12.5884
-5.4642
-3.4624
20.7563
-8.60757
-1.93276
1.7444
4.25229
0.573687
-6.34522
0.609017
0.465018
1.0617
25.0904
-114.816
-13.8267
-5.02939
-10.3002
1.83898
2.08427
-6.26554
-11.3514
0.180496
-19.2476
-11.2789
-4.89609
0.790033
1.14453
0.747044
24.6524
0.158458
3.14304
-0.93029
1.54282
-50.7836
-2.4194
16.4152
11.8486
2.66469
-3.48095
11.2298
12.682
-5.3954
-7.28609
0.426716
16.3074
-5.01821
10.8646
0.0634136
18.722
1.76985
-5.33876
-1.43277
12.8216
-3.36204
10.0847
-7.70894
23.6446
-6.14115
-3.02771
-9.04232
4.47404
-6.10006
-7.07709
-6.03565
2.15971
4.66618
-5.72654
-6.30616
-0.339711
1.40594
-3.69623
-11.0148
9.78155
-11.8002
10.16
-5.95506
12.7171
21.2358
11.1466
-46.2555
12.0706
1.83166
-1.07111
-0.846763
-3.84685
-6.86985
0.748744
-2.68001
4.66073
-0.942871
-11.0081
-2.75097
-10.1895
5.51983
11.6189
-13.7536
-6.25148
-4.56813
0.1986
-3.55812
6.69969
-33.3153
-6.32361
11.6515
-4.49144
6.4408
-6.64139
-10.3207
-7.47577
-8.66507
24.3516
2.98925
-5.16491
2.4184
19.9793
20.8196
-5.23986
-2.02005
11.0935
0.0425703
0.83963
20.4507
6.65474
10.4806
25.3808
-5.09926
2.53326
1.13576
17.9452
11.9681
12.408
15.0853
8.39537
0.356798
0.774716
4.88031
2.92234
-58.5159
21.0129
-7.52831
-8.27399
0.221609
-3.79583
5.48315
-5.45171
-2.29171
2.6595
12.4712
12.6489
13.8993
-5.87771
17.6957
20.4414
-12.7765
7.58649
-0.503284
0.0589231
-0.770063
6.49868
-5.16519
-5.04397
-11.8606
23.0081
-7.05041
13.9162
11.8197
16.2379
8.82321
9.3843
-4.00682
0.244201
6.58069
-0.409446
-12.3608
-15.5663
1.26781
-6.06922
14.8007
-5.58756
0.271882
1.30449
-52.1676
-5.65537
-24.1707
10.5219
-1.87484
0.690379
4.38018
-5.63132
3.70584
-14.6919
-0.450651
12.5248
-7.60523
20.9992
0.207912
22.4156
-0.0222053
0.512419
1.99596
10.5031
10.1072
-25.0685
-0.844957
-3.71953
2.23604
8.26277
25.729
16.2201
3.18579
-4.69595
6.00099
-5.53552
13.895
-1.99261
6.49946
-5.4008
-5.78965
-52.7581
3.34943
0.389008
-66.9873
6.75876
7.88302
20.2378
21.8004
-32.7577
-5.67414
1.04408
-11.947
21.3314
-0.487182
-6.89348
4.58975
8.11655
-4.43977
-1.33214
1.90839
-0.165111
10.919
-4.33691
2.12378
0.967224
-8.30264
-21.0532
-4.17222
-22.0962
-18.267
13.3125
-5.12253
-5.35232
-1.91151
-26.5101
23.3196
8.74392
10.7135
-2.12272
5.59025
-1.06645
4.29779
2.41543
-6.18199
-82.4552
21.2533
12.478
-0.933894
-97.869
24.4607
-5.83566
-85.5282
-5.47423
5.70211
-6.14552
-4.61677
18.0416
-1.54909
10.9132
4.04953
-6.16854
-9.29745
0.802086
5.9149
-24.5087
-0.809926
2.88848
11.4617
-6.43749
-76.5949
0.244363
-2.92121
-13.8493
-11.8453
22.7117
7.05515
-6.98311
5.33106
2.27541
19.7107
6.37958
-97.0623
6.71067
15.0654
13.2755
-4.11487
10.0485
-4.73488
21.1085
0.311518
11.8946
-7.55915
-4.01768
0.184494
-5.45584
6.80399
3.07666
-106.05
-6.26178
14.2401
-4.91286
-1.33292
16.7892
8.82606
16.3902
10.5549
-5.90176
0.133318
-0.240643
11.8333
-0.10889
14.9968
9.22374
20.7825
-6.17763
15.8935
5.35145
20.8721
-6.35291
-7.64849
21.5176
-6.08184
9.01363
-7.31939
18.4954
20.5777
12.9354
-23.3579
11.1323
15.6419
-3.84623
4.11594
-4.94694
16.7478
-5.9788
-5.02571
-8.45373
-11.3073
15.2726
5.21525
-15.1235
5.8749
20.5103
-8.07362
-3.08372
-14.7355
-7.9299
10.0616
-1.01259
11.1817
11.0424
-16.6785
23.5266
-0.882837
17.2014
17.4272
0.824776
0.399073
10.5434
-14.4763
-1.60608
10.4554
8.81025
-5.31922
11.0874
-5.99609
19.1818
12.7737
4.21934
-1.72749
13.5364
-4.36648
6.50954
16.1637
2.91637
0.174545
15.5381
12.7793
-5.5194
-58.8075
9.01063
13.4719
20.9815
-124.186
22.3264
22.038
22.6376
-2.27134
15.0052
-7.48965
11.5388
16.5146
15.6383
13.3381
17.9506
24.9903
9.73913
-124.165
-0.62391
-65.1901
24.7432
6.25814
-4.77886
-6.3123
10.6659
17.8719
11.2109
3.51819
-0.844713
17.7395
-13.3899
12.9253
-6.35031
4.44621
-0.0720541
2.71271
8.10148
-7.2243
-7.06656
-4.46816
-2.88383
-0.31122
14.6782
-3.31224
1.92755
11.0844
-10.2193
7.28806
0.216729
-10.2544
-7.53216
-116.166
17.0573
18.3624
-5.84264
4.55285
15.412
13.8225
0.148625
-5.53418
13.1211
-75.8746
16.6438
-9.87673
16.0206
6.76389
0.240517
14.8702
7.56086
15.892
3.83899
4.58624
-3.99079
-48.6285
-10.9739
-0.0364866
15.5958
-6.16376
-4.51802
-6.15026
17.5156
15.7691
3.23023
8.81428
17.5353
-16.4982
11.2527
0.437971
-4.43346
11.2453
-5.22919
-6.72768
-10.8799
-36.8416
-2.30151
-7.06132
0.401184
-11.5722
-91.0815
9.63519
21.1545
23.4409
19.9821
-6.25143
13.0299
-7.68756
10.8553
17.4471
0.68888
15.2431
-6.11463
3.83717
-3.51769
-1.66018
16.6711
-10.25
13.6596
-6.59857
-3.99121
-32.1985
13.6465
13.5532
11.6
-7.6187
11.1979
-9.31738
-16.7213
-18.0619
3.40191
21.4163
-22.6746
-2.06655
-6.24615
11.7496
10.8676
-0.509361
7.68939
-7.91418
17.7941
16.5066
-4.54816
-3.02277
17.3627
-4.949
-8.4198
-0.627229
15.6953
17.9164
-7.37019
8.25049
-2.84446
20.7557
-14.1372
-4.01761
-0.849282
19.4152
-0.837829
-3.29434
-4.7399
16.6823
8.87155
16.4396
-1.67425
-18.8002
13.306
24.223
-48.086
10.7752
-0.898907
-17.6682
-0.987851
4.05459
-6.60672
8.04776
-6.12611
7.2266
-4.3573
-4.63168
14.9215
18.2139
11.0643
-13.6217
-3.91553
14.1206
-7.31918
3.68924
-4.85098
5.49062
-12.2107
12.4319
14.1122
-1.29073
13.2561
20.5914
-1.93381
9.6151
13.3664
-19.5677
6.71031
-4.62607
5.52985
3.41598
9.24178
0.146512
3.72694
-1.56872
-28.9585
17.1743
3.9317
-5.38566
-4.88246
-1.31265
12.1712
-9.58225
22.5641
-7.16916
-46.5906
-4.80175
15.1809
13.802
16.4427
-62.5785
19.7827
-7.49765
9.37501
1.72275
-12.1197
10.5197
5.17051
-1.62218
7.92272
-64.4169
9.1721
-20.3997
-5.09502
-0.638465
-9.53841
-10.5553
10.566
20.2373
0.576977
-7.56244
15.4805
-12.6409
18.3241
4.72104
-0.615979
6.07017
11.6129
6.1217
-4.45373
0.132129
-0.447668
2.25704
3.4409
-11.3257
-6.10205
0.49052
6.89137
-2.41494
24.8844
12.9632
11.7812
18.5957
1.00777
13.2327
-5.92045
-39.8023
-5.33221
11.3856
24.3424
11.1089
-8.60607
17.081
11.3378
11.5391
0.542173
-1.2903
6.18149
22.7336
1.50561
-4.60196
15.7547
17.5617
12.8211
11.7335
14.6762
8.37942
-7.42517
-5.98126
13.1368
-79.0277
-51.0582
12.1666
-5.52973
-1.94217
2.96372
13.0966
13.6784
13.8528
-2.45769
16.2982
16.7556
-0.179662
14.5675
12.5101
10.3382
8.54891
7.96352
5.71089
-0.638122
15.2132
14.5257
-4.89604
10.935
-2.50682
0.168967
20.0321
15.0427
0.39886
-7.22313
-0.452061
15.598
8.36581
1.6401
0.113276
2.13788
-3.44223
2.49489
-6.63505
-1.83217
8.68176
-1.56488
-8.08936
-7.79481
19.0164
-6.76202
-51.9332
-6.56655
20.2866
-3.29102
2.02202
1.43301
-12.0632
8.96128
10.7099
7.11515
17.8841
9.44479
-0.132819
-90.615
-7.09096
-0.0990606
13.8253
-10.7649
-7.50986
-15.0132
-2.56669
-58.9088
-6.46317
-15.7483
-1.44574
3.65393
11.7402
15.9661
-2.24437
0.174423
17.9034
13.1849
-7.39565
-3.22565
-69.1333
7.00552
1.74928
6.07869
9.63371
-6.11636
-3.13952
-3.26038
2.37525
-6.88397
-99.486
1.55292
-5.49128
-55.3505
-13.4171
-6.84591
1.20222
-50.3236
5.77263
-7.51507
11.2403
10.2736
2.05757
15.3784
-6.95732
20.4298
-4.03232
0.184685
-10.7217
11.7082
6.48963
-56.0408
-45.9558
11.8644
14.3375
21.2308
-7.36451
-73.3783
-6.50856
-1.1073
0.0183323
-7.14433
3.41849
-5.78439
6.97623
-7.604
9.05083
-0.195494
-0.392993
18.2607
10.5449
-11.1731
-0.183227
-12.8051
-126.086
15.5376
23.4695
-79.7967
14.9264
11.2105
0.00598937
-9.63545
14.9658
14.2025
-16.0383
-3.1947
-5.4834
-6.79523
-10.6812
-7.38412
-10.217
7.19379
-0.00957808
12.8384
-7.92474
-13.4847
10.8798
-10.1474
-8.98502
-0.214764
8.65692
-11.759
-5.60111
-15.1595
-7.18274
-6.76475
21.5915
-47.5385
-2.55517
-7.68135
12.7134
-27.747
-2.44606
-12.9105
-8.94465
-4.0999
13.5829
0.234525
-6.66797
10.2318
-0.386847
-3.55032
-11.2671
-8.35018
8.27008
9.55664
11.5791
-32.2465
18.3625
-2.93499
-0.0306062
0.95313
-23.888
-6.14661
-7.66243
-6.49826
1.90794
3.93457
0.52546
-3.51048
-6.96276
11.1366
-8.15167
11.292
-9.54408
6.85857
-2.06522
-4.55461
-2.16954
25.7952
-5.18267
-14.802
-25.6302
-5.56665
11.0648
0.504026
-1.17761
0.682457
-15.956
-7.28601
-81.9756
-6.22435
13.2777
-11.6794
1.13859
-16.7515
-1.24698
10.0223
0.814346
4.60346
-3.6491
15.9983
-27.5499
-4.6175
17.2879
4.46004
-23.7369
-3.34616
-9.96606
-6.42983
-3.78
15.5145
-5.37265
4.25191
-65.8891
-9.83144
-10.3272
-11.4137
-66.7562
6.74556
-1.87607
11.6218
3.56152
-8.10712
19.5995
-6.405
14.6813
18.0396
-14.2054
-0.482189
12.5161
10.9842
9.31029
-5.45877
-8.09396
-8.65028
11.6634
2.62612
-6.07526
-11.0819
6.38451
14.0181
-3.02819
-17.0155
-0.465785
16.9338
-13.4939
-15.2911
0.242391
9.5993
-0.442564
-3.18467
18.4253
14.7578
0.320682
-6.02392
15.2866
5.17971
-1.67762
11.0667
-2.86886
-6.85302
-9.45756
-5.98511
14.296
12.8857
-0.677104
-4.33881
-0.025485
-4.48791
13.1605
-6.0941
9.19478
16.1036
17.4178
-3.45675
11.9076
10.4326
13.4522
14.3311
-2.41949
14.3469
-0.113228
11.486
5.92506
12.7352
-7.10354
14.9928
14.4342
10.2084
7.07539
-4.25059
8.26032
0.726258
-5.1712
16.5738
16.1287
-5.44212
16.1007
-5.88304
-58.7244
12.9184
12.869
-11.1999
-1.2648
-61.7466
-5.86863
-13.1261
-5.56629
-10.7759
-4.03478
10.7485
22.4802
15.4125
-2.44331
-5.50139
12.7856
5.37419
-5.19727
-6.67345
-3.86427
-15.9596
-82.2757
-49.0703
10.5021
0.463391
4.85863
0.26606
0.259722
-3.31286
0.586198
2.181
5.78489
7.48756
-3.86936
5.3673
-24.9558
-7.73084
8.01327
5.77577
-0.542584
0.187695
7.33258
-0.260085
3.84686
-4.35802
11.6751
9.63057
19.5093
11.5604
-5.36459
-3.92854
-4.54273
-3.60371
-0.105675
0.195945
-1.06278
-5.43779
22.8846
1.37198
-5.57226
18.0886
-6.39676
-9.29074
-9.24003
-7.11432
-65.3077
2.41801
-10.934
11.6859
-1.43122
-5.13464
-0.351545
-3.84218
-6.77944
-4.68255
1.03085
8.92509
-6.21111
-5.75228
-11.8449
4.28404
-6.41365
12.8469
18.6489
-3.52364
12.9072
6.50826
8.23173
20.537
-6.64826
6.44493
6.08091
4.52312
17.5034
-4.95681
-1.293
-4.577
12.4771
18.6585
-5.02164
0.206187
-6.02094
-5.39834
5.31596
-4.50846
-13.1208
-3.88515
3.86055
-79.7931
2.58184
3.2202
9.98453
2.35625
-126.395
0.987535
-0.0849805
-1.35513
19.934
22.5565
16.4195
23.6558
9.91433
12.8878
13.7441
11.7224
10.8634
-4.96342
12.1152
-3.69849
-87.6911
17.9787
-1.62516
-6.7922
21.3069
-0.493545
-7.15646
5.85249
4.96242
14.4376
-21.9971
10.3775
19.4821
-6.51
-67.1638
-12.6236
8.22303
-7.56778
15.6772
-1.75678
14.4771
11.6668
-5.93389
14.0315
-4.70465
-104.663
-121.19
-5.66689
14.6781
-5.79018
11.5875
-0.345762
-7.06341
1.40483
-2.7673
-15.3347
-4.18914
-50.5065
14.7843
1.66019
-8.64978
-6.08324
6.94886
3.42091
-5.84486
4.8775
0.383834
5.0388
-15.3539
6.3568
2.55625
7.06732
-0.887757
11.8179
7.1148
2.78396
-35.9916
23.6732
-6.82501
-16.47
11.1799
9.18113
-6.38766
-5.95205
-6.97768
7.15216
6.01372
-5.43469
-1.35717
-2.46335
23.6999
0.567333
-6.18038
1.32811
-4.02484
8.0587
-1.95391
10.9756
6.87931
-7.52044
7.6482
-78.0906
9.27069
4.35522
12.0016
7.91286
0.00669681
0.00390332
5.4507
12.891
-0.201757
1.49409
-19.5272
-7.94265
-3.56582
9.53908
-17.9455
5.62423
-31.2111
14.7216
-7.76463
-3.09299
15.9697
14.2451
4.79544
-6.81135
-53.979
13.0596
-6.25034
14.8225
6.14882
-1.5674
11.878
2.95594
2.75355
2.6877
-3.41207
-4.56694
7.48071
-4.44581
16.3574
4.06875
24.0951
-0.755932
2.79793
14.3998
0.986207
2.95453
12.624
9.97793
7.03326
-6.0714
-0.0298908
11.2991
7.85635
3.39234
-6.48586
-1.21434
-6.92784
-7.1013
-3.7923
10.5168
1.14646
9.6924
-1.776
20.0324
15.3478
3.89717
9.64132
3.43989
-31.4567
10.6365
8.35236
0.0800278
4.73164
14.7784
13.1931
-0.0434333
-6.40857
-17.0382
10.5256
4.93307
-1.06442
12.5709
-6.97069
10.9537
-19.4213
11.7053
5.2186
-0.0929938
4.61552
13.7838
-0.684467
12.1346
15.8521
2.54676
-2.54404
5.88156
1.58926
18.7031
-10.8928
16.8004
13.9532
-8.31256
-3.84997
0.180346
-3.5199
-7.74274
-4.70009
11.1448
17.0383
13.0497
17.2585
7.53065
15.5075
4.16301
1.97093
4.74554
1.11856
0.621599
9.90534
0.490755
18.0442
3.15355
-17.5981
7.85589
17.76
18.7586
-8.41707
6.54725
-4.93052
-84.1108
5.55729
0.342058
-6.02892
5.28787
19.0095
-59.9818